Membrane in water
40347
    1TMC1    C1    1   1.034   1.332  11.952  0.7617 -0.5337  0.6311
    1TMC1    C2    2   0.965   1.445  11.930 -0.1309 -0.6100  0.3637
    1TMC1    C3    3   1.034   1.550  11.876  0.4011 -0.5715 -0.3686
    1TMC1    C4    4   1.170   1.321  11.937 -0.5031 -0.1299  0.2988
    1TMC1    C5    5   1.239   1.426  11.888  0.1333  0.1347  0.3983
    1TMC1    C6    6   1.176   1.544  11.857 -0.2619 -0.7820 -0.8039
    1TMC1     C    7   0.955   1.213  11.985 -0.6838 -0.5516  0.3271
    1TMC1     O    8   0.841   1.214  11.944 -0.0104 -0.7428 -0.2974
    1TMC1     H    9   0.861   1.459  11.957 -0.5799 -1.4628 -0.9005
    1TMC1    H1   10   1.222   1.229  11.959  2.4377  2.3815  3.7270
    1TMC1    H2   11   1.240   1.622  11.819 -0.7106 -0.2285 -0.4392
    1TMC1    C7   12   1.352   1.397  11.803 -0.6666  0.1892  0.8377
    1TMC1    C8   13   0.967   1.683  11.892  0.1721  0.1002 -0.0107
    1TMC1    O1   14   1.342   1.367  11.684  0.2085 -0.1881  0.2632
    1TMC1    O2   15   0.879   1.698  11.975 -0.5075  0.1281  0.1556
    1TMC1    O3   16   1.437   1.332  11.888  0.3234 -0.8850 -0.0915
    1TMC1    H3   17   1.432   1.375  11.976  0.7650 -1.3549  0.1592
    1TMC1    O5   18   1.056   1.777  11.866  1.0324 -0.0061  0.4100
    1TMC1    H5   19   1.100   1.784  11.779  0.9408 -0.3417  0.3353
    2MPD2     C   20   0.834   0.746  12.185 -0.5653 -0.5951 -0.8650
    2MPD2    C1   21   0.763   0.837  12.107 -0.4197 -0.1622 -0.8917
    2MPD2    C2   22   0.833   0.949  12.055  0.1493  1.3111  0.4254
    2MPD2    C3   23   0.965   0.979  12.084 -0.0206 -0.4282  0.7430
    2MPD2    C4   24   1.035   0.881  12.157 -0.2936  0.3239 -0.3278
    2MPD2    C5   25   0.970   0.766  12.206 -0.6163  0.4271  0.9469
    2MPD2     H   26   0.772   1.021  12.002 -0.6106 -0.3164 -0.9477
    2MPD2    H1   27   1.141   0.892  12.175 -0.1506  0.3593 -1.1929
    2MPD2    H2   28   0.788   0.662  12.236  0.2522  0.2615  1.2780
    2MPD2    H3   29   1.026   0.694  12.264 -1.6622  2.3121  4.2665
    2MPD2     N   30   1.018   1.107  12.061  0.4072  0.0675 -0.1902
    2MPD2    H5   31   1.114   1.127  12.088  0.1872  2.0743 -0.8856
    2MPD2    N1   32   0.624   0.834  12.079 -0.3474  0.7215 -0.0469
    2MPD2    H7   33   0.599   0.907  12.014  0.2886  0.1808 -0.9077
    3TMC1    C1   34   4.473   3.164  10.531  0.5246 -0.8668  0.0214
    3TMC1    C2   35   4.413   3.281  10.563  0.0893 -0.7237  0.1075
    3TMC1    C3   36   4.487   3.400  10.542  0.3457  0.4172 -0.5893
    3TMC1    C4   37   4.592   3.164  10.461 -0.5983  0.1845 -0.2263
    3TMC1    C5   38   4.660   3.284  10.448 -0.5691 -0.0819 -0.0693
    3TMC1    C6   39   4.614   3.404  10.499  0.5637 -0.1968  0.7779
    3TMC1     C   40   4.416   3.037  10.567 -0.2617 -0.5850  0.2657
    3TMC1     O   41   4.453   2.934  10.508 -0.5674  0.0341 -0.1805
    3TMC1     H   42   4.309   3.286  10.592 -0.1638 -2.2832 -0.5183
    3TMC1    H1   43   4.632   3.072  10.421  2.2301 -0.0190  3.1310
    3TMC1    H2   44   4.676   3.492  10.492 -0.1576  0.2513  0.0490
    3TMC1    C7   45   0.052   3.286  10.373  0.2491  0.0977  0.3164
    3TMC1    C8   46   4.438   3.522  10.610  1.1657 -0.5711  0.1332
    3TMC1    O1   47   0.093   3.389  10.324  0.3071  0.1787  0.6423
    3TMC1    O2   48   4.357   3.536  10.698 -0.0805  0.2324 -0.1796
    3TMC1    O3   49   0.122   3.173  10.384 -0.5408 -0.4395 -0.6930
    3TMC1    H3   50   0.102   3.112  10.458 -5.5786 -1.4431 -2.8512
    3TMC1    O5   51   4.471   3.605  10.515 -0.6988  0.2414  0.3918
    3TMC1    H5   52   4.493   3.551  10.436 -0.0707  2.3820 -0.8985
    4MPD2     C   53   4.227   2.724  10.915 -0.0672 -0.2457 -0.4522
    4MPD2    C1   54   4.212   2.847  10.962 -0.0053  0.4996  0.1298
    4MPD2    C2   55   4.243   2.956  10.879 -0.5997 -0.2490  0.1315
    4MPD2    C3   56   4.300   2.931  10.757  0.0382  0.4688  0.5336
    4MPD2    C4   57   4.313   2.797  10.719 -0.4020 -0.0086 -0.0749
    4MPD2    C5   58   4.280   2.691  10.795  0.4719 -0.0270  0.3287
    4MPD2     H   59   4.238   3.053  10.927 -0.4160 -0.6897  1.0426
    4MPD2    H1   60   4.365   2.767  10.628  0.6520  1.6285 -0.0163
    4MPD2    H2   61   4.178   2.644  10.970  0.1264 -0.6698 -0.8943
    4MPD2    H3   62   4.285   2.587  10.764 -5.3382 -0.6475  1.3716
    4MPD2     N   63   4.339   3.042  10.677 -0.9848 -0.1233  0.9284
    4MPD2    H5   64   4.323   3.128  10.727  0.4877  1.1245 -0.7370
    4MPD2    N1   65   4.153   2.874  11.089 -0.2583  0.0324  0.3090
    4MPD2    H7   66   4.123   2.969  11.110 -0.9923 -0.2176  0.3771
    5TCq1    O1   67   4.581   3.895  12.283  0.1883 -0.0661  0.2532
    5TCq1    C1   68   4.591   3.859  12.155 -0.0149  0.0018  0.6182
    5TCq1    O2   69   4.681   3.802  12.097  0.4193 -0.8578 -0.2613
    5TCq1    C2   70   4.482   3.929  12.078  0.0815 -0.6029  0.2152
    5TCq1    C3   71   4.360   3.959  12.140 -0.1116  0.2974 -0.0074
    5TCq1    C4   72   4.254   3.993  12.052 -0.3618 -0.0187 -0.6255
    5TCq1    C5   73   4.276   4.025  11.920  0.6142 -0.3568  1.0735
    5TCq1    C6   74   4.399   3.993  11.865 -0.2099 -0.0879  0.6041
    5TCq1    C7   75   4.498   3.945  11.942 -0.6629 -0.0791  0.6305
    5TCq1    C8   76   4.429   3.993  11.724 -0.7381 -0.1241  0.1741
    5TCq1    O4   77   4.540   3.980  11.680  0.0248 -0.9885  0.0292
    5TCq1    C9   78   4.124   4.031  12.108  0.2533 -0.2103 -0.4895
    5TCq1    O5   79   4.041   4.091  12.034 -0.5988  0.1781  0.2705
    5TCq1    O6   80   4.115   4.033  12.232  0.3531 -0.1007 -0.1474
    5TCq1    H1   81   4.546   3.986  12.293  0.3133 -0.1202  1.1987
    5TCq1    H2   82   4.340   3.945  12.246  0.0096 -2.1982 -0.2939
    5TCq1    H3   83   4.190   4.068  11.870  0.7378 -2.0674 -0.5834
    5TCq1    H4   84   4.593   3.915  11.900 -0.8206  1.4906 -0.7949
    6MPD2     C   85   4.175   3.955  11.465  0.0728  0.3958  0.1649
    6MPD2    C1   86   4.296   3.959  11.521 -0.2590 -0.0024  0.6121
    6MPD2    C2   87   4.400   3.936  11.430 -0.1082  0.0598  0.9700
    6MPD2    C3   88   4.379   3.912  11.297 -0.6916  0.4356  0.3990
    6MPD2    C4   89   4.249   3.916  11.244  0.4397 -1.0661 -0.7687
    6MPD2    C5   90   4.150   3.930  11.332 -0.2512 -0.4409  0.1506
    6MPD2     H   91   4.501   3.932  11.471 -0.7501 -1.1524  2.4444
    6MPD2    H1   92   4.226   3.910  11.138  1.1879 -0.8387 -0.9443
    6MPD2    H2   93   4.091   3.985  11.527  0.7355  0.4426  1.0417
    6MPD2    H3   94   4.048   3.938  11.297  0.1013  0.3183 -0.7296
    6MPD2     N   95   4.497   3.878  11.223  0.0208  0.0785  0.5628
    6MPD2    H5   96   4.587   3.881  11.272 -0.3452  1.5088  1.1362
    6MPD2    N1   97   4.306   3.994  11.656  0.8653 -0.1526  0.1861
    6MPD2    H7   98   4.225   3.982  11.715  2.2597 -0.5993  2.0228
    7TCq1    O1   99   1.551   3.524  14.150  0.3148  0.0482  0.3620
    7TCq1    C1  100   1.631   3.581  14.055  0.5713  0.6101 -0.9079
    7TCq1    O2  101   1.649   3.702  14.036 -0.5174 -0.2559  0.0615
    7TCq1    C2  102   1.709   3.467  14.011 -0.4583  1.1224 -0.0595
    7TCq1    C3  103   1.754   3.386  14.113 -0.7902  0.3423  0.1047
    7TCq1    C4  104   1.784   3.255  14.083 -0.0748  0.3408 -0.5207
    7TCq1    C5  105   1.789   3.213  13.954 -0.8528  0.1659 -0.3326
    7TCq1    C6  106   1.738   3.293  13.852  0.2378 -0.6841  0.3586
    7TCq1    C7  107   1.700   3.419  13.883 -0.3415  0.0153 -0.1305
    7TCq1    C8  108   1.701   3.241  13.721 -0.5448 -0.2204  0.0654
    7TCq1    O4  109   1.641   3.318  13.648  0.1903 -0.0618  0.0143
    7TCq1    C9  110   1.830   3.162  14.186  0.5910  0.1700  0.0670
    7TCq1    O5  111   1.884   3.050  14.146  0.7278 -0.5146  0.0887
    7TCq1    O6  112   1.836   3.207  14.305  0.4581 -0.4326  0.1591
    7TCq1    H1  113   1.534   3.432  14.121 -0.4527 -0.2626  1.8322
    7TCq1    H2  114   1.772   3.421  14.215  0.2702 -0.7402  0.2936
    7TCq1    H3  115   1.823   3.115  13.922  0.3875  0.7131 -0.6879
    7TCq1    H4  116   1.651   3.476  13.805  1.9990  2.2772  0.0664
    8MPD2     C  117   1.610   2.841  13.432  0.1728 -0.1202 -0.8314
    8MPD2    C1  118   1.731   2.812  13.486 -0.3073 -0.0203  1.2693
    8MPD2    C2  119   1.781   2.913  13.570  0.4189  0.0035  0.1471
    8MPD2    C3  120   1.714   3.033  13.590 -0.6415  0.2853 -0.4402
    8MPD2    C4  121   1.600   3.052  13.520  0.3087 -0.8409 -0.4284
    8MPD2    C5  122   1.541   2.960  13.443 -0.6509  0.6847  0.4417
    8MPD2     H  123   1.871   2.895  13.627 -0.2425  1.4539  1.6359
    8MPD2    H1  124   1.549   3.147  13.525  1.0726 -0.4373 -0.4513
    8MPD2    H2  125   1.556   2.763  13.380 -1.2120  1.2112 -1.3764
    8MPD2    H3  126   1.445   2.985  13.400 -1.1572  0.5577  1.4892
    8MPD2     N  127   1.766   3.124  13.691 -0.3514  0.0213  0.2577
    8MPD2    H5  128   1.847   3.094  13.744 -0.1702 -0.7816 -0.4650
    8MPD2    N1  129   1.808   2.698  13.464  0.0199  0.0495 -0.1910
    8MPD2    H7  130   1.887   2.685  13.527  1.0783 -2.5147 -2.0506
    9TMC1    C1  131   0.287   2.649  11.064 -0.0590 -0.2921 -0.3806
    9TMC1    C2  132   0.239   2.568  10.963 -0.9709  0.4110  0.2366
    9TMC1    C3  133   0.276   2.600  10.834 -0.4232 -0.4445  0.3593
    9TMC1    C4  134   0.362   2.762  11.036  0.2271  0.1172 -0.9358
    9TMC1    C5  135   0.392   2.792  10.906 -0.0497 -0.0631 -0.2800
    9TMC1    C6  136   0.364   2.704  10.805 -0.4150  0.1474  0.2948
    9TMC1     C  137   0.239   2.625  11.197  0.3110  0.1740  0.5079
    9TMC1     O  138   0.241   2.724  11.275 -0.6565  0.2164  0.2727
    9TMC1     H  139   0.166   2.491  10.986 -0.7360 -0.0715 -0.6178
    9TMC1    H1  140   0.385   2.829  11.118  0.0287  1.3376 -1.8716
    9TMC1    H2  141   0.411   2.711  10.708 -1.7508 -1.9414 -0.5103
    9TMC1    C7  142   0.457   2.917  10.876 -0.6427  0.4938 -0.3492
    9TMC1    C8  143   0.209   2.527  10.731  0.0895  0.3329 -0.6003
    9TMC1    O1  144   0.493   3.002  10.963  0.1135 -0.1103  0.3960
    9TMC1    O2  145   0.195   2.406  10.732 -0.2842 -0.8134 -0.1879
    9TMC1    O3  146   0.399   2.953  10.760  0.5948  0.6052  0.3101
    9TMC1    H3  147   0.333   2.888  10.729 -0.9408  2.4310 -0.1934
    9TMC1    O5  148   0.220   2.606  10.623  0.5369  0.1953  0.3375
    9TMC1    H5  149   0.201   2.697  10.652 -1.7662 -0.0110 -0.5333
   10MPD2     C  150   0.114   2.537  11.464 -0.2313  0.6843  0.3857
   10MPD2    C1  151   0.137   2.456  11.351  0.2164 -0.8484  0.0407
   10MPD2    C2  152   0.142   2.321  11.362 -0.4324 -0.0981 -0.2324
   10MPD2    C3  153   0.128   2.264  11.488 -0.1743  0.1865 -0.6252
   10MPD2    C4  154   0.109   2.341  11.599 -0.0980  0.7739 -0.2270
   10MPD2    C5  155   0.104   2.475  11.588 -0.3116 -0.1270  0.4664
   10MPD2     H  156   0.170   2.267  11.272 -0.8561  0.6230 -0.7979
   10MPD2    H1  157   0.105   2.291  11.695  0.8654 -1.6003 -1.4270
   10MPD2    H2  158   0.105   2.644  11.446  0.8678  1.0829  2.2120
   10MPD2    H3  159   0.092   2.536  11.677  1.5836 -0.3712  0.8790
   10MPD2     N  160   0.156   2.131  11.528  0.1931 -0.2135  0.3409
   10MPD2    H5  161   0.128   2.103  11.622  0.3428 -2.6909 -0.3633
   10MPD2    N1  162   0.192   2.500  11.228 -0.1005  0.4291 -0.0033
   10MPD2    H7  163   0.214   2.431  11.157  2.0632  1.4324 -0.3047
   11TCq1    O1  164   0.230   1.870  14.761 -0.2640  0.4733 -0.1661
   11TCq1    C1  165   0.352   1.898  14.720 -0.3113  0.2176 -0.0021
   11TCq1    O2  166   0.431   1.971  14.775  0.0506 -0.4744  0.5641
   11TCq1    C2  167   0.376   1.850  14.590  1.1579  0.3663  0.1394
   11TCq1    C3  168   0.508   1.820  14.565 -0.7180 -0.4032  0.5003
   11TCq1    C4  169   0.544   1.793  14.434  0.1551 -0.2730 -0.3173
   11TCq1    C5  170   0.454   1.821  14.335  0.4932 -0.2176 -0.4944
   11TCq1    C6  171   0.325   1.848  14.367 -0.6461  0.2421  0.4576
   11TCq1    C7  172   0.276   1.854  14.496  0.1400 -0.0074  0.2644
   11TCq1    C8  173   0.230   1.869  14.256  0.0545  0.5499 -0.0788
   11TCq1    O4  174   0.126   1.930  14.278  0.0872  0.6248 -0.3309
   11TCq1    C9  175   0.683   1.774  14.402  0.9988 -0.1378 -0.3117
   11TCq1    O5  176   0.764   1.753  14.499 -0.2829 -0.1367 -0.0646
   11TCq1    O6  177   0.711   1.770  14.282 -0.0776  0.0029  0.4147
   11TCq1    H1  178   0.188   1.807  14.699 -2.3565  1.8538 -0.1541
   11TCq1    H2  179   0.576   1.816  14.649 -1.6041  1.0593  1.2960
   11TCq1    H3  180   0.482   1.809  14.231 -0.7304 -1.3104 -0.6949
   11TCq1    H4  181   0.171   1.878  14.507 -0.1818 -1.4512  0.3243
   12MPD2     C  182   0.100   1.862  13.993  0.7180 -0.0953  0.4267
   12MPD2    C1  183   0.187   1.762  14.032 -0.4314  0.2947 -0.1488
   12MPD2    C2  184   0.227   1.665  13.944 -0.4229 -0.2144 -0.5430
   12MPD2    C3  185   0.165   1.651  13.821 -0.1146 -0.5420 -0.1001
   12MPD2    C4  186   0.078   1.753  13.782  0.0677  0.2738 -1.1878
   12MPD2    C5  187   0.049   1.856  13.867  0.4670 -0.3151  0.4884
   12MPD2     H  188   0.298   1.596  13.987  0.8089  0.9760 -0.6753
   12MPD2    H1  189   0.036   1.754  13.683  1.1586 -1.1508 -1.6726
   12MPD2    H2  190   0.074   1.938  14.065 -0.0644 -0.6644  0.7473
   12MPD2    H3  191   4.721   1.935  13.824  0.9223 -0.8912 -1.2092
   12MPD2     N  192   0.188   1.543  13.733 -0.3878  0.0465  0.0348
   12MPD2    H5  193   0.160   1.553  13.636 -1.2665  1.0876  0.4046
   12MPD2    N1  194   0.254   1.776  14.155  0.3062 -0.6406  0.1394
   12MPD2    H7  195   0.326   1.705  14.167  2.2667  1.0042 -2.1154
   13TCq1    O1  196   4.540   3.242  11.073 -0.2828 -0.1760  0.0908
   13TCq1    C1  197   4.513   3.211  10.941 -0.1685  0.2449  0.1068
   13TCq1    O2  198   4.401   3.231  10.892 -0.7810  0.4438  0.4571
   13TCq1    C2  199   4.588   3.088  10.916 -0.3188  0.3180  0.4046
   13TCq1    C3  200   4.663   3.072  10.807 -0.2085 -0.1438  0.1618
   13TCq1    C4  201   0.010   2.963  10.797  0.0947  0.5849  0.2720
   13TCq1    C5  202   4.731   2.861  10.885  0.0698  0.6011  0.3713
   13TCq1    C6  203   4.631   2.865  10.976  0.5390 -0.8607  0.4201
   13TCq1    C7  204   4.565   2.987  11.006  0.0470  0.0812 -0.1572
   13TCq1    C8  205   4.583   2.747  11.046  0.9885 -0.2338 -0.5243
   13TCq1    O4  206   4.530   2.772  11.149 -0.2238  0.0693 -0.5370
   13TCq1    C9  207   0.086   2.943  10.680  0.3081  0.0614  0.0144
   13TCq1    O5  208   0.164   2.846  10.690 -0.5092 -0.3888 -0.2645
   13TCq1    O6  209   0.065   3.014  10.576 -0.2079 -0.5251  0.0446
   13TCq1    H1  210   4.637   3.244  11.084  0.1746  1.3201 -4.0647
   13TCq1    H2  211   4.655   3.155  10.738 -0.9550  0.8434  1.4425
   13TCq1    H3  212   0.052   2.768  10.871  0.7339  0.7114  2.1700
   13TCq1    H4  213   4.501   3.007  11.092  0.2953  0.1083  0.0193
   14MPD2     C  214   4.640   2.389  10.974  0.0464 -0.0534 -0.3787
   14MPD2    C1  215   4.606   2.502  11.043 -0.1290  0.2439 -0.5545
   14MPD2    C2  216   4.562   2.486  11.176  0.4569 -0.1387 -0.3717
   14MPD2    C3  217   4.547   2.364  11.225  0.2891  0.5762  0.0022
   14MPD2    C4  218   4.585   2.250  11.156 -0.6299 -0.1987 -0.7597
   14MPD2    C5  219   4.630   2.262  11.026  0.8490  0.5727  0.6941
   14MPD2     H  220   4.529   2.574  11.230 -1.6224 -0.6022 -0.8899
   14MPD2    H1  221   4.577   2.153  11.204  2.7918  0.1341  0.4400
   14MPD2    H2  222   4.668   2.403  10.871  1.4731 -0.3164 -0.0275
   14MPD2    H3  223   4.664   2.174  10.972 -0.4465  0.2284  0.4347
   14MPD2     N  224   4.497   2.359  11.356 -0.4535  0.2964  0.4294
   14MPD2    H5  225   4.474   2.452  11.389 -2.0281 -0.0711  0.3772
   14MPD2    N1  226   4.615   2.628  10.985  0.3242 -0.7803  0.3663
   14MPD2    H7  227   4.654   2.630  10.891 -2.8697 -1.4560 -0.9932
   15TCq1    O1  228   2.786   2.145   1.693 -0.2287  0.1566  0.2841
   15TCq1    C1  229   2.826   2.019   1.662  0.4968 -0.0237 -0.9592
   15TCq1    O2  230   2.944   1.973   1.662  0.0323 -0.4559  0.1582
   15TCq1    C2  231   2.714   1.951   1.590  0.0828  0.6551 -0.7399
   15TCq1    C3  232   2.604   2.019   1.548  0.6431  0.2723  0.2826
   15TCq1    C4  233   2.487   1.960   1.497 -0.3297  0.0970 -0.1937
   15TCq1    C5  234   2.478   1.823   1.493  0.8011 -0.4686  0.4896
   15TCq1    C6  235   2.594   1.756   1.532  0.0687  0.4666 -0.6448
   15TCq1    C7  236   2.705   1.812   1.588  0.1978  0.1082  0.1082
   15TCq1    C8  237   2.589   1.614   1.517 -0.2059 -0.2918  0.0236
   15TCq1    O4  238   2.689   1.549   1.492  0.4964 -0.0072 -0.7339
   15TCq1    C9  239   2.366   2.049   1.470  0.3019  0.1001 -0.1941
   15TCq1    O5  240   2.259   1.981   1.450  0.2894 -0.3350  0.6592
   15TCq1    O6  241   2.381   2.173   1.484  0.1904 -0.3653  0.7513
   15TCq1    H1  242   2.690   2.144   1.710 -0.2797  0.0311 -0.0180
   15TCq1    H2  243   2.587   2.126   1.560  0.5337  0.2938 -0.0574
   15TCq1    H3  244   2.397   1.783   1.433  0.1390  1.2591  0.2262
   15TCq1    H4  245   2.783   1.746   1.624  1.2554  1.9184  1.0801
   16MPD2     C  246   2.276   1.439   1.447 -0.5195  0.2691 -0.2682
   16MPD2    C1  247   2.412   1.453   1.454  0.8151 -0.5815 -0.4183
   16MPD2    C2  248   2.496   1.355   1.397  0.8063  0.1478 -0.4627
   16MPD2    C3  249   2.453   1.246   1.328 -0.2855  0.2424 -0.0384
   16MPD2    C4  250   2.319   1.235   1.312  0.4325 -0.1572 -0.4715
   16MPD2    C5  251   2.238   1.337   1.365 -0.0067  0.7529  0.1463
   16MPD2     H  252   2.603   1.356   1.413  0.2808 -0.2261  3.0652
   16MPD2    H1  253   2.277   1.148   1.264  1.5600 -1.1671  0.3778
   16MPD2    H2  254   2.203   1.512   1.480 -1.8483  0.0135 -2.6030
   16MPD2    H3  255   2.132   1.327   1.343  0.2974  1.4621 -1.6861
   16MPD2     N  256   2.542   1.149   1.286  1.3992  0.1156  0.6511
   16MPD2    H5  257   2.637   1.165   1.320  2.1281 -1.5846 -0.5497
   16MPD2    N1  258   2.463   1.566   1.524  0.0931  0.7585  0.1072
   16MPD2    H7  259   2.393   1.623   1.570 -0.4484  1.0106 -1.0452
   17TMC1    C1  260   4.278   0.641  11.409 -0.3316  0.4440 -0.1370
   17TMC1    C2  261   4.379   0.587  11.494 -0.3194 -0.4197 -0.3451
   17TMC1    C3  262   4.337   0.497  11.588 -0.8592 -0.6224 -0.4045
   17TMC1    C4  263   4.152   0.596  11.421  0.1705  0.0921 -0.4968
   17TMC1    C5  264   4.115   0.507  11.515 -0.9219 -0.2902  0.5965
   17TMC1    C6  265   4.213   0.452  11.600 -0.7272  0.3084 -0.6339
   17TMC1     C  266   4.318   0.743  11.311  0.1222  0.4248  0.2271
   17TMC1     O  267   4.240   0.783  11.223  0.5957  0.0174  0.0648
   17TMC1     H  268   4.483   0.605  11.468 -0.8198  2.1558 -0.6225
   17TMC1    H1  269   4.086   0.647  11.352  0.6300  0.1867 -0.8654
   17TMC1    H2  270   4.190   0.380  11.678 -0.4149  0.2173 -0.6245
   17TMC1    C7  271   3.989   0.435  11.512 -0.5883 -0.2435  0.4888
   17TMC1    C8  272   4.422   0.481  11.705  0.5087  0.6143  0.3952
   17TMC1    O1  273   3.942   0.373  11.605  0.3512 -0.0182  0.6438
   17TMC1    O2  274   4.422   0.389  11.785  0.3512 -0.0987  0.4388
   17TMC1    O3  275   3.957   0.412  11.381  0.4114  0.5190 -0.2920
   17TMC1    H3  276   4.021   0.443  11.314  0.7449 -0.6952 -0.5388
   17TMC1    O5  277   4.456   0.607  11.750  0.1399 -0.5496  0.3408
   17TMC1    H5  278   4.415   0.674  11.691 -0.1799  0.0471  1.2382
   18MPD2     C  279   4.489   0.928  11.130  0.0776  0.0054  0.3481
   18MPD2    C1  280   4.519   0.886  11.257 -0.0542 -0.4457 -0.6818
   18MPD2    C2  281   4.642   0.946  11.311  0.0881  0.0741  0.5912
   18MPD2    C3  282   4.723   1.030  11.242  0.7559 -0.8998 -0.1528
   18MPD2    C4  283   4.683   1.074  11.118  0.3568 -0.0754 -0.0124
   18MPD2    C5  284   4.567   1.018  11.066  0.3170  0.3632  0.5912
   18MPD2     H  285   4.670   0.897  11.403 -0.9249  0.5348  1.1423
   18MPD2    H1  286   0.014   1.145  11.066  0.8219 -0.5645 -0.1173
   18MPD2    H2  287   4.400   0.888  11.082  0.4208 -0.2488 -0.0704
   18MPD2    H3  288   4.550   1.033  10.959 -1.1885 -0.2447  0.7417
   18MPD2     N  289   0.119   1.064  11.292 -0.2493 -0.1319  0.2662
   18MPD2    H5  290   0.180   1.120  11.233 -0.3050 -0.7004 -0.3285
   18MPD2    N1  291   4.441   0.798  11.343 -0.1364 -0.1178  0.4529
   18MPD2    H7  292   4.489   0.775  11.430  1.2447 -2.2377 -0.8635
   19TMC2    C1  293   1.492   1.733  14.250 -0.5191 -0.0496  0.8731
   19TMC2    C2  294   1.410   1.825  14.184  0.2680 -0.1483  0.1665
   19TMC2    C3  295   1.282   1.787  14.153  0.4684 -0.4827 -0.0370
   19TMC2    C4  296   1.448   1.605  14.283  0.6166 -0.1296 -0.0583
   19TMC2    C5  297   1.317   1.578  14.253 -0.0269 -0.3310  0.4820
   19TMC2    C6  298   1.243   1.654  14.172 -0.0398  0.2498  0.1118
   19TMC2     C  299   1.633   1.764  14.230 -0.2476  0.9837  0.0044
   19TMC2     O  300   1.661   1.874  14.185  0.4000  0.1180  0.8147
   19TMC2     H  301   1.439   1.928  14.172  0.2356 -0.5560 -3.2996
   19TMC2    H1  302   1.512   1.528  14.326 -1.3353 -1.2087  0.9234
   19TMC2    H2  303   1.153   1.620  14.122  2.1702 -2.9216 -1.7225
   19TMC2    C7  304   1.260   1.448  14.283 -0.3759 -0.5042  0.0366
   19TMC2    C8  305   1.179   1.876  14.100  0.1156  0.3505 -0.2784
   19TMC2    O1  306   1.339   1.359  14.286 -0.4954  0.2603  0.6306
   19TMC2    O2  307   1.219   1.975  14.041  0.0142  0.1624  0.2527
   19TMC2    O5  308   1.107   1.882  14.215 -0.3340 -0.0399 -0.0747
   19TMC2    H5  309   1.072   1.794  14.239 -0.5087  0.0572  0.0301
   20MPD2     C  310   1.910   1.810  14.301  0.1184  0.5894  0.4990
   20MPD2    C1  311   1.841   1.701  14.348  0.5878  0.8719 -0.2350
   20MPD2    C2  312   1.909   1.601  14.410  0.2904 -0.3455  0.1064
   20MPD2    C3  313   2.047   1.604  14.436 -0.1459  0.3909 -0.5067
   20MPD2    C4  314   2.115   1.721  14.387  0.9511  0.1511 -0.4334
   20MPD2    C5  315   2.048   1.815  14.317  0.3140 -0.2635  0.6465
   20MPD2     H  316   1.850   1.518  14.448 -1.3166 -0.0890 -1.8239
   20MPD2    H1  317   2.221   1.732  14.403  1.0485 -1.8649  0.3203
   20MPD2    H2  318   1.862   1.891  14.247 -0.4293  0.3191  0.5856
   20MPD2    H3  319   2.105   1.903  14.290  0.7245 -0.5485  0.5914
   20MPD2     N  320   2.119   1.504  14.511 -0.0687 -0.1518  0.5473
   20MPD2    H5  321   2.220   1.517  14.515 -0.1187  0.5974 -0.5818
   20MPD2    N1  322   1.707   1.674  14.308  0.2643  0.1425  0.9610
   20MPD2    H7  323   1.673   1.591  14.356 -0.4865  1.1622  2.1769
   21TMC2    C1  324   4.045   1.462  14.554  0.3813  0.2587  0.7708
   21TMC2    C2  325   4.064   1.379  14.663 -0.1797 -0.0818 -0.2704
   21TMC2    C3  326   4.060   1.439  14.781  0.6035  0.2402 -0.1824
   21TMC2    C4  327   4.031   1.600  14.573  0.1048 -1.2045 -0.3101
   21TMC2    C5  328   4.016   1.645  14.698  0.2439 -0.6486 -0.1149
   21TMC2    C6  329   4.032   1.565  14.809 -0.1595 -0.2159  0.4325
   21TMC2     C  330   4.128   1.416  14.448  0.1954  0.0924  0.4394
   21TMC2     O  331   4.226   1.348  14.473  0.5363  0.1824 -0.3954
   21TMC2     H  332   4.077   1.272  14.654  1.1436  0.0171  0.3963
   21TMC2    H1  333   4.030   1.676  14.495 -1.1643  0.3905  1.2457
   21TMC2    H2  334   4.025   1.601  14.912  0.5642 -2.8622  1.4138
   21TMC2    C7  335   4.020   1.788  14.711 -0.0387 -0.5629 -0.8554
   21TMC2    C8  336   4.118   1.360  14.882 -0.4652  0.0024  0.5680
   21TMC2    O1  337   4.102   1.828  14.798 -0.2043 -0.5399 -0.1872
   21TMC2    O2  338   4.133   1.239  14.857 -0.4065  0.2461 -0.5234
   21TMC2    O5  339   4.214   1.442  14.931 -0.5647  0.3375 -0.3048
   21TMC2    H5  340   4.222   1.517  14.868 -4.4316  0.1726 -1.0057
   22MPD2     C  341   4.237   1.385  13.954  0.4698 -0.0873  0.1966
   22MPD2    C1  342   4.315   1.358  14.062 -0.9163  0.0167 -0.7253
   22MPD2    C2  343   4.262   1.386  14.183  0.0665  1.0293 -0.1569
   22MPD2    C3  344   4.131   1.424  14.206 -0.7157  0.6225 -0.4628
   22MPD2    C4  345   4.054   1.453  14.094 -0.0446  0.3913 -0.2259
   22MPD2    C5  346   4.114   1.441  13.972 -0.2834 -0.4857 -0.1650
   22MPD2     H  347   4.334   1.366  14.261 -1.0803 -1.7530  0.1892
   22MPD2    H1  348   3.957   1.499  14.112 -0.0769  1.2408 -2.6549
   22MPD2    H2  349   4.270   1.381  13.850 -0.8715 -3.6209 -0.0901
   22MPD2    H3  350   4.051   1.467  13.888 -1.7706 -1.0478  0.7706
   22MPD2     N  351   4.076   1.451  14.330  0.3721 -0.1136  0.0481
   22MPD2    H5  352   3.981   1.486  14.331  0.9521  1.4699 -0.4188
   22MPD2    N1  353   4.446   1.299  14.060 -0.0009  0.0718  0.2962
   22MPD2    H7  354   4.488   1.275  14.150  0.3004  1.3607  0.4983
   23TMC2    C1  355   0.179   2.719  14.715 -0.1881  0.3374 -0.1027
   23TMC2    C2  356   0.145   2.846  14.670  0.3377 -0.0232  0.1551
   23TMC2    C3  357   0.032   2.865  14.605  0.5330  0.4548  0.6046
   23TMC2    C4  358   0.093   2.619  14.686  0.2510  0.1133 -0.0844
   23TMC2    C5  359   4.705   2.645  14.632  0.3656  0.6856 -0.5010
   23TMC2    C6  360   4.665   2.770  14.595 -0.2425  0.1720  0.5005
   23TMC2     C  361   0.284   2.700  14.812 -0.8190  0.1575 -0.5630
   23TMC2     O  362   0.299   2.586  14.859 -0.6584 -0.7065 -0.1225
   23TMC2     H  363   0.198   2.937  14.698  0.5413 -0.5924  1.6213
   23TMC2    H1  364   0.136   2.521  14.698  0.5291 -0.0711 -2.5560
   23TMC2    H2  365   4.559   2.790  14.593 -0.4963 -1.3982 -1.3914
   23TMC2    C7  366   4.610   2.528  14.608  0.0543  0.1669 -0.2367
   23TMC2    C8  367   0.016   2.987  14.533  0.5751 -0.5295 -0.2790
   23TMC2    O1  368   4.637   2.410  14.638 -0.1204  0.5048 -0.3234
   23TMC2    O2  369   0.064   3.091  14.579  0.0777 -0.6017 -0.0554
   23TMC2    O5  370   0.020   2.942  14.403  0.0016 -0.0016 -0.3579
   23TMC2    H5  371   0.016   2.844  14.401  3.0870 -0.1263 -0.3047
   24MPD2     C  372   0.608   2.915  15.134 -1.6677  0.2163 -0.3114
   24MPD2    C1  373   0.536   2.791  15.145 -0.2351  0.0016  0.0816
   24MPD2    C2  374   0.450   2.769  15.042  0.2571  1.0134  0.7439
   24MPD2    C3  375   0.428   2.853  14.937  0.1034  0.1948  0.1064
   24MPD2    C4  376   0.502   2.967  14.933  0.1502 -0.1700  0.0703
   24MPD2    C5  377   0.590   2.993  15.033  0.1302 -0.1603 -0.0858
   24MPD2     H  378   0.386   2.683  15.056  2.3170 -1.0467 -2.2816
   24MPD2    H1  379   0.483   3.044  14.859 -0.3876 -0.2297  0.1479
   24MPD2    H2  380   0.685   2.951  15.202 -1.4386 -0.8837  0.0232
   24MPD2    H3  381   0.637   3.090  15.031  1.1071 -0.6518 -0.8360
   24MPD2     N  382   0.344   2.818  14.837  0.0167 -0.3654  0.0731
   24MPD2    H5  383   0.319   2.891  14.771 -1.5241 -1.7210 -0.8528
   24MPD2    N1  384   0.562   2.700  15.250  0.4044 -0.1932 -0.0104
   24MPD2    H7  385   0.507   2.617  15.233  2.2226 -1.7753  1.8077
   25TMC2    C1  386   4.727   0.328  11.943  0.3490  0.3594  0.5540
   25TMC2    C2  387   0.056   0.442  11.901  0.6125  0.1884 -0.7159
   25TMC2    C3  388   0.009   0.569  11.925 -0.1218 -0.6901  0.4000
   25TMC2    C4  389   4.613   0.344  12.009  0.9199 -0.8293 -0.2370
   25TMC2    C5  390   4.568   0.468  12.043  0.2062  0.2233  0.9459
   25TMC2    C6  391   4.634   0.584  12.006  0.1726  0.3183 -0.0196
   25TMC2     C  392   0.009   0.219  11.852  0.9640 -0.0953  0.0873
   25TMC2     O  393   0.123   0.204  11.814  0.2330 -0.2708 -0.2874
   25TMC2     H  394   0.129   0.422  11.823 -0.6183 -1.2214 -1.4917
   25TMC2    H1  395   4.556   0.255  12.034  0.1389 -0.5201 -0.9169
   25TMC2    H2  396   4.621   0.682  12.051 -0.4020 -0.3960  1.3615
   25TMC2    C7  397   4.448   0.483  12.116  0.1802  0.5399  0.5170
   25TMC2    C8  398   0.073   0.686  11.869  0.2711 -0.1287  0.0361
   25TMC2    O1  399   4.422   0.395  12.199  0.2561 -0.5000 -0.5050
   25TMC2    O2  400   0.181   0.681  11.814  0.0165 -0.0643  0.2500
   25TMC2    O5  401   4.725   0.791  11.843 -0.7956 -0.0071  0.5445
   25TMC2    H5  402   4.647   0.796  11.902 -0.8618  0.5563  0.4064
   26MPD2     C  403   4.550   4.620  11.515  0.1200  0.0756 -0.0751
   26MPD2    C1  404   4.452   4.711  11.553 -0.2703  0.3451  0.0559
   26MPD2    C2  405   4.471   0.082  11.642  0.0539 -0.1113  0.0569
   26MPD2    C3  406   4.601   0.089  11.697 -0.2212  0.0523 -0.2892
   26MPD2    C4  407   4.700   4.729  11.661  0.5420  0.4601 -0.4237
   26MPD2    C5  408   4.670   4.634  11.573  0.0686  0.0249 -0.4627
   26MPD2     H  409   4.402   0.161  11.664  1.2172  1.1960 -0.9799
   26MPD2    H1  410   0.065   4.718  11.707  0.0369 -0.6274  0.3715
   26MPD2    H2  411   4.522   4.536  11.453  3.6001  0.2919 -1.9454
   26MPD2    H3  412   0.015   4.560  11.552  1.1633  1.0615 -0.0822
   26MPD2     N  413   4.622   0.183  11.800 -0.1731 -0.0072  0.6662
   26MPD2    H5  414   4.543   0.234  11.837  1.4244  2.1851  1.0642
   26MPD2    N1  415   4.324   4.705  11.483  0.5335  0.6973  0.1630
   26MPD2    H7  416   4.313   4.656  11.394 -0.3290  0.2294  0.5262
   27TMC2    C1  417   3.047   2.482  12.329  0.1831  0.4549  0.1505
   27TMC2    C2  418   2.966   2.501  12.223 -0.6166  0.0097 -0.2386
   27TMC2    C3  419   2.966   2.628  12.167  0.4268 -0.4545 -0.0210
   27TMC2    C4  420   3.123   2.578  12.379  0.1803  0.2120 -0.4897
   27TMC2    C5  421   3.104   2.706  12.344  0.3144  0.0113  0.2616
   27TMC2    C6  422   3.033   2.732  12.230 -0.5863  0.0900 -0.3401
   27TMC2     C  423   2.983   2.390  12.419  0.6803 -0.8430 -0.8429
   27TMC2     O  424   3.059   2.349  12.506 -0.0393  0.4713  0.2068
   27TMC2     H  425   2.913   2.418  12.179  1.4720 -1.0949 -0.7050
   27TMC2    H1  426   3.152   2.565  12.483 -2.2714  0.8335  0.2656
   27TMC2    H2  427   3.013   2.832  12.193  0.7826  1.0291  1.4702
   27TMC2    C7  428   3.067   2.790  12.464 -0.1431 -0.5296 -0.2639
   27TMC2    C8  429   2.890   2.659  12.048 -0.2919  0.2788  0.5554
   27TMC2    O1  430   3.100   2.769  12.578  0.2174  0.6359  0.6914
   27TMC2    O2  431   2.836   2.765  12.017  0.0712  0.5551 -0.0813
   27TMC2    O5  432   2.948   2.576  11.949 -0.0736  0.7058  0.0453
   27TMC2    H5  433   3.005   2.502  11.982 -3.8376 -3.0381 -1.8641
   28MPD2     C  434   2.589   2.226  12.701 -0.5313 -0.2621  0.6284
   28MPD2    C1  435   2.548   2.335  12.624  0.6204 -0.2616 -0.3042
   28MPD2    C2  436   2.634   2.402  12.536  0.1771 -0.6459 -0.3593
   28MPD2    C3  437   2.768   2.354  12.527 -0.2906  0.4984 -0.1684
   28MPD2    C4  438   2.805   2.245  12.605 -0.2455  0.3339 -0.5238
   28MPD2    C5  439   2.721   2.189  12.690 -0.0752 -0.5308 -0.2143
   28MPD2     H  440   2.594   2.484  12.478  2.0051  0.6324  0.1603
   28MPD2    H1  441   2.903   2.201  12.592 -0.2004  0.2027  0.2183
   28MPD2    H2  442   2.528   2.170  12.771 -0.8176  1.2259  1.5739
   28MPD2    H3  443   2.762   2.105  12.746 -1.1224 -0.4721  0.6356
   28MPD2     N  444   2.846   2.408  12.425  0.1611  0.1759 -0.1113
   28MPD2    H5  445   2.803   2.474  12.361  0.7623 -1.2573 -1.9862
   28MPD2    N1  446   2.412   2.356  12.625 -0.1343  0.6480 -0.9888
   28MPD2    H7  447   2.369   2.286  12.684  0.7688 -1.2956 -2.6137
   29TMC2    C1  448   2.749   0.244  14.213  0.3819 -0.3555  0.3060
   29TMC2    C2  449   2.679   0.327  14.303 -0.4233 -0.1143 -0.1175
   29TMC2    C3  450   2.755   0.433  14.343  0.5717 -0.3907  0.1651
   29TMC2    C4  451   2.879   0.261  14.168  0.3437 -0.0974  0.3733
   29TMC2    C5  452   2.945   0.373  14.215 -1.1084  0.0056  0.6416
   29TMC2    C6  453   2.877   0.460  14.292 -0.2276  0.2186 -0.3338
   29TMC2     C  454   2.675   0.130  14.161 -0.2869  0.2601  0.0703
   29TMC2     O  455   2.737   0.059  14.086  0.1454 -0.2581 -0.2717
   29TMC2     H  456   2.589   0.294  14.353  1.4346 -1.4788  2.2978
   29TMC2    H1  457   2.935   0.188  14.111 -1.5851 -1.2864  0.0024
   29TMC2    H2  458   2.924   0.556  14.307 -0.9235  0.0653  2.7331
   29TMC2    C7  459   3.075   0.393  14.148 -0.4355 -0.2446 -0.5906
   29TMC2    C8  460   2.696   0.512  14.441  0.1070 -0.4408  0.6044
   29TMC2    O1  461   3.099   0.326  14.050 -0.0457  0.0419  0.1382
   29TMC2    O2  462   2.604   0.478  14.509  0.8487  0.0835 -0.1060
   29TMC2    O5  463   2.730   0.642  14.419  0.8041 -0.0946  0.1901
   29TMC2    H5  464   2.769   0.663  14.331  0.6147 -0.4589  0.0230
   30MPD2     C  465   2.242   4.569  14.093 -0.2701 -0.8720  0.0859
   30MPD2    C1  466   2.375   4.533  14.094  0.0271  0.3588 -0.2040
   30MPD2    C2  467   2.471   4.633  14.116  0.7539  0.6321 -0.6426
   30MPD2    C3  468   2.442   0.034  14.150 -0.3813  0.4616 -0.1999
   30MPD2    C4  469   2.306   0.060  14.155 -0.2336  0.0834 -0.2729
   30MPD2    C5  470   2.210   4.696  14.126 -0.3075  0.2557 -0.6418
   30MPD2     H  471   2.574   4.601  14.109  1.0123  1.6127 -1.2971
   30MPD2    H1  472   2.266   0.157  14.183  1.3363  1.1925 -1.8493
   30MPD2    H2  473   2.161   4.499  14.075  0.1224 -1.4522  0.5615
   30MPD2    H3  474   2.108   4.731  14.135  0.3968  2.4489 -1.1963
   30MPD2     N  475   2.536   0.137  14.179  0.4802  0.7589  0.3293
   30MPD2    H5  476   2.496   0.222  14.217 -2.0905  0.2176 -1.1409
   30MPD2    N1  477   2.415   4.397  14.071 -0.7195 -0.2250 -0.7253
   30MPD2    H7  478   2.516   4.397  14.057 -0.4857  1.0726  0.9320
   31TMC2    C1  479   0.195   3.413  15.512 -0.1212 -0.8728  0.5224
   31TMC2    C2  480   0.063   3.446  15.526  0.2438 -0.5692 -0.4658
   31TMC2    C3  481   0.009   3.445  15.653  0.5133  0.1773  0.5283
   31TMC2    C4  482   0.277   3.388  15.615  1.0887 -0.5675  0.3477
   31TMC2    C5  483   0.222   3.389  15.742 -0.3060  0.2513  0.1389
   31TMC2    C6  484   0.085   3.409  15.764  0.0607 -0.3790 -0.1552
   31TMC2     C  485   0.252   3.449  15.373  0.4173  0.9178 -0.3747
   31TMC2     O  486   0.181   3.507  15.289  0.6197 -0.4621 -0.0748
   31TMC2     H  487   4.724   3.464  15.446  0.2324  1.2724 -0.0382
   31TMC2    H1  488   0.379   3.365  15.586  0.4621 -2.6161 -0.2899
   31TMC2    H2  489   0.028   3.393  15.854  1.0794 -0.5866  0.4545
   31TMC2    C7  490   0.270   3.291  15.839 -0.5062 -1.0326 -0.3064
   31TMC2    C8  491   4.595   3.448  15.670  0.3589 -0.0661  0.1180
   31TMC2    O1  492   0.188   3.244  15.917 -0.5464  0.5240 -0.6108
   31TMC2    O2  493   4.535   3.377  15.751  0.1631 -0.7089 -0.2607
   31TMC2    O5  494   4.539   3.549  15.600  0.0823 -0.3420 -0.4034
   31TMC2    H5  495   4.605   3.606  15.556  0.2828 -0.5841 -0.4165
   32MPD2     C  496   0.646   3.454  15.049  0.1741 -0.1819 -0.1761
   32MPD2    C1  497   0.521   3.517  15.045  0.9412 -0.0435  0.7291
   32MPD2    C2  498   0.421   3.495  15.136 -0.2390 -0.3244 -0.4843
   32MPD2    C3  499   0.447   3.394  15.236  0.0369 -0.0082 -0.4534
   32MPD2    C4  500   0.564   3.327  15.234  0.3199 -0.2236 -0.2658
   32MPD2    C5  501   0.666   3.355  15.147 -0.1047 -0.2830  0.0955
   32MPD2     H  502   0.328   3.550  15.128 -0.3604 -0.1884  1.9773
   32MPD2    H1  503   0.576   3.248  15.308  2.8691 -1.2358 -1.7464
   32MPD2    H2  504   0.724   3.475  14.977 -0.1914  0.9244 -0.2520
   32MPD2    H3  505   0.761   3.304  15.157 -0.3657 -0.6015  0.9577
   32MPD2     N  506   0.361   3.366  15.343 -0.4473 -0.1435  0.4891
   32MPD2    H5  507   0.392   3.297  15.411 -1.1212 -1.7334 -0.8236
   32MPD2    N1  508   0.506   3.605  14.934  0.0648 -0.1819 -0.3763
   32MPD2    H7  509   0.592   3.611  14.880 -0.2225  1.3187 -0.6700
   33TMC2    C1  510   0.434   1.911  10.919 -0.2508  0.1526  0.7767
   33TMC2    C2  511   0.310   1.913  10.860  0.4044  0.1158 -0.2011
   33TMC2    C3  512   0.287   2.026  10.786 -0.0508 -0.1049 -0.4555
   33TMC2    C4  513   0.535   2.007  10.897  0.6948 -0.0059 -1.6915
   33TMC2    C5  514   0.504   2.109  10.808 -0.7666  0.0194  0.5772
   33TMC2    C6  515   0.380   2.127  10.755  0.3976  0.0675 -0.1049
   33TMC2     C  516   0.445   1.822  11.033  0.1383 -0.7567  0.2191
   33TMC2     O  517   0.360   1.732  11.035  0.2191 -0.1286 -0.1323
   33TMC2     H  518   0.233   1.839  10.876  0.0164  0.6408  0.3291
   33TMC2    H1  519   0.630   2.016  10.950 -0.0559 -2.4696  0.0875
   33TMC2    H2  520   0.352   2.202  10.682  2.3333  1.3731  0.5008
   33TMC2    C7  521   0.612   2.192  10.758 -0.4901 -0.1981  0.5209
   33TMC2    C8  522   0.161   2.042  10.718  0.8632  0.2005  0.2627
   33TMC2    O1  523   0.574   2.301  10.713 -0.1472 -0.5997 -0.0682
   33TMC2    O2  524   0.150   2.108  10.613  0.1234 -0.2789 -0.1980
   33TMC2    O5  525   0.070   2.049  10.819 -0.7839 -0.2538 -0.3739
   33TMC2    H5  526   0.097   2.000  10.900 -0.6945  0.1002 -0.1937
   34MPD2     C  527   0.621   1.736  11.490 -0.4014  0.2259 -0.2192
   34MPD2    C1  528   0.546   1.656  11.407 -0.3403  0.2380 -0.5458
   34MPD2    C2  529   0.517   1.707  11.286  1.1737 -0.2508 -0.5884
   34MPD2    C3  530   0.554   1.829  11.252 -0.4945 -0.3327 -0.0093
   34MPD2    C4  531   0.634   1.907  11.337  0.3704 -0.4261  0.0460
   34MPD2    C5  532   0.650   1.866  11.461  0.2430  0.1407  0.5347
   34MPD2     H  533   0.460   1.649  11.215 -0.5335  0.7399 -0.0353
   34MPD2    H1  534   0.674   2.003  11.305 -0.4721  0.5293  1.8636
   34MPD2    H2  535   0.643   1.706  11.592 -0.6211  0.0179 -0.2321
   34MPD2    H3  536   0.708   1.924  11.532 -0.5203 -0.5143  1.7087
   34MPD2     N  537   0.525   1.877  11.126 -0.0542 -1.0218  0.1172
   34MPD2    H5  538   0.568   1.967  11.108 -1.8054 -0.1665  0.2283
   34MPD2    N1  539   0.506   1.527  11.450  0.9429 -0.2239  0.1740
   34MPD2    H7  540   0.537   1.506  11.545  0.6330 -0.1514  0.2918
   35TMC2    C1  541   0.829   2.811  11.697  0.0500  0.1901  0.3531
   35TMC2    C2  542   0.707   2.877  11.707 -0.8740  0.2090 -0.3087
   35TMC2    C3  543   0.592   2.804  11.735  0.1528 -0.2103 -0.0246
   35TMC2    C4  544   0.843   2.680  11.715 -0.0163  0.3813 -0.7577
   35TMC2    C5  545   0.728   2.612  11.736  0.2641  0.9658 -0.0124
   35TMC2    C6  546   0.601   2.669  11.765 -0.1086  0.2902 -0.5665
   35TMC2     C  547   0.952   2.890  11.671 -0.3827 -0.5650  0.3300
   35TMC2     O  548   0.941   3.006  11.635 -0.0327 -0.1456  0.2741
   35TMC2     H  549   0.714   2.983  11.685  0.3416  0.2880  0.4642
   35TMC2    H1  550   0.934   2.625  11.694 -0.1992  0.1235 -0.8741
   35TMC2    H2  551   0.518   2.611  11.802 -1.0101  2.8717  1.4191
   35TMC2    C7  552   0.760   2.479  11.783  0.6512 -0.0261 -0.2289
   35TMC2    C8  553   0.469   2.873  11.779  0.2612  0.3555  0.4097
   35TMC2    O1  554   0.876   2.448  11.796  0.1691 -0.3554  0.8686
   35TMC2    O2  555   0.391   2.818  11.859  0.4899 -0.2714 -0.3492
   35TMC2    O5  556   0.455   2.998  11.717 -0.3002 -0.7731  0.6581
   35TMC2    H5  557   0.512   3.019  11.640  0.6053 -2.8378  0.7707
   36MPD2     C  558   1.452   2.925  11.746  0.5941  0.0508  0.2590
   36MPD2    C1  559   1.407   2.816  11.822  0.2174  0.5934  0.4610
   36MPD2    C2  560   1.274   2.773  11.805 -0.0856  0.1986 -0.3054
   36MPD2    C3  561   1.196   2.862  11.733  0.0424 -0.0521 -0.1296
   36MPD2    C4  562   1.239   2.972  11.664  0.0535  0.3875 -0.8258
   36MPD2    C5  563   1.368   2.997  11.662 -0.1677 -0.1920  0.4308
   36MPD2     H  564   1.225   2.697  11.865 -0.5263 -0.4756 -1.5209
   36MPD2    H1  565   1.183   3.043  11.604  0.2544  0.3814 -1.0179
   36MPD2    H2  566   1.556   2.957  11.751  0.8895 -0.7544 -0.8477
   36MPD2    H3  567   1.417   3.068  11.597  1.1468 -1.4300  0.0670
   36MPD2     N  568   1.062   2.826  11.737 -0.4033  0.2811  0.4413
   36MPD2    H5  569   1.037   2.744  11.790  0.6827 -0.0283  0.4687
   36MPD2    N1  570   1.495   2.775  11.925 -0.3116  0.6444 -0.0766
   36MPD2    H7  571   1.582   2.828  11.935  0.7241 -1.2091  0.7478
   37TMC2    C1  572   4.121   3.275  11.546  0.2684 -0.2379  0.0764
   37TMC2    C2  573   4.094   3.273  11.411 -0.7429  0.5821  0.1424
   37TMC2    C3  574   4.207   3.287  11.336  0.3148 -0.4159  0.1454
   37TMC2    C4  575   4.246   3.284  11.605  0.1015 -0.3241 -0.2477
   37TMC2    C5  576   4.353   3.305  11.519 -0.1134 -0.2026 -0.0830
   37TMC2    C6  577   4.331   3.307  11.383 -0.3922  0.7283 -0.1252
   37TMC2     C  578   4.017   3.215  11.620  0.2163  0.4126 -0.2106
   37TMC2     O  579   3.910   3.225  11.561 -0.2795 -0.1616  0.1359
   37TMC2     H  580   3.998   3.237  11.374 -1.0978 -0.4359  2.0939
   37TMC2    H1  581   4.266   3.285  11.711  1.2673  0.0926 -0.4788
   37TMC2    H2  582   4.406   3.330  11.308  0.8025  2.1870  1.5293
   37TMC2    C7  583   4.490   3.303  11.582 -0.0485  0.0591 -0.2596
   37TMC2    C8  584   4.185   3.270  11.197 -0.1334 -0.0474  0.4391
   37TMC2    O1  585   4.504   3.248  11.689  0.3935 -0.0858 -0.5083
   37TMC2    O2  586   4.098   3.195  11.156 -0.0187  0.0276 -0.1756
   37TMC2    O5  587   4.188   3.405  11.157  0.3265  0.5323 -0.4550
   37TMC2    H5  588   4.232   3.464  11.222 -1.4400 -0.8167  1.9868
   38MPD2     C  589   3.798   2.929  11.985 -0.1985 -0.2260  0.3649
   38MPD2    C1  590   3.932   2.901  11.975 -0.1721  0.4700 -0.1454
   38MPD2    C2  591   4.023   2.959  11.888 -0.3320  0.0489 -0.0683
   38MPD2    C3  592   3.970   3.054  11.803  0.0824 -0.3698 -0.5183
   38MPD2    C4  593   3.834   3.085  11.820  0.7140  0.4188 -0.1531
   38MPD2    C5  594   3.744   3.023  11.904  0.1877  0.0137  0.0896
   38MPD2     H  595   4.126   2.926  11.887  0.2843  2.1128 -2.1133
   38MPD2    H1  596   3.786   3.165  11.764 -1.2672 -0.7753 -0.1865
   38MPD2    H2  597   3.735   2.870  12.051 -2.2107  0.8188 -0.6228
   38MPD2    H3  598   3.640   3.050  11.917  0.2724 -0.3263  1.4213
   38MPD2     N  599   4.056   3.124  11.713 -0.2505 -0.5627  0.3619
   38MPD2    H5  600   4.152   3.095  11.724 -0.0376  0.0128 -0.0174
   38MPD2    N1  601   3.984   2.800  12.065 -0.3260  0.2089  0.6272
   38MPD2    H7  602   4.078   2.766  12.049  0.2972  2.3685 -0.3238
   39TMC2    C1  603   3.398   4.518   1.521 -0.3335  0.1873  0.6184
   39TMC2    C2  604   3.351   4.391   1.489  0.1541  0.1521  0.4805
   39TMC2    C3  605   3.444   4.290   1.507  0.3080 -0.7629 -1.3315
   39TMC2    C4  606   3.528   4.540   1.566 -0.0057 -0.5476 -0.0872
   39TMC2    C5  607   3.610   4.433   1.584 -0.1239  0.3103 -0.0833
   39TMC2    C6  608   3.567   4.309   1.552  0.1739 -0.2200  0.4511
   39TMC2     C  609   3.291   4.621   1.531  0.3811 -0.0433 -0.0581
   39TMC2     O  610   3.208   4.616   1.445 -0.8060 -0.3022 -0.0067
   39TMC2     H  611   3.246   4.368   1.478  0.0013  0.2952  1.6743
   39TMC2    H1  612   3.568   4.640   1.575 -1.0893  0.0117 -1.4467
   39TMC2    H2  613   3.633   4.226   1.576  0.0055 -0.6557 -0.6105
   39TMC2    C7  614   3.737   4.442   1.648 -0.5778  0.5674 -0.0637
   39TMC2    C8  615   3.398   4.156   1.481 -0.3371 -0.4934 -0.2156
   39TMC2    O1  616   3.783   4.334   1.687 -0.6710 -0.0160 -0.0090
   39TMC2    O2  617   3.450   4.052   1.527  0.3299  0.1981  0.0756
   39TMC2    O5  618   3.306   4.158   1.390  0.6318  0.3268  1.0492
   39TMC2    H5  619   3.300   4.248   1.353 -0.5518 -0.3872 -0.4988
   40MPD2     C  620   3.295   0.196   1.736 -0.2263  0.2767  0.0024
   40MPD2    C1  621   3.239   0.101   1.653  0.6907 -0.9987  0.3036
   40MPD2    C2  622   3.107   0.113   1.602  0.2795  0.1726  0.3284
   40MPD2    C3  623   3.041   0.237   1.634  0.1776  0.1348  0.1261
   40MPD2    C4  624   3.101   0.333   1.704 -0.0445 -0.3877 -0.2228
   40MPD2    C5  625   3.232   0.316   1.753  0.6894  0.1951 -0.0010
   40MPD2     H  626   3.075   0.034   1.536 -0.9113 -0.0015  1.1159
   40MPD2    H1  627   3.050   0.420   1.743 -0.3835 -1.7390  2.3519
   40MPD2    H2  628   3.391   0.181   1.784  0.8705 -1.1654 -2.6490
   40MPD2    H3  629   3.277   0.396   1.810  5.4890 -1.9597 -0.7395
   40MPD2     N  630   2.916   0.264   1.578  0.3179  0.2108 -0.3097
   40MPD2    H5  631   2.897   0.363   1.593 -2.9466 -0.1572 -1.8375
   40MPD2    N1  632   3.320   4.717   1.632 -0.5299  0.2475  0.1485
   40MPD2    H7  633   3.406   4.708   1.684  1.8446 -1.8254 -4.1917
   41TMC2    C1  634   0.854   2.834  13.836 -0.0207 -0.2843 -0.5811
   41TMC2    C2  635   0.727   2.858  13.884 -0.3567  0.6225 -0.5484
   41TMC2    C3  636   0.654   2.952  13.816 -0.0040  0.6459 -0.0438
   41TMC2    C4  637   0.901   2.907  13.730 -0.0990  0.6526  0.0377
   41TMC2    C5  638   0.821   2.992  13.659  0.6589  0.2140 -0.7152
   41TMC2    C6  639   0.698   3.018  13.707 -0.4763  0.4330  0.3066
   41TMC2     C  640   0.930   2.738  13.916 -0.4216  0.5501 -0.1124
   41TMC2     O  641   0.999   2.653  13.865  0.6919 -0.3876 -0.0485
   41TMC2     H  642   0.694   2.802  13.970 -0.5230  1.6564  0.0676
   41TMC2    H1  643   1.007   2.907  13.706  0.2646  1.1894  1.6614
   41TMC2    H2  644   0.624   3.060  13.640 -0.7293 -0.6332 -0.0880
   41TMC2    C7  645   0.865   3.057  13.537  0.2599 -0.1055 -0.2505
   41TMC2    C8  646   0.511   2.943  13.844 -0.3534 -0.3234 -0.1425
   41TMC2    O1  647   0.793   3.144  13.492  0.0938  0.1300 -0.2542
   41TMC2    O2  648   0.460   2.853  13.907 -0.2298  0.2175  0.0885
   41TMC2    O5  649   0.459   3.063  13.827 -0.0292 -0.0918 -0.6269
   41TMC2    H5  650   0.517   3.127  13.781 -0.2349 -0.4083 -1.3222
   42MPD2     C  651   1.043   2.588  14.148 -0.0577  0.4259  0.4255
   42MPD2    C1  652   0.977   2.705  14.157  0.1797 -0.0097 -0.2166
   42MPD2    C2  653   0.965   2.774  14.275 -0.3077  0.2171  0.2541
   42MPD2    C3  654   1.030   2.725  14.385 -0.1114 -0.4273 -0.1849
   42MPD2    C4  655   1.101   2.601  14.372 -0.5526 -0.5905  0.5880
   42MPD2    C5  656   1.110   2.535  14.255  0.8319  0.1684  0.3337
   42MPD2     H  657   0.902   2.862  14.281 -1.9712 -0.8936 -1.0460
   42MPD2    H1  658   1.147   2.560  14.461  0.4725 -0.2752  0.2072
   42MPD2    H2  659   1.053   2.541  14.051  1.6008 -2.5193  2.0326
   42MPD2    H3  660   1.179   2.453  14.243 -0.2433 -0.7524  0.4137
   42MPD2     N  661   1.014   2.777  14.514 -0.7597  0.6397  0.0715
   42MPD2    H5  662   1.075   2.731  14.581 -1.0963  0.3529  0.1813
   42MPD2    N1  663   0.922   2.775  14.049  0.3155 -0.0882 -0.3008
   42MPD2    H7  664   0.870   2.861  14.067 -0.2454 -0.2884 -0.9774
   43TMC2    C1  665   3.174   1.148   0.743 -0.9336 -0.2274  0.5091
   43TMC2    C2  666   3.051   1.208   0.734  1.0533 -0.5222  0.3090
   43TMC2    C3  667   3.024   1.317   0.818 -0.2262 -0.9899 -0.0131
   43TMC2    C4  668   3.266   1.197   0.835 -0.0750 -0.3139 -0.3297
   43TMC2    C5  669   3.236   1.302   0.922 -0.4902  0.1220  0.0019
   43TMC2    C6  670   3.111   1.368   0.916 -0.0823 -0.2614 -0.0154
   43TMC2     C  671   3.224   1.049   0.648 -0.1174  0.1240 -0.2523
   43TMC2     O  672   3.329   0.991   0.674 -0.0178  0.1710 -0.4776
   43TMC2     H  673   2.971   1.156   0.683 -0.0351  1.1187  0.3567
   43TMC2    H1  674   3.370   1.175   0.819  0.0496 -0.5425  0.8263
   43TMC2    H2  675   3.080   1.446   0.985 -0.4171 -0.3647 -0.0461
   43TMC2    C7  676   3.348   1.365   0.992 -0.1573 -0.5453  0.1940
   43TMC2    C8  677   2.899   1.390   0.808 -0.0811 -0.2622  0.1690
   43TMC2    O1  678   3.459   1.314   0.984  0.1923 -0.0905  0.0446
   43TMC2    O2  679   2.868   1.481   0.884  1.1941  0.5335  0.7365
   43TMC2    O5  680   2.885   1.385   0.674 -0.1636  0.3715 -0.2754
   43TMC2    H5  681   2.922   1.304   0.632  0.3599  0.1662  0.5681
   44MPD2     C  682   3.167   0.765   0.220 -0.1697 -0.7897  0.0249
   44MPD2    C1  683   3.276   0.787   0.306  0.3593 -0.2979  0.0776
   44MPD2    C2  684   3.258   0.858   0.424 -0.4176  0.6155  0.0295
   44MPD2    C3  685   3.157   0.942   0.433 -0.4049  0.1322 -0.1737
   44MPD2    C4  686   3.044   0.926   0.353 -0.0043 -0.2226  0.5234
   44MPD2    C5  687   3.052   0.838   0.249 -0.3978  0.0923  0.7019
   44MPD2     H  688   3.347   0.860   0.486 -0.7566 -1.1831  0.5664
   44MPD2    H1  689   2.949   0.971   0.378  0.5062  0.3298  1.4439
   44MPD2    H2  690   3.172   0.696   0.137  0.9774  0.7712 -1.2141
   44MPD2    H3  691   2.959   0.808   0.202 -0.7257  0.9814  0.7879
   44MPD2     N  692   3.136   1.036   0.538  0.5083  0.5880 -0.3173
   44MPD2    H5  693   3.066   1.108   0.523  0.2940  0.3180 -0.6000
   44MPD2    N1  694   3.400   0.720   0.291  0.3271  0.1906  0.4924
   44MPD2    H7  695   3.478   0.739   0.354 -0.3563  2.9689  0.4949
   45TMC2    C1  696   3.510   3.672   9.552  0.0387 -0.6871  0.6543
   45TMC2    C2  697   3.590   3.653   9.442  0.0232  0.2265  0.0302
   45TMC2    C3  698   3.653   3.764   9.395 -0.3584  0.1807 -0.2649
   45TMC2    C4  699   3.489   3.791   9.607  0.1692 -0.2136 -0.3991
   45TMC2    C5  700   3.562   3.899   9.558 -0.2342 -0.0348 -0.9744
   45TMC2    C6  701   3.648   3.885   9.451  0.5821 -0.8194  0.8251
   45TMC2     C  702   3.416   3.567   9.577 -0.4112  0.0515  0.3774
   45TMC2     O  703   3.458   3.452   9.553  0.0975 -0.4662 -0.4360
   45TMC2     H  704   3.595   3.557   9.391  2.8866 -0.9796  2.6449
   45TMC2    H1  705   3.437   3.798   9.701 -0.8088 -0.0915 -0.9543
   45TMC2    H2  706   3.693   3.974   9.407 -0.1175 -1.4876 -1.2382
   45TMC2    C7  707   3.555   4.021   9.634  0.6048  0.6848 -0.0588
   45TMC2    C8  708   3.669   3.764   9.256  0.5068 -0.9070  0.2535
   45TMC2    O1  709   3.503   4.030   9.742  0.2085 -0.5999 -0.1643
   45TMC2    O2  710   3.653   3.868   9.192  0.2054  0.3981  0.5762
   45TMC2    O5  711   3.768   3.674   9.232 -0.5563  0.2802  0.0755
   45TMC2    H5  712   3.782   3.600   9.295  3.0595 -0.6014 -1.7648
   46MPD2     C  713   3.165   3.405   9.603  0.0706  0.6897  0.9786
   46MPD2    C1  714   3.180   3.538   9.633 -0.6083 -0.5534 -0.0086
   46MPD2    C2  715   3.074   3.606   9.686 -0.1445  0.8580 -0.5907
   46MPD2    C3  716   2.950   3.546   9.695  0.3633 -0.0198  1.1446
   46MPD2    C4  717   2.936   3.412   9.671 -0.1920  0.7495 -0.3766
   46MPD2    C5  718   3.049   3.335   9.633 -0.5880 -0.6490 -0.0950
   46MPD2     H  719   3.094   3.710   9.708  1.7416 -0.0501  1.8210
   46MPD2    H1  720   2.846   3.355   9.687 -0.8568  1.1625 -2.6404
   46MPD2    H2  721   3.252   3.349   9.570 -0.1102 -0.5790  2.6492
   46MPD2    H3  722   3.046   3.227   9.630 -0.6542 -0.6364 -0.4862
   46MPD2     N  723   2.839   3.627   9.737 -0.7243 -0.3604 -0.8703
   46MPD2    H5  724   2.849   3.728   9.749  2.2777 -0.9780  1.7769
   46MPD2    N1  725   3.296   3.615   9.620 -1.0051 -0.0939  0.1900
   46MPD2    H7  726   3.287   3.715   9.632  0.3745  0.0485  0.1142
   47TMC2    C1  727   0.671   3.717   9.215 -0.0756  0.1618  0.1340
   47TMC2    C2  728   0.690   3.581   9.198 -0.6786  0.9087  0.6851
   47TMC2    C3  729   0.585   3.514   9.142  0.0498 -0.1395  0.3353
   47TMC2    C4  730   0.554   3.784   9.195  0.9008  0.5961 -0.4892
   47TMC2    C5  731   0.455   3.702   9.146 -0.3127 -0.1270  0.9275
   47TMC2    C6  732   0.471   3.574   9.102 -0.5172 -0.4033  0.7737
   47TMC2     C  733   0.784   3.807   9.255  0.9615  0.2497 -0.0564
   47TMC2     O  734   0.766   3.924   9.281  0.0622  0.1774  0.3873
   47TMC2     H  735   0.775   3.534   9.245 -1.4158 -1.1320 -0.0453
   47TMC2    H1  736   0.537   3.884   9.233 -3.0072 -0.2390  0.0209
   47TMC2    H2  737   0.398   3.514   9.049 -1.5735  1.7279 -0.2236
   47TMC2    C7  738   0.323   3.764   9.139  0.1402 -0.7962  0.3061
   47TMC2    C8  739   0.590   3.372   9.139  0.2042  0.6918 -0.3576
   47TMC2    O1  740   0.317   3.873   9.197 -0.0704  1.0787  0.1843
   47TMC2    O2  741   0.488   3.309   9.162  0.6150 -0.1315  1.0495
   47TMC2    O5  742   0.717   3.334   9.169 -0.4799  0.2128 -0.4616
   47TMC2    H5  743   0.788   3.383   9.122  0.9544 -0.3303  1.1194
   48MPD2     C  744   1.029   3.909   9.393 -0.0270  0.4484  0.7152
   48MPD2    C1  745   1.018   3.788   9.322 -1.0875  0.3703 -0.1051
   48MPD2    C2  746   1.122   3.695   9.336  0.6168 -0.3543  0.4162
   48MPD2    C3  747   1.238   3.723   9.416  0.6209 -0.2309  0.0812
   48MPD2    C4  748   1.247   3.844   9.490 -0.7799  0.5778 -0.0687
   48MPD2    C5  749   1.141   3.937   9.462  0.3960 -0.5939  0.1929
   48MPD2     H  750   1.117   3.597   9.288 -0.5784  0.1762 -0.5590
   48MPD2    H1  751   1.321   3.870   9.565 -0.8179  2.2788 -0.6304
   48MPD2    H2  752   0.952   3.984   9.386 -0.8039 -0.3942  0.2506
   48MPD2    H3  753   1.141   4.030   9.518 -1.5217 -1.5845  1.8266
   48MPD2     N  754   1.341   3.629   9.429  0.0778  0.1739  0.2354
   48MPD2    H5  755   1.324   3.540   9.383 -1.0194  0.5480 -0.0887
   48MPD2    N1  756   0.899   3.740   9.257 -0.3475 -0.8469  0.7371
   48MPD2    H7  757   0.908   3.640   9.239  0.4359 -0.4442 -1.0728
   49TMC2    C1  758   3.959   0.779  10.658  0.0854  0.4718  0.0793
   49TMC2    C2  759   4.018   0.678  10.590  0.3045  0.4728 -0.7857
   49TMC2    C3  760   3.973   0.638  10.465 -0.0326  0.3477  0.4551
   49TMC2    C4  761   3.863   0.854  10.592  0.3491  0.8763  0.2193
   49TMC2    C5  762   3.825   0.815  10.466 -0.0569 -0.4253 -0.4883
   49TMC2    C6  763   3.870   0.704  10.403 -0.7406 -0.2308 -0.2117
   49TMC2     C  764   4.045   0.846  10.755 -0.1690  0.0621 -0.5526
   49TMC2     O  765   4.158   0.807  10.770  0.2633 -0.3819 -0.3576
   49TMC2     H  766   4.091   0.623  10.647 -1.0113  0.3768  0.8069
   49TMC2    H1  767   3.825   0.948  10.631  0.5688  0.2013  2.0560
   49TMC2    H2  768   3.840   0.672  10.304  0.7439  2.2387 -1.4550
   49TMC2    C7  769   3.745   0.906  10.381 -0.1733  0.3869 -0.3668
   49TMC2    C8  770   4.015   0.518  10.406 -0.3731  1.1504  0.8908
   49TMC2    O1  771   3.669   0.857  10.299 -0.1030 -0.6335 -0.1108
   49TMC2    O2  772   3.950   0.455  10.323 -0.0761  0.4567  0.2241
   49TMC2    O5  773   4.147   0.497  10.438 -0.2638  0.7231 -0.2564
   49TMC2    H5  774   4.189   0.580  10.469 -2.6338  1.2975  1.3964
   50MPD2     C  775   4.154   1.012  10.981 -0.3653  0.2287  0.4680
   50MPD2    C1  776   4.019   1.006  10.947  0.6403  0.1641 -0.0925
   50MPD2    C2  777   3.932   1.079  11.030  0.3312 -0.2049 -0.1128
   50MPD2    C3  778   3.977   1.163  11.125 -0.1080  0.2071 -0.3174
   50MPD2    C4  779   4.116   1.176  11.145  0.5614  0.0020 -0.7498
   50MPD2    C5  780   4.201   1.095  11.082 -0.4113  0.3705  0.9372
   50MPD2     H  781   3.829   1.070  11.000  0.1261 -4.1360  1.7290
   50MPD2    H1  782   4.160   1.242  11.218 -2.1745 -0.3780  1.2466
   50MPD2    H2  783   4.234   0.963  10.926  0.4763  1.4659  0.5868
   50MPD2    H3  784   4.305   1.122  11.096 -0.1271 -1.3085  2.0216
   50MPD2     N  785   3.901   1.249  11.211  0.6262  0.3214  0.0905
   50MPD2    H5  786   3.954   1.311  11.272 -1.5604  2.1131  0.1608
   50MPD2    N1  787   3.970   0.936  10.832  0.6816  0.0343 -0.2976
   50MPD2    H7  788   3.874   0.946  10.800  0.4924  0.3016  0.3716
   51TMC2    C1  789   0.108   0.414   1.153  0.2355  0.3984  0.0935
   51TMC2    C2  790   4.731   0.481   1.122  0.3528  0.0776  0.3465
   51TMC2    C3  791   4.716   0.605   1.179  0.0356 -0.1866 -0.0509
   51TMC2    C4  792   0.210   0.461   1.232 -0.2873  0.7219  0.2999
   51TMC2    C5  793   0.194   0.586   1.286  0.3241  0.0086 -0.0004
   51TMC2    C6  794   0.077   0.655   1.272 -0.0729 -0.3832 -0.4163
   51TMC2     C  795   0.102   0.267   1.140  0.2736  0.1282 -0.1254
   51TMC2     O  796   0.112   0.198   1.242  0.2289  0.2140  0.3538
   51TMC2     H  797   4.651   0.424   1.077  1.3175 -0.9718 -0.0536
   51TMC2    H1  798   0.299   0.403   1.251 -0.2454  0.4137 -0.8519
   51TMC2    H2  799   0.068   0.758   1.305  0.8474 -0.8819  1.3799
   51TMC2    C7  800   0.298   0.637   1.372  0.4835 -0.5004 -0.1068
   51TMC2    C8  801   4.594   0.679   1.159  0.1297 -1.2817  0.3031
   51TMC2    O1  802   0.294   0.757   1.403  0.4267  0.6572  0.5395
   51TMC2    O2  803   4.555   0.757   1.245  0.4190 -0.6750 -0.8752
   51TMC2    O5  804   4.526   0.635   1.060  0.0926  0.6404  0.1250
   51TMC2    H5  805   4.581   0.607   0.984 -0.6899  0.4454 -0.3756
   52MPD2     C  806   4.698   4.581   0.874  0.5241  0.2075 -0.1154
   52MPD2    C1  807   0.005   4.596   1.002 -0.2110 -0.2763 -0.6468
   52MPD2    C2  808   0.023   4.721   1.059 -0.2054  0.4077 -0.1948
   52MPD2    C3  809   0.021   0.102   0.973 -0.1430 -0.0772 -0.2698
   52MPD2    C4  810   4.720   0.089   0.842 -1.1420  0.9670  0.3488
   52MPD2    C5  811   4.698   4.693   0.795  0.3916 -0.2887  0.2789
   52MPD2     H  812   0.048   4.727   1.164 -0.1541 -0.0008 -0.1811
   52MPD2    H1  813   4.724   0.172   0.773 -0.1858  0.3429 -0.3348
   52MPD2    H2  814   4.702   4.482   0.829 -1.5497  0.6650 -1.2515
   52MPD2    H3  815   4.696   4.673   0.688  0.7750  2.3312 -0.2223
   52MPD2     N  816   0.057   0.232   1.018 -0.2840 -0.3109 -0.6401
   52MPD2    H5  817   0.042   0.304   0.948  2.9359  0.6566 -0.3224
   52MPD2    N1  818   0.000   4.485   1.086  0.4114 -0.3006 -0.2706
   52MPD2    H7  819   0.017   4.489   1.186 -0.6547  0.3653 -0.1205
   53TMC2    C1  820   0.343   3.175  12.000  0.6089 -0.0077 -0.3528
   53TMC2    C2  821   0.463   3.126  12.044  0.1446  0.0646 -0.3052
   53TMC2    C3  822   0.455   3.023  12.134 -0.0539  0.0858 -0.3730
   53TMC2    C4  823   0.216   3.128  12.041  0.3323 -0.2662 -0.4354
   53TMC2    C5  824   0.218   3.031  12.137 -0.4636 -0.3700 -0.7846
   53TMC2    C6  825   0.338   2.972  12.180 -1.1782  0.4452 -0.0110
   53TMC2     C  826   0.342   3.249  11.872  0.2915 -0.1817  0.2499
   53TMC2     O  827   0.448   3.290  11.836  0.0425 -0.1250  0.6857
   53TMC2     H  828   0.559   3.164  12.012  0.8178 -1.0159  0.4234
   53TMC2    H1  829   0.118   3.173  12.028  0.5488  0.3068 -0.0625
   53TMC2    H2  830   0.347   2.905  12.264  0.1396  1.4577  0.6668
   53TMC2    C7  831   0.100   2.980  12.191 -0.3042 -0.2072  0.1140
   53TMC2    C8  832   0.568   2.928  12.140  0.6020 -1.0367 -0.1464
   53TMC2    O1  833   0.002   3.051  12.177 -0.0658 -0.0012  0.0174
   53TMC2    O2  834   0.684   2.959  12.160 -0.6715 -0.4126  0.2229
   53TMC2    O5  835   0.525   2.800  12.117 -0.0984  0.2395 -0.3760
   53TMC2    H5  836   0.428   2.783  12.117 -0.3140  1.4616 -0.5201
   54MPD2     C  837   0.264   3.335  11.601  0.1828 -0.1743 -0.1686
   54MPD2    C1  838   0.177   3.291  11.696  0.5162 -0.5048 -0.3601
   54MPD2    C2  839   0.041   3.297  11.663 -0.6804 -0.3332 -0.3750
   54MPD2    C3  840   4.732   3.342  11.531  1.1568 -0.9354 -0.9185
   54MPD2    C4  841   0.093   3.396  11.445 -0.0893  0.4441  0.2118
   54MPD2    C5  842   0.222   3.393  11.481  0.4278  0.2692 -0.2873
   54MPD2     H  843   4.704   3.266  11.740 -0.2319 -0.6018 -0.0785
   54MPD2    H1  844   0.060   3.443  11.353 -0.9577  2.5598  1.6070
   54MPD2    H2  845   0.372   3.336  11.612  0.4181  0.9056 -2.6488
   54MPD2    H3  846   0.303   3.426  11.417  1.2112 -1.8754 -0.3949
   54MPD2     N  847   4.591   3.343  11.496 -0.4453  0.1503  0.2380
   54MPD2    H5  848   4.568   3.383  11.405  0.8976 -1.2661 -0.7020
   54MPD2    N1  849   0.215   3.250  11.825  0.0551 -0.0774  0.5797
   54MPD2    H7  850   0.141   3.228  11.891 -0.3943  0.6321  0.3130
   55TMC2    C1  851   1.552   0.952   0.780  0.1510  0.1938 -0.0144
   55TMC2    C2  852   1.663   0.948   0.701 -0.4568 -1.0196 -0.2833
   55TMC2    C3  853   1.768   0.883   0.754  0.1417  0.6619 -0.3213
   55TMC2    C4  854   1.537   0.885   0.895  0.2907  0.2669  0.3839
   55TMC2    C5  855   1.651   0.828   0.953  0.2738 -0.3062 -0.0855
   55TMC2    C6  856   1.768   0.840   0.874 -0.1340 -0.1610  0.1014
   55TMC2     C  857   1.431   1.013   0.726 -0.5023 -0.1544  0.1321
   55TMC2     O  858   1.335   1.025   0.798  1.0101 -0.2793 -0.0283
   55TMC2     H  859   1.672   0.987   0.601  0.1995 -0.9752 -0.2076
   55TMC2    H1  860   1.441   0.877   0.944 -0.2642  0.0750 -0.7424
   55TMC2    H2  861   1.857   0.809   0.927  0.3292 -1.7190 -1.5981
   55TMC2    C7  862   1.643   0.706   1.025 -0.1430 -0.4378  0.4563
   55TMC2    C8  863   1.887   0.900   0.674 -0.2578 -0.0984  0.0255
   55TMC2    O1  864   1.737   0.628   1.015 -0.6686  0.4367  0.0836
   55TMC2    O2  865   1.917   0.994   0.603  0.4639 -0.0357  0.1723
   55TMC2    O5  866   1.978   0.811   0.719 -0.1769 -0.1020  0.4134
   55TMC2    H5  867   1.937   0.729   0.753  0.0353 -0.0330  0.8305
   56MPD2     C  868   1.351   1.124   0.401 -0.1974  0.3175  0.6732
   56MPD2    C1  869   1.346   1.129   0.535  0.5745 -0.8840 -0.0468
   56MPD2    C2  870   1.241   1.204   0.590  0.2224  0.1326 -0.2554
   56MPD2    C3  871   1.165   1.289   0.517  0.3957  0.2078 -0.3277
   56MPD2    C4  872   1.180   1.289   0.380 -0.1797 -0.3021 -0.3136
   56MPD2    C5  873   1.273   1.205   0.326 -0.4474  0.3028 -0.1907
   56MPD2     H  874   1.219   1.192   0.695 -0.4517 -1.8064 -0.6234
   56MPD2    H1  875   1.124   1.352   0.311  3.2581  1.4596 -1.5025
   56MPD2    H2  876   1.420   1.060   0.347  1.0586  1.3636  1.0281
   56MPD2    H3  877   1.286   1.204   0.218  1.4167 -0.1574  0.0331
   56MPD2     N  878   1.053   1.348   0.578  0.0661 -0.0395  0.1616
   56MPD2    H5  879   1.054   1.328   0.677  1.4494  2.0357  0.5573
   56MPD2    N1  880   1.443   1.048   0.601 -0.2359 -0.6079  0.1655
   56MPD2    H7  881   1.525   1.026   0.546 -0.1874  0.0208 -0.0082
   57TMC2    C1  882   4.408   1.702  13.532 -0.1441  0.1093 -0.8788
   57TMC2    C2  883   4.313   1.713  13.436 -0.5158 -0.2367  0.3934
   57TMC2    C3  884   4.358   1.697  13.303  0.3332  0.5695 -0.7446
   57TMC2    C4  885   4.539   1.675  13.504 -0.4922 -0.5572  0.2847
   57TMC2    C5  886   4.575   1.669  13.369 -0.5290 -0.2741  0.5095
   57TMC2    C6  887   4.483   1.667  13.268  0.5084 -1.2308  0.1038
   57TMC2     C  888   4.357   1.710  13.668  0.2377 -1.4963 -0.1057
   57TMC2     O  889   4.243   1.754  13.684  0.2932  0.5943  0.6916
   57TMC2     H  890   4.207   1.715  13.457 -0.5612 -1.9609  0.3104
   57TMC2    H1  891   4.609   1.672  13.586  0.4675  1.2692 -0.4786
   57TMC2    H2  892   4.502   1.639  13.165 -2.8639  1.5566 -1.2812
   57TMC2    C7  893   4.711   1.630  13.346  0.3921  0.3009  0.9333
   57TMC2    C8  894   4.255   1.681  13.207 -0.3188  0.7313 -0.4850
   57TMC2    O1  895   0.047   1.579  13.433  0.1319 -0.9615 -0.2941
   57TMC2    O2  896   4.139   1.671  13.242  0.1002  0.3162 -0.3933
   57TMC2    O5  897   4.299   1.742  13.095  0.6174 -0.5417 -0.3753
   57TMC2    H5  898   4.387   1.785  13.097  0.0258  0.5421  2.6615
   58MPD2     C  899   4.437   1.683  14.178 -0.1605 -0.0690  0.0938
   58MPD2    C1  900   4.327   1.734  14.108 -0.1889  0.0251 -1.1285
   58MPD2    C2  901   4.330   1.735  13.970  0.1058 -0.0487  0.2838
   58MPD2    C3  902   4.440   1.678  13.905 -0.0698  0.6867 -0.0883
   58MPD2    C4  903   4.549   1.620  13.973  0.2152  0.0531 -0.0548
   58MPD2    C5  904   4.542   1.616  14.111 -0.7003  0.0044 -0.1286
   58MPD2     H  905   4.249   1.774  13.909  0.9535  0.5521 -0.4642
   58MPD2    H1  906   4.616   1.556  13.917  0.9996  1.8261 -1.1798
   58MPD2    H2  907   4.431   1.672  14.285 -0.0834  0.2837  0.1333
   58MPD2    H3  908   4.613   1.560  14.171 -1.7296 -1.2991 -0.1131
   58MPD2     N  909   4.449   1.673  13.761  0.6123  0.5409 -0.3342
   58MPD2    H5  910   4.528   1.620  13.724  1.9786  2.6205 -0.4175
   58MPD2    N1  911   4.207   1.790  14.167 -0.3305  0.2685  0.1782
   58MPD2    H7  912   4.150   1.846  14.105 -1.2014 -0.1890  0.5705
   59TMC2    C1  913   2.320   1.879  12.628  0.3302 -0.2615 -0.4884
   59TMC2    C2  914   2.370   1.755  12.634 -0.3930  0.6579  0.6433
   59TMC2    C3  915   2.341   1.671  12.538 -0.4791 -0.5055  0.1523
   59TMC2    C4  916   2.238   1.923  12.524 -0.6915 -0.0215  0.4463
   59TMC2    C5  917   2.212   1.820  12.427 -0.4241  0.4934 -1.3681
   59TMC2    C6  918   2.267   1.700  12.432  0.2684 -0.1489 -0.2375
   59TMC2     C  919   2.337   1.971  12.737  0.4084 -0.4159  0.2961
   59TMC2     O  920   2.295   2.084  12.721  0.3450 -0.5200 -0.0224
   59TMC2     H  921   2.439   1.718  12.710 -0.2368  2.0419  1.1769
   59TMC2    H1  922   2.200   2.024  12.519 -2.3759 -0.6276  1.1667
   59TMC2    H2  923   2.265   1.637  12.344  1.1935 -0.5640  0.0322
   59TMC2    C7  924   2.101   1.829  12.340  0.3641  1.3193  0.6110
   59TMC2    C8  925   2.385   1.536  12.550  0.4070 -0.3476  0.1608
   59TMC2    O1  926   2.060   1.733  12.279 -0.1976  0.3798 -0.0477
   59TMC2    O2  927   2.470   1.510  12.637  0.2390 -0.5079  0.0264
   59TMC2    O5  928   2.333   1.445  12.466  0.3505 -0.4120 -0.4875
   59TMC2    H5  929   2.251   1.483  12.428 -1.2332 -3.1004  0.2282
   60MPD2     C  930   2.326   2.039  13.023  0.0230 -0.0619  0.1045
   60MPD2    C1  931   2.434   1.969  12.966  0.0231 -0.5543  0.3720
   60MPD2    C2  932   2.542   1.931  13.046  0.8846 -0.6280  0.1770
   60MPD2    C3  933   2.533   1.952  13.183 -0.2826  0.5311 -0.0206
   60MPD2    C4  934   2.423   2.020  13.237  0.2800 -0.1181  0.9814
   60MPD2    C5  935   2.321   2.068  13.158  0.4427  0.1579 -0.1672
   60MPD2     H  936   2.622   1.875  12.999  0.7357  0.1426 -1.0012
   60MPD2    H1  937   2.419   2.049  13.341  0.8615  0.6923  0.7828
   60MPD2    H2  938   2.236   2.064  12.968  2.3858  1.1915 -3.2114
   60MPD2    H3  939   2.243   2.126  13.205  0.4296 -0.2210  0.2845
   60MPD2     N  940   2.636   1.902  13.271 -0.6044 -0.0873 -0.5489
   60MPD2    H5  941   2.634   1.942  13.364 -0.5776 -2.2562  0.3775
   60MPD2    N1  942   2.429   1.927  12.831  0.0199  0.1517 -0.1456
   60MPD2    H7  943   2.479   1.841  12.806  1.9582  1.6406 -1.3945
   61TMC2    C1  944   1.840   2.925  15.607  0.5622 -0.2082  0.0927
   61TMC2    C2  945   1.845   2.835  15.709  0.2351 -0.0489  0.9280
   61TMC2    C3  946   1.805   2.869  15.829 -0.0749  0.8032  0.8518
   61TMC2    C4  947   1.800   3.054  15.622  0.3862 -0.8177 -0.0573
   61TMC2    C5  948   1.770   3.091  15.749 -0.9661 -0.1637 -0.4644
   61TMC2    C6  949   1.770   2.999  15.849 -0.5585 -0.1365  0.2639
   61TMC2     C  950   1.869   2.872  15.473 -0.0830 -0.7658 -0.6132
   61TMC2     O  951   1.917   2.757  15.462 -0.1133  0.0333 -0.6018
   61TMC2     H  952   1.896   2.740  15.698 -2.6814 -1.6353  1.2320
   61TMC2    H1  953   1.807   3.127  15.542 -0.6503 -2.3729 -1.5814
   61TMC2    H2  954   1.760   3.037  15.950 -3.6903  1.2827 -0.5690
   61TMC2    C7  955   1.794   3.231  15.778 -0.1984 -0.6869 -0.1578
   61TMC2    C8  956   1.842   2.791  15.947 -0.4183 -0.9485 -0.2853
   61TMC2    O1  957   1.864   3.289  15.698  0.1664 -0.2953 -0.2100
   61TMC2    O2  958   1.877   2.848  16.052 -0.2859  0.4921 -0.0106
   61TMC2    O5  959   1.837   2.662  15.913  0.1055  0.2279  0.1450
   61TMC2    H5  960   1.790   2.659  15.827  0.4290 -0.9215  0.0151
   62MPD2     C  961   1.990   2.881  15.195  0.3081  0.4114  0.4396
   62MPD2    C1  962   1.896   2.968  15.247 -0.9340 -0.7704  0.1564
   62MPD2    C2  963   1.854   3.071  15.167 -0.5009  0.0828 -0.1043
   62MPD2    C3  964   1.922   3.100  15.048 -0.2869 -0.2289  0.0240
   62MPD2    C4  965   2.014   3.013  14.995  0.0970  0.0322  0.1993
   62MPD2    C5  966   2.052   2.904  15.071 -0.2131 -0.2123 -0.0232
   62MPD2     H  967   1.782   3.146  15.198 -1.6170 -0.8510 -0.4494
   62MPD2    H1  968   2.071   3.022  14.903  0.4190 -1.4434  0.2523
   62MPD2    H2  969   2.003   2.787  15.247  0.9116  0.2623  0.0255
   62MPD2    H3  970   2.127   2.833  15.037 -0.0250 -1.6367  3.3599
   62MPD2     N  971   1.877   3.217  14.982 -0.2252 -0.0312  0.6488
   62MPD2    H5  972   1.799   3.270  15.019 -1.2121  0.9659 -2.9148
   62MPD2    N1  973   1.840   2.962  15.372 -0.0617  0.2591 -0.6249
   62MPD2    H7  974   1.779   3.040  15.398 -0.2260 -0.7134  1.9268
   63TMC2    C1  975   1.209   3.816   9.925 -0.4590  0.1096  0.6928
   63TMC2    C2  976   1.332   3.813   9.976 -0.2434  0.1915  0.2377
   63TMC2    C3  977   1.420   3.913   9.939  0.7067 -0.0879 -0.8970
   63TMC2    C4  978   1.169   3.929   9.850  0.2904 -0.9044 -0.0828
   63TMC2    C5  979   1.259   4.023   9.822 -0.0580 -0.6347  0.1629
   63TMC2    C6  980   1.390   4.024   9.864  0.2396  0.1389 -0.0631
   63TMC2     C  981   1.105   3.739   9.994  0.3402 -0.7996 -0.6059
   63TMC2     O  982   0.990   3.765   9.958  0.4032 -0.2586  0.4180
   63TMC2     H  983   1.359   3.746  10.057 -1.5142 -0.3154  0.2332
   63TMC2    H1  984   1.064   3.949   9.832  0.7511  1.4512 -0.0697
   63TMC2    H2  985   1.466   4.100   9.857 -0.7588  1.3073  1.9287
   63TMC2    C7  986   1.207   4.137   9.758 -0.0651 -0.2851 -0.3576
   63TMC2    C8  987   1.529   3.931  10.029  0.2008 -0.0604 -0.0060
   63TMC2    O1  988   1.087   4.144   9.734  0.3054  0.1592  0.1303
   63TMC2    O2  989   1.534   3.894  10.147 -0.1069 -0.1083  0.2702
   63TMC2    O5  990   1.636   3.928   9.952 -0.6519  0.0044 -0.4377
   63TMC2    H5  991   1.624   3.949   9.857 -2.8257 -0.7790 -0.3479
   64MPD2     C  992   0.935   3.354  10.278  0.2501 -0.9404 -0.1006
   64MPD2    C1  993   1.064   3.381  10.312  0.5247  1.0951  0.0483
   64MPD2    C2  994   1.125   3.485  10.251 -0.8442 -0.3631 -0.1155
   64MPD2    C3  995   1.070   3.551  10.146  0.1427  0.0736 -0.2684
   64MPD2    C4  996   0.936   3.527  10.117 -0.3307  0.1630 -0.0845
   64MPD2    C5  997   0.871   3.416  10.173 -0.4226 -0.0034 -0.2789
   64MPD2     H  998   1.228   3.512  10.271 -1.1814  1.1647 -0.4814
   64MPD2    H1  999   0.882   3.592  10.048  0.9489 -1.3503 -2.5192
   64MPD2    H2 1000   0.883   3.272  10.326  1.5088 -0.2109  2.5562
   64MPD2    H3 1001   0.771   3.397  10.136  0.1943  0.3401 -2.1577
   64MPD2     N 1002   1.153   3.648  10.079  0.5703  0.4220 -0.1001
   64MPD2    H5 1003   1.252   3.648  10.099  0.1624 -0.4997  1.8793
   64MPD2    N1 1004   1.133   3.316  10.417 -0.3885  0.3748 -0.3126
   64MPD2    H7 1005   1.234   3.316  10.424 -0.6005 -0.8370  2.9546
   65TMC2    C1 1006   2.168   3.126  15.557  0.1772  0.0791  0.3682
   65TMC2    C2 1007   2.221   3.087  15.436 -0.5471 -0.2062 -0.2392
   65TMC2    C3 1008   2.255   3.188  15.345 -0.2921 -0.2000 -0.2150
   65TMC2    C4 1009   2.154   3.259  15.592  0.1671 -0.2186  0.3295
   65TMC2    C5 1010   2.206   3.350  15.503  1.0321  0.2228  0.5817
   65TMC2    C6 1011   2.257   3.317  15.385 -0.1036  0.1430 -0.1078
   65TMC2     C 1012   2.165   3.032  15.667 -0.7845  0.5290  0.1175
   65TMC2     O 1013   2.124   3.067  15.777 -1.3000 -0.0112  0.4901
   65TMC2     H 1014   2.203   2.985  15.405  0.3334 -1.5004  3.5159
   65TMC2    H1 1015   2.130   3.283  15.695 -3.1026 -1.4454 -0.1403
   65TMC2    H2 1016   2.277   3.398  15.315 -1.9215  1.2169  0.6115
   65TMC2    C7 1017   2.199   3.497  15.523 -0.3409  0.2120 -0.1521
   65TMC2    C8 1018   2.297   3.155  15.214  0.3678 -0.2243  0.3411
   65TMC2    O1 1019   2.260   3.575  15.455  0.4569  0.3427  0.3474
   65TMC2    O2 1020   2.345   3.048  15.185 -0.0086 -0.3072 -0.2237
   65TMC2    O5 1021   2.285   3.265  15.131 -1.0117  0.2396  0.1706
   65TMC2    H5 1022   2.218   3.326  15.167 -1.0912  0.3657 -0.1891
   66MPD2     C 1023   2.189   2.786  15.846 -0.2255 -0.5809  0.4580
   66MPD2    C1 1024   2.220   2.791  15.709  0.3012 -0.0121  0.4010
   66MPD2    C2 1025   2.247   2.675  15.643  0.3241 -0.3290  0.2146
   66MPD2    C3 1026   2.249   2.547  15.699 -0.8687  0.0545 -0.6164
   66MPD2    C4 1027   2.220   2.545  15.832 -0.2159  0.1298  0.0907
   66MPD2    C5 1028   2.194   2.656  15.902 -0.1695  0.4566 -0.8650
   66MPD2     H 1029   2.269   2.693  15.538  0.6876  1.0248  0.5262
   66MPD2    H1 1030   2.194   2.453  15.882 -0.3422  1.3300  2.2061
   66MPD2    H2 1031   2.174   2.881  15.895 -0.3079 -0.2101 -0.2892
   66MPD2    H3 1032   2.171   2.654  16.008  1.0913  2.3225 -0.5540
   66MPD2     N 1033   2.253   2.429  15.622 -0.2123 -0.4636  0.0323
   66MPD2    H5 1034   2.243   2.342  15.672  1.3273 -0.1046  1.0078
   66MPD2    N1 1035   2.212   2.912  15.627 -0.0744 -0.3804 -0.0445
   66MPD2    H7 1036   2.248   2.895  15.534 -0.4589 -1.4297  0.0008
   67TMC2    C1 1037   2.614   1.733  14.215  0.0406 -0.1780  0.0236
   67TMC2    C2 1038   2.581   1.621  14.285  0.1272 -0.9804  0.4445
   67TMC2    C3 1039   2.582   1.625  14.420 -0.0401 -0.6802  0.7208
   67TMC2    C4 1040   2.644   1.851  14.270 -0.0048  0.4166  0.8142
   67TMC2    C5 1041   2.641   1.850  14.406 -0.6637  0.4469 -0.1096
   67TMC2    C6 1042   2.610   1.742  14.480 -0.3262  0.0708 -0.5192
   67TMC2     C 1043   2.565   1.733  14.081  0.5786  0.3928 -0.7048
   67TMC2     O 1044   2.601   1.645  14.004  0.6470  0.3936  0.0865
   67TMC2     H 1045   2.567   1.535  14.221 -1.4903 -0.2247 -0.1986
   67TMC2    H1 1046   2.676   1.933  14.207 -0.0519  2.6039  3.6834
   67TMC2    H2 1047   2.601   1.755  14.587 -0.2495  1.4348 -0.6808
   67TMC2    C7 1048   2.673   1.981  14.459  0.0558  0.6243 -0.2474
   67TMC2    C8 1049   2.498   1.537  14.508  0.4428  0.3848 -0.7107
   67TMC2    O1 1050   2.677   2.071  14.374  0.1629 -0.1669 -0.1170
   67TMC2    O2 1051   2.442   1.577  14.605  0.3930  0.6061  1.0307
   67TMC2    O5 1052   2.469   1.426  14.437 -0.2811 -0.7592 -0.8859
   67TMC2    H5 1053   2.532   1.411  14.363 -0.5689 -1.2625 -1.0271
   68MPD2     C 1054   2.454   1.807  13.813  0.2946  0.5310  0.5097
   68MPD2    C1 1055   2.402   1.840  13.940 -0.0034  0.3466  0.5153
   68MPD2    C2 1056   2.274   1.889  13.944  0.4668 -0.7092  0.4587
   68MPD2    C3 1057   2.194   1.907  13.828 -0.3495 -0.6286 -0.8580
   68MPD2    C4 1058   2.255   1.884  13.710 -0.5542  0.4570 -0.2066
   68MPD2    C5 1059   2.382   1.832  13.697  0.0389 -0.2254  0.5171
   68MPD2     H 1060   2.237   1.912  14.044 -0.9403  2.8592 -0.8715
   68MPD2    H1 1061   2.210   1.914  13.616  0.7566 -2.5728 -1.7815
   68MPD2    H2 1062   2.557   1.778  13.795  0.0758 -0.1528  0.3589
   68MPD2    H3 1063   2.430   1.814  13.601 -2.2765  0.9511 -0.8740
   68MPD2     N 1064   2.059   1.955  13.821  0.4974  0.0070  0.0197
   68MPD2    H5 1065   2.016   1.961  13.729 -1.0651  2.1428  0.8998
   68MPD2    N1 1066   2.473   1.834  14.059  0.2013  0.1181  0.2831
   68MPD2    H7 1067   2.446   1.895  14.136 -1.2833  1.0082 -0.9369
   69TMC2    C1 1068   4.047   3.485  12.572  0.4113 -0.4824 -0.3127
   69TMC2    C2 1069   3.914   3.485  12.540  0.2820  0.5995 -0.4189
   69TMC2    C3 1070   3.883   3.504  12.410 -0.2026 -0.2962 -0.1479
   69TMC2    C4 1071   4.138   3.527  12.480  0.3327 -0.1439 -0.0254
   69TMC2    C5 1072   4.101   3.558  12.355 -0.2995  0.1035  0.6652
   69TMC2    C6 1073   3.972   3.549  12.315  0.1892 -0.2699  0.5311
   69TMC2     C 1074   4.078   3.401  12.690 -0.1177 -0.1052  0.1403
   69TMC2     O 1075   3.983   3.362  12.755  0.1370  0.0665 -0.1528
   69TMC2     H 1076   3.845   3.445  12.613 -1.4810  1.2593 -1.7262
   69TMC2    H1 1077   4.245   3.521  12.499  0.7193  0.9061 -1.9167
   69TMC2    H2 1078   3.937   3.543  12.213 -0.2355 -1.1988  0.7315
   69TMC2    C7 1079   4.209   3.577  12.258 -0.1331  0.0344 -0.1048
   69TMC2    C8 1080   3.745   3.472  12.367  0.2515 -0.5937 -0.4524
   69TMC2    O1 1081   4.321   3.535  12.291  0.3968  0.3466 -0.7199
   69TMC2    O2 1082   3.673   3.399  12.436 -0.0186  0.4353 -0.0619
   69TMC2    O5 1083   3.698   3.562  12.276 -0.5409  0.3621  0.2956
   69TMC2    H5 1084   3.771   3.615  12.237 -0.4289 -0.3728 -0.4854
   70MPD2     C 1085   4.347   3.150  12.726 -0.4432  0.0741  0.4583
   70MPD2    C1 1086   4.249   3.231  12.770 -0.1724  0.3048 -0.3083
   70MPD2    C2 1087   4.193   3.209  12.894 -1.3451  0.1706  0.4931
   70MPD2    C3 1088   4.232   3.103  12.981  0.0530  0.0049  0.7203
   70MPD2    C4 1089   4.326   3.012  12.929 -0.4000 -0.1119 -1.0003
   70MPD2    C5 1090   4.378   3.036  12.804  0.2426 -0.8370  0.2907
   70MPD2     H 1091   4.107   3.272  12.912 -0.9040  1.7295 -2.9299
   70MPD2    H1 1092   4.348   2.912  12.964  0.0725  0.6289  0.8431
   70MPD2    H2 1093   4.392   3.165  12.628  1.4852 -2.2103  0.9796
   70MPD2    H3 1094   4.444   2.957  12.770  0.2087 -0.8722  0.3074
   70MPD2     N 1095   4.164   3.066  13.095 -0.3093 -0.1116  0.3230
   70MPD2    H5 1096   4.193   2.977  13.135  0.7730  0.9907  1.9768
   70MPD2    N1 1097   4.202   3.339  12.687 -0.9419 -0.2749 -0.0870
   70MPD2    H7 1098   4.254   3.341  12.599 -1.4767  1.4482 -0.3598
   71TMC2    C1 1099   2.979   4.571   1.733 -0.6669  0.0933  0.2028
   71TMC2    C2 1100   3.097   4.566   1.805 -0.4654  0.7399  0.2791
   71TMC2    C3 1101   3.104   4.647   1.915  0.0495 -0.5176  0.2144
   71TMC2    C4 1102   2.868   4.650   1.763  0.2558 -0.2492 -0.3124
   71TMC2    C5 1103   2.894   0.013   1.862  0.2246 -0.5954 -0.0969
   71TMC2    C6 1104   3.008   0.010   1.943  0.5518  0.8328 -0.3963
   71TMC2     C 1105   2.961   4.469   1.631  0.0079  0.1646  0.5522
   71TMC2     O 1106   3.029   4.366   1.645  0.0079  0.1034 -0.3965
   71TMC2     H 1107   3.175   4.498   1.774 -0.2871  0.9776  0.2066
   71TMC2    H1 1108   2.778   4.647   1.703 -0.6367 -1.5196  1.0785
   71TMC2    H2 1109   3.025   0.088   2.015  2.5812  1.1149 -1.1807
   71TMC2    C7 1110   2.791   0.094   1.913 -0.0945  0.1259  0.1218
   71TMC2    C8 1111   3.223   4.629   1.989  0.5973 -0.3625 -0.7118
   71TMC2    O1 1112   2.825   0.200   1.958  0.0756 -0.6140 -0.5314
   71TMC2    O2 1113   3.327   4.580   1.951 -0.4441  0.6440  1.1017
   71TMC2    O5 1114   3.216   4.717   2.091  0.1911  0.1175  0.2965
   71TMC2    H5 1115   3.128   0.022   2.113  0.0773  1.1753 -1.9565
   72MPD2     C 1116   2.771   4.283   1.203 -0.0134  0.4351  0.5027
   72MPD2    C1 1117   2.719   4.413   1.213 -0.5831 -0.2684 -0.3895
   72MPD2    C2 1118   2.757   4.492   1.325  0.2297  0.5554 -0.3431
   72MPD2    C3 1119   2.831   4.430   1.421 -0.3999  0.9424 -0.5704
   72MPD2    C4 1120   2.866   4.296   1.408 -0.2930 -0.3795 -0.6075
   72MPD2    C5 1121   2.839   4.221   1.300 -0.0059  0.0602  0.0634
   72MPD2     H 1122   2.741   4.598   1.338  1.5583  0.6157  0.8853
   72MPD2    H1 1123   2.917   4.251   1.493 -2.0063 -2.1385 -0.5235
   72MPD2    H2 1124   2.759   4.229   1.110  0.3481 -0.8790  1.2295
   72MPD2    H3 1125   2.885   4.125   1.283  0.2027  0.0123  0.8906
   72MPD2     N 1126   2.877   4.507   1.531  0.0024 -0.5468  0.4632
   72MPD2    H5 1127   2.840   4.601   1.540  0.4111 -0.4490  1.0793
   72MPD2    N1 1128   2.634   4.478   1.112  0.1311  0.4865 -0.3964
   72MPD2    H7 1129   2.621   4.579   1.116 -0.7563  0.3003  1.5583
   73TMC2    C1 1130   1.593   0.930  14.139  0.7375 -0.0832  0.4927
   73TMC2    C2 1131   1.491   0.917  14.233  0.3766  0.2209  0.3632
   73TMC2    C3 1132   1.504   0.835  14.340  0.2182 -0.0001 -0.3416
   73TMC2    C4 1133   1.712   0.873  14.177  0.6900 -1.3065  0.2638
   73TMC2    C5 1134   1.726   0.824  14.304 -0.0515  0.7514 -0.3388
   73TMC2    C6 1135   1.623   0.789  14.383 -0.0333 -0.5404 -0.2795
   73TMC2     C 1136   1.609   1.064  14.085 -0.7089  0.0999 -0.5663
   73TMC2     O 1137   1.724   1.100  14.075  0.6430  0.1175  0.2551
   73TMC2     H 1138   1.391   0.952  14.211  0.0442 -0.1607  1.2516
   73TMC2    H1 1139   1.795   0.882  14.109  0.5462  1.3912  0.4435
   73TMC2    H2 1140   1.640   0.759  14.486  1.7471  1.4556 -0.0161
   73TMC2    C7 1141   1.845   0.886  14.369 -0.4418  0.2164 -0.2363
   73TMC2    C8 1142   1.414   0.842  14.450  0.4619  0.2422 -0.2818
   73TMC2    O1 1143   1.905   0.845  14.467 -0.7630 -0.4379  0.2713
   73TMC2    O2 1144   1.405   0.748  14.530  0.1232 -0.5043  0.0505
   73TMC2    O5 1145   1.449   0.969  14.497 -0.3569  0.2043  0.5785
   73TMC2    H5 1146   1.483   1.031  14.430  0.2078  0.1153  0.7770
   74MPD2     C 1147   1.478   1.524  13.936  0.1335  0.0405  0.2617
   74MPD2    C1 1148   1.601   1.489  13.994  0.5686 -0.2094 -1.1693
   74MPD2    C2 1149   1.607   1.356  14.033 -0.5300  0.6615 -0.4583
   74MPD2    C3 1150   1.493   1.269  14.027  0.0135 -0.0542 -0.1191
   74MPD2    C4 1151   1.370   1.315  13.971  0.6306  1.4964 -0.9311
   74MPD2    C5 1152   1.370   1.445  13.926  0.3993  0.4238 -0.4693
   74MPD2     H 1153   1.701   1.306  14.056 -0.2540  2.0557  1.3706
   74MPD2    H1 1154   1.280   1.256  13.959  1.8499 -0.8598  1.5790
   74MPD2    H2 1155   1.472   1.616  13.879  0.1180 -0.8691 -1.2076
   74MPD2    H3 1156   1.287   1.480  13.866 -2.8531 -0.6875  3.3519
   74MPD2     N 1157   1.494   1.131  14.069  0.1088  0.1213 -0.2293
   74MPD2    H5 1158   1.409   1.076  14.058 -1.4041  1.7161  3.3626
   74MPD2    N1 1159   1.713   1.575  13.985  0.6502  0.1087 -0.1051
   74MPD2    H7 1160   1.702   1.659  13.928  1.9827 -0.0403 -0.5789
   75TMC2    C1 1161   1.852   2.049  13.898 -0.4531  0.3993 -0.1814
   75TMC2    C2 1162   1.778   2.087  14.007 -0.2929  0.3530  0.1615
   75TMC2    C3 1163   1.685   2.184  13.995  0.0289 -0.4032  0.6869
   75TMC2    C4 1164   1.823   2.102  13.780 -0.5966 -0.5551 -0.4506
   75TMC2    C5 1165   1.725   2.197  13.769  0.0343  0.2512 -0.4936
   75TMC2    C6 1166   1.650   2.236  13.876 -0.1641  0.4875  0.1219
   75TMC2     C 1167   1.985   2.002  13.924  0.5262  0.7302 -0.6440
   75TMC2     O 1168   2.015   2.001  14.044  1.0329  0.9247 -0.8653
   75TMC2     H 1169   1.810   2.058  14.106  0.9442  0.2522 -0.2688
   75TMC2    H1 1170   1.873   2.070  13.689  1.4254 -0.4496  0.6269
   75TMC2    H2 1171   1.563   2.301  13.866 -0.4498  0.4224  2.3662
   75TMC2    C7 1172   1.665   2.218  13.642  0.9252 -0.2471 -0.7777
   75TMC2    C8 1173   1.578   2.204  14.092 -0.1027  0.3105  0.0340
   75TMC2    O1 1174   1.680   2.134  13.552  0.5712 -0.2830  0.5021
   75TMC2    O2 1175   1.507   2.304  14.089  0.1127  0.1015 -0.0279
   75TMC2    O5 1176   1.604   2.131  14.202  0.2880  0.1054 -0.0822
   75TMC2    H5 1177   1.665   2.057  14.181  0.0434  0.1425 -0.9363
   76TMC2    C1 1178   0.993   3.117  11.955  0.5866  0.0135 -0.0179
   76TMC2    C2 1179   0.925   2.999  11.992  0.5997 -0.3074 -1.2008
   76TMC2    C3 1180   0.994   2.899  12.061  0.4307 -0.0764 -0.8355
   76TMC2    C4 1181   1.122   3.136  12.007  0.1293 -0.2968 -0.4026
   76TMC2    C5 1182   1.181   3.027  12.066 -0.0072  0.0545  0.0031
   76TMC2    C6 1183   1.125   2.905  12.088 -0.4061  0.2744  0.5137
   76TMC2     C 1184   0.891   3.232  11.955 -0.5151  0.2590 -0.3050
   76TMC2     O 1185   0.792   3.225  11.883 -0.5624 -0.2262  0.1129
   76TMC2     H 1186   0.821   2.992  11.962 -0.3134 -0.0383  1.9488
   76TMC2    H1 1187   1.162   3.237  12.005  0.8093 -0.5918 -1.8088
   76TMC2    H2 1188   1.180   2.812  12.097 -1.7804 -0.5541  0.2598
   76TMC2    C7 1189   1.316   3.044  12.106 -0.1364 -0.8015  0.1492
   76TMC2    C8 1190   0.954   2.765  12.036  0.6704 -0.1731  0.9194
   76TMC2    O1 1191   1.372   3.135  12.045 -0.1157  0.4699 -0.5024
   76TMC2    O2 1192   1.029   2.685  11.985  0.6000  0.3688 -0.2371
   76TMC2    O5 1193   0.816   2.767  12.035  0.3064 -0.4311  0.5672
   76TMC2    H5 1194   0.783   2.831  12.102 -1.4117  0.5734 -1.2564
   77MPD2     C 1195   0.621   3.545  12.266  0.2575  0.3287  0.5340
   77MPD2    C1 1196   0.606   3.509  12.133 -0.5192  0.0772 -0.5417
   77MPD2    C2 1197   0.703   3.431  12.074 -0.7844 -0.1816  1.0253
   77MPD2    C3 1198   0.812   3.378  12.148  0.4337 -0.1923  0.3325
   77MPD2    C4 1199   0.828   3.416  12.277 -0.4000  0.8131  0.3199
   77MPD2    C5 1200   0.732   3.500  12.336 -0.1404  0.6325  0.2892
   77MPD2     H 1201   0.694   3.402  11.970 -3.4062 -1.2216  1.5439
   77MPD2    H1 1202   0.904   3.379  12.344  0.4259  1.6933 -0.1327
   77MPD2    H2 1203   0.551   3.607  12.321  1.2761  1.0682  0.9977
   77MPD2    H3 1204   0.732   3.518  12.443  0.3446 -1.8518  0.7124
   77MPD2     N 1205   0.910   3.300  12.078  0.1307 -0.5853  0.6249
   77MPD2    H5 1206   1.001   3.295  12.121 -0.4462  1.5054  2.0916
   77MPD2    N1 1207   0.502   3.555  12.054  0.7830  0.2778  0.4435
   77MPD2    H7 1208   0.505   3.517  11.960 -1.0121  0.2942  0.3846
   78TMC2    C1 1209   1.905   2.939   0.674 -0.6284  0.9704 -0.2999
   78TMC2    C2 1210   1.862   3.007   0.786  0.3766 -0.6075  0.3563
   78TMC2    C3 1211   1.946   3.108   0.834 -0.5361 -0.4449  0.5458
   78TMC2    C4 1212   2.010   2.975   0.598 -0.9650  0.1939  0.3791
   78TMC2    C5 1213   2.083   3.085   0.644 -0.7980 -0.7760 -0.3390
   78TMC2    C6 1214   2.059   3.147   0.762  0.1502  0.6910 -1.3837
   78TMC2     C 1215   1.822   2.842   0.614  0.1688 -0.0656 -0.2093
   78TMC2     O 1216   1.861   2.781   0.517 -0.4286 -0.4616  0.7751
   78TMC2     H 1217   1.794   2.960   0.856  0.9369 -0.7557  0.7959
   78TMC2    H1 1218   2.025   2.933   0.499 -0.7610  0.5253  0.2673
   78TMC2    H2 1219   2.126   3.219   0.805  0.8289  0.4427 -2.0164
   78TMC2    C7 1220   2.212   3.113   0.584 -0.2714 -0.0096  0.0497
   78TMC2    C8 1221   1.948   3.153   0.976  0.3009 -0.0520 -1.1091
   78TMC2    O1 1222   2.284   3.187   0.649 -0.1548  0.1691  0.0753
   78TMC2    O2 1223   2.048   3.142   1.043 -0.5347  0.5876  0.5784
   78TMC2    O5 1224   1.818   3.136   1.019 -0.0959 -0.3165 -0.5337
   78TMC2    H5 1225   1.753   3.163   0.951  0.2363  2.3410  0.2098
   79MPD1     C 1226   1.414   2.526   0.582  0.1057  0.0351 -0.5480
   79MPD1    C1 1227   1.543   2.517   0.529  0.3288  0.7262  0.2131
   79MPD1    C2 1228   1.637   2.611   0.572 -0.3857 -1.0861  0.1782
   79MPD1    C3 1229   1.605   2.722   0.638  0.2709 -0.1468  0.1504
   79MPD1    C4 1230   1.479   2.732   0.683  0.1668  0.0833  0.5916
   79MPD1    C5 1231   1.386   2.636   0.654 -0.0041  0.5359  0.4058
   79MPD1     H 1232   1.734   2.601   0.524 -0.4476 -0.5376 -0.0602
   79MPD1    H1 1233   1.457   2.815   0.749  0.5591 -0.3502  1.2785
   79MPD1    H2 1234   1.346   2.446   0.555  0.1814  0.4700 -2.0333
   79MPD1    H3 1235   1.285   2.654   0.687 -0.9127 -1.0153 -1.5242
   79MPD1     N 1236   1.698   2.828   0.665  0.1517 -0.8707 -0.2390
   79MPD1    H5 1237   1.659   2.905   0.719 -0.8443 -0.5996 -1.3651
   79MPD1    N1 1238   1.588   2.398   0.472  0.6342  0.0016 -0.6089
   79MPD1    H6 1239   1.511   2.344   0.433 -0.6795 -0.0065  1.9809
   79MPD1    H7 1240   1.669   2.415   0.413 -0.4486  1.8479 -1.5486
   80TMC2    C1 1241   4.519   1.888  11.650  0.5057  0.2347 -0.2143
   80TMC2    C2 1242   4.564   1.866  11.525 -0.0550 -0.5104 -1.0896
   80TMC2    C3 1243   4.505   1.768  11.450  0.4658  0.0398  0.0785
   80TMC2    C4 1244   4.421   1.813  11.708 -0.3323 -0.3175  0.0821
   80TMC2    C5 1245   4.378   1.707  11.629  0.1263 -0.0223 -0.2757
   80TMC2    C6 1246   4.416   1.681  11.496 -0.4091 -0.1807  0.5449
   80TMC2     C 1247   4.591   1.983  11.729  0.9145 -0.4771 -0.0802
   80TMC2     O 1248   4.708   2.015  11.711  0.0036 -0.1806 -0.2032
   80TMC2     H 1249   4.637   1.931  11.478  2.4741 -1.5084  1.4191
   80TMC2    H1 1250   4.385   1.837  11.807  0.6508 -4.5918  1.4975
   80TMC2    H2 1251   4.382   1.593  11.444 -0.6176 -1.6648  3.1986
   80TMC2    C7 1252   4.273   1.618  11.663 -0.7863 -1.3006  0.6625
   80TMC2    C8 1253   4.529   1.771  11.311  0.5156 -0.7282 -0.4960
   80TMC2    O1 1254   4.235   1.544  11.576  0.0483 -0.1574 -0.1052
   80TMC2    O2 1255   4.501   1.670  11.246  0.4974  0.5265  0.8594
   80TMC2    O5 1256   4.516   1.898  11.257 -0.5036  0.2436 -0.2081
   80TMC2    H5 1257   4.501   1.967  11.326  1.7785  0.8306 -0.3032
   81MPD2     C 1258   4.683   2.182  11.931 -0.8779  0.1792  0.3337
   81MPD2    C1 1259   4.549   2.143  11.915  0.1864 -0.0267 -0.2459
   81MPD2    C2 1260   4.446   2.212  11.986 -0.4306  0.1232  0.2842
   81MPD2    C3 1261   4.482   2.316  12.074 -0.1501  0.7725  0.9719
   81MPD2    C4 1262   4.614   2.354  12.090  0.1809  0.7235 -0.3010
   81MPD2    C5 1263   4.709   2.286  12.022  0.1371  0.0946  0.8907
   81MPD2     H 1264   4.342   2.192  11.965 -0.3250  0.0674 -0.1920
   81MPD2    H1 1265   4.635   2.439  12.154  1.1325 -2.2736  3.3935
   81MPD2    H2 1266   0.036   2.131  11.888  2.1415  3.2538  2.7683
   81MPD2    H3 1267   0.077   2.326  12.024  0.2245 -0.0773 -0.1142
   81MPD2     N 1268   4.382   2.400  12.137 -0.6838 -0.3151  0.3759
   81MPD2    H5 1269   4.429   2.474  12.187 -0.7688  0.5119 -0.7735
   81MPD2    N1 1270   4.511   2.038  11.826  0.4641 -0.3256  0.1299
   81MPD2    H7 1271   4.413   2.017  11.836  0.1319  1.8869  1.7144
   82TMC2    C1 1272   3.142   1.883  11.177 -0.3775 -1.2516 -0.6733
   82TMC2    C2 1273   3.272   1.888  11.201  0.8503  0.0392 -0.2213
   82TMC2    C3 1274   3.341   1.777  11.237  0.2667 -0.8553  0.7044
   82TMC2    C4 1275   3.075   1.762  11.179  0.3945  0.4569 -0.1656
   82TMC2    C5 1276   3.149   1.651  11.208  0.3379 -0.0790  0.1590
   82TMC2    C6 1277   3.275   1.655  11.248  0.7121  0.5540  0.0145
   82TMC2     C 1278   3.063   2.003  11.136  0.0104  0.0564  0.5228
   82TMC2     O 1279   2.944   2.001  11.148 -0.5919 -0.2054  0.4331
   82TMC2     H 1280   3.326   1.979  11.224 -0.5527  0.3809  1.6618
   82TMC2    H1 1281   2.972   1.759  11.146 -0.0034  2.3227  0.8891
   82TMC2    H2 1282   3.331   1.565  11.271  0.8454  0.6652  0.1293
   82TMC2    C7 1283   3.074   1.536  11.256  0.2416 -0.2895  0.6490
   82TMC2    C8 1284   3.469   1.803  11.304  0.3147 -0.2312 -0.0780
   82TMC2    O1 1285   2.957   1.563  11.267  0.1806 -0.7962 -0.2991
   82TMC2    O2 1286   3.551   1.879  11.251  0.5407  0.3855 -0.7570
   82TMC2    O5 1287   3.440   1.784  11.435 -0.2447  0.8158 -0.7065
   82TMC2    H5 1288   3.358   1.731  11.444 -0.0587  0.7164  0.4344
   83MPD2     C 1289   3.033   2.507  11.039  0.1882 -0.1831  0.0790
   83MPD2    C1 1290   2.938   2.414  11.042 -0.1302  0.6579  0.4097
   83MPD2    C2 1291   2.971   2.285  11.075 -0.4938 -0.0492  0.4260
   83MPD2    C3 1292   3.105   2.246  11.095  0.1304 -0.6041  0.3870
   83MPD2    C4 1293   3.203   2.343  11.085 -0.5276  0.4383 -0.0663
   83MPD2    C5 1294   3.166   2.480  11.063  0.2841 -0.1449 -0.6554
   83MPD2     H 1295   2.894   2.209  11.080 -1.6750  1.1004 -0.1313
   83MPD2    H1 1296   3.308   2.318  11.090 -0.9849 -1.4789 -0.1813
   83MPD2    H2 1297   3.006   2.611  11.024  1.9885 -0.1280 -2.9427
   83MPD2    H3 1298   3.249   2.549  11.074 -0.7181  0.4897  2.9175
   83MPD2     N 1299   3.147   2.111  11.118 -0.0000  0.4564  0.6345
   83MPD2    H5 1300   3.246   2.091  11.127  0.2644  2.0068  1.1445
   83MPD2    N1 1301   2.806   2.457  11.009 -0.2960 -0.1128 -0.4803
   83MPD2    H7 1302   2.782   2.555  10.995  1.5713  0.2883 -0.7800
   84TMC2    C1 1303   3.732   1.490  11.483 -0.9543 -0.2648  0.3817
   84TMC2    C2 1304   3.647   1.423  11.566 -0.2177 -0.3979 -0.4861
   84TMC2    C3 1305   3.606   1.298  11.533  0.4679 -0.4968 -0.1137
   84TMC2    C4 1306   3.770   1.434  11.368 -0.2091 -0.2630 -0.4656
   84TMC2    C5 1307   3.720   1.310  11.336 -0.6257 -0.4024 -1.4162
   84TMC2    C6 1308   3.639   1.238  11.422  0.0425 -0.2040  0.7927
   84TMC2     C 1309   3.759   1.626  11.505 -0.1073 -0.2181 -0.1236
   84TMC2     O 1310   3.710   1.666  11.612  0.1186 -0.3319  0.1512
   84TMC2     H 1311   3.609   1.466  11.658  1.7059  0.5306 -0.1132
   84TMC2    H1 1312   3.805   1.500  11.288  0.9454 -1.0987 -0.6446
   84TMC2    H2 1313   3.608   1.136  11.402 -1.0721  0.2988 -0.0307
   84TMC2    C7 1314   3.770   1.236  11.222  0.6172 -0.2822  0.7537
   84TMC2    C8 1315   3.494   1.252  11.600  0.0921 -0.1349  0.0770
   84TMC2    O1 1316   3.691   1.159  11.167  0.1373 -0.0606 -0.0073
   84TMC2    O2 1317   3.384   1.297  11.575 -0.2552 -0.3693 -0.6238
   84TMC2    O5 1318   3.541   1.219  11.720 -0.3799 -0.1501  0.1101
   84TMC2    H5 1319   3.638   1.202  11.714 -0.4886 -0.3320 -1.0465
   85TMC2    C1 1320   4.662   3.946  15.800 -1.1051 -0.1256 -0.4807
   85TMC2    C2 1321   4.556   4.028  15.827 -0.9483  0.4836  0.3608
   85TMC2    C3 1322   4.570   4.154  15.785 -0.0908 -1.9827 -0.8813
   85TMC2    C4 1323   0.046   3.987  15.741 -0.0435 -0.7486  0.4937
   85TMC2    C5 1324   0.047   4.115  15.714  0.2970  0.2646 -0.2906
   85TMC2    C6 1325   4.680   4.202  15.726 -0.4516  0.2889 -0.0407
   85TMC2     C 1326   4.666   3.816  15.864  0.1810  0.7352  0.1416
   85TMC2     O 1327   0.044   3.778  15.898  0.6852  0.0522  0.3963
   85TMC2     H 1328   4.462   3.991  15.865  0.0873 -1.1434  1.3338
   85TMC2    H1 1329   0.133   3.923  15.731  0.3597 -0.0502 -0.4198
   85TMC2    H2 1330   4.681   4.301  15.682  2.2748  0.5818  0.6743
   85TMC2    C7 1331   0.159   4.144  15.619 -0.1469 -0.0661  0.2636
   85TMC2    C8 1332   4.470   4.246  15.819  0.2469 -0.5365  0.6647
   85TMC2    O1 1333   0.257   4.072  15.612 -0.2698 -0.6375  0.0585
   85TMC2    O2 1334   4.457   4.356  15.766  0.3614 -0.2110 -0.2192
   85TMC2    O5 1335   4.428   4.229  15.951 -0.0239 -0.2392 -0.2575
   85TMC2    H5 1336   4.471   4.150  15.992  0.2338 -1.1126 -2.2125
   86MPD2     C 1337   4.453   3.455  16.141 -0.0870 -0.3430  0.4850
   86MPD2    C1 1338   4.350   3.520  16.076  0.5960  0.6189  0.4138
   86MPD2    C2 1339   4.388   3.618  15.990  0.1002  0.6074  0.6758
   86MPD2    C3 1340   4.519   3.655  15.974  0.0486 -1.0294 -0.4198
   86MPD2    C4 1341   4.617   3.600  16.052 -0.0747  0.1610  0.4769
   86MPD2    C5 1342   4.587   3.498  16.129  0.1890 -0.4003 -0.1606
   86MPD2     H 1343   4.307   3.658  15.931 -0.2751 -0.9595  0.1109
   86MPD2    H1 1344   4.721   3.630  16.049 -0.0610 -0.0844 -1.8258
   86MPD2    H2 1345   4.437   3.371  16.208 -1.5214  0.1895  0.8057
   86MPD2    H3 1346   4.667   3.448  16.183  1.8725  1.0818 -1.2723
   86MPD2     N 1347   4.543   3.759  15.888 -0.3261  0.5746 -0.0454
   86MPD2    H5 1348   4.457   3.793  15.846 -1.6550 -3.9684 -1.0018
   86MPD2    N1 1349   4.220   3.469  16.083 -0.0146  0.1483 -0.6059
   86MPD2    H7 1350   4.159   3.494  16.006 -2.0924 -1.3143  0.5546
   87TMC2    C1 1351   2.297   1.767  17.558  0.7606  0.2665  0.2734
   87TMC2    C2 1352   2.408   1.839  17.526 -0.5454 -1.0966  0.2278
   87TMC2    C3 1353   2.392   1.978  17.515 -0.6076 -0.0199  0.3540
   87TMC2    C4 1354   2.174   1.827  17.600  0.4408 -0.3269  0.9216
   87TMC2    C5 1355   2.170   1.967  17.599 -0.7113 -0.2293  0.1934
   87TMC2    C6 1356   2.273   2.042  17.548  0.1431 -0.1894  0.1349
   87TMC2     C 1357   2.301   1.623  17.522  0.3899 -0.0324 -0.4802
   87TMC2     O 1358   2.411   1.572  17.499 -0.5854 -0.4429  0.6392
   87TMC2     H 1359   2.505   1.793  17.515 -1.0810 -2.2167  0.2128
   87TMC2    H1 1360   2.100   1.762  17.645  0.3143 -0.5281  0.4208
   87TMC2    H2 1361   2.256   2.145  17.519  0.8833  0.2158  1.1461
   87TMC2    C7 1362   2.049   2.051  17.622  0.0588  0.1743 -0.0428
   87TMC2    C8 1363   2.509   2.068  17.509 -0.2411  0.2442  0.3156
   87TMC2    O1 1364   2.069   2.166  17.652  0.5814 -0.0884 -0.5017
   87TMC2    O2 1365   2.513   2.179  17.562 -0.3719  0.2798  0.0803
   87TMC2    O5 1366   2.587   2.027  17.412  0.0757  0.0092  0.1717
   87TMC2    H5 1367   2.555   1.948  17.364  0.8682  1.0811 -2.0947
   88MPD2     C 1368   1.687   1.950  17.635  0.1589 -0.5392  0.5305
   88MPD2    C1 1369   1.795   2.030  17.652 -0.1996 -0.5600  0.0330
   88MPD2    C2 1370   1.771   2.159  17.692 -0.0992 -0.1507 -0.1820
   88MPD2    C3 1371   1.644   2.206  17.727 -0.1949 -0.0224  0.4923
   88MPD2    C4 1372   1.539   2.123  17.703  0.1807 -0.1777 -0.1869
   88MPD2    C5 1373   1.557   2.005  17.644  0.0242 -0.2077 -0.5601
   88MPD2     H 1374   1.860   2.215  17.720  0.3906 -0.7285 -0.5811
   88MPD2    H1 1375   1.442   2.171  17.707 -0.6883 -1.9477  0.2339
   88MPD2    H2 1376   1.701   1.848  17.602 -0.7865 -0.3491 -0.5006
   88MPD2    H3 1377   1.468   1.944  17.627 -0.8381  0.5068  1.3999
   88MPD2     N 1378   1.611   2.334   0.040 -0.9116  0.5593  0.1309
   88MPD2    H5 1379   1.515   2.339   0.072 -0.9936 -0.8728  0.0908
   88MPD2    N1 1380   1.923   1.975  17.622 -0.6861  0.1358 -0.1783
   88MPD2    H7 1381   1.936   1.882  17.585  1.4309  0.1154  0.5748
   89TMC2    C1 1382   4.293   0.341   1.595 -0.1826  0.0384  0.4769
   89TMC2    C2 1383   4.417   0.392   1.581  0.3471  0.0173 -0.5215
   89TMC2    C3 1384   4.422   0.524   1.550 -1.1130  0.3293 -0.5430
   89TMC2    C4 1385   4.180   0.401   1.553 -0.3129 -0.1852 -1.1955
   89TMC2    C5 1386   4.188   0.532   1.519  0.5855 -0.6337 -0.0435
   89TMC2    C6 1387   4.309   0.592   1.512 -0.3673  0.7727  0.8227
   89TMC2     C 1388   4.285   0.200   1.648  1.0255  0.0882  0.6740
   89TMC2     O 1389   4.376   0.148   1.707 -0.2981 -0.1353 -0.2276
   89TMC2     H 1390   4.497   0.349   1.640 -0.1354 -0.9968 -0.5990
   89TMC2    H1 1391   4.087   0.365   1.594  1.3315 -1.6885  1.2668
   89TMC2    H2 1392   4.323   0.699   1.502  0.4656  0.8465  2.6878
   89TMC2    C7 1393   4.065   0.612   1.536  0.6647  0.5076  0.7683
   89TMC2    C8 1394   4.528   0.603   1.599  0.0565  0.1438 -0.1954
   89TMC2    O1 1395   3.969   0.562   1.593  0.3865  0.1622 -0.3884
   89TMC2    O2 1396   4.523   0.725   1.623 -0.3554  0.1758 -0.4283
   89TMC2    O5 1397   4.641   0.553   1.549  0.1673  0.1321 -0.1916
   89TMC2    H5 1398   4.630   0.458   1.526 -2.2576  0.6812 -1.3888
   90MPD2     C 1399   4.027   4.484   1.670 -0.0204 -0.9066  0.4850
   90MPD2    C1 1400   3.937   4.580   1.646  0.9831 -0.2179  0.9347
   90MPD2    C2 1401   3.986   4.713   1.652 -0.3398 -0.2916  0.6539
   90MPD2    C3 1402   4.119   0.010   1.671  0.3273  0.4699 -0.0287
   90MPD2    C4 1403   4.203   4.635   1.687 -0.1167 -0.2118 -0.2755
   90MPD2    C5 1404   4.158   4.508   1.693 -0.3999 -0.7198  0.1185
   90MPD2     H 1405   3.911   0.058   1.643  1.6698  1.6169  0.4159
   90MPD2    H1 1406   4.312   4.635   1.685 -0.0873 -2.3424  1.4740
   90MPD2    H2 1407   3.996   4.381   1.672 -0.3478 -0.8473 -1.7804
   90MPD2    H3 1408   4.230   4.428   1.703  0.8661  0.5575  1.1714
   90MPD2     N 1409   4.158   0.146   1.640 -0.0665  0.2337  0.1964
   90MPD2    H5 1410   4.079   0.205   1.616  0.0621 -0.0448 -0.9269
   90MPD2    N1 1411   3.801   4.558   1.617  1.0039 -0.4225 -0.0097
   90MPD2    H7 1412   3.743   4.630   1.576  1.0832  1.0369  2.4497
   91TMC2    C1 1413   4.394   4.367  16.373  0.2213  0.0001  0.0897
   91TMC2    C2 1414   4.449   4.360  16.500  0.2912  0.0914  0.8435
   91TMC2    C3 1415   4.407   4.257  16.575 -0.1875  0.0705 -0.3171
   91TMC2    C4 1416   4.288   4.299  16.336  0.8116  0.1851 -0.1717
   91TMC2    C5 1417   4.237   4.209  16.422 -0.9178 -0.4104  0.6799
   91TMC2    C6 1418   4.302   4.185  16.538 -0.2938  0.4761  0.2554
   91TMC2     C 1419   4.457   4.443  16.268  0.3468 -0.5695  0.0719
   91TMC2     O 1420   4.381   4.475  16.182 -0.1882  0.4841 -0.6587
   91TMC2     H 1421   4.522   4.430  16.539 -2.2082  2.2724  1.6053
   91TMC2    H1 1422   4.239   4.321  16.242  0.2912  4.0748  1.0151
   91TMC2    H2 1423   4.275   4.101  16.601 -0.0893 -0.3864 -0.8161
   91TMC2    C7 1424   4.111   4.130  16.385  0.1824  0.4034  0.4443
   91TMC2    C8 1425   4.437   4.266  16.715  0.2285 -0.8333 -0.2120
   91TMC2    O1 1426   4.067   4.060  16.479  0.8834  0.4851 -0.2140
   91TMC2    O2 1427   4.543   4.316  16.751 -0.3783 -0.4724  0.2268
   91TMC2    O5 1428   4.320   4.287  16.780  0.3087 -0.0654 -0.5353
   91TMC2    H5 1429   4.235   4.250  16.749  1.6983 -3.2044 -0.5910
   92MPD2     C 1430   4.653   4.462  16.047 -0.1554 -0.2545  0.2237
   92MPD2    C1 1431   4.683   4.464  16.178 -0.3636  0.7124  0.4747
   92MPD2    C2 1432   0.078   4.503  16.215 -0.0416 -0.8535  0.6967
   92MPD2    C3 1433   0.184   4.504  16.120  1.0798  0.6266 -0.1099
   92MPD2    C4 1434   0.147   4.497  15.983  0.1176 -0.5849 -0.4269
   92MPD2    C5 1435   0.016   4.484  15.952 -0.4745 -0.1451  0.1193
   92MPD2     H 1436   0.114   4.505  16.317 -0.2458  0.6387  0.7320
   92MPD2    H1 1437   0.219   4.507  15.903  0.5692 -0.0752  0.0408
   92MPD2    H2 1438   4.551   4.449  16.011  0.2996  2.2635 -1.9620
   92MPD2    H3 1439   4.719   4.478  15.848  1.6995  1.1980 -0.5748
   92MPD2     N 1440   0.317   4.529  16.163  0.2408 -0.2816 -0.1695
   92MPD2    H5 1441   0.335   4.557  16.259 -1.7909  4.2425 -1.1163
   92MPD2    N1 1442   4.591   4.446  16.283  0.6322 -0.4060 -0.0265
   92MPD2    H7 1443   4.633   4.417  16.371 -0.0101 -0.5608  0.2327
   93TMC2    C1 1444   1.883   0.281  14.213 -0.3820  0.0328 -0.0520
   93TMC2    C2 1445   1.786   0.371  14.162  0.2741  0.6709  0.3067
   93TMC2    C3 1446   1.831   0.447  14.057 -0.1293 -1.4921  0.6059
   93TMC2    C4 1447   2.000   0.262  14.140 -0.3677 -0.1698 -1.1050
   93TMC2    C5 1448   2.024   0.327  14.021  0.6852  0.2661 -0.1841
   93TMC2    C6 1449   1.928   0.412  13.975  0.4039 -0.2496  0.4414
   93TMC2     C 1450   1.821   0.159  14.260 -0.0277 -0.6500  0.5802
   93TMC2     O 1451   1.890   0.063  14.295 -0.3800 -0.2578 -0.0134
   93TMC2     H 1452   1.698   0.402  14.216  2.8388  2.2447  3.5912
   93TMC2    H1 1453   2.084   0.204  14.177 -0.4652  0.3207 -0.1317
   93TMC2    H2 1454   1.938   0.459  13.878  0.0262 -1.5561 -0.2354
   93TMC2    C7 1455   2.154   0.330  13.959  0.7364  0.4862 -0.2842
   93TMC2    C8 1456   1.741   0.549  14.012  0.4201  0.0312 -0.4801
   93TMC2    O1 1457   2.162   0.327  13.838 -0.4306 -0.0594  0.2611
   93TMC2    O2 1458   1.621   0.552  14.036  0.9187  0.6435  0.1817
   93TMC2    O5 1459   1.830   0.640  13.965  0.3542  0.2623 -0.1107
   93TMC2    H5 1460   1.926   0.629  13.981  0.5315 -0.2021 -1.4568
   94MPD2     C 1461   1.622   4.664  14.322 -0.3443  0.8817  0.1532
   94MPD2    C1 1462   1.596   0.053  14.267  0.8642 -0.3213 -0.7373
   94MPD2    C2 1463   1.465   0.081  14.228  0.3089 -0.3396 -0.1702
   94MPD2    C3 1464   1.375   4.708  14.216 -0.4594 -1.2814  0.3959
   94MPD2    C4 1465   1.403   4.585  14.282  0.1070 -0.7665  0.0485
   94MPD2    C5 1466   1.525   4.569  14.340 -0.0615 -0.0708 -0.2262
   94MPD2     H 1467   1.432   0.175  14.185 -1.3654 -0.4505  0.8712
   94MPD2    H1 1468   1.337   4.501  14.266  1.4381 -2.0582  1.3431
   94MPD2    H2 1469   1.717   4.649  14.372 -0.4043  2.4275  0.7393
   94MPD2    H3 1470   1.551   4.473  14.384  0.9060  0.1825 -0.2448
   94MPD2     N 1471   1.255   4.722  14.131  0.2618  0.2994 -0.4470
   94MPD2    H5 1472   1.208   4.633  14.121 -0.5845  0.8553 -1.4603
   94MPD2    N1 1473   1.684   0.162  14.248 -0.1148 -0.6662  0.3758
   94MPD2    H7 1474   1.643   0.247  14.210 -0.4292 -0.6220  0.8167
   95TMC2    C1 1475   1.461   1.844  15.874  0.2727  0.0090  1.1563
   95TMC2    C2 1476   1.364   1.750  15.861  0.3518 -0.2582  0.3094
   95TMC2    C3 1477   1.288   1.708  15.971 -0.3915 -0.2857 -0.4421
   95TMC2    C4 1478   1.499   1.890  16.006 -0.7840  0.0112  0.3788
   95TMC2    C5 1479   1.434   1.837  16.112  0.2302 -0.0535 -0.1993
   95TMC2    C6 1480   1.322   1.751  16.097 -0.0778 -0.7786 -0.6104
   95TMC2     C 1481   1.538   1.891  15.757  0.0519  1.0374 -0.7224
   95TMC2     O 1482   1.612   1.987  15.777 -0.5293 -0.3477 -0.3495
   95TMC2     H 1483   1.326   1.732  15.761  0.6024 -0.2712  0.2157
   95TMC2    H1 1484   1.584   1.957  16.019 -0.5257 -0.3472  0.5307
   95TMC2    H2 1485   1.269   1.710  16.183 -0.0587 -2.3840 -1.3729
   95TMC2    C7 1486   1.483   1.876  16.243  0.1733  0.6338  0.2982
   95TMC2    C8 1487   1.211   1.585  15.962  0.2773 -0.5395  0.0449
   95TMC2    O1 1488   1.578   1.947  16.246  0.0116 -0.6474  0.6047
   95TMC2    O2 1489   1.111   1.563  16.033 -0.1962  0.2208  0.1254
   95TMC2    O5 1490   1.256   1.510  15.860  0.5675  0.2231  0.5178
   95TMC2    H5 1491   1.343   1.537  15.822 -0.0973 -0.0847 -1.2119
   96MPD2     C 1492   1.749   1.800  15.300  0.4225 -0.0086 -0.3144
   96MPD2    C1 1493   1.789   1.893  15.399 -0.0743  0.3657 -0.1530
   96MPD2    C2 1494   1.714   1.900  15.517 -0.1233  0.0176  0.8395
   96MPD2    C3 1495   1.606   1.813  15.533 -0.4370 -0.2981 -0.5298
   96MPD2    C4 1496   1.570   1.725  15.429  0.2050  0.4090  0.1166
   96MPD2    C5 1497   1.640   1.715  15.315 -0.3716  0.5616  0.0791
   96MPD2     H 1498   1.728   1.983  15.585  0.9291  0.1988  0.3998
   96MPD2    H1 1499   1.479   1.667  15.422  0.5481  0.0889 -1.6786
   96MPD2    H2 1500   1.803   1.788  15.206  0.1345 -3.9203  0.0052
   96MPD2    H3 1501   1.614   1.652  15.231  3.7843  0.1066 -0.8502
   96MPD2     N 1502   1.522   1.805  15.650 -0.5812  0.2817  0.0254
   96MPD2    H5 1503   1.460   1.724  15.656  1.5358 -1.4449 -1.2958
   96MPD2    N1 1504   1.902   1.976  15.371 -0.1261 -0.6354  0.0878
   96MPD2    H7 1505   1.953   1.957  15.285  1.8006 -0.4267  1.1927
   97TMC2    C1 1506   0.008   4.126   0.667  0.0567 -0.4069  0.2235
   97TMC2    C2 1507   0.098   4.025   0.628  0.4204 -0.4100 -0.3747
   97TMC2    C3 1508   0.211   4.059   0.552 -0.2849  0.1937 -0.6062
   97TMC2    C4 1509   0.026   4.254   0.622  0.0069 -0.1955 -0.1205
   97TMC2    C5 1510   0.136   4.278   0.536 -0.6733  0.4744  0.3468
   97TMC2    C6 1511   0.222   4.181   0.497  0.7590 -0.0175 -0.4374
   97TMC2     C 1512   4.641   4.112   0.768 -0.4302  0.0404 -0.6180
   97TMC2     O 1513   4.556   4.196   0.783  0.1073  0.5962  0.5270
   97TMC2     H 1514   0.079   3.920   0.647 -0.5461 -0.1165  0.2422
   97TMC2    H1 1515   4.705   4.339   0.664 -0.4918 -1.0914  1.0513
   97TMC2    H2 1516   0.305   4.201   0.429  0.0863 -2.1579 -1.9071
   97TMC2    C7 1517   0.161   4.411   0.491  0.3960 -0.4567  0.7583
   97TMC2    C8 1518   0.308   3.960   0.513  0.0194  1.0154  0.1199
   97TMC2    O1 1519   0.279   4.438   0.481  0.4143 -0.2777  0.7285
   97TMC2    O2 1520   0.343   3.947   0.396 -0.6659  0.5660 -0.4734
   97TMC2    O5 1521   0.303   3.866   0.614  0.0031  0.3847 -0.2119
   97TMC2    H5 1522   0.288   3.913   0.699 -0.9952  0.1548 -0.2692
   98MPD2     C 1523   4.414   3.844   1.131 -0.1210 -1.2813  0.1152
   98MPD2    C1 1524   4.381   3.970   1.079 -0.3056  0.1390  0.3332
   98MPD2    C2 1525   4.452   4.028   0.979  0.7760 -0.0911 -0.0442
   98MPD2    C3 1526   4.558   3.950   0.930 -0.0855 -0.3503  0.0934
   98MPD2    C4 1527   4.590   3.825   0.976 -0.1976 -0.4678 -0.1181
   98MPD2    C5 1528   4.518   3.774   1.075 -0.2987  0.0138 -0.2197
   98MPD2     H 1529   4.426   4.120   0.929 -0.3600 -0.9262 -0.9936
   98MPD2    H1 1530   4.678   3.776   0.935 -0.0389  0.1137 -0.4878
   98MPD2    H2 1531   4.353   3.810   1.215 -0.6069  0.4097  0.4494
   98MPD2    H3 1532   4.543   3.679   1.122  0.1573  0.5009  0.5084
   98MPD2     N 1533   4.651   3.995   0.834 -0.3262  0.2305  0.9174
   98MPD2    H5 1534   4.714   3.923   0.799 -1.0693 -0.3093  0.6867
   98MPD2    N1 1535   4.279   4.050   1.124  0.3437  0.3310  0.4545
   98MPD2    H7 1536   4.290   4.144   1.089  0.1503  0.8737  1.8539
   99TMC2    C1 1537   3.331   2.053   1.483  0.0749 -0.2006 -0.3362
   99TMC2    C2 1538   3.392   2.163   1.530 -0.0381  0.0691 -0.0221
   99TMC2    C3 1539   3.335   2.289   1.515 -0.8548 -0.1488  0.1881
   99TMC2    C4 1540   3.198   2.063   1.443  0.2140  0.3039  0.6635
   99TMC2    C5 1541   3.135   2.194   1.439 -0.5085  0.6531 -0.5448
   99TMC2    C6 1542   3.205   2.305   1.468  0.1789 -0.3278 -0.6766
   99TMC2     C 1543   3.405   1.929   1.470 -0.1377 -0.0631  0.2682
   99TMC2     O 1544   3.507   1.917   1.538 -0.0843  0.0738 -0.2486
   99TMC2     H 1545   3.498   2.150   1.549 -0.3143  0.3436  1.6881
   99TMC2    H1 1546   3.151   1.969   1.415 -0.3149  0.5259  0.7973
   99TMC2    H2 1547   3.153   2.398   1.446  1.4367  0.6075  0.2796
   99TMC2    C7 1548   2.995   2.208   1.397  0.1863 -0.0451  0.5720
   99TMC2    C8 1549   3.395   2.402   1.586  0.0365  0.5277  0.5173
   99TMC2    O1 1550   2.953   2.324   1.395 -0.0991 -0.1726 -0.2125
   99TMC2    O2 1551   3.501   2.381   1.648  0.3103  0.3074 -0.2126
   99TMC2    O5 1552   3.357   2.515   1.522  0.4000  0.2292  0.1234
   99TMC2    H5 1553   3.273   2.506   1.472  0.7005  0.1797 -0.3656
  100MPD2     C 1554   3.539   1.687   1.361 -0.7635  0.6548 -1.0008
  100MPD2    C1 1555   3.411   1.728   1.328 -0.0707  0.2526 -0.2481
  100MPD2    C2 1556   3.344   1.658   1.226 -0.3777  1.2748 -0.0646
  100MPD2    C3 1557   3.399   1.541   1.167  0.4310 -0.3472 -0.0821
  100MPD2    C4 1558   3.528   1.500   1.204  0.0530 -0.5035  0.1724
  100MPD2    C5 1559   3.593   1.577   1.297 -0.3039 -0.3015  0.9653
  100MPD2     H 1560   3.246   1.689   1.191 -0.2039 -0.5007 -2.0912
  100MPD2    H1 1561   3.586   1.425   1.152 -0.2374 -2.1183  2.1887
  100MPD2    H2 1562   3.601   1.746   1.428 -1.7887  1.2997 -0.6177
  100MPD2    H3 1563   3.696   1.553   1.321 -0.1206 -0.8061 -0.3215
  100MPD2     N 1564   3.315   1.472   1.073  0.0503  0.2152 -0.9320
  100MPD2    H5 1565   3.220   1.500   1.054  0.2254 -0.1694 -2.3701
  100MPD2    N1 1566   3.350   1.845   1.375 -0.2520 -0.0871 -0.8360
  100MPD2    H7 1567   3.257   1.870   1.345 -0.8707 -3.2158 -1.5216
  101TMC2    C1 1568   3.227   2.512  13.108 -0.1374  0.2950  0.0194
  101TMC2    C2 1569   3.106   2.573  13.108  0.2324  0.4026  0.1839
  101TMC2    C3 1570   3.110   2.709  13.103 -0.0800  0.1297  0.5426
  101TMC2    C4 1571   3.347   2.573  13.109 -0.1318 -0.3550 -0.1803
  101TMC2    C5 1572   3.345   2.705  13.089  0.4949  0.6695  0.0945
  101TMC2    C6 1573   3.231   2.780  13.085  0.4924  0.0440  0.2928
  101TMC2     C 1574   3.234   2.379  13.160 -0.7625 -0.0725  0.2102
  101TMC2     O 1575   3.149   2.351  13.240 -0.5916  0.0208 -0.1928
  101TMC2     H 1576   3.023   2.506  13.125  0.1267  0.5702  0.3352
  101TMC2    H1 1577   3.435   2.513  13.128 -0.1021 -0.0136  0.7213
  101TMC2    H2 1578   3.217   2.887  13.077 -1.4204 -0.3194 -1.2853
  101TMC2    C7 1579   3.470   2.755  13.044  0.3975 -0.5432  0.7440
  101TMC2    C8 1580   2.990   2.784  13.063  0.3576  0.3235 -0.3174
  101TMC2    O1 1581   3.559   2.675  13.008  0.0002 -1.0638  0.2411
  101TMC2    O2 1582   2.996   2.871  12.975 -0.9583  0.2425  0.0126
  101TMC2    O5 1583   2.885   2.703  13.091  0.1903  0.4747  0.3284
  101TMC2    H5 1584   2.913   2.648  13.168 -2.4177  0.4698  1.2673
  102MPD2     C 1585   3.410   2.100  12.999  0.0644 -0.3774 -0.4213
  102MPD2    C1 1586   3.339   2.166  13.098 -0.3238  0.4537 -0.0612
  102MPD2    C2 1587   3.283   2.085  13.202  0.6740  1.0478 -0.7669
  102MPD2    C3 1588   3.277   1.947  13.197  0.4007 -0.6635  0.6237
  102MPD2    C4 1589   3.348   1.883  13.097 -0.0548  0.2056  0.2888
  102MPD2    C5 1590   3.414   1.956  13.001  0.4511 -0.1165 -0.7557
  102MPD2     H 1591   3.229   2.137  13.280  0.4860  1.1398 -0.9548
  102MPD2    H1 1592   3.365   1.777  13.104  2.6870  0.4603 -2.2655
  102MPD2    H2 1593   3.461   2.161  12.925  1.4287  0.3801  1.1692
  102MPD2    H3 1594   3.466   1.897  12.927 -0.3767 -0.7990 -0.7895
  102MPD2     N 1595   3.207   1.883  13.296 -0.0901 -0.9353  0.2759
  102MPD2    H5 1596   3.170   1.944  13.367  2.8633 -0.1024  1.1045
  102MPD2    N1 1597   3.332   2.305  13.093 -0.1041  0.2187 -0.0799
  102MPD2    H7 1598   3.386   2.354  13.022 -0.8685 -0.0125 -0.8224
  103TMC2    C1 1599   1.524   2.775  12.824  0.2504 -0.8145  0.6985
  103TMC2    C2 1600   1.569   2.650  12.841 -0.3921 -0.0502  0.2500
  103TMC2    C3 1601   1.563   2.591  12.965 -0.0915  0.0616 -0.3730
  103TMC2    C4 1602   1.450   2.843  12.913 -0.2073  0.3494  0.5584
  103TMC2    C5 1603   1.441   2.772  13.031 -0.2119  0.1900  0.4409
  103TMC2    C6 1604   1.496   2.653  13.066 -0.5141 -0.6244  0.6025
  103TMC2     C 1605   1.502   2.818  12.683 -0.8918  0.6934 -0.0999
  103TMC2     O 1606   1.481   2.718  12.606 -0.4566  0.1405 -0.1886
  103TMC2     H 1607   1.607   2.590  12.758  1.6605  0.9213  0.4703
  103TMC2    H1 1608   1.396   2.933  12.887  0.9819  0.3477 -1.9036
  103TMC2    H2 1609   1.474   2.607  13.161 -0.5320  2.3175  2.0307
  103TMC2    C7 1610   1.364   2.831  13.138 -0.0592  0.8337 -0.1102
  103TMC2    C8 1611   1.579   2.444  12.975 -0.6770  0.6495  1.3114
  103TMC2    O1 1612   1.361   2.763  13.244 -0.7729 -0.3860  0.4051
  103TMC2    O2 1613   1.606   2.376  12.876  0.4275  0.0371  0.2707
  103TMC2    O5 1614   1.603   2.406  13.101 -0.1426 -0.4288 -0.4660
  103TMC2    H5 1615   1.597   2.484  13.161  0.9166 -0.3148 -0.5006
  104MPD2     C 1616   1.602   3.122  12.515  0.1772  0.6800 -0.3081
  104MPD2    C1 1617   1.532   3.002  12.533  0.2742 -0.0929 -0.5155
  104MPD2    C2 1618   1.448   2.960  12.435 -0.5504 -0.3064 -0.6562
  104MPD2    C3 1619   1.443   3.028  12.316 -0.5267 -0.2453  0.4484
  104MPD2    C4 1620   1.521   3.144  12.300  0.3088 -0.4725 -0.0508
  104MPD2    C5 1621   1.597   3.190  12.403  0.4412  0.4232 -0.3011
  104MPD2     H 1622   1.381   2.876  12.450 -0.1036  0.0834  3.6188
  104MPD2    H1 1623   1.513   3.209  12.214  1.1368  1.2704  1.1718
  104MPD2    H2 1624   1.670   3.160  12.590 -0.5708 -0.3209  0.8806
  104MPD2    H3 1625   1.657   3.280  12.394 -0.2340  0.8381 -0.6679
  104MPD2     N 1626   1.341   2.987  12.233  0.0960 -0.6655 -0.1745
  104MPD2    H5 1627   1.273   2.925  12.276 -3.2810  2.1083 -1.4472
  104MPD2    N1 1628   1.543   2.948  12.662  0.5481  0.1553  0.3488
  104MPD2    H7 1629   1.599   2.996  12.732  0.3076  1.2728 -0.2188
  105TMC2    C1 1630   2.664   0.882  17.574  0.0756 -0.6032 -0.2343
  105TMC2    C2 1631   2.658   0.744  17.571  0.7896  0.0562  0.7265
  105TMC2    C3 1632   2.536   0.684  17.549 -0.0432  0.0945  0.3197
  105TMC2    C4 1633   2.550   0.959  17.571  0.6899 -0.5323 -0.3633
  105TMC2    C5 1634   2.430   0.899  17.547  0.2078 -0.0342 -0.1378
  105TMC2    C6 1635   2.424   0.757  17.534  0.0730 -0.1640  0.3666
  105TMC2     C 1636   2.765   0.940  17.659 -0.5485 -0.1208 -0.1436
  105TMC2     O 1637   2.795   0.871   0.030  0.1367 -0.0446 -0.7478
  105TMC2     H 1638   2.749   0.685  17.573  1.1378  0.5507 -0.3740
  105TMC2    H1 1639   2.553   1.065  17.595  2.2034 -0.2469 -1.7740
  105TMC2    H2 1640   2.324   0.720  17.515  0.2501 -0.6227  0.3148
  105TMC2    C7 1641   2.306   0.978  17.536 -0.1818  0.4662  0.0364
  105TMC2    C8 1642   2.534   0.542  17.530 -0.4598  0.1264 -1.7822
  105TMC2    O1 1643   2.201   0.914  17.547 -0.1633  0.4150  0.0685
  105TMC2    O2 1644   2.631   0.499  17.465 -0.1585 -0.2149  0.3342
  105TMC2    O5 1645   2.406   0.492  17.526  0.1412 -0.6598 -0.0724
  105TMC2    H5 1646   2.353   0.543  17.591 -0.6276 -1.1508 -0.3206
  106MPD2     C 1647   3.098   1.303   0.058  0.6109 -0.3458  0.0188
  106MPD2    C1 1648   3.061   1.319  17.653  0.6073  0.2763  0.3330
  106MPD2    C2 1649   2.952   1.244  17.602 -0.1255 -1.0177 -0.1899
  106MPD2    C3 1650   2.902   1.146  17.682  0.5427  0.0330 -0.2520
  106MPD2    C4 1651   2.948   1.112   0.076 -0.0650  0.4830 -0.6538
  106MPD2    C5 1652   3.051   1.190   0.128  0.7130 -0.0166 -0.2840
  106MPD2     H 1653   2.909   1.270  17.506 -0.3776  0.2937  0.2690
  106MPD2    H1 1654   2.890   1.047   0.141  0.8361 -0.6617 -1.0012
  106MPD2    H2 1655   3.181   1.361   0.097  0.3800 -0.0508  0.0705
  106MPD2    H3 1656   3.078   1.169   0.231 -1.0244  1.1249  0.4083
  106MPD2     N 1657   2.795   1.067  17.626  0.1532  0.6393 -0.1854
  106MPD2    H5 1658   2.757   1.091  17.535 -0.5864  2.8367  0.6993
  106MPD2    N1 1659   3.109   1.423  17.576 -0.0965  0.0848 -0.8481
  106MPD2    H7 1660   3.093   1.420  17.476 -0.8770 -1.1823 -0.6807
  107TMC2    C1 1661   3.543   2.316  11.792 -0.2406  0.3346  0.8971
  107TMC2    C2 1662   3.530   2.450  11.786 -0.2989  0.1416 -0.2367
  107TMC2    C3 1663   3.594   2.515  11.695  0.3474 -0.0833 -0.3994
  107TMC2    C4 1664   3.639   2.251  11.722  0.4710  0.0782  0.1820
  107TMC2    C5 1665   3.695   2.317  11.617  0.1958 -0.7723  0.3373
  107TMC2    C6 1666   3.667   2.453  11.600 -0.1130  0.5491  0.2943
  107TMC2     C 1667   3.456   2.249  11.883 -0.3357  0.1310  0.0380
  107TMC2     O 1668   3.401   2.312  11.972 -0.5694  0.3430  0.1864
  107TMC2     H 1669   3.457   2.504  11.845 -1.1379 -0.5826 -0.6174
  107TMC2    H1 1670   3.672   2.150  11.744  1.7620  0.5519  0.4205
  107TMC2    H2 1671   3.731   2.517  11.540  1.2508  0.2559  1.4555
  107TMC2    C7 1672   3.811   2.260  11.551 -0.1187  0.2597 -0.4712
  107TMC2    C8 1673   3.587   2.660  11.688 -0.1623 -0.3792 -0.1377
  107TMC2    O1 1674   3.901   2.329  11.514  0.1619 -0.5786  0.2816
  107TMC2    O2 1675   3.612   2.734  11.590  0.8267 -0.1105 -0.2280
  107TMC2    O5 1676   3.584   2.694  11.818  0.3885  0.1864 -0.0406
  107TMC2    H5 1677   3.621   2.628  11.880  0.4573  1.5072  1.3570
  108MPD2     C 1678   3.379   1.889  11.844  0.1887  0.1910  0.2839
  108MPD2    C1 1679   3.366   2.014  11.897  0.2866 -0.0107  0.2562
  108MPD2    C2 1680   3.278   2.034  12.000  0.1258  0.7335 -0.1044
  108MPD2    C3 1681   3.218   1.929  12.063  0.4504 -0.2180 -0.5636
  108MPD2    C4 1682   3.244   1.807  12.017 -0.2207  0.4169 -0.6243
  108MPD2    C5 1683   3.322   1.790  11.910  0.0469 -0.4948 -0.2633
  108MPD2     H 1684   3.263   2.134  12.038 -0.0265  1.6202 -2.5148
  108MPD2    H1 1685   3.198   1.717  12.055  2.4423 -0.6664  0.0279
  108MPD2    H2 1686   3.438   1.869  11.754  2.1419  2.2533  1.1110
  108MPD2    H3 1687   3.335   1.688  11.878 -1.4188 -0.3845 -1.2048
  108MPD2     N 1688   3.118   1.945  12.166 -0.0816 -0.3757 -0.6936
  108MPD2    H5 1689   3.100   1.863  12.223  1.3884 -0.0580  0.2297
  108MPD2    N1 1690   3.443   2.115  11.844  0.4889  0.3959  0.0969
  108MPD2    H7 1691   3.493   2.076  11.764  1.1784  0.4792  0.4839
  109TMC2    C1 1692   2.971   4.436   0.907 -0.6042  0.3222 -0.2651
  109TMC2    C2 1693   2.949   4.560   0.964  0.3318 -0.7835 -0.2010
  109TMC2    C3 1694   3.006   4.586   1.082  0.7652  0.7890 -0.2333
  109TMC2    C4 1695   3.048   4.345   0.966  0.1698 -0.0994 -0.0133
  109TMC2    C5 1696   3.107   4.368   1.088 -0.0968 -0.2265 -0.1457
  109TMC2    C6 1697   3.087   4.490   1.153  0.0834 -0.7237 -0.1552
  109TMC2     C 1698   2.894   4.405   0.787  0.3770  0.3361 -0.1274
  109TMC2     O 1699   2.859   4.497   0.711 -0.4491 -0.9611  0.2297
  109TMC2     H 1700   2.884   4.633   0.917  1.2512  0.0897 -0.1252
  109TMC2    H1 1701   3.072   4.254   0.912  2.2974  0.5943 -0.2423
  109TMC2    H2 1702   3.147   4.511   1.241 -0.8127  0.6196  0.1370
  109TMC2    C7 1703   3.230   4.294   1.122 -0.5509 -0.4815  0.0796
  109TMC2    C8 1704   2.948   4.696   1.155 -0.1585 -0.7350  0.5061
  109TMC2    O1 1705   3.314   4.350   1.189 -0.1937  0.5330 -0.5942
  109TMC2    O2 1706   2.841   0.019   1.119  0.2502  0.0185  0.2881
  109TMC2    O5 1707   3.035   0.010   1.238 -0.2088  0.2318  0.7014
  109TMC2    H5 1708   3.118   4.690   1.248  0.6064  0.5861 -4.1171
  110MPD2     C 1709   2.672   4.046   0.489 -0.8816  0.0347 -0.0669
  110MPD2    C1 1710   2.758   3.983   0.575 -0.4347 -0.5203 -0.4509
  110MPD2    C2 1711   2.828   4.067   0.662 -0.4725  0.2324 -0.2266
  110MPD2    C3 1712   2.807   4.205   0.668  0.1274  0.2217  0.3798
  110MPD2    C4 1713   2.738   4.262   0.569 -0.0317  0.3032  0.8423
  110MPD2    C5 1714   2.677   4.182   0.482 -0.5447 -0.6529 -0.5656
  110MPD2     H 1715   2.883   4.026   0.747 -1.5941  1.0593  0.8989
  110MPD2    H1 1716   2.751   4.370   0.565 -1.0545  0.3750 -0.6593
  110MPD2    H2 1717   2.618   3.988   0.415 -2.4685 -0.0971  1.1726
  110MPD2    H3 1718   2.622   4.223   0.398  2.0682 -2.0008 -2.9035
  110MPD2     N 1719   2.874   4.270   0.773  0.2754  0.2246 -0.5945
  110MPD2    H5 1720   2.915   4.206   0.841 -0.0120  0.4772 -0.1833
  110MPD2    N1 1721   2.775   3.844   0.573  0.0151 -0.0568  0.0041
  110MPD2    H7 1722   2.695   3.789   0.545 -0.2921 -0.9966  2.7398
  111TMC2    C1 1723   3.395   3.470  11.791 -0.2189 -0.3987 -0.4664
  111TMC2    C2 1724   3.285   3.391  11.808 -1.1205  0.3411 -0.0408
  111TMC2    C3 1725   3.292   3.292  11.905 -0.8107  0.5976 -0.2785
  111TMC2    C4 1726   3.515   3.458  11.859  0.3612  0.0738  0.4751
  111TMC2    C5 1727   3.520   3.351  11.949  0.4278  0.5383  0.1188
  111TMC2    C6 1728   3.414   3.273  11.975 -0.4191 -0.4805  0.3037
  111TMC2     C 1729   3.381   3.577  11.693 -0.1077  0.5995 -0.6241
  111TMC2     O 1730   3.489   3.617  11.645 -0.1496  0.0493 -0.4954
  111TMC2     H 1731   3.188   3.399  11.759  0.7643  0.4405 -3.7575
  111TMC2    H1 1732   3.595   3.530  11.847  1.3026 -1.4359 -2.3600
  111TMC2    H2 1733   3.421   3.189  12.042  2.5603  0.0523  0.6642
  111TMC2    C7 1734   3.637   3.330  12.032 -0.3633  0.2989 -0.5937
  111TMC2    C8 1735   3.176   3.217  11.952  0.5223  0.1083 -0.2836
  111TMC2    O1 1736   3.624   3.269  12.137 -0.4757  0.4385  0.1124
  111TMC2    O2 1737   3.167   3.096  11.958  0.2103  0.1160 -0.1344
  111TMC2    O5 1738   3.066   3.291  11.933 -0.2114  0.1488 -0.2005
  111TMC2    H5 1739   3.077   3.388  11.930 -4.0759  0.6057 -0.1818
  112MPD2     C 1740   3.095   3.938  11.465  0.1380 -0.1926 -0.6921
  112MPD2    C1 1741   3.226   3.901  11.440  0.1746  0.0113 -0.3452
  112MPD2    C2 1742   3.285   3.796  11.508  0.0140 -0.5229  0.1821
  112MPD2    C3 1743   3.210   3.729  11.603 -0.1905 -0.0662 -0.5370
  112MPD2    C4 1744   3.082   3.771  11.629  0.4616  0.0258  0.2706
  112MPD2    C5 1745   3.021   3.867  11.555 -0.4720  0.1836 -0.3416
  112MPD2     H 1746   3.388   3.768  11.491  0.0652  1.2237 -2.3465
  112MPD2    H1 1747   3.023   3.726  11.707 -1.0576  1.3079 -0.1431
  112MPD2    H2 1748   3.039   4.018  11.417 -1.5345 -0.8501  0.1734
  112MPD2    H3 1749   2.915   3.888  11.567 -0.6463  0.1769 -1.9391
  112MPD2     N 1750   3.259   3.622  11.687  0.0380 -0.3516 -0.2927
  112MPD2    H5 1751   3.196   3.577  11.753  1.6689 -0.3060  1.2904
  112MPD2    N1 1752   3.306   3.977  11.348  0.0839 -0.3637 -1.0052
  112MPD2    H7 1753   3.387   3.929  11.311 -0.8210 -0.5270 -2.7632
  113TMC2    C1 1754   1.570   1.614   0.735  0.3440  0.0705  0.5974
  113TMC2    C2 1755   1.441   1.639   0.776  0.1601  0.2863  0.1403
  113TMC2    C3 1756   1.372   1.537   0.837 -0.4407  0.0877 -0.3147
  113TMC2    C4 1757   1.630   1.494   0.750  0.9183  0.9510  0.1404
  113TMC2    C5 1758   1.564   1.399   0.821  0.6813  0.4206 -0.5394
  113TMC2    C6 1759   1.436   1.415   0.867  0.0518  0.5110 -0.7456
  113TMC2     C 1760   1.644   1.740   0.711  0.3863  0.1139 -0.4164
  113TMC2     O 1761   1.597   1.847   0.754 -0.1448  0.5340 -0.0446
  113TMC2     H 1762   1.387   1.728   0.747 -2.0554 -0.5865  1.5870
  113TMC2    H1 1763   1.730   1.472   0.714  1.2670  1.7044  0.6711
  113TMC2    H2 1764   1.383   1.338   0.922  0.1020  2.2302  1.7016
  113TMC2    C7 1765   1.643   1.300   0.901 -0.1755 -0.7883  0.8453
  113TMC2    C8 1766   1.223   1.544   0.852  0.6737 -0.5882 -0.2872
  113TMC2    O1 1767   1.589   1.265   1.007  0.0845 -0.5967  0.0787
  113TMC2    O2 1768   1.157   1.440   0.840 -0.3844  0.1191  0.1079
  113TMC2    O5 1769   1.211   1.629   0.954  0.2574 -0.2394  0.5400
  113TMC2    H5 1770   1.274   1.704   0.951 -0.7060  0.4786 -2.2723
  114MPD2     C 1771   2.104   1.969   0.647 -0.4108 -0.4181  0.4759
  114MPD2    C1 1772   1.976   2.016   0.658 -0.0043 -0.0269  0.1163
  114MPD2    C2 1773   1.867   1.931   0.652 -0.2555  0.3843 -0.2166
  114MPD2    C3 1774   1.884   1.797   0.652 -0.7728 -0.2939  0.8208
  114MPD2    C4 1775   2.010   1.752   0.642 -0.3434  0.2753 -0.3834
  114MPD2    C5 1776   2.124   1.829   0.635 -0.2210  0.3987 -0.0874
  114MPD2     H 1777   1.771   1.979   0.662 -0.1209  0.3413  1.2983
  114MPD2    H1 1778   2.031   1.646   0.650 -1.0479 -0.0014 -2.1884
  114MPD2    H2 1779   2.194   2.026   0.630 -2.1208  2.2023  0.2943
  114MPD2    H3 1780   2.223   1.786   0.629 -0.9270 -0.9394 -2.0934
  114MPD2     N 1781   1.771   1.705   0.661  0.1556  0.1638  0.2230
  114MPD2    H5 1782   1.791   1.610   0.631  1.7176  0.6040 -0.1359
  114MPD2    N1 1783   1.938   2.154   0.669 -0.3232  0.0997 -0.3693
  114MPD2    H7 1784   1.840   2.177   0.684 -0.4364 -1.3901  1.1249
  115TMC2    C1 1785   3.165   4.110  17.496 -0.5034 -0.1953 -0.1851
  115TMC2    C2 1786   3.223   4.045  17.601 -0.3143  0.6029  0.2537
  115TMC2    C3 1787   3.325   4.100  17.662 -0.6361  0.0064 -0.4519
  115TMC2    C4 1788   3.204   4.236  17.469  0.5328 -0.3985  0.3631
  115TMC2    C5 1789   3.314   4.288  17.529  0.4625  0.0359  0.2163
  115TMC2    C6 1790   3.380   4.215  17.629 -0.5734  0.4633  0.2199
  115TMC2     C 1791   3.047   4.056  17.441  0.0295 -0.0448  0.2966
  115TMC2     O 1792   3.034   3.935  17.458  0.2867  0.6160 -0.0409
  115TMC2     H 1793   3.201   3.943  17.628  1.0677  0.4352  0.7507
  115TMC2    H1 1794   3.160   4.290  17.386  1.3935 -1.2791 -0.6653
  115TMC2    H2 1795   3.467   4.258  17.677  0.6900 -1.2205 -0.5572
  115TMC2    C7 1796   3.382   4.412  17.494 -0.3480 -0.0655  0.0201
  115TMC2    C8 1797   3.367   4.045   0.053  0.2125  0.1591 -0.0591
  115TMC2    O1 1798   3.450   4.452  17.589 -0.1402  0.3784  0.4904
  115TMC2    O2 1799   3.388   3.926   0.064 -0.3818 -0.4141  0.4733
  115TMC2    O5 1800   3.324   4.124   0.151  0.0898  0.3128 -0.3078
  115TMC2    H5 1801   3.267   4.196   0.116 -1.3388 -1.3808 -1.4721
  116MPD2     C 1802   2.572   4.079  17.236 -0.7493  0.2260  0.1688
  116MPD2    C1 1803   2.639   3.977  17.292 -0.0103 -1.0953  0.4284
  116MPD2    C2 1804   2.766   4.002  17.346 -0.3928 -0.4373 -0.4157
  116MPD2    C3 1805   2.827   4.128  17.340 -0.0432  0.7321 -0.1172
  116MPD2    C4 1806   2.750   4.231  17.279  0.3412 -0.0670  0.0570
  116MPD2    C5 1807   2.625   4.204  17.232 -0.3246  1.3007 -0.2792
  116MPD2     H 1808   2.812   3.934  17.417  1.5418 -1.2809 -2.4674
  116MPD2    H1 1809   2.798   4.325  17.254 -1.7637  1.3562  1.3102
  116MPD2    H2 1810   2.489   4.052  17.173  0.1138  0.8292 -1.2389
  116MPD2    H3 1811   2.569   4.277  17.175  1.2053  1.9947 -0.9012
  116MPD2     N 1812   2.960   4.154  17.391 -0.5545 -0.2789 -0.8939
  116MPD2    H5 1813   2.991   4.251  17.387  1.3730 -0.8273  0.5946
  116MPD2    N1 1814   2.586   3.843  17.282  0.1468 -0.0890 -0.0184
  116MPD2    H7 1815   2.489   3.840  17.252  0.5644 -0.5258 -1.3273
  117TMC2    C1 1816   0.965   0.626  14.055 -0.3267  0.5166  0.7012
  117TMC2    C2 1817   1.026   0.523  14.115 -0.2876  0.6034 -0.1444
  117TMC2    C3 1818   1.098   0.547  14.230  0.5062  0.3332 -0.0117
  117TMC2    C4 1819   0.981   0.755  14.089 -0.2100  0.5362  0.1715
  117TMC2    C5 1820   1.051   0.777  14.203  0.0923  0.4146 -0.3508
  117TMC2    C6 1821   1.108   0.674  14.274  0.5720  0.8775 -0.2995
  117TMC2     C 1822   0.886   0.591  13.936  0.0184  0.4500  0.2496
  117TMC2     O 1823   0.912   0.484  13.884  0.3389  0.4251 -0.0738
  117TMC2     H 1824   1.008   0.425  14.073  2.1412  0.3102 -0.5167
  117TMC2    H1 1825   0.940   0.835  14.030 -1.2011 -0.4546 -0.4872
  117TMC2    H2 1826   1.164   0.689  14.366  2.2784 -0.5385 -1.0990
  117TMC2    C7 1827   1.074   0.915  14.248  0.6230  0.1648  0.2444
  117TMC2    C8 1828   1.123   0.447  14.332 -0.3950 -0.0169 -0.2306
  117TMC2    O1 1829   1.171   0.939  14.320  0.5026 -0.4140  0.2217
  117TMC2    O2 1830   1.100   0.487  14.444  0.0732  0.4418 -0.1025
  117TMC2    O5 1831   1.123   0.323  14.285  0.2717  0.6278  0.0466
  117TMC2    H5 1832   1.160   0.325  14.194  0.4018  2.4079  0.1321
  118MPD2     C 1833   0.817   1.179  14.281 -0.4456 -0.0690 -0.2182
  118MPD2    C1 1834   0.945   1.130  14.264 -0.2909  0.3654  0.2040
  118MPD2    C2 1835   1.049   1.219  14.277 -0.0595  0.1853 -0.5169
  118MPD2    C3 1836   1.025   1.351  14.307 -0.5057  0.0885 -0.0952
  118MPD2    C4 1837   0.895   1.397  14.321  0.5439 -0.1374  0.0221
  118MPD2    C5 1838   0.791   1.315  14.306  0.0522 -0.8537  0.3580
  118MPD2     H 1839   1.147   1.176  14.260 -0.1690 -1.0718  2.0539
  118MPD2    H1 1840   0.863   1.498  14.346 -0.6680  0.0617 -2.3983
  118MPD2    H2 1841   0.728   1.118  14.272 -2.1883  2.2896  0.9437
  118MPD2    H3 1842   0.689   1.350  14.315 -0.1526 -1.4276  0.2823
  118MPD2     N 1843   1.124   1.450  14.301  0.2263 -0.1325  0.3890
  118MPD2    H5 1844   1.081   1.541  14.316  0.2663 -0.1472  0.5888
  118MPD2    N1 1845   0.962   0.992  14.230  0.5973  0.5871 -0.4254
  118MPD2    H7 1846   0.883   0.943  14.191  0.7683 -0.8508  1.0562
  119TMC2    C1 1847   4.148   2.044  13.503 -0.2762 -0.4051  0.1100
  119TMC2    C2 1848   4.221   2.094  13.396  0.1337 -0.1390  0.5213
  119TMC2    C3 1849   4.171   2.079  13.271  0.5833  0.0719  0.4629
  119TMC2    C4 1850   4.021   1.997  13.496 -0.2840  0.2330  0.4500
  119TMC2    C5 1851   3.978   1.972  13.364  0.2133  0.3501  0.6333
  119TMC2    C6 1852   4.046   2.028  13.257  0.5149  0.5434  0.0423
  119TMC2     C 1853   4.180   2.087  13.636 -0.1530 -0.4278 -0.2317
  119TMC2     O 1854   4.086   2.081  13.713  0.2936 -0.7330  0.3129
  119TMC2     H 1855   4.310   2.154  13.407  0.3516 -0.3836  0.0950
  119TMC2    H1 1856   3.951   1.966  13.573 -0.6593  0.4937  0.2159
  119TMC2    H2 1857   4.006   2.011  13.158 -2.0013 -3.4180  1.7787
  119TMC2    C7 1858   3.861   1.894  13.329 -0.5579  0.4632 -0.5228
  119TMC2    C8 1859   4.218   2.161  13.161  0.5023 -0.3517 -0.0494
  119TMC2    O1 1860   3.819   1.917  13.223 -0.3432  0.0128 -0.2015
  119TMC2    O2 1861   4.333   2.153  13.126 -0.1756  0.0835  0.0893
  119TMC2    O5 1862   4.157   2.282  13.180  0.5045  0.1098  0.9954
  119TMC2    H5 1863   4.066   2.274  13.216 -0.1598 -0.1913 -0.7101
  120MPD2     C 1864   4.451   2.116  14.059 -0.6269 -0.6092  0.1620
  120MPD2    C1 1865   4.320   2.143  14.039  0.7391 -0.3193 -0.1183
  120MPD2    C2 1866   4.276   2.161  13.909  0.1894  0.8535  1.2849
  120MPD2    C3 1867   4.365   2.130  13.802 -1.3214  0.4164 -0.4592
  120MPD2    C4 1868   4.498   2.101  13.828 -0.3687  0.2385 -0.5158
  120MPD2    C5 1869   4.539   2.112  13.953  0.6423  0.1909  0.3171
  120MPD2     H 1870   4.174   2.192  13.889  0.2947 -0.3732 -1.2411
  120MPD2    H1 1871   4.571   2.086  13.750 -1.4210  1.5902 -1.7616
  120MPD2    H2 1872   4.486   2.113  14.162  1.1579  0.5007 -0.4099
  120MPD2    H3 1873   4.645   2.119  13.974  0.9214  0.0615 -0.9932
  120MPD2     N 1874   4.312   2.108  13.670  0.7956 -0.6990  0.0356
  120MPD2    H5 1875   4.381   2.088  13.597 -0.4672  1.3271 -1.7189
  120MPD2    N1 1876   4.234   2.141  14.151  0.8628 -0.1268  0.3230
  120MPD2    H7 1877   4.270   2.101  14.237 -1.6219  0.0004  1.4077
  121TMC2    C1 1878   0.582   3.135  14.276 -0.0504  0.6705 -0.1986
  121TMC2    C2 1879   0.606   3.073  14.394  0.2537 -1.1282 -0.0297
  121TMC2    C3 1880   0.558   2.951  14.412 -0.2121  0.5356  0.4899
  121TMC2    C4 1881   0.493   3.079  14.187 -0.6516  0.3975  0.5099
  121TMC2    C5 1882   0.437   2.956  14.215  0.7167 -0.2239 -0.3899
  121TMC2    C6 1883   0.471   2.882  14.329  0.1533  0.4468 -0.1123
  121TMC2     C 1884   0.655   3.251  14.236  0.4207  0.4965 -0.0025
  121TMC2     O 1885   0.743   3.281  14.308 -0.0287  0.2590  0.3056
  121TMC2     H 1886   0.684   3.111  14.458 -0.7585  0.6641  0.1198
  121TMC2    H1 1887   0.491   3.117  14.085 -0.2081 -2.8054 -0.7030
  121TMC2    H2 1888   0.433   2.783  14.350  0.6369  0.1726 -0.5480
  121TMC2    C7 1889   0.303   2.922  14.168  0.2301  0.0971 -0.0168
  121TMC2    C8 1890   0.582   2.892  14.538 -0.2760 -0.5856  0.5713
  121TMC2    O1 1891   0.273   2.802  14.186  0.0631  0.1936 -0.5180
  121TMC2    O2 1892   0.556   2.770  14.553  0.8123  0.4688 -0.7506
  121TMC2    O5 1893   0.578   2.984  14.637  0.4111 -0.2217  0.4979
  121TMC2    H5 1894   0.572   3.080  14.622  3.5207 -0.4737 -2.4542
  122MPD2     C 1895   0.795   3.495  14.131  0.4424  0.0995  0.2054
  122MPD2    C1 1896   0.665   3.458  14.097 -0.2532  0.6039  0.1162
  122MPD2    C2 1897   0.582   3.544  14.022 -0.1319 -0.3564  0.2689
  122MPD2    C3 1898   0.641   3.667  13.984 -0.0227 -0.0705  0.5050
  122MPD2    C4 1899   0.761   3.711  14.033 -0.1689  0.7374 -0.0091
  122MPD2    C5 1900   0.844   3.623  14.096 -0.7554  0.2215  0.1778
  122MPD2     H 1901   0.481   3.509  14.006 -0.0092 -0.9246  0.7380
  122MPD2    H1 1902   0.806   3.805  14.002  2.6885 -0.5843  0.1148
  122MPD2    H2 1903   0.862   3.438  14.194 -1.3555 -1.0113  1.0794
  122MPD2    H3 1904   0.945   3.652  14.124 -1.4144 -0.3850  3.1284
  122MPD2     N 1905   0.578   3.762  13.898 -0.0017 -0.3633 -0.6535
  122MPD2    H5 1906   0.622   3.849  13.870 -0.5897  0.0983 -0.1442
  122MPD2    N1 1907   0.602   3.333  14.143 -0.0113  0.2537  0.0270
  122MPD2    H7 1908   0.513   3.301  14.107  0.2638  1.0897 -1.3853
  123TMC2    C1 1909   4.134   1.644  10.939 -0.2545 -0.7516  0.0926
  123TMC2    C2 1910   4.263   1.630  10.898 -0.2388  0.4597 -0.6455
  123TMC2    C3 1911   4.330   1.753  10.893  0.5029  0.7068 -0.2359
  123TMC2    C4 1912   4.074   1.762  10.967  0.0680  0.5431  0.2780
  123TMC2    C5 1913   4.143   1.879  10.968  0.3976  0.5253 -0.5075
  123TMC2    C6 1914   4.276   1.876  10.927  0.1303  0.1103 -0.3067
  123TMC2     C 1915   4.046   1.536  10.909  0.7256 -0.1015  0.1876
  123TMC2     O 1916   4.092   1.425  10.896  0.2102 -0.0374  0.2190
  123TMC2     H 1917   4.308   1.534  10.876  1.8299  0.9776  1.2914
  123TMC2    H1 1918   3.974   1.774  11.006  1.1962  1.1980  2.9910
  123TMC2    H2 1919   4.346   1.959  10.919  1.9179 -1.3312  0.4061
  123TMC2    C7 1920   4.062   1.976  10.890 -0.1479 -0.0681  0.0208
  123TMC2    C8 1921   4.453   1.754  10.826  0.3180  0.5336 -0.1047
  123TMC2    O1 1922   3.949   1.939  10.854  0.5264  0.0078  0.5668
  123TMC2    O2 1923   4.519   1.851  10.796 -0.1767 -0.2361  0.0878
  123TMC2    O5 1924   4.520   1.646  10.872  0.2487 -0.8731  0.2968
  123TMC2    H5 1925   4.463   1.574  10.906  0.2713 -1.7437 -1.5055
  124MPD2     C 1926   3.628   1.354  10.673 -0.1170 -0.8315 -0.4129
  124MPD2    C1 1927   3.605   1.489  10.691 -0.2837  0.0511 -0.0951
  124MPD2    C2 1928   3.702   1.555  10.768  0.4383  0.0606 -0.1605
  124MPD2    C3 1929   3.824   1.502  10.815 -0.4778  0.5589  0.0400
  124MPD2    C4 1930   3.839   1.364  10.796 -0.5152 -0.1903  0.2551
  124MPD2    C5 1931   3.735   1.294  10.732  0.5233  0.1281  0.1392
  124MPD2     H 1932   3.685   1.659  10.793 -0.2809 -0.6715  2.3612
  124MPD2    H1 1933   3.926   1.301  10.805 -1.2541 -1.1230  0.9380
  124MPD2    H2 1934   3.559   1.298  10.610 -2.5639  1.7788 -0.0640
  124MPD2    H3 1935   3.738   1.187  10.716 -0.4884  0.2721 -1.0203
  124MPD2     N 1936   3.919   1.580  10.884 -0.2186 -0.1394  0.0552
  124MPD2    H5 1937   3.920   1.681  10.879 -3.1068 -0.0660  0.8046
  124MPD2    N1 1938   3.485   1.548  10.633  0.4229  0.2275 -0.4542
  124MPD2    H7 1939   3.430   1.500  10.563 -0.1213  2.8547 -1.8426
  125TMC2    C1 1940   4.413   4.005   9.584  0.4048  0.3543  0.4367
  125TMC2    C2 1941   4.339   4.121   9.585  0.2065  0.2257  0.8360
  125TMC2    C3 1942   4.299   4.179   9.470 -0.4858 -0.0777  0.7282
  125TMC2    C4 1943   4.441   3.946   9.464  0.4602  0.2570 -0.4345
  125TMC2    C5 1944   4.387   4.002   9.348 -0.0277 -0.2740  0.5395
  125TMC2    C6 1945   4.324   4.126   9.345 -0.3508  0.6704  0.1587
  125TMC2     C 1946   4.508   3.968   9.693 -0.5016 -0.1102  0.2661
  125TMC2     O 1947   4.576   3.872   9.687 -0.0837 -0.0850  0.7710
  125TMC2     H 1948   4.301   4.163   9.677  0.6930  1.2696  0.5726
  125TMC2    H1 1949   4.498   3.854   9.457  1.9559  1.0663  1.0159
  125TMC2    H2 1950   4.292   4.174   9.253 -2.3767 -0.4706  0.2632
  125TMC2    C7 1951   4.436   3.951   9.229 -0.2840  0.3548 -0.1168
  125TMC2    C8 1952   4.213   4.285   9.484 -0.3653 -0.7466 -0.1509
  125TMC2    O1 1953   4.366   3.970   9.129 -0.0763  0.0892  0.0646
  125TMC2    O2 1954   4.111   4.300   9.418 -0.1177 -0.4894  0.3871
  125TMC2    O5 1955   4.260   4.380   9.563  0.6886 -0.2134 -0.0816
  125TMC2    H5 1956   4.349   4.371   9.602  0.7612  0.4564 -0.1056
  126MPD1     C 1957   0.096   4.130  10.060 -0.9797  0.2315  0.2930
  126MPD1    C1 1958   0.014   4.230  10.031 -0.0658  0.5395 -0.0165
  126MPD1    C2 1959   4.647   4.209   9.941 -0.2564 -0.6234  0.1909
  126MPD1    C3 1960   4.645   4.091   9.867 -0.2746  0.2493  0.1593
  126MPD1    C4 1961   0.002   3.989   9.901  0.1669 -0.1982 -0.4081
  126MPD1    C5 1962   0.101   4.015   9.986 -0.9757 -0.6862  0.0339
  126MPD1     H 1963   4.579   4.289   9.914 -0.7789 -1.3307 -0.5886
  126MPD1    H1 1964   0.011   3.893   9.852  0.6247 -0.8765  1.0154
  126MPD1    H2 1965   0.168   4.144  10.140 -0.8062  0.0782  0.1671
  126MPD1    H3 1966   0.180   3.942   9.998 -0.0426  0.3803  0.3481
  126MPD1     N 1967   4.535   4.072   9.780  0.1522 -0.1257  0.0102
  126MPD1    H5 1968   4.475   4.154   9.778 -0.8682 -0.8898 -0.4230
  126MPD1    N1 1969   0.009   4.342  10.116  0.8003  0.6309  0.0193
  126MPD1    H6 1970   4.685   4.416  10.075 -0.5702 -0.8426 -0.7530
  126MPD1    H7 1971   0.103   4.370  10.143  1.4692  1.9630 -3.6413
  127TMC2    C1 1972   1.053   2.721  10.089  0.1975 -0.9301  0.0634
  127TMC2    C2 1973   0.921   2.736  10.061 -0.7088 -0.0070  0.0099
  127TMC2    C3 1974   0.833   2.676  10.141 -0.6765 -0.1512 -0.4184
  127TMC2    C4 1975   1.101   2.644  10.187 -0.4377  0.9036 -0.0001
  127TMC2    C5 1976   1.008   2.575  10.260  0.5174  0.2748 -0.0787
  127TMC2    C6 1977   0.869   2.606  10.255 -0.1550  0.7740  0.3395
  127TMC2     C 1978   1.149   2.786  10.006  0.4763 -0.3515  0.4548
  127TMC2     O 1979   1.250   2.840  10.051 -0.9902 -0.1091 -0.1224
  127TMC2     H 1980   0.884   2.792   9.977  2.0645 -0.2898 -1.4169
  127TMC2    H1 1981   1.208   2.642  10.201 -0.4585 -3.0662 -0.3892
  127TMC2    H2 1982   0.788   2.569  10.317  0.6577 -1.8027 -0.1592
  127TMC2    C7 1983   1.056   2.477  10.358  0.0456 -0.0056 -0.3924
  127TMC2    C8 1984   0.706   2.747  10.156  0.0794 -0.1415  0.3075
  127TMC2    O1 1985   1.173   2.460  10.357  0.5503  0.8954  0.4698
  127TMC2    O2 1986   0.645   2.745  10.261  0.1479 -0.2671  0.2943
  127TMC2    O5 1987   0.657   2.786  10.034  0.5532 -0.3043  0.4721
  127TMC2    H5 1988   0.717   2.762   9.960 -1.2741 -2.0590 -0.4479
  128MPD2     C 1989   1.142   2.762   9.640 -0.5296 -0.8822  0.4751
  128MPD2    C1 1990   1.180   2.818   9.758  0.1149 -0.5526 -0.8335
  128MPD2    C2 1991   1.276   2.922   9.757  0.0050  0.0208  0.1470
  128MPD2    C3 1992   1.327   2.963   9.631 -0.0183 -0.0334 -0.2586
  128MPD2    C4 1993   1.286   2.897   9.515  0.8776 -0.3689 -0.1545
  128MPD2    C5 1994   1.190   2.803   9.521 -0.7053  0.4397  0.4418
  128MPD2     H 1995   1.312   2.970   9.848 -1.2808  1.9094 -0.3254
  128MPD2    H1 1996   1.335   2.914   9.420  0.5337  0.0703 -0.2497
  128MPD2    H2 1997   1.066   2.684   9.633 -1.8784  0.3457  1.4349
  128MPD2    H3 1998   1.161   2.750   9.431  0.3670 -0.9069  0.8784
  128MPD2     N 1999   1.417   3.073   9.628 -0.1639  0.2519  0.0575
  128MPD2    H5 2000   1.454   3.103   9.718 -0.1875 -0.3049  0.2502
  128MPD2    N1 2001   1.117   2.770   9.872  0.1415 -0.5283  0.2509
  128MPD2    H7 2002   1.031   2.720   9.851  0.2982 -0.7521  0.1515
  129TMC2    C1 2003   4.221   3.617   1.927 -0.9238  0.2449  0.0985
  129TMC2    C2 2004   4.290   3.634   2.043 -0.1145 -0.3713 -0.0249
  129TMC2    C3 2005   4.345   3.521   2.103  0.4040 -0.4834 -0.8425
  129TMC2    C4 2006   4.209   3.497   1.873 -0.2090  0.3135 -0.5373
  129TMC2    C5 2007   4.285   3.394   1.919 -0.4183 -0.8321  0.0286
  129TMC2    C6 2008   4.356   3.405   2.036 -0.5513  0.2938  0.3699
  129TMC2     C 2009   4.168   3.730   1.850  0.2014 -0.2017  1.2493
  129TMC2     O 2010   4.059   3.721   1.795  0.3201 -0.0575  0.0247
  129TMC2     H 2011   4.283   3.731   2.091  0.6503 -0.4878  0.3127
  129TMC2    H1 2012   4.158   3.494   1.777 -0.5024  1.5957 -0.4251
  129TMC2    H2 2013   4.401   3.319   2.084  0.2985  1.0822  0.9742
  129TMC2    C7 2014   4.259   3.263   1.857  0.3718  0.2078 -0.2903
  129TMC2    C8 2015   4.442   3.557   2.199  0.1789  0.0462 -0.8925
  129TMC2    O1 2016   4.159   3.269   1.785 -0.0589 -0.2565  0.0579
  129TMC2    O2 2017   4.509   3.658   2.186 -0.3262  0.0353  0.1037
  129TMC2    O5 2018   4.480   3.449   2.277  0.0406 -0.0930  0.5868
  129TMC2    H5 2019   4.412   3.380   2.290  0.6161 -1.0385 -1.4209
  130MPD2     C 2020   4.119   3.986   1.713 -0.0431 -0.2574 -0.3990
  130MPD2    C1 2021   4.246   3.931   1.738  0.6728 -0.9482 -0.4047
  130MPD2    C2 2022   4.353   3.984   1.671  0.4713 -0.0776  0.2186
  130MPD2    C3 2023   4.342   4.087   1.581 -0.4850  0.0837  0.3463
  130MPD2    C4 2024   4.214   4.134   1.553  0.6595  0.3883  0.3999
  130MPD2    C5 2025   4.105   4.090   1.621  0.0935 -0.0663 -0.5491
  130MPD2     H 2026   4.453   3.952   1.700  1.5456 -0.4940 -3.9559
  130MPD2    H1 2027   4.198   4.215   1.483 -1.9874 -1.4279 -1.0825
  130MPD2    H2 2028   4.028   3.939   1.749 -0.9832  0.6315 -1.6354
  130MPD2    H3 2029   4.007   4.131   1.599  0.3226  0.2408 -0.9937
  130MPD2     N 2030   4.458   4.123   1.510 -0.2942 -0.2835 -0.5087
  130MPD2    H5 2031   4.542   4.072   1.537  1.2112  2.5238  0.1274
  130MPD2    N1 2032   4.265   3.825   1.832 -0.0892 -0.8176  0.0387
  130MPD2    H7 2033   4.362   3.810   1.859  0.3921 -0.7730 -1.6993
  131TMC2    C1 2034   3.817   2.570  10.640 -0.5272 -0.9300  0.5106
  131TMC2    C2 2035   3.816   2.633  10.756  0.2366  0.3767 -0.4484
  131TMC2    C3 2036   3.889   2.750  10.773 -0.8482  0.7095 -0.4914
  131TMC2    C4 2037   3.888   2.619  10.536 -0.6364 -0.4426  0.2431
  131TMC2    C5 2038   3.952   2.740  10.552 -0.2356  0.3641  0.2967
  131TMC2    C6 2039   3.953   2.806  10.670  0.2945 -0.3382  0.1750
  131TMC2     C 2040   3.723   2.466  10.607 -0.3011 -0.3504 -0.4492
  131TMC2     O 2041   3.683   2.403  10.703  0.3692 -0.0322  0.0433
  131TMC2     H 2042   3.767   2.588  10.842 -1.9011 -2.2503 -3.0618
  131TMC2    H1 2043   3.886   2.580  10.435  1.5983  1.3102 -0.4952
  131TMC2    H2 2044   4.015   2.893  10.692 -0.8789  0.2189  1.2697
  131TMC2    C7 2045   4.033   2.788  10.439 -0.1228 -0.0526 -0.2952
  131TMC2    C8 2046   3.882   2.810  10.906  1.0012 -0.4406 -0.7340
  131TMC2    O1 2047   4.049   2.700  10.352  0.1228  0.2150 -0.4376
  131TMC2    O2 2048   3.882   2.753  11.015 -0.6316  0.0481 -0.2256
  131TMC2    O5 2049   3.899   2.942  10.886 -0.5305 -0.0741 -0.5583
  131TMC2    H5 2050   3.896   2.969  10.792 -2.4228 -1.1042 -0.7817
  132MPD2     C 2051   3.511   2.509  10.308  0.0600  0.0196  0.5288
  132MPD2    C1 2052   3.564   2.434  10.417  0.3926  0.1823  0.2349
  132MPD2    C2 2053   3.518   2.310  10.461  0.2120 -0.0828  0.7682
  132MPD2    C3 2054   3.411   2.257  10.395  0.3126 -0.1589 -0.4537
  132MPD2    C4 2055   3.345   2.328  10.295 -0.3942 -0.3629 -0.0350
  132MPD2    C5 2056   3.401   2.447  10.247  0.4135 -0.3577 -0.2906
  132MPD2     H 2057   3.551   2.248  10.544  4.7877 -3.3009 -3.4286
  132MPD2    H1 2058   3.260   2.278  10.250  0.2147 -0.7149 -0.7908
  132MPD2    H2 2059   3.548   2.608  10.286 -1.4808  0.5191  0.1668
  132MPD2    H3 2060   3.362   2.490  10.155  2.7586 -0.4338 -1.3010
  132MPD2     N 2061   3.362   2.137  10.448 -0.2906 -0.4379 -0.1462
  132MPD2    H5 2062   3.411   2.089  10.523  1.1979  1.0027 -0.2028
  132MPD2    N1 2063   3.673   2.493  10.486 -0.7272  0.0061  0.3613
  132MPD2    H7 2064   3.712   2.579  10.449 -1.5041  1.1616  2.2052
  133TMC2    C1 2065   2.514   4.730   9.595 -0.2312  0.5179 -0.7795
  133TMC2    C2 2066   2.415   0.009   9.506  0.5159 -0.1500 -0.4705
  133TMC2    C3 2067   2.384   0.129   9.452  0.9716 -0.0244 -0.6963
  133TMC2    C4 2068   2.584   0.106   9.634 -0.3010  0.4771 -0.1574
  133TMC2    C5 2069   2.554   0.227   9.579  0.1342 -1.0368 -0.7539
  133TMC2    C6 2070   2.452   0.241   9.481  0.0110 -0.1055  0.2283
  133TMC2     C 2071   2.552   4.595   9.627  0.3025 -0.6237 -0.5946
  133TMC2     O 2072   2.478   4.508   9.577 -0.1868 -0.3018  0.3670
  133TMC2     H 2073   2.353   4.660   9.470 -0.2927  0.1747  0.1931
  133TMC2    H1 2074   2.663   0.099   9.709 -0.1384  0.6181 -0.3176
  133TMC2    H2 2075   2.425   0.332   9.429 -1.4127 -0.2887  0.6331
  133TMC2    C7 2076   2.619   0.345   9.636 -0.0056 -0.0249  0.3633
  133TMC2    C8 2077   2.284   0.122   9.349 -0.2330 -0.0432 -0.5039
  133TMC2    O1 2078   2.579   0.461   9.615  0.0406  0.2018  0.5176
  133TMC2    O2 2079   2.250   0.030   9.275 -0.2901 -0.4642 -0.6313
  133TMC2    O5 2080   2.220   0.237   9.348  0.3359  0.0511 -0.2357
  133TMC2    H5 2081   2.264   0.307   9.400  0.7768  0.2557 -0.8896
  134MPD2     C 2082   2.881   4.475   9.709 -0.6418 -0.1760  0.0366
  134MPD2    C1 2083   2.748   4.460   9.687 -0.0611  0.1659 -0.0809
  134MPD2    C2 2084   2.682   4.337   9.709  0.4389 -0.6743  0.4352
  134MPD2    C3 2085   2.764   4.225   9.724  0.9857  0.4556  0.5239
  134MPD2    C4 2086   2.900   4.242   9.741 -0.2317 -0.2323  0.3953
  134MPD2    C5 2087   2.960   4.368   9.733 -0.5893 -0.3094 -0.0055
  134MPD2     H 2088   2.574   4.329   9.704  0.3115  0.9377  0.5818
  134MPD2    H1 2089   2.970   4.160   9.743  1.6327  1.3656 -0.0906
  134MPD2    H2 2090   2.921   4.575   9.698 -0.1045 -0.3252  0.5713
  134MPD2    H3 2091   3.067   4.382   9.733 -0.5984 -0.1930  2.4237
  134MPD2     N 2092   2.709   4.094   9.737  0.2081  0.0176 -0.1602
  134MPD2    H5 2093   2.781   4.026   9.760  0.8647  0.2710 -1.4675
  134MPD2    N1 2094   2.680   4.582   9.665 -0.2045 -0.5209  0.2632
  134MPD2    H7 2095   2.738   4.665   9.663  0.0063 -0.6581  0.7491
  135TMC2    C1 2096   0.323   0.182   9.660 -0.1413  0.0336 -0.4382
  135TMC2    C2 2097   0.411   0.268   9.600 -0.1927  0.2628  0.0644
  135TMC2    C3 2098   0.468   0.368   9.681  0.1636  0.4736 -0.3658
  135TMC2    C4 2099   0.303   0.187   9.796 -0.4108  0.2356  0.5779
  135TMC2    C5 2100   0.383   0.269   9.870 -0.2452 -1.1767 -0.2291
  135TMC2    C6 2101   0.477   0.353   9.816  0.3052 -0.6893 -0.3031
  135TMC2     C 2102   0.296   0.056   9.594 -0.2509  0.5075 -0.4225
  135TMC2     O 2103   0.196   4.730   9.624  0.5079 -0.2643  0.0659
  135TMC2     H 2104   0.403   0.289   9.494  0.6503  0.6638  0.0787
  135TMC2    H1 2105   0.225   0.122   9.834  1.5052 -2.0490  0.5734
  135TMC2    H2 2106   0.526   0.434   9.869 -2.0812 -0.1234  1.0136
  135TMC2    C7 2107   0.368   0.270  10.012 -0.7789 -0.1885 -0.0292
  135TMC2    C8 2108   0.572   0.446   9.622  0.6500 -0.5367  0.5267
  135TMC2    O1 2109   0.420   0.367  10.065 -0.3993  0.6613  0.0745
  135TMC2    O2 2110   0.684   0.408   9.649 -0.2232 -0.0872 -0.5117
  135TMC2    O5 2111   0.528   0.467   9.494  0.8625  0.4305 -0.0697
  135TMC2    H5 2112   0.445   0.519   9.491 -0.2122 -1.3418 -0.8050
  136MPD2     C 2113   0.323   4.541   9.427  0.8817  0.2777 -0.1253
  136MPD2    C1 2114   0.424   4.638   9.444  0.1821  0.1423  0.3615
  136MPD2    C2 2115   0.549   4.606   9.385  0.7140 -0.2058 -0.0935
  136MPD2    C3 2116   0.562   4.475   9.344 -0.0603  0.0449  0.0653
  136MPD2    C4 2117   0.464   4.382   9.325 -0.4356  0.1179  0.0703
  136MPD2    C5 2118   0.343   4.421   9.362  0.2053  0.7574  0.2956
  136MPD2     H 2119   0.624   4.683   9.391 -0.4154  0.8807  0.0055
  136MPD2    H1 2120   0.479   4.279   9.298  2.9160  1.4198 -3.1319
  136MPD2    H2 2121   0.223   4.555   9.464 -0.2977 -0.5856 -2.9489
  136MPD2    H3 2122   0.261   4.350   9.360  2.0205 -1.2689 -1.1181
  136MPD2     N 2123   0.693   4.425   9.306  0.2847  0.2915 -0.1335
  136MPD2    H5 2124   0.690   4.333   9.261  1.1230 -0.0918  0.6087
  136MPD2    N1 2125   0.411   0.020   9.525  0.3294  0.6002 -0.2107
  136MPD2    H7 2126   0.486   0.089   9.518 -0.6414  1.8804  2.1540
  137TMC2    C1 2127   4.283   3.591   9.211  0.6538 -0.2879  0.2121
  137TMC2    C2 2128   4.271   3.599   9.080  0.2114 -0.4468  0.0182
  137TMC2    C3 2129   4.172   3.679   9.034  0.2558 -0.3608 -0.2808
  137TMC2    C4 2130   4.199   3.655   9.300 -0.5480  0.0163  0.1474
  137TMC2    C5 2131   4.095   3.726   9.257 -0.2778 -0.4416  0.6843
  137TMC2    C6 2132   4.088   3.741   9.120  0.9938 -1.0674 -0.0989
  137TMC2     C 2133   4.402   3.533   9.261 -0.2334 -0.8994 -0.2700
  137TMC2     O 2134   4.435   3.556   9.376  0.4218 -0.3821 -0.8424
  137TMC2     H 2135   4.345   3.558   9.013  0.2737 -0.3690  0.0398
  137TMC2    H1 2136   4.217   3.637   9.405  1.4048  0.0142 -0.1733
  137TMC2    H2 2137   4.021   3.820   9.088  1.4293  0.1160  1.9509
  137TMC2    C7 2138   4.050   3.833   9.340 -0.1402 -0.1017 -0.3257
  137TMC2    C8 2139   4.198   3.726   8.897 -0.0812 -0.0102  0.0549
  137TMC2    O1 2140   4.019   3.943   9.293  0.2438 -0.3711  0.4228
  137TMC2    O2 2141   4.301   3.702   8.833 -0.0361 -0.6662 -0.5407
  137TMC2    O5 2142   4.091   3.806   8.859  0.4777 -0.1726 -0.3662
  137TMC2    H5 2143   4.012   3.803   8.917  1.2327  0.0977  0.6747
  138MPD2     C 2144   4.687   3.362   9.097 -0.7443  0.0212 -0.3827
  138MPD2    C1 2145   4.623   3.435   9.194 -0.1688 -0.3881  0.3853
  138MPD2    C2 2146   4.703   3.492   9.294  0.4966  0.1937  0.0770
  138MPD2    C3 2147   0.106   3.471   9.297 -0.1273  0.5044 -0.8041
  138MPD2    C4 2148   0.162   3.378   9.207  0.5346  0.3313 -0.5104
  138MPD2    C5 2149   0.083   3.326   9.106 -0.7863  0.3778  0.3727
  138MPD2     H 2150   4.667   3.570   9.360  0.9439  0.5222 -0.0618
  138MPD2    H1 2151   0.265   3.347   9.220  0.5677  1.7516  2.7242
  138MPD2    H2 2152   4.629   3.323   9.014 -1.6011 -1.6703  1.0141
  138MPD2    H3 2153   0.126   3.252   9.038  0.2761  1.2257  0.1173
  138MPD2     N 2154   0.181   3.529   9.401 -0.1836 -0.1267  0.1638
  138MPD2    H5 2155   0.140   3.601   9.459 -0.4045 -0.6504  0.6585
  138MPD2    N1 2156   4.485   3.471   9.169  0.3695 -0.1932 -0.3889
  138MPD2    H7 2157   4.437   3.446   9.083 -2.6711  2.0963  0.6240
  139TMC2    C1 2158   0.677   1.736  13.345  0.4420 -0.7532  0.4058
  139TMC2    C2 2159   0.691   1.772  13.213  0.3067  0.7700  0.4956
  139TMC2    C3 2160   0.605   1.869  13.163 -0.1941  0.4883 -0.0045
  139TMC2    C4 2161   0.582   1.782  13.429 -0.4162  0.0022  0.3747
  139TMC2    C5 2162   0.487   1.864  13.372 -1.0099  0.2328 -0.1722
  139TMC2    C6 2163   0.491   1.898  13.237  0.4548 -0.3406  0.4982
  139TMC2     C 2164   0.763   1.632  13.386 -1.1184  0.1007  0.8709
  139TMC2     O 2165   0.822   1.572  13.299  0.1184  0.1252  0.1709
  139TMC2     H 2166   0.778   1.732  13.162  1.0046  1.0804  1.4485
  139TMC2    H1 2167   0.563   1.738  13.526 -0.8086 -2.5034 -0.8376
  139TMC2    H2 2168   0.411   1.956  13.194 -1.1367 -1.1405  2.3662
  139TMC2    C7 2169   0.387   1.932  13.455  0.0570 -0.6294 -0.4375
  139TMC2    C8 2170   0.611   1.915  13.027 -0.1478 -0.4281  0.5465
  139TMC2    O1 2171   0.296   1.978  13.387  0.4160 -0.2485  0.0881
  139TMC2    O2 2172   0.508   1.918  12.956  0.0673  0.6475  0.0483
  139TMC2    O5 2173   0.736   1.882  12.981 -0.2859 -0.1536 -0.3248
  139TMC2    H5 2174   0.808   1.876  13.048 -0.1852 -0.0523 -0.4241
  140MPD2     C 2175   0.868   1.540  13.724  0.1440 -0.3343  0.0109
  140MPD2    C1 2176   0.876   1.545  13.592  0.3016  1.1528 -0.2945
  140MPD2    C2 2177   0.961   1.465  13.530 -0.2529 -0.6215 -0.2926
  140MPD2    C3 2178   1.023   1.365  13.597  0.6776 -0.3018  0.3725
  140MPD2    C4 2179   1.010   1.365  13.735  0.3523  0.3423  0.2122
  140MPD2    C5 2180   0.942   1.461  13.801 -0.3173  0.1890  0.2144
  140MPD2     H 2181   0.972   1.473  13.423 -0.5569  1.1655 -0.2042
  140MPD2    H1 2182   1.054   1.290  13.800  0.9476  0.1939 -0.3595
  140MPD2    H2 2183   0.803   1.603  13.783  0.1789 -0.5385  0.2677
  140MPD2    H3 2184   0.933   1.467  13.909  2.1583 -2.8482  0.6094
  140MPD2     N 2185   1.106   1.283  13.519 -0.2468  0.1387 -0.3342
  140MPD2    H5 2186   1.112   1.292  13.418  0.2482  0.7600 -0.2584
  140MPD2    N1 2187   0.786   1.629  13.523 -0.2934  0.5745 -0.1567
  140MPD2    H7 2188   0.735   1.687  13.589  1.3575 -1.1082  2.6241
  141TMC2    C1 2189   0.927   2.913  14.688  0.1590 -0.2200  0.8418
  141TMC2    C2 2190   0.923   2.802  14.772  0.2857 -0.2706 -0.2122
  141TMC2    C3 2191   0.928   2.841  14.902 -0.2524 -0.6125 -0.4823
  141TMC2    C4 2192   0.916   3.049  14.732  0.5300 -0.8825  0.3827
  141TMC2    C5 2193   0.929   3.071  14.865  0.0782 -0.4012  0.6151
  141TMC2    C6 2194   0.935   2.970  14.960  0.5222  0.7345  0.0949
  141TMC2     C 2195   0.945   2.894  14.546 -0.3414  0.5314 -0.1311
  141TMC2     O 2196   0.917   2.988  14.474 -0.2727  0.4336  0.3800
  141TMC2     H 2197   0.910   2.704  14.730  1.5560 -0.8575  0.7787
  141TMC2    H1 2198   0.925   3.136  14.668  1.1728  0.6668  2.5879
  141TMC2    H2 2199   0.935   2.978  15.068 -3.1314 -1.4995  0.2871
  141TMC2    C7 2200   0.956   3.208  14.905 -0.7549 -0.3336 -0.0819
  141TMC2    C8 2201   0.927   2.735  14.996 -1.1491  0.2574  0.3772
  141TMC2    O1 2202   0.870   3.290  14.884  0.1526 -0.3588 -0.4312
  141TMC2    O2 2203   0.972   2.735  15.109  0.2019 -0.2056  0.0793
  141TMC2    O5 2204   0.837   2.640  14.952 -0.2799  0.1684  0.0045
  141TMC2    H5 2205   0.777   2.677  14.884  0.4941  0.5358 -0.4882
  142TMC2    C1 2206   3.574   1.919  10.184  0.2747  0.0976 -0.8554
  142TMC2    C2 2207   3.557   2.023  10.099  0.6509 -0.6048  0.1798
  142TMC2    C3 2208   3.618   2.144  10.127 -0.1292 -0.3411  0.2016
  142TMC2    C4 2209   3.662   1.926  10.282 -0.8284 -0.3896 -0.5867
  142TMC2    C5 2210   3.727   2.041  10.299  0.2243  0.1033 -0.7538
  142TMC2    C6 2211   3.710   2.153  10.223  0.4809 -0.6209 -0.3575
  142TMC2     C 2212   3.488   1.795  10.188  0.5078  0.2633 -0.2600
  142TMC2     O 2213   3.530   1.703  10.260 -0.0102  0.0239  0.0729
  142TMC2     H 2214   3.503   2.011  10.006 -0.5288  0.3580  0.7502
  142TMC2    H1 2215   3.684   1.841  10.346  0.3052  0.9239  0.7897
  142TMC2    H2 2216   3.758   2.250  10.229 -0.1004 -0.4180  0.9072
  142TMC2    C7 2217   3.806   2.056  10.418 -0.6699  0.3329  0.5482
  142TMC2    C8 2218   3.597   2.259  10.045 -0.1937 -0.6639 -0.0163
  142TMC2    O1 2219   3.787   1.968  10.502  0.2654  0.1753  0.8608
  142TMC2    O2 2220   3.678   2.347  10.036  0.4098  0.2412 -0.1060
  142TMC2    O5 2221   3.489   2.253   9.965 -0.0863 -0.0257  0.3027
  142TMC2    H5 2222   3.442   2.168   9.972 -0.4815  0.3408  2.0661
  143MPD2     C 2223   3.062   1.526  10.087  0.4308  1.3139 -0.1870
  143MPD2    C1 2224   3.158   1.501  10.172  0.0631  0.3883 -0.1719
  143MPD2    C2 2225   3.263   1.588  10.184 -0.2131  0.6965  0.8614
  143MPD2    C3 2226   3.279   1.698  10.099  0.0644  0.3156  0.8077
  143MPD2    C4 2227   3.184   1.717  10.002 -0.0342  0.5135  0.0976
  143MPD2    C5 2228   3.076   1.635   9.996  0.1126 -0.0358  0.4440
  143MPD2     H 2229   3.338   1.574  10.261  0.5534 -0.0341 -0.0277
  143MPD2    H1 2230   3.189   1.795   9.928  0.6400  2.0750  1.7872
  143MPD2    H2 2231   2.975   1.461  10.086  1.3032  0.0901  3.2028
  143MPD2    H3 2232   2.997   1.660   9.926  1.2233  1.8533 -0.1507
  143MPD2     N 2233   3.375   1.797  10.104  0.2021 -0.4222  0.2364
  143MPD2    H5 2234   3.360   1.876  10.040  0.6629 -0.1903  0.4120
  143MPD2    N1 2235   3.145   1.389  10.259 -0.6908  0.1919  0.0711
  143MPD2    H7 2236   3.057   1.339  10.247 -1.1995  1.4011 -1.2939
  144TMC2    C1 2237   2.779   0.523   0.493  0.2758  0.5039  0.7007
  144TMC2    C2 2238   2.878   0.454   0.435  0.0074 -0.2595  0.3087
  144TMC2    C3 2239   3.002   0.511   0.438 -0.4016  0.1982 -1.0745
  144TMC2    C4 2240   2.801   0.632   0.570  0.5455 -0.1590 -0.1474
  144TMC2    C5 2241   2.930   0.677   0.586  0.1572  0.0194  0.0838
  144TMC2    C6 2242   3.033   0.622   0.510  0.8004  0.2378 -0.4428
  144TMC2     C 2243   2.642   0.480   0.475 -0.2952  0.0719 -0.4638
  144TMC2     O 2244   2.630   0.374   0.417  0.2060  0.0854 -0.3738
  144TMC2     H 2245   2.862   0.360   0.383 -0.1402 -1.2296  2.0784
  144TMC2    H1 2246   2.728   0.680   0.634  0.1510 -1.5121  0.4168
  144TMC2    H2 2247   3.136   0.654   0.519  0.8326 -0.5981  2.1591
  144TMC2    C7 2248   2.967   0.766   0.695 -0.5519  0.0591 -0.4670
  144TMC2    C8 2249   3.102   0.446   0.357 -0.4847  0.7150 -0.3685
  144TMC2    O1 2250   3.085   0.767   0.719 -0.5479  0.4381  0.6888
  144TMC2    O2 2251   3.086   0.369   0.263  0.3186 -0.3752 -0.5835
  144TMC2    O5 2252   3.223   0.466   0.419 -0.1760 -0.0599 -0.0367
  144TMC2    H5 2253   3.220   0.515   0.504 -1.2417 -0.0571 -0.0679
  145MPD2     C 2254   2.134   0.574   0.512 -0.9036  0.0310 -0.2228
  145MPD2    C1 2255   2.204   0.459   0.478 -0.6861 -0.0037  0.2864
  145MPD2    C2 2256   2.341   0.459   0.469 -0.0808  0.4957  0.4595
  145MPD2    C3 2257   2.415   0.576   0.497  0.1948 -0.1579  0.3419
  145MPD2    C4 2258   2.346   0.689   0.537 -0.0208  0.2133  0.6565
  145MPD2    C5 2259   2.209   0.688   0.537 -0.2722  0.7604 -0.0114
  145MPD2     H 2260   2.399   0.370   0.448  0.8382  1.8860 -2.9551
  145MPD2    H1 2261   2.398   0.781   0.560  1.7445 -1.0070  1.5298
  145MPD2    H2 2262   2.027   0.576   0.527 -0.8981  0.7171 -0.3116
  145MPD2    H3 2263   2.159   0.782   0.559 -0.2871  0.5566  0.8257
  145MPD2     N 2264   2.553   0.575   0.504  0.3880 -0.2629 -0.1810
  145MPD2    H5 2265   2.596   0.656   0.547  1.5539 -0.5477 -0.8124
  145MPD2    N1 2266   2.130   0.339   0.450 -0.3649 -0.2740 -0.5716
  145MPD2    H7 2267   2.180   0.266   0.399  2.4999  1.4120 -0.1392
  146TMC2    C1 2268   2.701   4.052  12.453  0.1290  0.1411  0.7659
  146TMC2    C2 2269   2.754   4.137  12.359 -0.3268 -0.3111 -0.4667
  146TMC2    C3 2270   2.801   4.082  12.243 -0.1952  0.0938  0.2166
  146TMC2    C4 2271   2.671   3.921  12.434 -0.1864  0.2166 -1.0223
  146TMC2    C5 2272   2.726   3.871  12.317 -0.2433  0.1260 -0.3847
  146TMC2    C6 2273   2.783   3.948  12.214 -0.1371 -0.0293 -0.2079
  146TMC2     C 2274   2.633   4.128  12.556  0.0925 -0.1691 -0.0614
  146TMC2     O 2275   2.593   4.241  12.523  0.2089  0.0268 -0.3159
  146TMC2     H 2276   2.766   4.244  12.370 -3.5220 -0.0382  0.5331
  146TMC2    H1 2277   2.610   3.864  12.504  0.3164 -0.2140 -0.9298
  146TMC2    H2 2278   2.829   3.909  12.124 -1.0380  0.8111 -1.0390
  146TMC2    C7 2279   2.753   3.733  12.306  0.0842  0.8102 -0.3096
  146TMC2    C8 2280   2.850   4.179  12.146 -0.3832 -0.0395 -0.1583
  146TMC2    O1 2281   2.784   3.685  12.197 -0.3605 -0.0480  0.3305
  146TMC2    O2 2282   2.821   4.299  12.145 -0.4492  0.3511  0.3856
  146TMC2    O5 2283   2.891   4.117  12.034  0.3555  0.4079 -0.1646
  146TMC2    H5 2284   2.913   4.021  12.039 -2.4449 -0.2307 -0.0334
  147MPD2     C 2285   2.889   3.277  12.499  0.3985 -0.5334 -0.0941
  147MPD2    C1 2286   2.906   3.374  12.595 -0.4457 -0.2804 -0.1962
  147MPD2    C2 2287   2.862   3.501  12.573 -0.2847 -0.2808  0.3889
  147MPD2    C3 2288   2.813   3.544  12.455 -0.5744 -0.1804 -0.1918
  147MPD2    C4 2289   2.792   3.448  12.353  0.4924 -0.2529 -1.0132
  147MPD2    C5 2290   2.833   3.317  12.378 -0.0865 -0.2212 -0.0972
  147MPD2     H 2291   2.873   3.579  12.647 -1.2772  0.2604 -0.0285
  147MPD2    H1 2292   2.740   3.471  12.261 -1.0991 -0.9144 -0.2852
  147MPD2    H2 2293   2.940   3.181  12.505 -0.8895 -1.4347 -3.0451
  147MPD2    H3 2294   2.828   3.245  12.296  2.8484  1.3808 -1.6783
  147MPD2     N 2295   2.789   3.676  12.430  0.3287 -1.0637  0.1270
  147MPD2    H5 2296   2.790   3.734  12.513 -3.0282 -0.0654 -0.5477
  147MPD2    N1 2297   2.977   3.334  12.710  0.6312 -0.4761 -0.1051
  147MPD2    H7 2298   3.006   3.237  12.709 -2.6972 -1.4891  3.5651
  148TMC2    C1 2299   3.396   3.496  10.682 -0.0586  0.0719 -0.3031
  148TMC2    C2 2300   3.446   3.553  10.568 -0.4278 -0.2561  0.3094
  148TMC2    C3 2301   3.566   3.510  10.524  1.0337 -0.1112  0.1543
  148TMC2    C4 2302   3.455   3.378  10.734 -0.0567 -0.1638  0.1892
  148TMC2    C5 2303   3.570   3.337  10.676  0.0324 -0.3138  0.7819
  148TMC2    C6 2304   3.626   3.398  10.571  0.4874 -0.2199  0.3763
  148TMC2     C 2305   3.252   3.504  10.695  0.1719 -0.7816 -0.2701
  148TMC2     O 2306   3.194   3.404  10.739  0.3898  0.0512 -0.1506
  148TMC2     H 2307   3.404   3.641  10.520 -3.0106 -0.1239  2.8347
  148TMC2    H1 2308   3.412   3.314  10.810 -3.0692 -0.2994 -1.6284
  148TMC2    H2 2309   3.695   3.344  10.507  0.7241  1.3518 -0.7055
  148TMC2    C7 2310   3.592   3.195  10.681  0.1108  0.5724  0.0681
  148TMC2    C8 2311   3.611   3.548  10.391 -0.4211  0.3846  0.1848
  148TMC2    O1 2312   3.588   3.140  10.571  0.0809 -0.0178 -0.2660
  148TMC2    O2 2313   3.537   3.617  10.320 -0.0912  0.3311  0.1843
  148TMC2    O5 2314   3.747   3.561  10.381  0.3731  0.6453 -0.0744
  148TMC2    H5 2315   3.807   3.541  10.455  0.6602 -2.8055 -1.2493
  149MPD2     C 2316   3.009   3.742  10.555 -0.5211  0.4178  0.2451
  149MPD2    C1 2317   3.062   3.627  10.580 -0.2511 -0.8571  0.4005
  149MPD2    C2 2318   3.001   3.519  10.528 -0.0421  0.7146 -0.1345
  149MPD2    C3 2319   2.891   3.522  10.451  0.0187 -0.3396  0.1420
  149MPD2    C4 2320   2.825   3.652  10.441  0.4678 -0.2625  0.1132
  149MPD2    C5 2321   2.887   3.755  10.498  0.2794  0.1512 -0.5131
  149MPD2     H 2322   3.044   3.425  10.559 -1.7677 -0.3129 -0.8882
  149MPD2    H1 2323   2.734   3.662  10.383 -1.0356  0.1276  2.5585
  149MPD2    H2 2324   3.058   3.827  10.602 -1.5582  0.9457  0.4018
  149MPD2    H3 2325   2.832   3.848  10.486 -1.8334 -1.0023  0.1066
  149MPD2     N 2326   2.814   3.401  10.416  0.1951 -0.3069  0.1673
  149MPD2    H5 2327   2.718   3.417  10.386 -0.2872 -1.7810  0.8985
  149MPD2    N1 2328   3.193   3.616  10.635 -0.5733  0.2723 -0.0540
  149MPD2    H7 2329   3.250   3.701  10.640 -0.5880  0.4202 -2.1508
  150TMC2    C1 2330   0.706   2.187  12.321  0.1492 -0.1534  0.4638
  150TMC2    C2 2331   0.679   2.320  12.313 -0.3968  0.0304 -0.6763
  150TMC2    C3 2332   0.782   2.409  12.353 -0.0043 -0.1363  0.9388
  150TMC2    C4 2333   0.829   2.139  12.362  0.0073 -0.2470  0.5211
  150TMC2    C5 2334   0.923   2.226  12.404 -0.2063 -0.7255 -1.0388
  150TMC2    C6 2335   0.905   2.365  12.398  0.1246 -0.5654 -0.7502
  150TMC2     C 2336   0.618   2.101  12.251 -0.4240 -0.2429 -0.4538
  150TMC2     O 2337   0.535   2.155  12.179 -0.1205  0.8037  0.1571
  150TMC2     H 2338   0.577   2.352  12.297 -0.3906  0.1303 -0.5150
  150TMC2    H1 2339   0.848   2.034  12.343 -1.9531 -0.5242  0.0662
  150TMC2    H2 2340   0.988   2.428  12.427 -1.4661  1.1917  0.0025
  150TMC2    C7 2341   1.057   2.177  12.419  0.0089  0.4818  0.5171
  150TMC2    C8 2342   0.747   2.551  12.352 -0.1624 -0.3069  0.0516
  150TMC2    O1 2343   1.149   2.255  12.397  0.1809  0.5499 -0.2204
  150TMC2    O2 2344   0.631   2.591  12.361 -0.1115  0.4882  0.4813
  150TMC2    O5 2345   0.857   2.627  12.315 -0.3344  0.2249 -0.2632
  150TMC2    H5 2346   0.927   2.563  12.291 -1.9156 -1.1772 -1.1021
  151MPD2     C 2347   0.454   1.636  12.117 -0.5066 -0.4333  0.5525
  151MPD2    C1 2348   0.413   1.762  12.069 -0.0275 -0.5480 -0.1567
  151MPD2    C2 2349   0.480   1.866  12.119  0.3328  0.2403 -0.1189
  151MPD2    C3 2350   0.572   1.856  12.216  0.0184 -0.5039  0.7236
  151MPD2    C4 2351   0.624   1.739  12.257 -0.0154 -0.4879 -0.2844
  151MPD2    C5 2352   0.563   1.627  12.203 -1.1741 -0.2783  0.6240
  151MPD2     H 2353   0.462   1.964  12.076  0.6963  0.4998  0.3294
  151MPD2    H1 2354   0.708   1.731  12.325 -1.4552 -0.9969  1.4153
  151MPD2    H2 2355   0.405   1.552  12.069  0.0749 -0.6371  0.3214
  151MPD2    H3 2356   0.607   1.528  12.213  1.0615  0.4667 -1.8113
  151MPD2     N 2357   0.642   1.968  12.273 -0.3551 -0.4862  0.0281
  151MPD2    H5 2358   0.716   1.951  12.341  0.3139 -1.9084 -1.0721
  151MPD2    N1 2359   0.331   1.767  11.960  0.1938 -0.4832  0.1680
  151MPD2    H7 2360   0.301   1.678  11.922 -1.6262 -1.0128  2.8713
  152TMC2    C1 2361   0.095   1.754  12.588 -0.3079 -0.5143 -0.7240
  152TMC2    C2 2362   0.180   1.644  12.578 -0.0250 -0.2831  0.0215
  152TMC2    C3 2363   0.312   1.665  12.556 -0.3265 -0.1076 -0.3841
  152TMC2    C4 2364   0.136   1.884  12.557  0.0788  0.1122  0.1201
  152TMC2    C5 2365   0.271   1.900  12.522  0.1952 -0.4088 -0.4763
  152TMC2    C6 2366   0.353   1.793  12.524  0.0985 -0.8360 -0.2827
  152TMC2     C 2367   4.685   1.741  12.618  0.1906 -0.0162 -0.4573
  152TMC2     O 2368   4.607   1.811  12.558 -0.2799  0.1518  0.4045
  152TMC2     H 2369   0.144   1.542  12.580  1.6453 -0.8501  1.0882
  152TMC2    H1 2370   0.072   1.967  12.582 -1.0764 -0.4997 -0.7887
  152TMC2    H2 2371   0.453   1.802  12.483  1.1677 -3.4445  1.7238
  152TMC2    C7 2372   0.326   2.029  12.564 -0.4920 -0.3276  0.1070
  152TMC2    C8 2373   0.396   1.547  12.531  0.4896 -0.2210  0.2761
  152TMC2    O1 2374   0.249   2.120  12.570  0.6107 -0.0667  0.1338
  152TMC2    O2 2375   0.349   1.440  12.494  0.0850  0.6055  0.2567
  152TMC2    O5 2376   0.530   1.580  12.552  0.5673  0.3448  0.1528
  152TMC2    H5 2377   0.537   1.656  12.613 -0.1150  1.0890 -0.7046
  153MPD2     C 2378   4.551   1.523  12.895  0.2716  0.2637  0.0231
  153MPD2    C1 2379   4.553   1.598  12.779 -0.4929 -0.5156  0.1350
  153MPD2    C2 2380   4.432   1.630  12.720 -0.2155 -1.1838 -0.0968
  153MPD2    C3 2381   4.311   1.569  12.760 -0.2341 -0.0500  0.1629
  153MPD2    C4 2382   4.309   1.500  12.881  0.1938  0.2431 -0.4126
  153MPD2    C5 2383   4.431   1.478  12.939 -0.2485 -0.5486 -0.5592
  153MPD2     H 2384   4.429   1.683  12.626  2.1800  0.9826  1.0393
  153MPD2    H1 2385   4.222   1.464  12.935 -0.8669  1.0706 -1.5505
  153MPD2    H2 2386   4.647   1.494  12.936  0.9923  0.7236 -1.3629
  153MPD2    H3 2387   4.440   1.413  13.025  0.3678  1.1032  0.6364
  153MPD2     N 2388   4.197   1.592  12.681  0.2982  0.4609  0.1929
  153MPD2    H5 2389   4.208   1.607  12.582  2.2674 -2.2045  0.0036
  153MPD2    N1 2390   4.673   1.647  12.722  0.3230  0.3031 -0.2335
  153MPD2    H7 2391   0.026   1.617  12.768  0.4855  1.8602  0.4894
  154TMC2    C1 2392   1.740   2.000   0.294 -0.4974 -0.0761 -0.4397
  154TMC2    C2 2393   1.827   1.897   0.273  0.1456  0.0424  0.6623
  154TMC2    C3 2394   1.961   1.930   0.269  1.0834  0.3198 -0.2484
  154TMC2    C4 2395   1.779   2.134   0.310  0.4407 -0.5517 -0.5569
  154TMC2    C5 2396   1.911   2.159   0.309 -0.4752  0.1382 -0.3499
  154TMC2    C6 2397   2.002   2.063   0.284 -0.0572 -0.1313  0.2947
  154TMC2     C 2398   1.601   1.961   0.305 -0.2892 -0.3916 -0.1191
  154TMC2     O 2399   1.526   2.054   0.308 -0.0362 -0.1081  0.3451
  154TMC2     H 2400   1.801   1.793   0.258 -0.4897  0.1595  0.9665
  154TMC2    H1 2401   1.698   2.204   0.330  0.4606 -1.4471  2.6947
  154TMC2    H2 2402   2.108   2.083   0.295  0.1204  0.3736 -2.2944
  154TMC2    C7 2403   1.937   2.302   0.313  0.4480  0.0424 -0.3404
  154TMC2    C8 2404   2.057   1.827   0.221  0.3626 -0.0651  0.0217
  154TMC2    O1 2405   1.846   2.368   0.357  0.3532 -0.1006 -0.3578
  154TMC2    O2 2406   2.175   1.859   0.204  0.7421 -0.0098 -0.0089
  154TMC2    O5 2407   2.027   1.705   0.280 -0.6363 -0.2567  0.2787
  154TMC2    H5 2408   1.937   1.682   0.313  0.7618 -1.7889  3.0629
  155MPD2     C 2409   1.468   1.629   0.392  0.2472 -0.2892 -0.1544
  155MPD2    C1 2410   1.469   1.770   0.378 -0.1526 -0.8855 -0.4330
  155MPD2    C2 2411   1.367   1.844   0.434  1.0689 -0.2132  0.0412
  155MPD2    C3 2412   1.264   1.785   0.501 -1.0718  0.1624  0.9179
  155MPD2    C4 2413   1.257   1.644   0.506  0.0647  0.1552 -0.0379
  155MPD2    C5 2414   1.364   1.572   0.456 -0.6303  0.1012  0.5020
  155MPD2     H 2415   1.374   1.952   0.439  2.7211 -0.2866 -0.5695
  155MPD2    H1 2416   1.171   1.592   0.545 -0.5253  0.8228 -0.4612
  155MPD2    H2 2417   1.556   1.568   0.373 -0.5773 -0.9011 -1.9613
  155MPD2    H3 2418   1.367   1.464   0.464  1.3013 -0.0320 -2.0520
  155MPD2     N 2419   1.161   1.869   0.558 -0.1182 -0.0382  0.7984
  155MPD2    H5 2420   1.174   1.970   0.552 -0.6213  0.0773  1.6344
  155MPD2    N1 2421   1.577   1.825   0.323 -0.4137 -0.0274  0.2334
  155MPD2    H7 2422   1.658   1.766   0.309  0.3462  0.1916  3.5807
  156TMC2    C1 2423   0.792   3.885  11.687 -0.3544 -1.0792  0.0526
  156TMC2    C2 2424   0.922   3.852  11.662  0.1068 -0.5354  0.0161
  156TMC2    C3 2425   0.976   3.910  11.554 -0.4325 -0.4984 -0.1466
  156TMC2    C4 2426   0.727   3.986  11.613 -0.1472 -0.4256 -0.4763
  156TMC2    C5 2427   0.781   4.034  11.497 -0.6596 -0.1935 -0.0401
  156TMC2    C6 2428   0.907   3.999  11.470 -0.3375 -0.1443  0.0541
  156TMC2     C 2429   0.739   3.851  11.819 -0.4893  0.0868  0.3238
  156TMC2     O 2430   0.620   3.886  11.833  0.1386 -0.6659 -0.4576
  156TMC2     H 2431   0.997   3.789  11.708  0.5341  1.9927  2.7833
  156TMC2    H1 2432   0.625   4.013  11.636 -0.0234 -2.0543  2.0031
  156TMC2    H2 2433   0.950   4.034  11.377 -1.6344  1.7114  0.1675
  156TMC2    C7 2434   0.743   4.166  11.472  0.1359  0.2261 -0.4016
  156TMC2    C8 2435   1.111   3.883  11.521 -0.1863 -0.0182  0.0344
  156TMC2    O1 2436   0.824   4.250  11.498 -0.1153 -0.1439 -0.2370
  156TMC2    O2 2437   1.183   3.801  11.579  0.5993  0.0882 -0.6878
  156TMC2    O5 2438   1.163   3.975  11.433 -0.2120 -0.5273 -0.4578
  156TMC2    H5 2439   1.110   4.050  11.399  0.7014  0.2687 -0.1170
  157MPD2     C 2440   0.934   3.748  12.112 -0.4920 -0.1025  0.7479
  157MPD2    C1 2441   0.829   3.797  12.044  0.1174  0.4460  0.1794
  157MPD2    C2 2442   0.726   3.856  12.123 -1.3750  0.0825 -0.0164
  157MPD2    C3 2443   0.734   3.860  12.265  0.1387 -0.4401  0.3313
  157MPD2    C4 2444   0.847   3.804  12.325  0.3226 -0.1531  0.4351
  157MPD2    C5 2445   0.944   3.751  12.249 -0.0505 -0.0490 -0.0188
  157MPD2     H 2446   0.640   3.904  12.076  0.3846  2.7813 -0.4908
  157MPD2    H1 2447   0.859   3.817  12.432  1.0403  2.9110 -0.0194
  157MPD2    H2 2448   1.016   3.701  12.058 -0.2718  1.0571  0.0770
  157MPD2    H3 2449   1.031   3.707  12.298 -0.1309  0.6677  0.7807
  157MPD2     N 2450   0.627   3.924  12.338  0.4873 -0.9951  0.4308
  157MPD2    H5 2451   0.545   3.959  12.290  1.8221  1.3929 -0.0999
  157MPD2    N1 2452   0.837   3.805  11.901  0.2189 -0.8366 -0.1005
  157MPD2    H7 2453   0.924   3.783  11.854 -0.2501 -1.3964 -0.6904
  158TMC2    C1 2454   0.823   2.857  13.087 -0.5077 -0.9555 -0.6524
  158TMC2    C2 2455   0.896   2.946  13.012  0.3857  0.4468  0.2935
  158TMC2    C3 2456   0.826   3.036  12.943 -0.3213  0.2876 -0.2576
  158TMC2    C4 2457   0.688   2.846  13.082 -0.7409  0.4856 -0.3205
  158TMC2    C5 2458   0.631   2.928  12.990  0.2017 -0.1198  0.0803
  158TMC2    C6 2459   0.694   3.024  12.919  0.7064  0.2315 -0.4569
  158TMC2     C 2460   0.898   2.755  13.155 -0.6744  0.0147  0.1301
  158TMC2     O 2461   1.004   2.719  13.105  0.8376 -0.2976 -0.3193
  158TMC2     H 2462   1.001   2.959  13.036 -0.1338  3.2021  1.0870
  158TMC2    H1 2463   0.626   2.770  13.127  0.3579 -1.1421 -1.5434
  158TMC2    H2 2464   0.644   3.092  12.851  1.4126  0.1229 -1.0795
  158TMC2    C7 2465   0.482   2.938  12.976  1.1043 -0.0086  0.7313
  158TMC2    C8 2466   0.894   3.138  12.859 -0.6257 -0.2156  0.0729
  158TMC2    O1 2467   0.432   2.993  12.880  0.0306  0.3044 -0.7918
  158TMC2    O2 2468   0.844   3.242  12.842 -0.2215  0.5387  0.1586
  158TMC2    O5 2469   1.026   3.116  12.846 -0.0808  0.2009 -0.0344
  158TMC2    H5 2470   1.063   3.025  12.845 -0.5305  0.0261 -0.8083
  159MPD2     C 2471   0.934   2.422  13.552 -0.3829  0.1011  0.4339
  159MPD2    C1 2472   0.817   2.494  13.571 -0.3682 -0.2686  0.0676
  159MPD2    C2 2473   0.785   2.583  13.467 -0.0474 -0.9093 -0.5135
  159MPD2    C3 2474   0.868   2.611  13.358  0.3910  0.3881  0.9343
  159MPD2    C4 2475   0.979   2.527  13.340  0.2268 -0.1145 -0.2167
  159MPD2    C5 2476   1.014   2.436  13.437 -0.2764 -0.8544  0.0760
  159MPD2     H 2477   0.698   2.645  13.486  0.9146  0.5847 -1.0274
  159MPD2    H1 2478   1.044   2.528  13.254  0.1109  0.4887 -0.3004
  159MPD2    H2 2479   0.971   2.351  13.625  0.3381 -1.7282 -1.7267
  159MPD2    H3 2480   1.105   2.377  13.438  0.8303  0.8378 -0.3101
  159MPD2     N 2481   0.824   2.710  13.266  0.2608  0.1176  1.2190
  159MPD2    H5 2482   0.732   2.747  13.288 -0.2902 -0.5710  0.0427
  159MPD2    N1 2483   0.754   2.487  13.688 -0.1535 -0.6473  0.0771
  159MPD2    H7 2484   0.795   2.431  13.763 -0.2373 -1.3426 -0.4051
  160TMC2    C1 2485   1.026   1.635   2.261 -0.2549  0.1737 -0.3505
  160TMC2    C2 2486   1.019   1.766   2.297  0.5151 -0.4856  0.1857
  160TMC2    C3 2487   1.131   1.825   2.347 -0.4080  0.4109 -0.2054
  160TMC2    C4 2488   1.141   1.558   2.276  0.6816 -0.0800 -0.4039
  160TMC2    C5 2489   1.248   1.616   2.334  0.4162  0.3690  0.0283
  160TMC2    C6 2490   1.246   1.748   2.367  0.3543 -0.3158 -0.1251
  160TMC2     C 2491   0.916   1.554   2.212 -0.4394  0.3669 -0.4516
  160TMC2     O 2492   0.938   1.434   2.190 -0.1738  0.1829  0.2748
  160TMC2     H 2493   0.921   1.807   2.318  0.5322 -1.1304  1.5076
  160TMC2    H1 2494   1.157   1.453   2.253  2.7759  1.1243 -4.4000
  160TMC2    H2 2495   1.338   1.796   2.399 -0.8308  0.1730  2.5499
  160TMC2    C7 2496   1.376   1.583   2.276  0.3402  0.0897  0.3797
  160TMC2    C8 2497   1.137   1.972   2.348 -0.2581 -0.5276 -0.3682
  160TMC2    O1 2498   1.476   1.632   2.326 -0.2344 -0.2193  0.3644
  160TMC2    O2 2499   1.237   2.028   2.392  0.0586  0.4088  0.4091
  160TMC2    O5 2500   1.059   2.021   2.257 -0.1925  0.4184 -0.2410
  160TMC2    H5 2501   1.015   1.952   2.203 -2.0090  2.3267 -1.1860
  161MPD2     C 2502   0.673   1.471   2.062 -0.2037 -0.0301  0.5769
  161MPD2    C1 2503   0.717   1.600   2.068 -1.1727 -0.0378  0.4867
  161MPD2    C2 2504   0.644   1.708   2.010  0.7057 -0.3200  0.5688
  161MPD2    C3 2505   0.532   1.684   1.928 -0.0191  0.2983  0.5595
  161MPD2    C4 2506   0.505   1.549   1.911 -0.0918 -0.5148  0.1627
  161MPD2    C5 2507   0.574   1.448   1.977  0.4092 -0.1793  0.3521
  161MPD2     H 2508   0.685   1.807   2.027  0.6569 -0.4416  1.3972
  161MPD2    H1 2509   0.421   1.511   1.853 -1.0124  0.1532  1.0544
  161MPD2    H2 2510   0.719   1.397   2.126  2.4074  3.4436  2.7729
  161MPD2    H3 2511   0.548   1.343   1.968 -0.2887  0.1348 -1.2465
  161MPD2     N 2512   0.476   1.780   1.840 -0.2629 -0.1172 -0.0343
  161MPD2    H5 2513   0.402   1.754   1.775 -0.4316  0.3957 -0.0425
  161MPD2    N1 2514   0.820   1.636   2.154 -0.3011  0.5937 -0.8363
  161MPD2    H7 2515   0.828   1.736   2.171 -0.6383  0.8053 -1.9491
  162TMC2    C1 2516   3.427   3.143   0.587 -0.8437  0.2060 -0.2983
  162TMC2    C2 2517   3.354   3.253   0.551  0.5884 -0.5851  0.3799
  162TMC2    C3 2518   3.412   3.374   0.553  0.3405  0.8614  0.0881
  162TMC2    C4 2519   3.557   3.155   0.622  0.1603  0.1802 -0.0835
  162TMC2    C5 2520   3.609   3.281   0.641 -0.1191 -0.4277  0.7975
  162TMC2    C6 2521   3.535   3.391   0.600 -0.6369 -0.1927 -0.0552
  162TMC2     C 2522   3.371   3.008   0.595 -0.3356 -0.1940 -0.2608
  162TMC2     O 2523   3.450   2.915   0.605 -0.1803 -0.4604  0.4644
  162TMC2     H 2524   3.252   3.238   0.516  0.0266  0.7843  1.4163
  162TMC2    H1 2525   3.615   3.064   0.632 -1.1131 -0.5614  0.4664
  162TMC2    H2 2526   3.571   3.493   0.605 -0.4611 -0.3005  0.8192
  162TMC2    C7 2527   3.727   3.301   0.715 -0.2374 -0.0218 -0.4566
  162TMC2    C8 2528   3.335   3.495   0.519  0.4555 -0.0345 -0.1510
  162TMC2    O1 2529   3.785   3.408   0.696  0.1618 -0.2489 -0.2775
  162TMC2    O2 2530   3.325   3.592   0.599 -0.6710 -0.3060  0.1027
  162TMC2    O5 2531   3.232   3.459   0.442 -0.0980 -0.6621  0.2441
  162TMC2    H5 2532   3.262   3.388   0.381  1.0465 -0.0148  0.0600
  163MPD2     C 2533   3.003   2.695   0.700 -0.5136  0.5082 -0.7032
  163MPD2    C1 2534   3.122   2.670   0.634 -0.0734  0.0644 -0.8464
  163MPD2    C2 2535   3.207   2.776   0.625 -0.0608 -0.6946  0.2409
  163MPD2    C3 2536   3.167   2.899   0.668 -0.2377  0.1177 -0.5110
  163MPD2    C4 2537   3.048   2.916   0.737  0.1998 -0.2494 -0.4201
  163MPD2    C5 2538   2.956   2.814   0.742  0.4115 -0.4236 -0.3004
  163MPD2     H 2539   3.295   2.750   0.567 -0.3090 -0.2380 -0.3382
  163MPD2    H1 2540   3.020   3.015   0.770  0.6413 -0.0345 -0.7025
  163MPD2    H2 2541   2.930   2.616   0.716 -1.2347  1.4354  0.5838
  163MPD2    H3 2542   2.858   2.826   0.787  0.6185  0.4891 -0.0916
  163MPD2     N 2543   3.240   3.013   0.645 -0.8171 -0.3678  0.0635
  163MPD2    H5 2544   3.209   3.106   0.672 -1.6647 -0.0711 -1.9694
  163MPD2    N1 2545   3.159   2.547   0.571 -0.1039  0.2827  0.4526
  163MPD2    H7 2546   3.244   2.544   0.515 -0.7829 -0.5509 -0.5456
  164TMC2    C1 2547   4.057   2.829  11.315  0.4448  0.5570 -0.4650
  164TMC2    C2 2548   4.067   2.743  11.422  0.1541 -1.2621  0.2281
  164TMC2    C3 2549   3.964   2.772  11.513  0.2413  0.5035  0.0246
  164TMC2    C4 2550   3.964   2.921  11.295  0.4770 -0.5686  0.2917
  164TMC2    C5 2551   3.876   2.950  11.393  0.7415  0.3566 -0.4463
  164TMC2    C6 2552   3.877   2.878  11.507 -0.1061  0.3785  0.0922
  164TMC2     C 2553   4.138   2.785  11.193 -0.4231  0.0135  0.7557
  164TMC2     O 2554   4.216   2.694  11.217 -0.0913  0.1792  0.3478
  164TMC2     H 2555   4.132   2.658  11.435  1.1876 -0.6528 -0.8908
  164TMC2    H1 2556   3.946   2.965  11.197  0.0158 -1.5567 -0.0725
  164TMC2    H2 2557   3.810   2.888  11.592  1.4455  0.0180  1.3475
  164TMC2    C7 2558   3.754   3.032  11.370 -0.1166 -0.2056  0.1041
  164TMC2    C8 2559   3.985   2.704  11.637  0.1906  0.2396 -0.0892
  164TMC2    O1 2560   3.752   3.105  11.270 -0.2271 -0.2174 -0.3431
  164TMC2    O2 2561   3.932   2.601  11.678 -0.4288  1.3734 -0.3384
  164TMC2    O5 2562   4.113   2.742  11.677 -0.0172 -0.0580  0.4907
  164TMC2    H5 2563   4.152   2.824  11.639 -2.7860  0.8689 -0.3784
  165TMC2    C1 2564   0.772   1.041   1.620 -0.5651  0.0983 -0.3338
  165TMC2    C2 2565   0.719   1.166   1.640 -0.2047 -1.0160 -0.7767
  165TMC2    C3 2566   0.805   1.261   1.681  0.1873 -0.1011 -0.1127
  165TMC2    C4 2567   0.907   1.015   1.638 -0.2267  0.4638  0.4399
  165TMC2    C5 2568   0.989   1.122   1.666  0.1394 -0.1358  0.7080
  165TMC2    C6 2569   0.940   1.246   1.681 -0.5149  1.0102  0.5417
  165TMC2     C 2570   0.682   0.937   1.594  0.9459 -0.9308  0.0329
  165TMC2     O 2571   0.565   0.973   1.584 -0.4051  0.2322 -0.4644
  165TMC2     H 2572   0.619   1.199   1.615 -0.4334 -1.1345 -0.0083
  165TMC2    H1 2573   0.948   0.918   1.613  0.7070  1.3319 -1.3291
  165TMC2    H2 2574   1.008   1.331   1.684 -0.7165  1.1330  1.5545
  165TMC2    C7 2575   1.127   1.102   1.695  0.0253 -0.5071  0.4992
  165TMC2    C8 2576   0.748   1.387   1.692 -0.1872  0.1972  0.3680
  165TMC2    O1 2577   1.202   1.041   1.617 -0.5635  0.7605 -0.5184
  165TMC2    O2 2578   0.680   1.429   1.603 -0.2435 -0.2005  0.1209
  165TMC2    O5 2579   0.835   1.465   1.763  0.2607  0.3196  0.0655
  165TMC2    H5 2580   0.873   1.407   1.831  0.7131  1.9360  1.1866
  166MPD2     C 2581   0.554   0.438   1.549  0.8028 -0.4590 -0.0353
  166MPD2    C1 2582   0.488   0.552   1.509 -0.7825  0.6484  0.0037
  166MPD2    C2 2583   0.539   0.680   1.537  0.1577  0.1501 -0.1665
  166MPD2    C3 2584   0.657   0.693   1.601  0.3284 -0.2137 -0.5595
  166MPD2    C4 2585   0.718   0.574   1.645 -0.1036 -0.6115 -0.7728
  166MPD2    C5 2586   0.665   0.454   1.625  0.7061  0.4433 -0.3183
  166MPD2     H 2587   0.494   0.774   1.506  0.3282  0.7621  1.4223
  166MPD2    H1 2588   0.804   0.569   1.710 -0.6971  1.3948  0.1725
  166MPD2    H2 2589   0.526   0.336   1.529  2.2555 -1.0568  1.0051
  166MPD2    H3 2590   0.716   0.373   1.675  1.4168  0.5472 -0.8720
  166MPD2     N 2591   0.724   0.811   1.623  0.0525 -0.4340  0.3408
  166MPD2    H5 2592   0.817   0.808   1.665  0.3959 -0.2934 -0.4038
  166MPD2    N1 2593   0.375   0.537   1.426 -0.9151 -0.1970 -0.2214
  166MPD2    H7 2594   0.342   0.443   1.406  1.1963 -1.0927  0.4734
  167TMC2    C1 2595   2.560   2.552  12.937  0.0682 -0.2298 -0.6387
  167TMC2    C2 2596   2.446   2.531  13.015 -0.6071 -0.1464  0.6510
  167TMC2    C3 2597   2.448   2.425  13.106 -0.7546 -0.3703 -1.1008
  167TMC2    C4 2598   2.676   2.484  12.956  0.7346 -0.8702 -0.4053
  167TMC2    C5 2599   2.676   2.381  13.049  0.5101  0.0026 -0.6654
  167TMC2    C6 2600   2.557   2.344  13.116  0.4250  0.0555  0.2500
  167TMC2     C 2601   2.558   2.668  12.847 -0.4584  0.2331 -0.0797
  167TMC2     O 2602   2.460   2.740  12.862  0.0211 -0.2923 -0.0582
  167TMC2     H 2603   2.360   2.597  13.012  0.2237  0.9845  2.0405
  167TMC2    H1 2604   2.769   2.504  12.905  1.1600  0.2208  0.7887
  167TMC2    H2 2605   2.555   2.247  13.164  1.7205 -0.5698 -0.9720
  167TMC2    C7 2606   2.782   2.280  13.058 -0.2920 -0.1921 -0.0531
  167TMC2    C8 2607   2.330   2.400  13.197  0.4005  0.3690  0.0499
  167TMC2    O1 2608   2.768   2.202  13.148  0.2034  0.0428 -0.2045
  167TMC2    O2 2609   2.213   2.432  13.168 -0.1342  0.0044  0.5287
  167TMC2    O5 2610   2.373   2.389  13.319 -0.2893 -0.2791 -0.7991
  167TMC2    H5 2611   2.469   2.410  13.328 -0.6175  0.5342  0.6596
  168MPD2     C 2612   2.605   2.889  12.645 -0.0193 -0.3890  0.4839
  168MPD2    C1 2613   2.695   2.789  12.677  0.3788 -0.0364 -0.6541
  168MPD2    C2 2614   2.817   2.790  12.604 -0.8189 -0.2229  0.3213
  168MPD2    C3 2615   2.846   2.881  12.512  0.3094  0.0211 -0.1469
  168MPD2    C4 2616   2.749   2.966  12.472 -0.2940 -0.4136 -0.2091
  168MPD2    C5 2617   2.632   2.973  12.546  0.3671  0.6304 -0.1850
  168MPD2     H 2618   2.890   2.711  12.614  1.2286  1.6331  0.1173
  168MPD2    H1 2619   2.745   3.016  12.376  1.1683 -0.1633 -0.1518
  168MPD2    H2 2620   2.510   2.894  12.697 -0.1910  2.0214 -0.0647
  168MPD2    H3 2621   2.555   3.042  12.515  0.2652  0.7718  0.3747
  168MPD2     N 2622   2.959   2.868  12.429 -0.6247 -0.3025  0.4357
  168MPD2    H5 2623   2.956   2.919  12.341  2.2250  1.6326  1.4540
  168MPD2    N1 2624   2.665   2.673  12.761 -0.4450  0.2687 -0.4287
  168MPD2    H7 2625   2.740   2.605  12.776 -1.7739 -1.4256 -1.4438
  169MPD1     C 2626   0.867   1.583   9.547  0.0577  0.4141  0.8509
  169MPD1    C1 2627   0.790   1.657   9.630 -0.1265  0.6290 -0.6276
  169MPD1    C2 2628   0.839   1.784   9.659  0.6044  0.0214  0.1855
  169MPD1    C3 2629   0.945   1.838   9.582  0.1453  0.1639  0.5920
  169MPD1    C4 2630   1.026   1.751   9.506  0.1631  0.0766 -0.1785
  169MPD1    C5 2631   0.989   1.618   9.501  0.4313  0.3478 -0.2704
  169MPD1     H 2632   0.792   1.851   9.730  0.1762 -2.9584  2.7365
  169MPD1    H1 2633   1.119   1.781   9.459  0.5163  0.0585  0.5063
  169MPD1    H2 2634   0.834   1.480   9.534 -1.2150  1.0964 -1.3339
  169MPD1    H3 2635   1.040   1.546   9.438 -0.6373 -0.7643  0.1476
  169MPD1     N 2636   0.982   1.971   9.602  0.3189 -0.0070  0.0354
  169MPD1    H5 2637   0.924   2.031   9.660 -0.2729 -1.8643  1.4069
  169MPD1    N1 2638   0.680   1.607   9.700  0.4051  0.6399  0.1511
  169MPD1    H6 2639   0.626   1.532   9.655  0.0507  1.3132 -0.5570
  169MPD1    H7 2640   0.610   1.679   9.717 -1.1123  0.0700 -3.6562
  170MPD1     C 2641   3.503   4.449  13.034 -0.0435  0.1022 -0.1819
  170MPD1    C1 2642   3.543   4.579  13.056 -0.7657 -0.2062  0.0406
  170MPD1    C2 2643   3.606   4.611  13.174  0.7489 -0.0605  0.5367
  170MPD1    C3 2644   3.620   4.515  13.275  0.0436 -0.5420 -0.4979
  170MPD1    C4 2645   3.567   4.386  13.257  0.1137 -0.3529  0.0653
  170MPD1    C5 2646   3.506   4.363  13.131  0.4549 -0.1267  0.3425
  170MPD1     H 2647   3.629   4.715  13.193 -2.5185  0.7229  0.2561
  170MPD1    H1 2648   3.567   4.312  13.335 -1.4974 -0.5690 -0.1274
  170MPD1    H2 2649   3.449   4.417  12.946  0.2638 -0.1057 -0.2945
  170MPD1    H3 2650   3.456   4.267  13.119  0.6184 -0.0172 -1.2140
  170MPD1     N 2651   3.685   4.554  13.397 -0.0491  0.5790  0.5590
  170MPD1    H5 2652   3.728   4.646  13.399  1.9945 -0.2657 -3.4611
  170MPD1    N1 2653   3.525   4.677  12.953 -0.4989 -0.5206 -0.4891
  170MPD1    H6 2654   3.436   4.653  12.909  0.6590 -2.1133 -1.9464
  170MPD1    H7 2655   3.517   0.039  12.990  1.1827 -1.6049  2.5866
  171MPD1     C 2656   3.125   1.406  15.619 -0.4045 -0.1317 -0.4175
  171MPD1    C1 2657   3.035   1.355  15.529  0.2968 -0.2644 -0.2100
  171MPD1    C2 2658   2.990   1.222  15.552 -0.3151 -0.2788 -0.3616
  171MPD1    C3 2659   3.038   1.141  15.655 -0.1697 -0.2324 -0.5508
  171MPD1    C4 2660   3.131   1.195  15.731  0.0477 -0.2068  0.1020
  171MPD1    C5 2661   3.178   1.322  15.712 -0.1187  0.3162 -0.9263
  171MPD1     H 2662   2.913   1.184  15.486 -0.8828  2.0343 -1.0190
  171MPD1    H1 2663   3.176   1.146  15.817  2.8701  1.8897 -0.2015
  171MPD1    H2 2664   3.166   1.507  15.613 -0.4652 -0.1849 -1.6848
  171MPD1    H3 2665   3.251   1.357  15.784 -0.9241  2.4559 -1.1412
  171MPD1     N 2666   3.005   1.008  15.683  0.2532  0.4558  0.1457
  171MPD1    H5 2667   3.042   0.968  15.769 -0.2377 -2.0612 -0.8285
  171MPD1    N1 2668   2.974   1.438  15.426  0.2553  0.2266  0.4916
  171MPD1    H6 2669   3.039   1.512  15.401  1.4572 -0.9582  0.1545
  171MPD1    H7 2670   2.938   1.387  15.346 -1.7746  1.4807  0.5962
  172MPD1     C 2671   2.326   4.260  17.460  0.0989 -0.5827  0.8106
  172MPD1    C1 2672   2.208   4.330  17.442 -0.0333 -0.2199 -0.1897
  172MPD1    C2 2673   2.186   4.455  17.496 -0.3910  0.5888  0.6320
  172MPD1    C3 2674   2.291   4.512  17.564 -0.4467 -0.4949 -0.1799
  172MPD1    C4 2675   2.416   4.452  17.572  0.1801 -0.5131  0.4530
  172MPD1    C5 2676   2.432   4.332  17.508  0.2997  0.2717 -0.4225
  172MPD1     H 2677   2.083   4.489  17.504 -1.2535 -2.1183  1.1334
  172MPD1    H1 2678   2.504   4.505  17.607  0.9654 -1.4629 -0.0742
  172MPD1    H2 2679   2.338   4.157  17.429  0.5059 -1.7056  4.6871
  172MPD1    H3 2680   2.534   4.294  17.507  0.6737  1.2510  0.1201
  172MPD1     N 2681   2.278   4.633  17.633 -0.0385 -0.1605  0.3299
  172MPD1    H5 2682   2.351   4.665  17.697 -0.7658 -0.2471  1.2047
  172MPD1    N1 2683   2.096   4.255  17.406 -0.3343  0.6953  0.1011
  172MPD1    H6 2684   2.117   4.190  17.331  0.0692 -2.3247  2.8032
  172MPD1    H7 2685   2.022   4.313  17.367 -1.8811 -2.7808 -2.1531
  173MPD1     C 2686   3.972   4.718  14.665  0.0654  1.2931 -0.0523
  173MPD1    C1 2687   3.902   4.624  14.733  0.5023 -0.2058  0.5597
  173MPD1    C2 2688   3.781   4.579  14.683  0.0667 -0.8070 -0.1212
  173MPD1    C3 2689   3.726   4.642  14.571 -0.4498 -0.6423  0.4173
  173MPD1    C4 2690   3.787   0.024  14.530 -0.3040 -0.5468  0.6862
  173MPD1    C5 2691   3.911   0.063  14.572 -0.2789 -0.0741 -0.1595
  173MPD1     H 2692   3.748   4.483  14.720 -0.4813 -1.1137 -1.4249
  173MPD1    H1 2693   3.735   0.093  14.465 -0.2243 -0.4693  0.7037
  173MPD1    H2 2694   4.072   0.012  14.698 -0.4523  1.4718  1.4000
  173MPD1    H3 2695   3.949   0.152  14.525 -1.1831  1.2742  1.6744
  173MPD1     N 2696   3.594   4.599  14.525 -0.5030  0.3333  0.8251
  173MPD1    H5 2697   3.550   4.532  14.587 -1.5194 -1.1524 -1.4841
  173MPD1    N1 2698   3.956   4.547  14.842  0.2584  0.1514 -0.3623
  173MPD1    H6 2699   4.031   4.598  14.888 -1.3526  1.4778  0.7835
  173MPD1    H7 2700   3.878   4.519  14.901  2.1057 -1.4925  1.3185
  174MPD1     C 2701   3.187   3.901  14.824 -0.2953 -0.3944  0.1868
  174MPD1    C1 2702   3.178   3.908  14.691 -0.2229 -0.0242  0.0938
  174MPD1    C2 2703   3.209   4.024  14.620  0.0260  0.4966 -0.2821
  174MPD1    C3 2704   3.274   4.127  14.685 -0.1842 -0.0459  0.4202
  174MPD1    C4 2705   3.295   4.119  14.822 -0.7521  1.0228 -0.6544
  174MPD1    C5 2706   3.244   4.008  14.888  0.0597 -0.2934 -0.3924
  174MPD1     H 2707   3.176   4.035  14.518 -2.4436  1.5030  0.6430
  174MPD1    H1 2708   3.345   4.193  14.884  0.1804 -2.5335  2.8721
  174MPD1    H2 2709   3.159   3.817  14.886 -0.0680 -0.9516 -0.4630
  174MPD1    H3 2710   3.245   4.010  14.996  1.4449  0.1346 -0.4002
  174MPD1     N 2711   3.294   4.260  14.631  0.3749 -0.7910 -0.4414
  174MPD1    H5 2712   3.357   4.323  14.679 -2.1962  1.2464  0.2637
  174MPD1    N1 2713   3.110   3.802  14.633  0.7842 -0.1535  0.4145
  174MPD1    H6 2714   3.106   3.810  14.532 -2.9167  2.5090  0.7342
  174MPD1    H7 2715   3.122   3.709  14.671  0.2378 -0.5214 -0.3146
  175MPD1     C 2716   1.206   1.149  15.555 -0.5373 -0.6045  0.8583
  175MPD1    C1 2717   1.337   1.105  15.598 -0.6066 -0.5602 -0.2609
  175MPD1    C2 2718   1.380   1.128  15.726  0.1810  0.0779  0.7173
  175MPD1    C3 2719   1.295   1.170  15.822  0.2201 -0.2308 -0.5537
  175MPD1    C4 2720   1.171   1.213  15.783  0.2810 -0.2850  0.2790
  175MPD1    C5 2721   1.127   1.196  15.653 -0.2547  0.3072 -0.9536
  175MPD1     H 2722   1.480   1.100  15.757 -0.3734 -0.7850  1.7648
  175MPD1    H1 2723   1.101   1.257  15.853 -1.4360  0.4870 -1.9224
  175MPD1    H2 2724   1.162   1.120  15.460  0.9989  0.0771 -0.0678
  175MPD1    H3 2725   1.024   1.225  15.638 -0.8033 -0.5870  1.0128
  175MPD1     N 2726   1.323   1.181  15.961 -0.1935  0.4855  0.2691
  175MPD1    H5 2727   1.256   1.218  16.027  0.2690  2.9304 -0.6245
  175MPD1    N1 2728   1.420   1.064  15.501 -0.5832  0.9073 -0.3097
  175MPD1    H6 2729   1.367   1.009  15.434  0.9610 -0.0448 -0.7527
  175MPD1    H7 2730   1.489   1.005  15.549 -1.6222  1.2906  1.6436
  176MPD1     C 2731   2.726   3.070  17.419  0.7030 -0.2823 -0.1115
  176MPD1    C1 2732   2.754   3.206  17.422 -0.3082 -0.9552 -0.1641
  176MPD1    C2 2733   2.884   3.239  17.429  0.5099 -0.2007  0.4565
  176MPD1    C3 2734   2.987   3.151  17.419 -0.1513 -0.1556 -0.2418
  176MPD1    C4 2735   2.962   3.014  17.412 -0.3535 -0.0010  0.6817
  176MPD1    C5 2736   2.828   2.979  17.408  1.0627  1.0801  0.2635
  176MPD1     H 2737   2.918   3.342  17.437 -0.1560  0.1523 -1.2545
  176MPD1    H1 2738   3.040   2.939  17.419 -1.6806 -1.3740  0.7744
  176MPD1    H2 2739   2.627   3.026  17.416  0.6670 -0.2394  0.3766
  176MPD1    H3 2740   2.793   2.877  17.414  0.2212  1.2322 -1.9252
  176MPD1     N 2741   3.113   3.206  17.432 -0.8210  0.1526 -0.0066
  176MPD1    H5 2742   3.122   3.307  17.437  0.5722 -0.0779  2.2441
  176MPD1    N1 2743   2.645   3.293  17.454 -0.0637  0.2105 -0.1516
  176MPD1    H6 2744   2.668   3.390  17.432 -1.2523  0.1939 -1.4495
  176MPD1    H7 2745   2.561   3.267  17.402  1.0639 -3.5795 -0.0385
  177MPD1     C 2746   2.205   3.094   9.879 -0.4611 -0.1765 -0.0346
  177MPD1    C1 2747   2.082   3.034   9.910  0.2702 -0.5797 -0.2194
  177MPD1    C2 2748   1.961   3.093   9.876  0.1290  0.4989 -0.2433
  177MPD1    C3 2749   1.963   3.211   9.804  0.4016 -0.4696 -0.9646
  177MPD1    C4 2750   2.081   3.272   9.774 -0.2326 -0.1890 -0.3827
  177MPD1    C5 2751   2.203   3.210   9.805  0.1781  0.1262 -0.5971
  177MPD1     H 2752   1.866   3.041   9.875  0.6318 -0.4140 -0.2765
  177MPD1    H1 2753   2.081   3.368   9.723 -0.2319  0.6428  1.1775
  177MPD1    H2 2754   2.303   3.057   9.908 -1.3430 -3.8574 -1.7529
  177MPD1    H3 2755   2.296   3.257   9.778 -1.1774  3.3240  0.3414
  177MPD1     N 2756   1.840   3.257   9.757  0.2457 -0.3406 -0.1064
  177MPD1    H5 2757   1.762   3.192   9.749  1.8561 -2.3454  0.4722
  177MPD1    N1 2758   2.075   2.919   9.995  0.5551 -0.1174 -0.4304
  177MPD1    H6 2759   2.154   2.857   9.975  2.3041  1.9644  0.1107
  177MPD1    H7 2760   1.990   2.866   9.978  0.1193 -0.5756  3.0940
  178MPD1     C 2761   4.478   2.929   0.142 -0.1783 -0.3514 -1.2293
  178MPD1    C1 2762   4.387   3.024   0.177 -0.6922  0.3364  0.5490
  178MPD1    C2 2763   4.379   3.139   0.110  0.2750 -0.1165  0.5740
  178MPD1    C3 2764   4.463   3.166   0.007 -0.5498  0.2406  0.1048
  178MPD1    C4 2765   4.561   3.074  17.696  0.6460 -0.2030 -0.2524
  178MPD1    C5 2766   4.566   2.949   0.036 -0.7744 -0.0009  0.0843
  178MPD1     H 2767   4.312   3.215   0.148  1.1488  1.5423 -1.1900
  178MPD1    H1 2768   4.634   3.095  17.619  0.5190 -1.2152 -0.6489
  178MPD1    H2 2769   4.481   2.832   0.191 -2.1969  0.4850  0.5290
  178MPD1    H3 2770   4.616   2.858   0.007  0.2562  1.0842 -1.5720
  178MPD1     N 2771   4.453   3.290  17.660 -0.0224  0.9396 -0.0697
  178MPD1    H5 2772   4.525   3.306  17.590  0.4536  0.7845  0.3855
  178MPD1    N1 2773   4.316   3.020   0.298  0.3656  0.7286  0.6352
  178MPD1    H6 2774   4.222   3.059   0.294 -0.2704 -0.8825  0.1814
  178MPD1    H7 2775   4.306   2.926   0.335 -0.7020  0.7578  0.4157
  179MPD1     C 2776   3.813   2.372  16.193  0.1841  0.4048  0.2034
  179MPD1    C1 2777   3.842   2.331  16.069 -0.2064  0.1647 -0.1192
  179MPD1    C2 2778   3.800   2.197  16.042 -0.3474  0.3042  0.1979
  179MPD1    C3 2779   3.750   2.110  16.144 -0.3714  0.1401  0.3827
  179MPD1    C4 2780   3.755   2.146  16.279  1.1588 -1.1723 -0.1798
  179MPD1    C5 2781   3.781   2.283  16.297  0.9918  0.0692 -0.5809
  179MPD1     H 2782   3.816   2.166  15.940 -0.1379  0.6761  0.1205
  179MPD1    H1 2783   3.732   2.077  16.360  0.7798  1.3629  1.8823
  179MPD1    H2 2784   3.838   2.473  16.222 -0.7592  0.9305 -0.8245
  179MPD1    H3 2785   3.756   2.327  16.393  1.0940 -2.1397  0.4584
  179MPD1     N 2786   3.701   1.981  16.117 -0.0597  0.4598 -0.3530
  179MPD1    H5 2787   3.670   1.923  16.195 -2.2671 -0.5212 -1.9430
  179MPD1    N1 2788   3.894   2.409  15.969 -0.3509 -0.3701  0.7958
  179MPD1    H6 2789   3.971   2.359  15.925  1.4420  1.6780  1.6154
  179MPD1    H7 2790   3.919   2.504  15.995 -0.1059  0.0582 -1.0112
  180MPD1     C 2791   4.088   3.396  14.633 -0.0719 -0.1208  0.3590
  180MPD1    C1 2792   4.078   3.460  14.512  0.4624 -0.2969 -0.2722
  180MPD1    C2 2793   3.958   3.455  14.448 -0.0302  0.0380  0.1806
  180MPD1    C3 2794   3.857   3.383  14.501 -0.1066 -1.5465  0.4637
  180MPD1    C4 2795   3.873   3.313  14.619 -0.5707 -0.2595 -0.7458
  180MPD1    C5 2796   3.990   3.317  14.682 -0.8351  0.2484  0.1114
  180MPD1     H 2797   3.945   3.520  14.362 -0.3126 -2.5497 -1.7533
  180MPD1    H1 2798   3.790   3.262  14.667  0.4485 -0.1614  1.1248
  180MPD1    H2 2799   4.182   3.400  14.687  0.1451  0.5072 -0.0600
  180MPD1    H3 2800   4.004   3.268  14.777 -0.4030 -0.1650 -0.1660
  180MPD1     N 2801   3.733   3.381  14.435 -0.5272  0.2460  0.0432
  180MPD1    H5 2802   3.720   3.437  14.352  0.3255  0.1687 -0.1417
  180MPD1    N1 2803   4.170   3.564  14.477 -0.7118 -0.3477  0.3207
  180MPD1    H6 2804   4.264   3.567  14.515 -0.8822 -1.0585  0.8030
  180MPD1    H7 2805   4.175   3.576  14.377  0.2657  0.8900  0.5218
  181MPD1     C 2806   0.547   0.508  10.602  0.0062 -0.0102  0.1972
  181MPD1    C1 2807   0.584   0.604  10.695 -0.4109  0.2482  0.5865
  181MPD1    C2 2808   0.670   0.697  10.647 -0.5874  0.1676  0.1147
  181MPD1    C3 2809   0.702   0.702  10.515  1.0276  0.7429 -0.1144
  181MPD1    C4 2810   0.660   0.610  10.425 -0.0432 -0.8458  0.0619
  181MPD1    C5 2811   0.587   0.500  10.472 -0.0182 -0.3586 -0.0982
  181MPD1     H 2812   0.715   0.765  10.719 -0.7677 -1.7477  2.0328
  181MPD1    H1 2813   0.692   0.619  10.322  2.2562 -1.2130  0.7453
  181MPD1    H2 2814   0.487   0.423  10.632  0.1714 -1.1172 -2.6804
  181MPD1    H3 2815   0.558   0.416  10.410 -0.6743 -0.1660 -0.0510
  181MPD1     N 2816   0.795   0.796  10.467 -0.4860  0.2383  0.7291
  181MPD1    H5 2817   0.825   0.784  10.371  2.4038  2.8080  1.3129
  181MPD1    N1 2818   0.565   0.594  10.834 -0.3214  0.9066 -0.0493
  181MPD1    H6 2819   0.483   0.547  10.871  0.8874  0.2678  1.7984
  181MPD1    H7 2820   0.578   0.682  10.883  2.6207 -0.2577  1.2462
  182MPD1     C 2821   2.782   0.831   2.184  0.5801 -0.4465 -0.3513
  182MPD1    C1 2822   2.814   0.705   2.137  0.1637  0.1206  0.3701
  182MPD1    C2 2823   2.732   0.651   2.040  0.7622  0.5768  0.1295
  182MPD1    C3 2824   2.614   0.711   2.006 -0.1242  0.6916 -0.4440
  182MPD1    C4 2825   2.574   0.830   2.061  0.3598  0.5243  0.0826
  182MPD1    C5 2826   2.666   0.892   2.144  0.7565  0.4223 -0.3116
  182MPD1     H 2827   2.758   0.569   1.973 -0.3716  1.2764 -1.1805
  182MPD1    H1 2828   2.485   0.886   2.034 -0.8578 -0.9694  1.0012
  182MPD1    H2 2829   2.843   0.893   2.249 -1.5010  0.2674  0.9233
  182MPD1    H3 2830   2.645   0.995   2.174 -3.2713 -0.6468  0.5874
  182MPD1     N 2831   2.523   0.656   1.914  0.1546 -0.1607 -0.2049
  182MPD1    H5 2832   2.433   0.695   1.937 -0.5086 -0.9467 -1.4491
  182MPD1    N1 2833   2.932   0.646   2.174  0.4170 -0.0535  0.1320
  182MPD1    H6 2834   2.923   0.545   2.165 -0.3265  0.2318 -2.2238
  182MPD1    H7 2835   2.962   0.663   2.270  1.5612  0.5391 -0.3247
  183MPD1     C 2836   2.560   1.761   9.371 -0.1219 -0.6279  0.0441
  183MPD1    C1 2837   2.425   1.776   9.343  0.5405  0.0154  0.3275
  183MPD1    C2 2838   2.348   1.677   9.393 -0.0735  0.1120 -0.3844
  183MPD1    C3 2839   2.388   1.555   9.448 -0.3660  0.2957 -0.2465
  183MPD1    C4 2840   2.524   1.535   9.455 -0.5112  0.3194  0.0802
  183MPD1    C5 2841   2.612   1.633   9.410 -0.3203  0.0883 -0.3266
  183MPD1     H 2842   2.241   1.688   9.398 -0.1450 -0.5431 -0.4635
  183MPD1    H1 2843   2.565   1.440   9.489 -0.7954 -0.4878 -1.8814
  183MPD1    H2 2844   2.635   1.832   9.338 -0.8979  0.8505  1.4663
  183MPD1    H3 2845   2.719   1.615   9.415 -0.0633  1.7921  0.3903
  183MPD1     N 2846   2.291   1.466   9.498 -0.7885 -0.3964 -0.3604
  183MPD1    H5 2847   2.198   1.505   9.510  0.2597  2.9369 -2.8032
  183MPD1    N1 2848   2.385   1.905   9.314  0.4091  0.3895 -0.2874
  183MPD1    H6 2849   2.295   1.909   9.268 -0.6869 -0.1356  1.8116
  183MPD1    H7 2850   2.454   1.950   9.254  0.2136 -2.3589 -2.5499
  184MPD1     C 2851   0.476   3.143  10.413  0.3500  0.1846 -0.0542
  184MPD1    C1 2852   0.591   3.064  10.429  0.4092 -0.4708  0.4932
  184MPD1    C2 2853   0.677   3.049  10.324  0.5346 -0.6249  0.0587
  184MPD1    C3 2854   0.644   3.094  10.198  0.3372  0.0927  0.0110
  184MPD1    C4 2855   0.518   3.151  10.185  0.2554  0.0329 -0.2622
  184MPD1    C5 2856   0.433   3.172  10.289  0.2396  0.0036 -0.5283
  184MPD1     H 2857   0.772   3.003  10.347 -0.2992 -1.5317  1.7053
  184MPD1    H1 2858   0.488   3.178  10.085 -1.4072  0.5824  0.3775
  184MPD1    H2 2859   0.421   3.183  10.497  1.0434  0.9088  0.0516
  184MPD1    H3 2860   0.337   3.217  10.264 -0.4104 -0.4724  1.1635
  184MPD1     N 2861   0.734   3.097  10.090  0.0449  0.0413  0.0045
  184MPD1    H5 2862   0.688   3.134  10.007 -1.0060 -0.7717  0.2293
  184MPD1    N1 2863   0.633   3.033  10.556 -0.3260 -0.4705  0.2391
  184MPD1    H6 2864   0.677   2.941  10.551  0.5798 -0.0266  0.1218
  184MPD1    H7 2865   0.543   3.034  10.603 -1.2400 -0.4666 -1.5116
  185MPD1     C 2866   0.865   2.985   9.107 -0.9294 -0.1654  0.0855
  185MPD1    C1 2867   0.819   2.913   9.211 -0.0765 -0.4182  0.4233
  185MPD1    C2 2868   0.852   2.951   9.337 -1.0684  0.1312 -0.3796
  185MPD1    C3 2869   0.919   3.065   9.371 -0.2782 -0.9556  0.3934
  185MPD1    C4 2870   0.951   3.147   9.259 -0.5726 -0.0866  0.3678
  185MPD1    C5 2871   0.929   3.103   9.130  0.2298 -0.5950  0.0554
  185MPD1     H 2872   0.795   2.891   9.408  0.9801 -0.6042  0.6329
  185MPD1    H1 2873   0.973   3.251   9.280 -1.4749  0.1308  0.2498
  185MPD1    H2 2874   0.855   2.951   9.004 -1.0820 -0.1300  0.0889
  185MPD1    H3 2875   0.957   3.167   9.048  1.8314  0.4150  1.3734
  185MPD1     N 2876   0.943   3.107   9.500  0.2734 -0.2981 -0.3564
  185MPD1    H5 2877   0.982   3.201   9.501 -0.1026 -0.1353 -0.7620
  185MPD1    N1 2878   0.768   2.783   9.183  0.4694 -1.1113 -0.0652
  185MPD1    H6 2879   0.718   2.782   9.094  1.5810  0.0663 -0.7115
  185MPD1    H7 2880   0.698   2.749   9.248  0.8949  0.0980  1.0395
  186MPD1     C 2881   4.271   1.650  16.004 -0.1167 -0.2630 -0.1692
  186MPD1    C1 2882   4.268   1.769  15.930  0.0435  0.2122 -0.2495
  186MPD1    C2 2883   4.241   1.886  16.001 -0.1839 -0.1235  0.3743
  186MPD1    C3 2884   4.222   1.883  16.138  0.0268  0.2380  0.8094
  186MPD1    C4 2885   4.242   1.765  16.211  0.7857 -0.2467  0.0620
  186MPD1    C5 2886   4.257   1.649  16.140  0.1574 -0.2125 -0.1715
  186MPD1     H 2887   4.233   1.987  15.961 -0.5436 -0.6562 -0.9088
  186MPD1    H1 2888   4.233   1.757  16.319  0.4200  3.8314  0.3364
  186MPD1    H2 2889   4.282   1.554  15.954 -2.4402 -0.1668 -0.8631
  186MPD1    H3 2890   4.262   1.557  16.198  0.2604  0.2249  0.5149
  186MPD1     N 2891   4.181   1.998  16.213  0.3459  0.0161  0.2979
  186MPD1    H5 2892   4.135   1.980  16.302 -2.1930 -1.7961 -1.3822
  186MPD1    N1 2893   4.257   1.764  15.791 -0.3302 -0.0162  0.1835
  186MPD1    H6 2894   4.278   1.858  15.757 -1.8618  0.4699  0.5732
  186MPD1    H7 2895   4.319   1.702  15.741  0.8683  0.7019  0.7687
  187MPD1     C 2896   3.888   3.972  17.684  0.0995  0.1652 -0.0897
  187MPD1    C1 2897   3.776   3.920  17.629 -0.1279 -0.1101  0.3201
  187MPD1    C2 2898   3.724   3.985  17.518 -0.2981 -1.0224  0.2567
  187MPD1    C3 2899   3.774   4.101  17.476  0.5546 -0.1596  0.3947
  187MPD1    C4 2900   3.893   4.145  17.527  0.4016 -0.3214 -0.4095
  187MPD1    C5 2901   3.950   4.078  17.633  1.0207  0.0899  0.2767
  187MPD1     H 2902   3.636   3.944  17.470  0.4542 -1.7456 -0.5043
  187MPD1    H1 2903   3.949   4.228  17.487 -1.4011  1.2908  0.3812
  187MPD1    H2 2904   3.927   3.917   0.038  1.9899  1.4185 -0.1273
  187MPD1    H3 2905   4.033   4.118  17.691  0.0748  0.7770  1.1547
  187MPD1     N 2906   3.710   4.178  17.375 -0.1758  0.0173  0.2661
  187MPD1    H5 2907   3.763   4.251  17.328 -1.4455  1.0569  0.4653
  187MPD1    N1 2908   3.728   3.794  17.676 -0.1868 -0.1052  0.2371
  187MPD1    H6 2909   3.629   3.796  17.699 -0.5054 -1.2320 -1.0472
  187MPD1    H7 2910   3.779   3.763   0.029 -2.2254  0.3373  1.6480
  188MPD1     C 2911   3.666   0.270  10.226 -0.0539 -0.1351 -0.0770
  188MPD1    C1 2912   3.746   0.166  10.275 -0.3431  0.0106  0.3994
  188MPD1    C2 2913   3.699   0.032  10.262 -0.5570  0.1119 -0.4951
  188MPD1    C3 2914   3.583   0.011  10.186 -0.0978  0.0949 -0.7873
  188MPD1    C4 2915   3.517   0.117  10.127  0.1251 -1.1767  0.7989
  188MPD1    C5 2916   3.551   0.246  10.159  0.3154 -0.1572  0.0583
  188MPD1     H 2917   3.761   4.685  10.302 -2.5847 -0.6627  1.1102
  188MPD1    H1 2918   3.427   0.098  10.070  0.3103  0.2629  0.0501
  188MPD1    H2 2919   3.685   0.366  10.272 -1.9826 -0.1359  0.7375
  188MPD1    H3 2920   3.490   0.328  10.122  1.0677 -0.2240 -1.3201
  188MPD1     N 2921   3.542   4.611  10.155  0.7731  0.5371 -0.4800
  188MPD1    H5 2922   3.469   4.605  10.085  0.0599  0.4924  0.2716
  188MPD1    N1 2923   3.866   0.194  10.341 -0.1616 -0.1411 -0.5564
  188MPD1    H6 2924   3.947   0.135  10.324 -0.8004 -1.2765  0.3542
  188MPD1    H7 2925   3.899   0.290  10.331  0.4938 -0.3696 -0.6016
  189MPD1     C 2926   1.064   0.177   0.950  0.2390 -0.5817 -0.1639
  189MPD1    C1 2927   0.957   0.095   0.936 -0.3000 -0.4149 -0.7050
  189MPD1    C2 2928   0.836   0.150   0.902  0.1527  0.1451 -0.2630
  189MPD1    C3 2929   0.829   0.278   0.847 -0.1731 -0.2317  1.0949
  189MPD1    C4 2930   0.944   0.355   0.846  0.2580  0.1910  0.3664
  189MPD1    C5 2931   1.066   0.304   0.903  0.2841 -0.0714 -0.4744
  189MPD1     H 2932   0.755   0.080   0.888 -0.2911  0.4559  0.7897
  189MPD1    H1 2933   0.936   0.461   0.825  2.3962  0.3521  0.3760
  189MPD1    H2 2934   1.162   0.138   0.976  0.2250 -0.5331 -0.0370
  189MPD1    H3 2935   1.157   0.362   0.913 -0.0385  0.5565 -1.1636
  189MPD1     N 2936   0.710   0.318   0.788  0.0698  0.5564 -0.5177
  189MPD1    H5 2937   0.632   0.255   0.798  1.8922 -1.6721 -0.3114
  189MPD1    N1 2938   0.960   4.697   0.982 -0.1588 -0.8348 -0.2867
  189MPD1    H6 2939   0.881   4.647   0.941 -0.6385 -0.0496 -0.3210
  189MPD1    H7 2940   1.048   4.650   0.961  0.7039 -0.3148  2.2193
  190MPD1     C 2941   4.012   4.218  15.173  0.3780 -0.3898 -0.0085
  190MPD1    C1 2942   4.118   4.147  15.121  0.7161  0.6598 -0.0309
  190MPD1    C2 2943   4.126   4.020  15.175  0.8744 -0.1807  0.0459
  190MPD1    C3 2944   4.024   3.965  15.251 -0.3412  0.3478 -0.8446
  190MPD1    C4 2945   3.916   4.037  15.287  0.0539 -0.7765 -0.3067
  190MPD1    C5 2946   3.918   4.164  15.255 -0.2829  0.7517 -0.1673
  190MPD1     H 2947   4.204   3.950  15.149  2.4293  1.5306  0.1540
  190MPD1    H1 2948   3.831   4.001  15.345 -0.2501  0.3886 -0.0388
  190MPD1    H2 2949   4.014   4.325  15.155  1.0520 -0.1288  1.5448
  190MPD1    H3 2950   3.823   4.216  15.267  0.0431  1.0528  1.0786
  190MPD1     N 2951   4.043   3.827  15.274  0.1325  0.1123 -0.1648
  190MPD1    H5 2952   4.121   3.780  15.228  0.2028 -0.8896  0.9946
  190MPD1    N1 2953   4.232   4.194  15.049 -0.1016  0.2798  0.3988
  190MPD1    H6 2954   4.209   4.274  14.992  0.6305 -1.3352 -2.1695
  190MPD1    H7 2955   4.273   4.122  14.989  0.0940  0.8897 -0.1955
  191MPD1     C 2956   2.665   4.627  13.348  0.3888  0.5219 -0.0882
  191MPD1    C1 2957   2.594   0.005  13.357 -0.4888 -0.8058 -0.5618
  191MPD1    C2 2958   2.648   0.124  13.321 -0.6678  0.5386 -0.7338
  191MPD1    C3 2959   2.770   0.126  13.250 -0.3133 -0.2110  0.0808
  191MPD1    C4 2960   2.844   0.012  13.232  0.2306  1.1763  0.4628
  191MPD1    C5 2961   2.787   4.632  13.287  0.5444  0.6451 -0.3253
  191MPD1     H 2962   2.586   0.213  13.328 -2.4113 -0.6993 -0.5449
  191MPD1    H1 2963   2.939   0.002  13.180 -0.4885  1.6014 -0.9132
  191MPD1    H2 2964   2.630   4.528  13.377  1.5653 -0.3951 -1.8394
  191MPD1    H3 2965   2.839   4.538  13.271 -0.1442  0.0036  1.2246
  191MPD1     N 2966   2.805   0.248  13.188  0.1018 -0.4710  0.1701
  191MPD1    H5 2967   2.740   0.319  13.222  1.9689  0.6897  1.3515
  191MPD1    N1 2968   2.470   0.002  13.422 -0.7295  0.5735  0.6782
  191MPD1    H6 2969   2.414   4.649  13.425 -1.6206  1.0758 -1.7940
  191MPD1    H7 2970   2.402   0.071  13.393  0.2148  0.9432 -0.6479
  192MPD1     C 2971   2.409   1.117  13.023  0.4359 -0.4062  0.0760
  192MPD1    C1 2972   2.422   1.027  13.126 -0.0267  0.1941 -0.6244
  192MPD1    C2 2973   2.520   0.927  13.109 -0.6274  0.1168 -0.0507
  192MPD1    C3 2974   2.577   0.906  12.986 -0.4560  0.7759 -0.1445
  192MPD1    C4 2975   2.565   1.005  12.886  0.0570 -0.2960  0.0741
  192MPD1    C5 2976   2.478   1.105  12.905  0.6622  0.3397 -0.1238
  192MPD1     H 2977   2.541   0.861  13.192  0.3145 -0.9961 -1.1718
  192MPD1    H1 2978   2.604   0.987  12.786  1.2550  0.5756  0.3808
  192MPD1    H2 2979   2.332   1.192  13.034 -2.2574 -3.1925 -0.0375
  192MPD1    H3 2980   2.444   1.167  12.823 -1.1497  0.1873  0.4890
  192MPD1     N 2981   2.654   0.791  12.953  0.2942  0.4593 -0.6318
  192MPD1    H5 2982   2.723   0.800  12.879  0.5358  1.1781 -0.3134
  192MPD1    N1 2983   2.364   1.046  13.252  0.4825 -0.1951  0.4889
  192MPD1    H6 2984   2.342   0.976  13.322 -1.0097 -0.5719 -0.3674
  192MPD1    H7 2985   2.281   1.105  13.244  1.6479  1.3012 -0.7087
  193MPD1     C 2986   2.947   0.103  16.898 -0.0343  0.2411  0.3809
  193MPD1    C1 2987   2.903   0.212  16.823  0.3012  0.2337  0.2948
  193MPD1    C2 2988   2.956   0.340  16.841  0.1439 -0.2898 -0.4324
  193MPD1    C3 2989   3.057   0.367  16.933  0.4722  0.2640  0.5570
  193MPD1    C4 2990   3.098   0.259  17.006 -0.8005  0.7079 -0.0265
  193MPD1    C5 2991   3.044   0.132  16.985  0.6044  0.1624  0.1983
  193MPD1     H 2992   2.916   0.421  16.780 -1.2948 -0.1499  0.7077
  193MPD1    H1 2993   3.158   0.271  17.096 -0.2474 -0.2929 -0.2675
  193MPD1    H2 2994   2.901   0.006  16.884  2.5705 -0.6134 -2.2670
  193MPD1    H3 2995   3.080   0.060  17.058 -1.3026 -2.7097 -1.6521
  193MPD1     N 2996   3.106   0.497  16.966 -0.4450  0.0295 -0.4873
  193MPD1    H5 2997   3.179   0.505  17.035 -1.1850  3.2644 -0.0960
  193MPD1    N1 2998   2.798   0.190  16.735 -0.1430 -0.6209 -0.2686
  193MPD1    H6 2999   2.741   0.271  16.708 -2.0686 -1.4324  1.3312
  193MPD1    H7 3000   2.735   0.125  16.781  0.0681 -0.6321  0.0061
  194MPD1     C 3001   4.617   2.506  17.331  0.0378 -0.3211 -0.2386
  194MPD1    C1 3002   4.655   2.492  17.465  0.3102  0.1061 -0.3343
  194MPD1    C2 3003   0.040   2.418  17.487  0.2018 -1.0255  0.3103
  194MPD1    C3 3004   0.103   2.348  17.379  0.2963 -0.8399 -0.1500
  194MPD1    C4 3005   0.045   2.352  17.255 -0.1422  0.3642  0.3037
  194MPD1    C5 3006   4.671   2.443  17.228 -0.3067 -0.3229  0.0934
  194MPD1     H 3007   0.074   2.401  17.588  1.4242 -1.1122 -0.1133
  194MPD1    H1 3008   0.078   2.279  17.182 -1.1504 -0.3178  0.5294
  194MPD1    H2 3009   4.523   2.554  17.307 -1.0313 -1.0562  2.3927
  194MPD1    H3 3010   4.636   2.445  17.126 -0.8409  1.2788  0.3136
  194MPD1     N 3011   0.215   2.262  17.390  0.1186  0.1693 -0.0177
  194MPD1    H5 3012   0.245   2.227  17.299  0.0730 -0.0995  0.0713
  194MPD1    N1 3013   4.584   2.560  17.565  0.2720  0.0201  0.1239
  194MPD1    H6 3014   4.484   2.544  17.551  0.0303  0.5936  1.1967
  194MPD1    H7 3015   4.604   2.525  17.658  0.5224  3.2073  1.2979
  195MPD1     C 3016   3.350   4.577   0.844 -0.4100  0.1792 -0.4130
  195MPD1    C1 3017   3.245   4.582   0.755 -0.4358  0.0621  0.2107
  195MPD1    C2 3018   3.219   4.469   0.681  0.0618  0.1391 -0.5813
  195MPD1    C3 3019   3.282   4.352   0.709  0.0059 -0.1761  1.2322
  195MPD1    C4 3020   3.374   4.344   0.806 -0.3420 -0.0345  0.0668
  195MPD1    C5 3021   3.411   4.458   0.873  0.3883 -0.5761 -0.0124
  195MPD1     H 3022   3.151   4.476   0.598  0.1281  0.6016 -0.5978
  195MPD1    H1 3023   3.420   4.249   0.832  1.2212  0.7711  0.2490
  195MPD1    H2 3024   3.391   4.667   0.887  0.3499 -1.4548  2.2257
  195MPD1    H3 3025   3.495   4.462   0.941  0.1040 -0.9190  0.3584
  195MPD1     N 3026   3.261   4.235   0.638 -0.4876 -0.3915  0.1789
  195MPD1    H5 3027   3.302   4.146   0.668 -0.9950 -0.4744  0.6341
  195MPD1    N1 3028   3.214   4.713   0.714 -0.0196 -0.5040  0.1811
  195MPD1    H6 3029   3.124   4.708   0.665 -0.9859 -0.0029  1.8864
  195MPD1    H7 3030   3.203   0.049   0.789 -0.7130 -0.7052  0.2666
  196MPD1     C 3031   2.093   4.022   0.390 -1.5652  0.3604 -0.5646
  196MPD1    C1 3032   2.107   4.156   0.355  0.0433 -0.4028  0.3721
  196MPD1    C2 3033   2.193   4.230   0.431  0.3284 -0.5349 -0.2219
  196MPD1    C3 3034   2.272   4.180   0.529 -0.0760 -0.2382  0.0461
  196MPD1    C4 3035   2.259   4.042   0.554  0.4152 -0.8874 -0.0021
  196MPD1    C5 3036   2.172   3.969   0.485  0.0603  0.4808 -0.0605
  196MPD1     H 3037   2.198   4.337   0.410 -1.3435 -0.4609 -0.2917
  196MPD1    H1 3038   2.314   3.994   0.634 -0.0579 -1.7191 -0.1837
  196MPD1    H2 3039   2.018   3.964   0.337 -0.3748  1.2202 -3.2306
  196MPD1    H3 3040   2.159   3.865   0.512 -0.1028  1.0887  2.2422
  196MPD1     N 3041   2.375   4.258   0.598 -0.0293  0.1473  0.1351
  196MPD1    H5 3042   2.435   4.219   0.670  1.3521  2.2017  0.0996
  196MPD1    N1 3043   2.026   4.211   0.256  0.2847  0.3028 -0.0913
  196MPD1    H6 3044   2.063   4.294   0.210 -0.4396 -0.3394 -1.8524
  196MPD1    H7 3045   1.982   4.152   0.186 -0.5446  0.8435 -0.0373
  197MPD1     C 3046   1.109   1.276  17.444  0.3707  0.6965 -0.8768
  197MPD1    C1 3047   1.164   1.403  17.446  0.5402 -0.1215 -0.4300
  197MPD1    C2 3048   1.244   1.436  17.344  0.4128 -0.3323  0.1222
  197MPD1    C3 3049   1.288   1.348  17.251  0.3569  0.2543  0.4702
  197MPD1    C4 3050   1.242   1.222  17.254  0.5522  0.2376  0.0361
  197MPD1    C5 3051   1.156   1.187  17.351  0.0593 -0.7163 -0.3471
  197MPD1     H 3052   1.278   1.539  17.350  1.3742 -0.4413 -3.2107
  197MPD1    H1 3053   1.276   1.150  17.181 -0.6386  0.8901 -1.1504
  197MPD1    H2 3054   1.048   1.236  17.524  0.7168  1.5116 -0.2083
  197MPD1    H3 3055   1.105   1.091  17.357  0.2255 -0.6916  1.4474
  197MPD1     N 3056   1.381   1.390  17.153 -0.0217 -0.0842 -0.8774
  197MPD1    H5 3057   1.393   1.322  17.078  0.1661 -0.7098 -0.2741
  197MPD1    N1 3058   1.112   1.497  17.538  0.0374  0.6883  0.2714
  197MPD1    H6 3059   1.185   1.550  17.586 -0.3885 -0.1104  1.8081
  197MPD1    H7 3060   1.074   1.444  17.616  1.2192 -0.4656  0.0577
  198MPD1     C 3061   3.247   4.430  15.004  0.4065  0.1534  0.1145
  198MPD1    C1 3062   3.338   4.527  15.032 -1.0212  0.1081 -1.1050
  198MPD1    C2 3063   3.398   4.523  15.160  0.8640  0.0082 -0.6827
  198MPD1    C3 3064   3.342   4.444  15.265 -0.1519  0.1840  0.1292
  198MPD1    C4 3065   3.243   4.352  15.228 -0.3251  0.2134 -0.1232
  198MPD1    C5 3066   3.206   4.344  15.101 -0.5169  0.1976 -0.1473
  198MPD1     H 3067   3.476   4.595  15.177  0.5436  0.2289 -0.1269
  198MPD1    H1 3068   3.192   4.294  15.303 -1.8284 -2.0835 -2.9093
  198MPD1    H2 3069   3.194   4.424  14.909  1.0747 -1.1776 -0.1688
  198MPD1    H3 3070   3.123   4.279  15.073  0.0137 -0.8205  0.6215
  198MPD1     N 3071   3.389   4.454  15.402 -0.4362 -0.1394  0.3558
  198MPD1    H5 3072   3.478   4.502  15.414 -1.8550  3.3113 -2.9092
  198MPD1    N1 3073   3.382   4.598  14.924 -0.2427  0.0795  0.0815
  198MPD1    H6 3074   3.425   4.688  14.943  0.5178 -0.3657  0.4372
  198MPD1    H7 3075   3.308   4.623  14.858 -0.5562 -0.4086  0.2523
  199MPD1     C 3076   1.276   1.565  10.100  0.0823 -0.0764  0.3822
  199MPD1    C1 3077   1.170   1.487  10.135  0.8291  0.3297  0.3686
  199MPD1    C2 3078   1.075   1.532  10.227  0.0606 -0.2843  0.7172
  199MPD1    C3 3079   1.081   1.661  10.274 -0.2880 -0.1431  0.0072
  199MPD1    C4 3080   1.183   1.741  10.235 -0.0033 -0.2063  0.0371
  199MPD1    C5 3081   1.281   1.692  10.151  0.0915 -0.2483  0.1028
  199MPD1     H 3082   0.999   1.461  10.258 -0.8276 -1.0407 -3.1778
  199MPD1    H1 3083   1.202   1.839  10.277  1.5643  0.2540 -1.7565
  199MPD1    H2 3084   1.354   1.546  10.026 -0.7761 -1.7551 -0.0931
  199MPD1    H3 3085   1.359   1.765  10.130  1.3858 -1.4123  0.9058
  199MPD1     N 3086   0.991   1.721  10.366  0.1972 -0.2390  0.0039
  199MPD1    H5 3087   0.992   1.822  10.365  0.1343 -0.2497 -0.7063
  199MPD1    N1 3088   1.179   1.351  10.110  0.5483  0.2480 -1.0451
  199MPD1    H6 3089   1.092   1.297  10.111  0.7071  0.0187  0.2409
  199MPD1    H7 3090   1.229   1.328  10.025 -1.3875 -1.2497 -1.7920
  200MPD1     C 3091   4.722   1.123  15.074  0.1002 -0.3095  0.1325
  200MPD1    C1 3092   4.666   1.056  14.968 -0.6929  0.9754 -0.7882
  200MPD1    C2 3093   0.017   0.969  14.898  0.7687 -0.3508  0.5574
  200MPD1    C3 3094   0.146   0.963  14.933  0.2040  0.1299  0.8611
  200MPD1    C4 3095   0.202   1.046  15.030 -0.3680  0.3727  0.4141
  200MPD1    C5 3096   0.122   1.125  15.097 -0.5294  0.8962 -0.1271
  200MPD1     H 3097   4.709   0.907  14.820 -1.0670  0.5744  0.7942
  200MPD1    H1 3098   0.304   1.055  15.066 -0.5914 -1.7368  1.5660
  200MPD1    H2 3099   4.662   1.182  15.143  0.0265  0.4095 -0.5569
  200MPD1    H3 3100   0.161   1.190  15.175 -3.9216  1.5092  1.0688
  200MPD1     N 3101   0.222   0.876  14.853 -0.7497 -0.4565 -0.5354
  200MPD1    H5 3102   0.176   0.838  14.771  0.5471 -1.2447 -0.8878
  200MPD1    N1 3103   4.530   1.040  14.973  0.0068 -0.2577 -0.8172
  200MPD1    H6 3104   4.499   1.011  14.880  0.3642  0.0535 -1.0383
  200MPD1    H7 3105   4.492   1.133  14.991  0.9599  0.5183 -2.7513
  201MPD1     C 3106   1.651   0.260  13.760 -0.4573 -0.1766  0.3274
  201MPD1    C1 3107   1.623   0.175  13.865  0.0671 -0.3565  0.7061
  201MPD1    C2 3108   1.713   0.072  13.890  0.1661  0.6492 -0.1945
  201MPD1    C3 3109   1.804   0.028  13.796  0.1028 -0.3545 -0.1920
  201MPD1    C4 3110   1.818   0.100  13.679  0.0109  0.4298 -0.2394
  201MPD1    C5 3111   1.747   0.215  13.669 -0.6539 -0.0433  0.8995
  201MPD1     H 3112   1.702   0.013  13.980  0.6087 -0.3296 -0.7797
  201MPD1    H1 3113   1.894   0.071  13.607 -1.5699  0.0383 -1.7584
  201MPD1    H2 3114   1.598   0.352  13.739  1.5987  1.0362  0.4699
  201MPD1    H3 3115   1.762   0.276  13.580  2.9486  0.5974  1.9720
  201MPD1     N 3116   1.888   4.648  13.817 -0.2764  0.2870 -0.0953
  201MPD1    H5 3117   1.868   4.596  13.902  1.7789 -2.0956 -1.0774
  201MPD1    N1 3118   1.529   0.221  13.962  0.0178  0.2120  0.6161
  201MPD1    H6 3119   1.488   0.137  14.001  0.9127 -0.3921  0.2600
  201MPD1    H7 3120   1.458   0.261  13.902 -0.5010  0.2523  1.2524
  202MPD1     C 3121   3.134   1.207   9.828 -0.8365 -0.0362 -0.6855
  202MPD1    C1 3122   3.204   1.124   9.912 -0.1283  0.1732 -0.3911
  202MPD1    C2 3123   3.161   0.998   9.931 -0.1072  0.5526  0.1336
  202MPD1    C3 3124   3.026   0.970   9.901 -0.1895  0.4618 -0.6712
  202MPD1    C4 3125   2.949   1.053   9.820 -0.6198 -0.0223 -0.1855
  202MPD1    C5 3126   3.010   1.169   9.787 -0.8503  1.1292 -0.4756
  202MPD1     H 3127   3.227   0.937   9.991  0.9230  0.2056 -1.3339
  202MPD1    H1 3128   2.845   1.032   9.798 -0.7562 -2.9918  3.3090
  202MPD1    H2 3129   3.179   1.304   9.810 -0.2361  0.0336  1.1161
  202MPD1    H3 3130   2.960   1.245   9.728  0.5380  1.2575 -1.4831
  202MPD1     N 3131   2.966   0.851   9.945  0.0632  0.1146  0.3718
  202MPD1    H5 3132   2.876   0.834   9.899  1.3419  0.6483 -2.3457
  202MPD1    N1 3133   3.345   1.145   9.914  0.2353 -0.3620 -0.4377
  202MPD1    H6 3134   3.377   1.108  10.004 -1.8431  2.6735  1.5563
  202MPD1    H7 3135   3.381   1.240   9.904 -3.1301  1.0917  1.2001
  203MPD1     C 3136   0.325   0.029  12.595  0.9744 -0.2313  0.1643
  203MPD1    C1 3137   0.355   4.634  12.579 -0.3884 -0.0241 -0.5557
  203MPD1    C2 3138   0.480   4.593  12.617 -0.0475  0.6246 -0.6677
  203MPD1    C3 3139   0.565   4.673  12.697 -0.6108 -0.3780  0.1589
  203MPD1    C4 3140   0.527   0.069  12.720 -0.0495  0.3927 -0.6352
  203MPD1    C5 3141   0.413   0.114  12.662  0.6924  0.2744  0.1960
  203MPD1     H 3142   0.509   4.488  12.610 -2.5651 -0.0986 -0.0739
  203MPD1    H1 3143   0.590   0.131  12.783  0.3631  0.4656 -1.1112
  203MPD1    H2 3144   0.241   0.077  12.546  1.1421  1.1719  1.2563
  203MPD1    H3 3145   0.389   0.218  12.685 -1.2133 -0.7916  2.9270
  203MPD1     N 3146   0.689   4.620  12.738  0.2367 -0.1614 -0.5917
  203MPD1    H5 3147   0.704   4.523  12.711  2.7191 -0.1645  0.8167
  203MPD1    N1 3148   0.275   4.550  12.501 -0.1442  0.2666  0.0118
  203MPD1    H6 3149   0.289   4.456  12.535  0.6218 -0.1960 -1.5732
  203MPD1    H7 3150   0.175   4.568  12.488 -0.0111  2.7850  2.3700
  204MPD1     C 3151   0.321   1.742  17.621  0.4750  0.1450  0.1135
  204MPD1    C1 3152   0.327   1.696  17.495  0.1363 -0.1936 -0.0439
  204MPD1    C2 3153   0.346   1.562  17.475 -0.6465  0.3749  0.4552
  204MPD1    C3 3154   0.363   1.477  17.579  0.1102  0.3834 -0.2086
  204MPD1    C4 3155   0.372   1.527  17.705 -0.0668  0.3322 -0.0496
  204MPD1    C5 3156   0.336   1.657  17.725 -0.3893  0.2393 -0.0809
  204MPD1     H 3157   0.344   1.508  17.381 -1.1662  0.7634  0.2427
  204MPD1    H1 3158   0.386   1.470   0.067  2.2078  2.0770  0.6759
  204MPD1    H2 3159   0.311   1.848  17.644 -0.5934 -0.0855  0.7385
  204MPD1    H3 3160   0.329   1.700   0.095  2.6189 -0.2477  0.3344
  204MPD1     N 3161   0.372   1.337  17.541 -0.2102  0.1438  0.3612
  204MPD1    H5 3162   0.363   1.309  17.444 -2.8185 -1.5487  1.0993
  204MPD1    N1 3163   0.326   1.782  17.383 -0.3848 -0.3620 -0.3047
  204MPD1    H6 3164   0.302   1.735  17.295  0.2655  0.6809 -1.0412
  204MPD1    H7 3165   0.258   1.857  17.397 -0.9143 -1.3020  2.0857
  205MPD1     C 3166   0.738   4.290   0.714  0.1545 -0.3517  0.2052
  205MPD1    C1 3167   0.655   4.382   0.649 -0.5021  0.3980 -0.0825
  205MPD1    C2 3168   0.703   4.503   0.612 -0.0970 -0.5330 -0.6468
  205MPD1    C3 3169   0.832   4.545   0.649  0.1816 -0.5427  0.0839
  205MPD1    C4 3170   0.911   4.460   0.719 -0.1905  0.3776 -0.1037
  205MPD1    C5 3171   0.859   4.340   0.766 -0.0700  0.1066 -0.3731
  205MPD1     H 3172   0.641   4.571   0.555 -2.0071 -1.3458  0.4542
  205MPD1    H1 3173   1.011   4.486   0.750  0.3662  0.0483 -1.6169
  205MPD1    H2 3174   0.724   4.183   0.724  1.2255 -0.5835 -0.6992
  205MPD1    H3 3175   0.928   4.269   0.810 -0.3970  0.5727  0.8827
  205MPD1     N 3176   0.882   4.672   0.611  0.0286  0.2148 -0.7527
  205MPD1    H5 3177   0.975   4.699   0.641 -0.9808  0.7197  1.8734
  205MPD1    N1 3178   0.544   4.320   0.586 -0.6789  0.4239 -0.0272
  205MPD1    H6 3179   0.472   4.387   0.561 -0.0299  1.8710  1.9684
  205MPD1    H7 3180   0.492   4.262   0.651 -0.5919  0.5269  0.1344
  206MPD1     C 3181   0.659   2.227  16.984  0.1065 -0.3137  0.3156
  206MPD1    C1 3182   0.621   2.354  17.022  0.0856 -1.1444  0.2958
  206MPD1    C2 3183   0.566   2.433  16.919  0.5977  0.0118  0.7221
  206MPD1    C3 3184   0.554   2.384  16.794 -0.1470 -0.6931 -0.2883
  206MPD1    C4 3185   0.579   2.254  16.770 -0.0622 -0.1580 -0.2389
  206MPD1    C5 3186   0.641   2.178  16.858  0.2737  0.0844  0.2455
  206MPD1     H 3187   0.526   2.532  16.936 -1.9923 -0.4074 -2.9413
  206MPD1    H1 3188   0.553   2.212  16.673  1.7754 -1.5198 -0.1416
  206MPD1    H2 3189   0.710   2.162  17.055 -0.4132  1.1261  1.9930
  206MPD1    H3 3190   0.676   2.077  16.838  1.0029 -0.0890  2.3853
  206MPD1     N 3191   0.521   2.463  16.681  0.3230  0.7007  0.0499
  206MPD1    H5 3192   0.512   2.412  16.593  2.7409  1.5638 -0.7107
  206MPD1    N1 3193   0.614   2.391  17.156 -0.0618  0.8770  0.1652
  206MPD1    H6 3194   0.696   2.366  17.210 -0.4706 -1.3788 -0.2781
  206MPD1    H7 3195   0.593   2.491  17.149 -2.6731  0.2644 -0.9131
  207MPD1     C 3196   2.467   0.881  10.198  0.2750  0.3049  0.0486
  207MPD1    C1 3197   2.532   0.818  10.304  0.2609  0.0945  0.5800
  207MPD1    C2 3198   2.666   0.848  10.319 -0.2508 -0.6057  0.4953
  207MPD1    C3 3199   2.727   0.947  10.245 -0.9654  0.6743  0.0153
  207MPD1    C4 3200   2.654   1.013  10.149  0.6668  0.0628 -0.3662
  207MPD1    C5 3201   2.526   0.982  10.127 -0.4437  0.2050  0.2154
  207MPD1     H 3202   2.729   0.805  10.396 -2.5174 -0.0508  2.6387
  207MPD1    H1 3203   2.697   1.091  10.088 -0.1724  0.4249 -0.5025
  207MPD1    H2 3204   2.363   0.855  10.186  0.0267  1.8365 -1.2059
  207MPD1    H3 3205   2.472   1.028  10.045  0.6965  0.1699 -0.5509
  207MPD1     N 3206   2.856   1.001  10.267  0.3524 -0.1078 -0.8654
  207MPD1    H5 3207   2.887   1.084  10.218  0.0108 -0.2213 -1.2799
  207MPD1    N1 3208   2.473   0.707  10.372 -0.1566 -0.3077  0.8820
  207MPD1    H6 3209   2.371   0.707  10.368 -0.1010  3.4675 -0.3467
  207MPD1    H7 3210   2.487   0.714  10.472  2.0140  1.0244  0.4963
  208MPD1     C 3211   1.738   3.821   1.234 -0.3363  0.5827  0.3390
  208MPD1    C1 3212   1.784   3.904   1.337  0.2166  0.5031  0.1637
  208MPD1    C2 3213   1.801   4.041   1.314  0.7389  0.1282  0.0849
  208MPD1    C3 3214   1.766   4.090   1.190 -0.0597 -0.1600  0.5248
  208MPD1    C4 3215   1.728   4.000   1.091  0.0751  0.7903 -0.3543
  208MPD1    C5 3216   1.717   3.866   1.104  0.9349  0.1891 -0.1641
  208MPD1     H 3217   1.827   4.108   1.395 -0.9460 -0.2388  0.9346
  208MPD1    H1 3218   1.726   4.033   0.988 -1.8527  1.8271  0.0075
  208MPD1    H2 3219   1.720   3.716   1.251 -0.4085  0.1530 -2.4361
  208MPD1    H3 3220   1.679   3.802   1.025 -0.5698  0.9851 -0.0717
  208MPD1     N 3221   1.791   4.225   1.163 -0.2630  0.1404 -0.2410
  208MPD1    H5 3222   1.834   4.278   1.238 -0.9344 -1.1096  1.0506
  208MPD1    N1 3223   1.794   3.862   1.473  0.2294  0.7104 -0.3568
  208MPD1    H6 3224   1.860   3.925   1.517  1.3066 -1.1787  0.7117
  208MPD1    H7 3225   1.840   3.772   1.483 -1.5690 -0.2315 -0.5358
  209MPD1     C 3226   3.224   4.690  11.131  0.0322 -0.2121 -0.2240
  209MPD1    C1 3227   3.172   0.078  11.081  0.0479 -0.5721  0.9167
  209MPD1    C2 3228   3.214   0.203  11.135 -1.1116 -0.5367  0.0205
  209MPD1    C3 3229   3.322   0.205  11.222 -0.1134 -0.1498 -0.1026
  209MPD1    C4 3230   3.377   0.087  11.273  0.4498  0.4735 -0.3552
  209MPD1    C5 3231   3.327   4.697  11.224  0.1336 -0.4359 -0.1146
  209MPD1     H 3232   3.171   0.292  11.091  0.4595  0.2471  0.0843
  209MPD1    H1 3233   3.453   0.077  11.350  1.5051  1.8201 -1.2180
  209MPD1    H2 3234   3.190   4.593  11.096  1.7956 -0.6792 -0.6286
  209MPD1    H3 3235   3.377   4.607  11.259  1.0756 -0.1398 -0.6807
  209MPD1     N 3236   3.388   0.328  11.236  0.4452  0.1976  0.1001
  209MPD1    H5 3237   3.371   0.399  11.165 -1.2690 -0.0943  0.2222
  209MPD1    N1 3238   3.046   0.075  11.015 -0.6497 -0.1820  0.8234
  209MPD1    H6 3239   3.034   0.159  10.959  0.0665 -0.4502  0.2744
  209MPD1    H7 3240   3.039   4.729  10.950  0.0924  0.4003  0.0329
  210MPD1     C 3241   3.994   1.130  11.620 -0.3017 -0.2271  0.1053
  210MPD1    C1 3242   3.884   1.068  11.668  0.1261  0.2256  0.3408
  210MPD1    C2 3243   3.820   0.976  11.586  0.3496 -0.5287 -0.3887
  210MPD1    C3 3244   3.880   0.922  11.473  0.0749 -0.0418 -0.5269
  210MPD1    C4 3245   4.003   0.970  11.438  0.1137  0.1369  0.0035
  210MPD1    C5 3246   4.053   1.082  11.510  0.4085 -0.2572 -0.4065
  210MPD1     H 3247   3.725   0.941  11.624  0.4950 -0.1609  0.3115
  210MPD1    H1 3248   4.054   0.942  11.347 -3.3966  0.5136 -2.0692
  210MPD1    H2 3249   4.037   1.218  11.667 -1.5493  0.8304 -0.7157
  210MPD1    H3 3250   4.141   1.134  11.473  0.2160 -0.0541 -0.5783
  210MPD1     N 3251   3.827   0.822  11.389 -0.0644 -0.6004  0.0018
  210MPD1    H5 3252   3.871   0.811  11.299  1.2774  0.7215  0.5021
  210MPD1    N1 3253   3.817   1.133  11.772  0.0393 -0.5378 -0.3079
  210MPD1    H6 3254   3.771   1.060  11.825  0.4304 -0.2115  0.4736
  210MPD1    H7 3255   3.867   1.184  11.845 -0.6203  0.2729 -0.4122
  211MPD1     C 3256   1.402   4.580  16.221  0.5994  0.6220 -0.0741
  211MPD1    C1 3257   1.349   4.699  16.216  0.2459  0.3025 -0.1109
  211MPD1    C2 3258   1.211   4.712  16.212  0.0478 -0.5055  0.0278
  211MPD1    C3 3259   1.136   4.602  16.208  0.1001 -0.4564 -0.6140
  211MPD1    C4 3260   1.196   4.483  16.192  0.7248  0.1862  0.0601
  211MPD1    C5 3261   1.327   4.472  16.200 -0.4864  0.4973 -0.7990
  211MPD1     H 3262   1.162   0.076  16.215  1.4365  0.2971 -3.0868
  211MPD1    H1 3263   1.139   4.391  16.191  0.6105  0.2655 -0.8956
  211MPD1    H2 3264   1.508   4.570  16.241  0.3384  1.5918  1.8264
  211MPD1    H3 3265   1.372   4.373  16.205 -1.7946 -0.0766 -0.0279
  211MPD1     N 3266   0.998   4.617  16.203 -0.3760  0.2288 -0.6391
  211MPD1    H5 3267   0.968   4.713  16.217  1.3488  1.0600 -2.6505
  211MPD1    N1 3268   1.430   0.082  16.219  0.0899 -0.2599  0.2048
  211MPD1    H6 3269   1.380   0.159  16.174  1.2996  0.1833 -0.3704
  211MPD1    H7 3270   1.519   0.051  16.181  0.6868  0.8454  0.6921
  212MPD1     C 3271   0.504   2.498  17.726  0.0170  1.1584  0.3317
  212MPD1    C1 3272   0.402   2.588   0.008  0.5546 -1.1328  0.0352
  212MPD1    C2 3273   0.346   2.639  17.622 -0.5841 -0.0434  0.5359
  212MPD1    C3 3274   0.391   2.608  17.497 -0.4338 -0.5326 -0.7578
  212MPD1    C4 3275   0.505   2.527  17.494  0.1404  0.4883 -0.1792
  212MPD1    C5 3276   0.565   2.480  17.605  0.3388 -0.0887 -0.4284
  212MPD1     H 3277   0.258   2.703  17.625 -0.5531 -0.0012  0.5489
  212MPD1    H1 3278   0.545   2.505  17.396  0.5595  0.6597 -0.0478
  212MPD1    H2 3279   0.534   2.446   0.087 -0.8757 -0.3055 -0.2112
  212MPD1    H3 3280   0.661   2.434  17.585  0.3042 -0.6647  0.7625
  212MPD1     N 3281   0.329   2.645  17.376  0.3345  0.2836 -0.1823
  212MPD1    H5 3282   0.382   2.622  17.293 -0.3060  0.8929 -0.7666
  212MPD1    N1 3283   0.336   2.604   0.130 -0.0542 -0.4096  0.2446
  212MPD1    H6 3284   0.309   2.701   0.148 -1.5829 -0.8348  0.1683
  212MPD1    H7 3285   0.380   2.569   0.215  0.1351 -2.1008 -0.5600
  213MPD1     C 3286   2.996   3.560  15.860  0.4741 -0.1892  0.2692
  213MPD1    C1 3287   3.042   3.543  15.735 -0.4229 -0.2920 -0.6867
  213MPD1    C2 3288   2.975   3.604  15.636 -0.5167 -0.8421  0.4281
  213MPD1    C3 3289   2.849   3.649  15.653  0.4044  0.3192 -0.2981
  213MPD1    C4 3290   2.789   3.645  15.778  0.3243 -0.3967 -0.4903
  213MPD1    C5 3291   2.867   3.598  15.882 -0.7086 -0.1930 -0.6610
  213MPD1     H 3292   3.028   3.599  15.542 -0.2249  0.7708  0.4993
  213MPD1    H1 3293   2.684   3.667  15.796 -0.1811 -1.5032 -2.1187
  213MPD1    H2 3294   3.052   3.515  15.941 -1.6010 -1.3868  1.0423
  213MPD1    H3 3295   2.820   3.590  15.979  2.8343  1.9278  1.2203
  213MPD1     N 3296   2.774   3.696  15.542  0.0390  0.0719 -0.3161
  213MPD1    H5 3297   2.831   3.697  15.458  0.0878 -3.0614 -0.3387
  213MPD1    N1 3298   3.179   3.527  15.721 -0.4297  0.6745  0.4205
  213MPD1    H6 3299   3.215   3.471  15.797 -1.2353 -0.2844  0.0933
  213MPD1    H7 3300   3.205   3.489  15.630 -0.0811  0.4853  0.5968
  214MPD1     C 3301   1.822   3.952  15.224 -0.1009  0.8930  0.2738
  214MPD1    C1 3302   1.900   4.062  15.202  0.4705 -0.5386  0.4078
  214MPD1    C2 3303   2.033   4.052  15.238  0.3311 -0.0793 -0.3441
  214MPD1    C3 3304   2.092   3.932  15.278 -0.0737 -0.3240 -0.9208
  214MPD1    C4 3305   2.016   3.819  15.285  0.4986 -1.4009 -0.6656
  214MPD1    C5 3306   1.880   3.833  15.267 -0.1773 -0.7477  0.0999
  214MPD1     H 3307   2.093   4.142  15.239  2.4930 -1.5285  0.0613
  214MPD1    H1 3308   2.054   3.722  15.317  4.2464 -0.7839 -3.1539
  214MPD1    H2 3309   1.716   3.944  15.205  0.2652 -0.5442 -1.2299
  214MPD1    H3 3310   1.821   3.743  15.277 -0.3313 -0.4670  1.7817
  214MPD1     N 3311   2.228   3.920  15.312  0.1287  0.5458  0.1917
  214MPD1    H5 3312   2.272   3.831  15.335 -1.3146 -0.6063 -1.4965
  214MPD1    N1 3313   1.832   4.186  15.188  0.1329 -0.3183 -0.5489
  214MPD1    H6 3314   1.883   4.257  15.135  0.0247 -0.9441 -1.4839
  214MPD1    H7 3315   1.738   4.174  15.151 -0.0858  0.3476 -0.2111
  215MPD1     C 3316   2.659   0.218  10.362 -0.0839 -0.4704 -0.0559
  215MPD1    C1 3317   2.621   0.353  10.377 -0.3783  0.2157  0.1534
  215MPD1    C2 3318   2.693   0.435  10.459  0.5264  0.2998 -0.5139
  215MPD1    C3 3319   2.810   0.396  10.516  0.2549  0.3246 -0.0075
  215MPD1    C4 3320   2.850   0.261  10.493 -0.6584 -0.7908 -0.8050
  215MPD1    C5 3321   2.775   0.178  10.414 -0.0912  0.4346  0.6445
  215MPD1     H 3322   2.658   0.538  10.463 -0.6667 -0.1925  2.0115
  215MPD1    H1 3323   2.945   0.220  10.526 -0.4938 -0.7747 -1.2622
  215MPD1    H2 3324   2.605   0.139  10.310  1.6397 -1.0612 -0.9485
  215MPD1    H3 3325   2.806   0.075  10.399 -1.1077  0.1970  0.1777
  215MPD1     N 3326   2.884   0.490  10.588  0.0921 -0.1905  0.3585
  215MPD1    H5 3327   2.849   0.585  10.581  0.5837 -0.0058  0.3765
  215MPD1    N1 3328   2.495   0.401  10.343 -0.2367  0.3920  0.1549
  215MPD1    H6 3329   2.468   0.350  10.259 -2.1733  2.9428 -0.7797
  215MPD1    H7 3330   2.497   0.501  10.322 -0.9609  0.3242 -0.2451
  216MPD1     C 3331   4.309   3.376   0.685  0.0224  0.2021 -0.1297
  216MPD1    C1 3332   4.371   3.369   0.807 -0.0237 -0.5027  0.3748
  216MPD1    C2 3333   4.415   3.242   0.841 -0.2670  0.2213  0.1339
  216MPD1    C3 3334   4.395   3.126   0.767 -0.3022 -0.1229 -0.1963
  216MPD1    C4 3335   4.324   3.137   0.651  0.4569 -0.2709  1.1315
  216MPD1    C5 3336   4.288   3.265   0.612  1.0974 -0.5862 -0.4303
  216MPD1     H 3337   4.483   3.231   0.925  1.4089 -0.0867 -1.2482
  216MPD1    H1 3338   4.293   3.054   0.589  3.4669 -0.7228  0.2462
  216MPD1    H2 3339   4.276   3.467   0.636 -0.0550 -0.5662 -1.5050
  216MPD1    H3 3340   4.234   3.266   0.519  1.0687 -0.6281 -0.4142
  216MPD1     N 3341   4.447   3.004   0.818  0.2141 -0.4201  0.2549
  216MPD1    H5 3342   4.485   3.014   0.911  0.2109  1.8943  0.0187
  216MPD1    N1 3343   4.422   3.486   0.863  0.1741 -0.1936  0.2361
  216MPD1    H6 3344   4.343   3.550   0.856  0.7229  0.2805 -1.4799
  216MPD1    H7 3345   4.441   3.472   0.963  0.8185  0.2740  0.1846
  217MPD1     C 3346   1.108   3.668   8.852 -0.1626  0.0353  0.2785
  217MPD1    C1 3347   0.986   3.717   8.884  0.3694  0.6803  0.1088
  217MPD1    C2 3348   0.986   3.831   8.965 -0.3271 -0.4589  0.5170
  217MPD1    C3 3349   1.097   3.901   8.995  0.9898  0.2646 -0.2608
  217MPD1    C4 3350   1.220   3.845   8.965 -0.2961 -0.3704  0.5075
  217MPD1    C5 3351   1.225   3.730   8.886 -0.0523  0.2242 -0.7690
  217MPD1     H 3352   0.897   3.850   9.024  0.0382 -2.5772  1.7339
  217MPD1    H1 3353   1.317   3.888   8.989  0.2850 -2.1070  1.2830
  217MPD1    H2 3354   1.105   3.575   8.795  0.0395 -0.9485  1.8859
  217MPD1    H3 3355   1.316   3.681   8.851 -1.1140 -1.3552 -1.3013
  217MPD1     N 3356   1.099   4.028   9.060 -0.5300 -0.0070  0.0071
  217MPD1    H5 3357   1.194   4.054   9.088 -0.0509 -0.8695 -0.8019
  217MPD1    N1 3358   0.873   3.644   8.864  0.1655 -0.1628  0.3097
  217MPD1    H6 3359   0.796   3.710   8.867 -0.8552 -1.2972 -0.8706
  217MPD1    H7 3360   0.874   3.598   8.773 -0.3226 -1.1258  0.7929
  218MPD1     C 3361   2.702   1.273  12.556 -0.4431  0.2005  0.0881
  218MPD1    C1 3362   2.831   1.253  12.529 -0.4015 -0.6635 -0.7717
  218MPD1    C2 3363   2.869   1.119  12.491  0.3844 -0.5305  0.0975
  218MPD1    C3 3364   2.785   1.013  12.498  0.4395 -0.0811  0.0379
  218MPD1    C4 3365   2.650   1.043  12.531 -0.0485 -0.7405 -0.0467
  218MPD1    C5 3366   2.611   1.166  12.558  0.0805 -0.7563  0.5035
  218MPD1     H 3367   2.971   1.102  12.461  0.3876  3.0002 -2.0313
  218MPD1    H1 3368   2.571   0.968  12.531 -0.5099 -0.2470 -1.1209
  218MPD1    H2 3369   2.663   1.371  12.583 -2.4975 -0.2834 -1.1530
  218MPD1    H3 3370   2.507   1.190  12.580  0.2451 -0.8778  1.4010
  218MPD1     N 3371   2.834   0.883  12.462 -0.1853  0.3494 -0.5129
  218MPD1    H5 3372   2.931   0.877  12.433 -0.2658 -1.1602 -0.4718
  218MPD1    N1 3373   2.918   1.364  12.514  0.0369 -0.5312 -0.0199
  218MPD1    H6 3374   2.879   1.447  12.558 -1.2804 -0.5277 -1.1689
  218MPD1    H7 3375   3.017   1.356  12.533  0.2251  0.9022 -0.4214
  219MPD1     C 3376   3.525   0.333  12.012  0.2312  0.5011  0.8613
  219MPD1    C1 3377   3.512   0.458  12.058  0.6658  0.3783  1.0508
  219MPD1    C2 3378   3.387   0.494  12.114 -0.3174  0.3285  0.1834
  219MPD1    C3 3379   3.289   0.394  12.137 -0.2321  0.3485  1.0438
  219MPD1    C4 3380   3.306   0.268  12.079 -0.0489 -0.0157 -0.1926
  219MPD1    C5 3381   3.426   0.240  12.018  0.5477 -0.8872  0.1250
  219MPD1     H 3382   3.378   0.590  12.164 -3.8598  0.4176 -0.6168
  219MPD1    H1 3383   3.237   0.186  12.095  0.4348 -0.5704 -0.9594
  219MPD1    H2 3384   3.605   0.309  11.943 -2.3358  0.3279 -2.0181
  219MPD1    H3 3385   3.455   0.142  11.982  0.7199 -0.8488  0.1582
  219MPD1     N 3386   3.170   0.410  12.207 -0.8785  0.3266  0.0015
  219MPD1    H5 3387   3.097   0.340  12.198 -0.2641 -0.2931 -0.1401
  219MPD1    N1 3388   3.606   0.551  12.023 -0.1838  0.0759 -0.1501
  219MPD1    H6 3389   3.615   0.631  12.085 -1.7218 -0.4344  0.7226
  219MPD1    H7 3390   3.703   0.522  12.009  0.5182  1.4037  1.9671
  220MPD1     C 3391   2.132   1.693   9.749  0.6902 -1.2221  0.6287
  220MPD1    C1 3392   2.263   1.645   9.759 -0.3045  0.5646 -0.1421
  220MPD1    C2 3393   2.286   1.536   9.843  0.1976  0.0427 -0.5509
  220MPD1    C3 3394   2.183   1.463   9.896  0.7126  0.2487  0.0826
  220MPD1    C4 3395   2.045   1.502   9.873  0.8459  0.4018  0.1672
  220MPD1    C5 3396   2.029   1.623   9.800 -0.3417  0.9466  0.1291
  220MPD1     H 3397   2.384   1.497   9.868  1.0446  0.3720 -3.3396
  220MPD1    H1 3398   1.956   1.443   9.894  0.9691  0.1942  0.1064
  220MPD1    H2 3399   2.103   1.784   9.699  1.9694 -0.7480  0.7370
  220MPD1    H3 3400   1.926   1.657   9.791 -0.6520 -0.2993 -1.0387
  220MPD1     N 3401   2.221   1.352   9.970 -0.1150 -0.0264 -0.5335
  220MPD1    H5 3402   2.319   1.339   9.994 -0.9811 -0.7294  2.5756
  220MPD1    N1 3403   2.363   1.730   9.720  0.2806 -0.2447 -0.1041
  220MPD1    H6 3404   2.448   1.683   9.692  1.8427  1.7686  1.2885
  220MPD1    H7 3405   2.342   1.773   9.629  2.0376 -1.0087 -0.8618
  221MPD1     C 3406   0.191   4.163  16.829 -0.2220  0.3039  0.5793
  221MPD1    C1 3407   0.165   4.096  16.714 -0.4871  0.3043  0.4668
  221MPD1    C2 3408   0.266   4.050  16.638  0.5531  0.8524 -0.3178
  221MPD1    C3 3409   0.401   4.062  16.678  0.0805  0.8511 -0.1128
  221MPD1    C4 3410   0.431   4.120  16.801 -0.5435 -0.2951  0.0532
  221MPD1    C5 3411   0.322   4.171  16.879  0.4791 -0.2982  0.0425
  221MPD1     H 3412   0.244   3.996  16.547  1.2101 -0.6208  0.3881
  221MPD1    H1 3413   0.529   4.119  16.848  0.8637  0.3164 -2.9012
  221MPD1    H2 3414   0.105   4.197  16.886  0.4576  0.9663  1.1967
  221MPD1    H3 3415   0.342   4.209  16.979 -0.1074  0.3661 -0.0930
  221MPD1     N 3416   0.512   4.006  16.607 -0.3874 -0.2290  0.0558
  221MPD1    H5 3417   0.603   4.018  16.652 -0.9261  0.9321  0.8362
  221MPD1    N1 3418   0.031   4.090  16.677 -0.1191  0.6315  0.0400
  221MPD1    H6 3419   0.007   4.023  16.604  3.6206  1.5827 -2.1081
  221MPD1    H7 3420   4.691   4.079  16.747  1.4560  1.1637  1.7847
  222MPD1     C 3421   0.523   2.210   1.412  0.1962 -0.3059 -0.5071
  222MPD1    C1 3422   0.526   2.090   1.345 -0.0803  0.3486  0.4073
  222MPD1    C2 3423   0.435   2.066   1.245  0.2730  0.0767 -0.1827
  222MPD1    C3 3424   0.338   2.161   1.212 -0.1987  0.0483  0.7866
  222MPD1    C4 3425   0.324   2.274   1.286 -0.3309  0.6301  0.5858
  222MPD1    C5 3426   0.415   2.304   1.384 -0.4870  0.2982  0.0511
  222MPD1     H 3427   0.437   1.969   1.195  0.3596 -0.0825  0.1283
  222MPD1    H1 3428   0.244   2.341   1.256 -1.4495 -1.3039 -0.7314
  222MPD1    H2 3429   0.606   2.247   1.471  1.1004 -2.6254 -0.3505
  222MPD1    H3 3430   0.405   2.397   1.438  1.5188  1.0367 -0.8313
  222MPD1     N 3431   0.257   2.160   1.096 -0.2031 -0.2661 -0.5543
  222MPD1    H5 3432   0.181   2.228   1.100 -0.1425 -0.1081 -2.1143
  222MPD1    N1 3433   0.631   2.000   1.362  0.0797 -0.4171 -0.1191
  222MPD1    H6 3434   0.618   1.904   1.329 -1.4116 -0.4639  0.5655
  222MPD1    H7 3435   0.665   1.993   1.458  2.6860  1.3807 -0.9337
  223MPD1     C 3436   0.035   1.815   0.065 -0.5329 -1.0139  0.2265
  223MPD1    C1 3437   0.073   1.948   0.069 -0.1621  1.0689  0.4733
  223MPD1    C2 3438   0.108   1.998   0.193  0.0283  0.2927  0.1192
  223MPD1    C3 3439   0.104   1.931   0.309 -0.0970 -0.7189  0.4094
  223MPD1    C4 3440   0.074   1.797   0.300  0.3436 -0.2799 -0.0757
  223MPD1    C5 3441   0.033   1.741   0.179 -0.2928  0.3305 -0.9259
  223MPD1     H 3442   0.134   2.104   0.198  0.1192  0.3459 -1.6539
  223MPD1    H1 3443   0.073   1.735   0.389  2.1312  3.3850  2.5275
  223MPD1    H2 3444   0.013   1.771  17.698 -1.8630  1.8091 -0.7872
  223MPD1    H3 3445   0.003   1.637   0.174 -0.9108  0.3997  1.2860
  223MPD1     N 3446   0.136   1.998   0.425 -0.3525  0.9973 -0.1949
  223MPD1    H5 3447   0.178   2.090   0.410  1.6984 -0.0530 -0.8670
  223MPD1    N1 3448   0.058   2.033  17.688 -0.1797 -0.0058  0.3698
  223MPD1    H6 3449   0.135   2.098  17.676 -1.3041  0.7680 -2.5569
  223MPD1    H7 3450   0.060   1.977  17.603  0.3312 -0.6419  0.8011
  224MPD1     C 3451   1.339   0.778   8.800  0.5304 -0.5188  0.2233
  224MPD1    C1 3452   1.357   0.887   8.881 -0.2500 -0.5339 -0.1034
  224MPD1    C2 3453   1.377   0.856   9.016 -0.3206  0.2032  0.2275
  224MPD1    C3 3454   1.399   0.725   9.057  0.2280 -0.6080 -0.2090
  224MPD1    C4 3455   1.391   0.622   8.964  0.5166  0.7500 -0.5107
  224MPD1    C5 3456   1.352   0.653   8.840 -0.4214  0.2552  0.6116
  224MPD1     H 3457   1.391   0.939   9.084  1.0765 -0.9060  1.3097
  224MPD1    H1 3458   1.396   0.518   8.993 -1.5857  0.4595 -1.2313
  224MPD1    H2 3459   1.318   0.796   8.695  4.3630 -2.4136 -0.8862
  224MPD1    H3 3460   1.338   0.566   8.777  0.5642  0.6626 -0.1780
  224MPD1     N 3461   1.426   0.687   9.192  0.0344 -0.0407  0.3421
  224MPD1    H5 3462   1.441   0.588   9.207 -0.2430 -0.5235 -2.4459
  224MPD1    N1 3463   1.348   1.014   8.835  0.1174 -0.3465  0.5948
  224MPD1    H6 3464   1.251   1.043   8.822  0.1074 -1.0436 -0.8814
  224MPD1    H7 3465   1.391   1.080   8.900  1.9405 -0.8766 -0.0876
  225MPD1     C 3466   2.865   1.482  12.087 -0.0785 -0.4928  0.2089
  225MPD1    C1 3467   2.819   1.404  11.987 -0.6022  0.2495  0.3468
  225MPD1    C2 3468   2.711   1.335  12.014  0.3079  0.1395 -0.1094
  225MPD1    C3 3469   2.640   1.349  12.134  0.2386 -0.1518 -0.5970
  225MPD1    C4 3470   2.697   1.428  12.233  0.4754  0.2292  0.1137
  225MPD1    C5 3471   2.814   1.494  12.209  0.1434  0.0047 -0.0795
  225MPD1     H 3472   2.667   1.274  11.936 -2.6291  0.7450  1.0503
  225MPD1    H1 3473   2.650   1.441  12.330 -0.1181  2.8898 -0.5361
  225MPD1    H2 3474   2.955   1.542  12.077 -0.3711 -0.2087 -0.7604
  225MPD1    H3 3475   2.856   1.550  12.292  0.0754  0.1416 -0.1383
  225MPD1     N 3476   2.522   1.279  12.171  0.2182  0.4759 -0.0579
  225MPD1    H5 3477   2.494   1.289  12.268  1.1424  2.4637  0.0196
  225MPD1    N1 3478   2.887   1.407  11.867  0.6143  0.1352  0.6407
  225MPD1    H6 3479   2.983   1.439  11.859  0.7210 -0.7674 -1.6079
  225MPD1    H7 3480   2.864   1.331  11.803  0.2595  0.9792 -0.2130
  226MPD1     C 3481   0.568   1.820  10.161 -0.2636 -0.1439 -0.3237
  226MPD1    C1 3482   0.625   1.700  10.160 -0.0440 -0.7267 -0.1114
  226MPD1    C2 3483   0.744   1.689  10.085  0.0958  0.6322 -0.4364
  226MPD1    C3 3484   0.812   1.806  10.052  0.0681 -0.2434 -0.4174
  226MPD1    C4 3485   0.752   1.926  10.067  0.2155 -0.1425 -0.1839
  226MPD1    C5 3486   0.631   1.933  10.119 -0.0305 -0.5679  0.0295
  226MPD1     H 3487   0.798   1.599  10.057 -2.0020 -0.4229 -1.0619
  226MPD1    H1 3488   0.792   2.023  10.039  0.8282 -0.3523 -0.0428
  226MPD1    H2 3489   0.471   1.821  10.210 -0.8626 -1.4215 -1.4951
  226MPD1    H3 3490   0.578   2.028  10.124  2.7407  0.8628  2.2262
  226MPD1     N 3491   0.936   1.785   9.992  0.1557 -0.3854 -0.0127
  226MPD1    H5 3492   0.959   1.688   9.971 -0.3208 -0.0185 -2.2620
  226MPD1    N1 3493   0.552   1.584  10.189  0.7856 -0.2731 -0.4271
  226MPD1    H6 3494   0.484   1.597  10.263  1.8809 -0.1509  0.5639
  226MPD1    H7 3495   0.612   1.504  10.207 -0.2555 -1.3699 -1.8300
  227MPD1     C 3496   1.747   2.379   9.878  0.0889  0.0742 -0.4470
  227MPD1    C1 3497   1.709   2.323  10.001 -0.4268  0.4952 -0.0730
  227MPD1    C2 3498   1.620   2.219   9.985 -0.1592 -0.5523 -0.1297
  227MPD1    C3 3499   1.588   2.152   9.866  0.1878 -0.2771 -0.2773
  227MPD1    C4 3500   1.630   2.211   9.750  0.2075  0.7355  0.4700
  227MPD1    C5 3501   1.705   2.325   9.757 -0.2083  0.0533 -0.0447
  227MPD1     H 3502   1.576   2.186  10.079 -1.3850  0.5713 -0.3057
  227MPD1    H1 3503   1.598   2.180   9.651  1.2562  2.5669 -0.4563
  227MPD1    H2 3504   1.807   2.469   9.877 -1.8536  1.3783  1.1350
  227MPD1    H3 3505   1.732   2.366   9.660 -1.8152  1.7718  0.2418
  227MPD1     N 3506   1.506   2.040   9.879 -0.1701  0.2313  0.0206
  227MPD1    H5 3507   1.468   2.020   9.971  2.7156  1.7349  1.5566
  227MPD1    N1 3508   1.734   2.389  10.127 -0.1240 -0.2461  0.1923
  227MPD1    H6 3509   1.734   2.325  10.206 -1.6216  1.0289  1.2184
  227MPD1    H7 3510   1.831   2.416  10.120 -0.5101  1.6868  2.2556
  228MPD1     C 3511   3.722   3.808  13.128  0.5131  0.0443  0.2694
  228MPD1    C1 3512   3.710   3.753  13.006  0.7272  0.3498  0.5048
  228MPD1    C2 3513   3.628   3.644  12.993  0.1441 -0.1260 -0.3396
  228MPD1    C3 3514   3.536   3.610  13.092 -0.3718  0.7951  0.1563
  228MPD1    C4 3515   3.538   3.682  13.213 -0.1900 -0.0549 -0.9288
  228MPD1    C5 3516   3.640   3.768  13.231  0.1806  0.5491 -0.1225
  228MPD1     H 3517   3.621   3.600  12.894 -3.4883  0.2779 -0.2571
  228MPD1    H1 3518   3.460   3.672  13.288 -0.1564  0.9840 -0.7533
  228MPD1    H2 3519   3.783   3.897  13.144 -0.1468  0.3496  1.0603
  228MPD1    H3 3520   3.645   3.822  13.325 -1.2155 -1.4808  1.0891
  228MPD1     N 3521   3.440   3.509  13.065  0.1564  1.1700 -0.0321
  228MPD1    H5 3522   3.422   3.478  12.970 -1.1567 -0.0953  0.6398
  228MPD1    N1 3523   3.801   3.778  12.901 -1.0459 -0.2362  0.1735
  228MPD1    H6 3524   3.836   3.873  12.903 -0.5388 -0.4942  2.5181
  228MPD1    H7 3525   3.753   3.763  12.812  1.5548  0.7832 -1.4197
  229MPD1     C 3526   3.085   2.052  14.569 -0.2757 -0.4504 -0.1163
  229MPD1    C1 3527   3.176   1.947  14.542  0.7091 -0.2858 -0.3718
  229MPD1    C2 3528   3.269   1.919  14.641 -0.5127 -0.0799 -0.4369
  229MPD1    C3 3529   3.290   2.015  14.741  0.7592  0.9242 -0.1688
  229MPD1    C4 3530   3.213   2.126  14.755 -0.4569  0.3067  0.4445
  229MPD1    C5 3531   3.107   2.144  14.663  0.1544 -0.2211 -0.4751
  229MPD1     H 3532   3.339   1.838  14.624  1.6245  2.0688 -1.7137
  229MPD1    H1 3533   3.231   2.200  14.833 -1.2131 -0.1891  1.0928
  229MPD1    H2 3534   2.994   2.059  14.511  0.5011  0.9653 -1.1678
  229MPD1    H3 3535   3.026   2.213  14.685 -0.4349 -0.3170 -2.3586
  229MPD1     N 3536   3.395   2.015  14.835 -0.0904  0.8271 -0.2418
  229MPD1    H5 3537   3.404   2.091  14.902 -1.8608  1.8138 -1.1201
  229MPD1    N1 3538   3.156   1.853  14.438 -0.1495 -0.7410  0.0632
  229MPD1    H6 3539   3.244   1.802  14.436  0.0205 -0.3352 -2.9730
  229MPD1    H7 3540   3.157   1.903  14.349  0.6000 -3.2051 -1.3277
  230MPD1     C 3541   3.944   2.578  15.449  0.5531 -0.0112  0.6730
  230MPD1    C1 3542   3.960   2.455  15.512 -0.3202 -0.7427 -0.1191
  230MPD1    C2 3543   3.916   2.340  15.446 -0.1497 -0.5407  0.5327
  230MPD1    C3 3544   3.874   2.340  15.313 -0.2958  0.8774 -0.2491
  230MPD1    C4 3545   3.875   2.464  15.244  0.5120 -0.0779  0.7439
  230MPD1    C5 3546   3.898   2.582  15.316 -0.9318  0.0036  0.9116
  230MPD1     H 3547   3.910   2.245  15.498 -0.4191 -0.8943 -0.1429
  230MPD1    H1 3548   3.846   2.465  15.140  2.6550 -3.5715  0.1026
  230MPD1    H2 3549   3.955   2.669  15.508 -1.2528  2.0016 -2.1068
  230MPD1    H3 3550   3.890   2.676  15.263 -0.3443  0.4058  1.5316
  230MPD1     N 3551   3.821   2.220  15.258 -0.3291 -0.5559 -0.0481
  230MPD1    H5 3552   3.837   2.141  15.320  2.4742 -0.6442 -0.8826
  230MPD1    N1 3553   3.978   2.451  15.647  0.5116  0.7790 -0.0654
  230MPD1    H6 3554   4.026   2.365  15.676  0.4823  0.5132 -0.8196
  230MPD1    H7 3555   4.038   2.526  15.682  1.1956  0.0477  0.3346
  231MPD1     C 3556   2.619   4.302  15.718 -0.4495 -1.0180 -0.0887
  231MPD1    C1 3557   2.505   4.243  15.684 -0.2979 -0.6927  0.1997
  231MPD1    C2 3558   2.456   4.279  15.557 -0.7993  0.4981 -0.0475
  231MPD1    C3 3559   2.494   4.391  15.495  0.5594 -0.2344 -0.7621
  231MPD1    C4 3560   2.599   4.464  15.542 -0.0100  0.7564  0.7539
  231MPD1    C5 3561   2.661   4.415  15.658  0.1712 -0.2901  0.7786
  231MPD1     H 3562   2.381   4.216  15.510 -2.8607  1.9619  1.2643
  231MPD1    H1 3563   2.645   4.544  15.484  1.8576  0.9819  2.5627
  231MPD1    H2 3564   2.673   4.278  15.809  0.3855 -3.0483 -1.1169
  231MPD1    H3 3565   2.743   4.471  15.701 -0.0823  2.0893 -1.7955
  231MPD1     N 3566   2.424   4.429  15.377  0.3340 -0.0443 -0.0860
  231MPD1    H5 3567   2.351   4.364  15.350 -1.4259  2.4565 -1.3117
  231MPD1    N1 3568   2.465   4.131  15.754  0.1333  0.1732 -0.5805
  231MPD1    H6 3569   2.483   4.137  15.854 -1.2045  2.4635 -0.4740
  231MPD1    H7 3570   2.364   4.119  15.752  0.1199  0.0548  1.4659
  232MPD1     C 3571   4.557   1.395   0.272 -0.0450  0.0498 -0.5534
  232MPD1    C1 3572   4.496   1.501   0.327  0.0733  0.2429 -0.1131
  232MPD1    C2 3573   4.382   1.540   0.273 -0.4964 -0.0914 -0.2133
  232MPD1    C3 3574   4.332   1.503   0.151 -0.0065 -0.1924 -0.0900
  232MPD1    C4 3575   4.416   1.417   0.080 -0.4412 -0.3154 -1.3293
  232MPD1    C5 3576   4.525   1.364   0.141  0.4606 -0.6325 -0.3597
  232MPD1     H 3577   4.320   1.603   0.337 -1.1356 -1.7473  0.7878
  232MPD1    H1 3578   4.379   1.371  17.719 -1.3125 -1.2795 -0.4831
  232MPD1    H2 3579   4.640   1.344   0.321 -0.0882  0.4960 -0.0089
  232MPD1    H3 3580   4.570   1.277   0.094 -0.7745 -1.1482 -0.5645
  232MPD1     N 3581   4.206   1.552   0.114  0.0802  0.2266 -0.1069
  232MPD1    H5 3582   4.152   1.611   0.177  0.0540 -1.1898  1.1837
  232MPD1    N1 3583   4.529   1.546   0.457  0.5003  0.0309 -0.4836
  232MPD1    H6 3584   4.627   1.527   0.476 -0.5464 -3.6753  1.3017
  232MPD1    H7 3585   4.518   1.647   0.459 -1.9210 -0.2088 -0.9347
  233MPD1     C 3586   0.866   1.086   2.207 -0.0336  0.1355 -0.0942
  233MPD1    C1 3587   0.828   1.056   2.081 -0.5405  0.6713  0.7897
  233MPD1    C2 3588   0.906   0.982   1.995 -0.5043  0.0851 -0.0415
  233MPD1    C3 3589   1.029   0.938   2.043 -0.1577 -0.3949  0.4333
  233MPD1    C4 3590   1.075   0.976   2.164 -0.0918  0.2962 -0.9817
  233MPD1    C5 3591   0.998   1.052   2.243  0.0586 -0.5868 -0.1109
  233MPD1     H 3592   0.861   0.973   1.897  0.3065 -0.7716 -0.3362
  233MPD1    H1 3593   1.175   0.959   2.202 -0.6215 -0.7911 -0.0807
  233MPD1    H2 3594   0.821   1.162   2.271 -4.1515 -1.1820 -1.3909
  233MPD1    H3 3595   1.041   1.089   2.336 -0.6100  0.2356 -0.1246
  233MPD1     N 3596   1.117   0.859   1.975 -0.0233  0.7384 -0.5185
  233MPD1    H5 3597   1.211   0.836   2.007 -0.0270 -0.2637 -1.2219
  233MPD1    N1 3598   0.718   1.130   2.033  0.1325 -0.0360  0.4783
  233MPD1    H6 3599   0.657   1.156   2.110  0.6326 -0.4791  1.0273
  233MPD1    H7 3600   0.663   1.071   1.970  0.3670 -2.8619  2.8969
  234MPD1     C 3601   2.272   3.783   9.449 -0.1305  0.0751  0.1658
  234MPD1    C1 3602   2.240   3.829   9.320 -0.0160  0.5027 -0.5164
  234MPD1    C2 3603   2.218   3.966   9.308  0.0972 -0.7106  0.2293
  234MPD1    C3 3604   2.203   4.051   9.416 -0.6627  1.1988 -0.1017
  234MPD1    C4 3605   2.235   3.999   9.538  0.0687  0.3410 -1.3060
  234MPD1    C5 3606   2.267   3.870   9.553  0.0534  0.5434 -0.2972
  234MPD1     H 3607   2.202   4.014   9.212 -0.1629  1.6130  1.4276
  234MPD1    H1 3608   2.235   4.056   9.630  1.0584 -0.5174 -0.7790
  234MPD1    H2 3609   2.285   3.679   9.479  2.5657 -0.0012 -1.2700
  234MPD1    H3 3610   2.284   3.838   9.655  0.2640 -2.0380 -1.1426
  234MPD1     N 3611   2.151   4.183   9.389 -0.1661  0.7039  0.8906
  234MPD1    H5 3612   2.145   4.213   9.293 -0.4934  0.5304  0.8560
  234MPD1    N1 3613   2.257   3.745   9.213 -0.4819  0.5644  0.2271
  234MPD1    H6 3614   2.234   3.647   9.228 -0.7310  0.4729 -0.7796
  234MPD1    H7 3615   2.209   3.765   9.126 -1.0678 -0.8905  0.2182
  235MPD1     C 3616   2.614   1.492  10.170  0.1212  0.7158  0.2884
  235MPD1    C1 3617   2.636   1.622  10.147 -0.1113 -0.0357 -0.0363
  235MPD1    C2 3618   2.755   1.683  10.192  1.1558  0.1870  0.4462
  235MPD1    C3 3619   2.828   1.620  10.294 -0.8332 -0.2044 -0.6775
  235MPD1    C4 3620   2.790   1.489  10.332 -0.3576 -0.4383 -0.0897
  235MPD1    C5 3621   2.687   1.428  10.271  1.4381 -0.5967 -0.1625
  235MPD1     H 3622   2.776   1.787  10.169  0.7018  0.9004  3.2306
  235MPD1    H1 3623   2.843   1.428  10.403 -0.0182  0.3681  0.3441
  235MPD1    H2 3624   2.531   1.432  10.133  0.4699 -1.4204  2.9542
  235MPD1    H3 3625   2.646   1.340  10.319  0.4195 -0.6864 -1.1766
  235MPD1     N 3626   2.940   1.692  10.344  0.1127 -0.0559  0.0906
  235MPD1    H5 3627   2.961   1.785  10.307 -1.9015  0.0929 -0.6754
  235MPD1    N1 3628   2.568   1.686  10.045 -0.5252 -0.0020 -0.4230
  235MPD1    H6 3629   2.475   1.649  10.033 -0.4308 -0.4020  0.0881
  235MPD1    H7 3630   2.557   1.786  10.061  1.9505  0.4037 -1.1604
  236MPD1     C 3631   2.030   3.442  10.270  0.4547  0.6628  0.3200
  236MPD1    C1 3632   2.047   3.325  10.190 -0.0104  0.3396 -0.1585
  236MPD1    C2 3633   2.165   3.254  10.201  0.3069  0.4410  0.0465
  236MPD1    C3 3634   2.274   3.311  10.267  0.4135  0.2400 -0.1123
  236MPD1    C4 3635   2.258   3.437  10.317  0.2245  0.2540  0.1909
  236MPD1    C5 3636   2.136   3.498  10.332 -0.6766  0.1500 -0.5241
  236MPD1     H 3637   2.178   3.158  10.153  0.6001  1.0932 -1.1826
  236MPD1    H1 3638   2.336   3.490  10.371  0.4024 -1.5964  1.7561
  236MPD1    H2 3639   1.937   3.498  10.271 -0.8101 -1.4887  1.7610
  236MPD1    H3 3640   2.127   3.592  10.385  0.4732 -0.9660  1.6370
  236MPD1     N 3641   2.398   3.248  10.285  0.3427  0.2238 -0.2951
  236MPD1    H5 3642   2.471   3.307  10.323  1.6432 -2.3862  1.2849
  236MPD1    N1 3643   1.928   3.275  10.134  0.0849 -0.5408 -0.1289
  236MPD1    H6 3644   1.881   3.353  10.088 -2.1620 -0.8626  1.6244
  236MPD1    H7 3645   1.941   3.201  10.065 -2.0334 -1.4673  0.4688
  237MPD1     C 3646   2.645   1.154  15.683  0.2574  0.2786 -0.0612
  237MPD1    C1 3647   2.567   1.169  15.573  0.3366 -0.4422  0.2000
  237MPD1    C2 3648   2.472   1.074  15.535 -0.5131  0.9354  0.1455
  237MPD1    C3 3649   2.430   0.976  15.630  0.5686  0.6947 -0.0895
  237MPD1    C4 3650   2.512   0.967  15.744 -0.1291  0.3821  0.2952
  237MPD1    C5 3651   2.612   1.055  15.770 -0.6638 -0.3068  0.5660
  237MPD1     H 3652   2.425   1.085  15.438 -0.1435 -3.2190 -0.5147
  237MPD1    H1 3653   2.497   0.895  15.823 -1.3721  1.4843  1.0632
  237MPD1    H2 3654   2.728   1.218  15.710  0.5450 -0.9519  2.0189
  237MPD1    H3 3655   2.658   1.052  15.869 -0.0469 -0.3069  0.2785
  237MPD1     N 3656   2.342   0.874  15.602 -0.1798 -0.0130 -0.6697
  237MPD1    H5 3657   2.326   0.805  15.675  0.3170  0.4059 -0.1657
  237MPD1    N1 3658   2.603   1.276  15.485 -0.8692 -0.1719  0.0457
  237MPD1    H6 3659   2.659   1.348  15.530 -0.9431 -0.2702  0.2932
  237MPD1    H7 3660   2.522   1.325  15.450  1.3386  2.4103 -1.4076
  238MPD1     C 3661   4.460   3.886  15.003 -0.2995  1.0905 -0.1808
  238MPD1    C1 3662   4.397   3.774  15.046 -0.4303  0.3647  0.2897
  238MPD1    C2 3663   4.268   3.736  14.996 -0.6495  0.6878  0.0827
  238MPD1    C3 3664   4.201   3.821  14.908  0.2746  0.1652 -0.3915
  238MPD1    C4 3665   4.270   3.932  14.866 -0.0984 -0.3528 -0.3529
  238MPD1    C5 3666   4.394   3.966  14.908 -0.1480 -0.6184  0.1615
  238MPD1     H 3667   4.223   3.639  15.017  0.0128  0.7054  1.5582
  238MPD1    H1 3668   4.228   4.001  14.793  0.2380  0.9606  0.6953
  238MPD1    H2 3669   4.553   3.911  15.053  1.2961  0.6412 -2.9525
  238MPD1    H3 3670   4.446   4.050  14.864 -2.0796  0.0413 -0.8416
  238MPD1     N 3671   4.072   3.799  14.860  0.4435 -0.1897  0.2800
  238MPD1    H5 3672   4.044   3.866  14.790  2.2868  0.6221  0.3319
  238MPD1    N1 3673   4.454   3.700  15.156  0.7473  0.3663 -0.4146
  238MPD1    H6 3674   4.555   3.687  15.159  0.9057  1.7153  0.3026
  238MPD1    H7 3675   4.403   3.613  15.165  1.7220  0.0999  2.4185
  239MPD1     C 3676   4.157   4.534  15.266 -0.0686  0.1359  1.2118
  239MPD1    C1 3677   4.061   4.638  15.277  0.2089 -0.2052 -0.2130
  239MPD1    C2 3678   4.047   4.729  15.175 -0.0952  0.5947  0.0191
  239MPD1    C3 3679   4.148   0.014  15.084  0.3028 -0.0391 -0.4546
  239MPD1    C4 3680   4.244   4.651  15.079 -0.2395 -0.3155 -0.5412
  239MPD1    C5 3681   4.245   4.544  15.164 -0.0665 -0.0676  0.1047
  239MPD1     H 3682   3.956   0.056  15.170 -0.8920 -0.8481 -2.6608
  239MPD1    H1 3683   4.322   4.652  15.005 -0.5498  0.5593 -0.8502
  239MPD1    H2 3684   4.156   4.451  15.336  1.0311 -0.8343  0.0821
  239MPD1    H3 3685   4.325   4.472  15.154 -1.6833 -2.0073  1.1530
  239MPD1     N 3686   4.154   0.117  14.982  0.0515 -0.3765  0.0089
  239MPD1    H5 3687   4.232   0.108  14.917  0.8395  1.3967  0.6848
  239MPD1    N1 3688   3.954   4.617  15.368  0.1918 -0.4183 -0.0901
  239MPD1    H6 3689   3.911   4.707  15.391  0.5732 -0.0728 -0.7640
  239MPD1    H7 3690   3.992   4.589  15.458  2.5019 -1.8225 -1.5180
  240MPD1     C 3691   3.401   0.174  13.869 -0.1355 -0.1775 -0.1656
  240MPD1    C1 3692   3.325   0.069  13.817 -0.3484 -0.7474 -0.4999
  240MPD1    C2 3693   3.331   4.669  13.864 -0.1735  1.1263 -0.0110
  240MPD1    C3 3694   3.431   4.633  13.953 -0.0470 -0.2422 -0.2463
  240MPD1    C4 3695   3.510   0.006  14.004 -0.2950 -0.3512 -0.1982
  240MPD1    C5 3696   3.497   0.139  13.961 -0.6729  0.0991  0.2514
  240MPD1     H 3697   3.265   4.595  13.820  2.4882  0.6743 -3.3155
  240MPD1    H1 3698   3.578   4.711  14.084  1.7583  0.9411 -1.5052
  240MPD1    H2 3699   3.390   0.278  13.839 -0.7595 -0.2794 -0.2868
  240MPD1    H3 3700   3.577   0.207  13.987 -0.4662 -0.5821  1.4322
  240MPD1     N 3701   3.436   4.507  14.012 -0.0178 -0.2249  0.4166
  240MPD1    H5 3702   3.362   4.444  13.984  2.3595 -2.3409 -1.0311
  240MPD1    N1 3703   3.232   0.109  13.716  0.4758 -0.0160  0.0324
  240MPD1    H6 3704   3.279   0.150  13.635  0.6859  0.2209  0.2744
  240MPD1    H7 3705   3.181   0.035  13.667  0.1232  0.8635 -0.9315
  241MPD1     C 3706   3.774   4.028  14.893 -0.0932  0.8537 -0.0377
  241MPD1    C1 3707   3.844   4.105  14.797  0.3516  0.0484  0.1208
  241MPD1    C2 3708   3.787   4.121  14.677  0.1352 -0.5811 -0.2123
  241MPD1    C3 3709   3.671   4.058  14.641  0.4195  0.7216  0.3056
  241MPD1    C4 3710   3.606   3.980  14.732 -0.5659 -0.4293 -1.0948
  241MPD1    C5 3711   3.655   3.968  14.854 -0.0274  0.0172 -0.2191
  241MPD1     H 3712   3.827   4.191  14.606 -1.1835  0.2929 -0.0790
  241MPD1    H1 3713   3.520   3.917  14.715  0.8156 -2.0077 -2.2727
  241MPD1    H2 3714   3.809   4.023  14.995  2.7707  0.3337 -1.0472
  241MPD1    H3 3715   3.592   3.912  14.922 -2.2808  1.1785 -1.3384
  241MPD1     N 3716   3.610   4.071  14.511  0.0237  0.3307 -0.0873
  241MPD1    H5 3717   3.523   4.019  14.498 -0.1086  1.1150 -2.2918
  241MPD1    N1 3718   3.945   4.196  14.834  0.5773  0.5397 -0.0477
  241MPD1    H6 3719   4.003   4.164  14.912 -0.1642  1.8772  1.0432
  241MPD1    H7 3720   4.004   4.230  14.759  1.7722 -0.3934  0.4632
  242MPD1     C 3721   3.305   3.446  15.352  0.6686  0.1889 -0.6088
  242MPD1    C1 3722   3.438   3.499  15.340 -0.3295 -0.4316  0.1084
  242MPD1    C2 3723   3.529   3.416  15.279  0.0927 -0.1651  0.5160
  242MPD1    C3 3724   3.497   3.291  15.219  0.2582  0.2427 -0.2730
  242MPD1    C4 3725   3.365   3.249  15.229  0.1161 -1.1707 -0.6614
  242MPD1    C5 3726   3.272   3.323  15.298 -0.2870 -0.1195  0.3590
  242MPD1     H 3727   3.633   3.444  15.293  0.0693  0.3837 -0.4355
  242MPD1    H1 3728   3.323   3.161  15.183  0.0629 -0.4935 -1.9242
  242MPD1    H2 3729   3.225   3.511  15.385 -0.6045 -1.6837 -0.0010
  242MPD1    H3 3730   3.170   3.286  15.293 -0.0548 -1.1959  3.1708
  242MPD1     N 3731   3.584   3.222  15.134 -0.4754  0.1554 -0.6326
  242MPD1    H5 3732   3.553   3.128  15.111 -0.4226  0.0746 -0.3735
  242MPD1    N1 3733   3.470   3.620  15.406  0.1652 -0.4067  0.3588
  242MPD1    H6 3734   3.393   3.686  15.396  1.3028  0.9919  0.8255
  242MPD1    H7 3735   3.558   3.656  15.370 -1.7857  2.4319 -1.5569
  243MPD1     C 3736   0.081   1.017   0.018 -0.6093  0.8309  0.2716
  243MPD1    C1 3737   0.066   1.067  17.630 -0.4653  0.0407  0.6588
  243MPD1    C2 3738   0.074   0.984  17.522  0.2486 -0.6233 -0.3607
  243MPD1    C3 3739   0.115   0.849  17.544 -0.6774 -0.2695  0.2459
  243MPD1    C4 3740   0.132   0.792  17.673 -0.0527  0.5058 -0.0148
  243MPD1    C5 3741   0.099   0.880   0.039  0.3222 -0.0719  1.5558
  243MPD1     H 3742   0.057   1.026  17.423  0.8518 -2.2204 -1.1351
  243MPD1    H1 3743   0.155   0.690  17.702 -0.6276  0.6858  1.0809
  243MPD1    H2 3744   0.077   1.086   0.102 -0.5675  0.8469  0.2605
  243MPD1    H3 3745   0.117   0.838   0.137  0.4805 -1.4736  0.9288
  243MPD1     N 3746   0.136   0.767  17.437  0.4461  1.1262 -0.2214
  243MPD1    H5 3747   0.099   0.801  17.348 -0.7127 -0.2579 -0.2542
  243MPD1    N1 3748   0.029   1.195  17.606  0.4408 -0.0143  0.3341
  243MPD1    H6 3749   0.042   1.230  17.511  0.9257 -0.7039  0.1442
  243MPD1    H7 3750   0.047   1.254  17.687  0.9636  2.2499 -1.4186
  244MPD1     C 3751   0.068   4.519  16.927 -0.0683 -0.3092  0.1668
  244MPD1    C1 3752   4.698   4.608  16.889 -0.0183  0.4853 -0.3069
  244MPD1    C2 3753   4.697   0.005  16.947 -0.1618  0.9027  0.0656
  244MPD1    C3 3754   0.062   0.050  17.040 -0.1398 -0.0998 -0.7104
  244MPD1    C4 3755   0.152   4.687  17.074  0.4655  0.0996 -0.5051
  244MPD1    C5 3756   0.148   4.554  17.032  1.0682 -0.2428 -0.7635
  244MPD1     H 3757   4.625   0.080  16.917  1.4525  1.8927 -1.3130
  244MPD1    H1 3758   0.216   4.704  17.160  2.9891 -1.9595 -1.9958
  244MPD1    H2 3759   0.072   4.421  16.883  0.4076 -0.1049 -0.2492
  244MPD1    H3 3760   0.203   4.477  17.085 -0.8051 -0.3992  0.9427
  244MPD1     N 3761   0.071   0.181  17.082  0.0810  0.1152 -0.5471
  244MPD1    H5 3762   4.727   0.235  17.043 -1.3616 -2.4099 -1.2582
  244MPD1    N1 3763   4.617   4.583  16.775 -0.0591  0.3061 -0.1497
  244MPD1    H6 3764   4.606   4.486  16.749 -1.3819 -0.2916  2.6522
  244MPD1    H7 3765   4.521   4.611  16.795  0.0752  1.6883 -1.4191
  245MPD1     C 3766   1.979   1.739  12.955  0.0497 -0.4426 -0.0453
  245MPD1    C1 3767   1.967   1.714  13.088  0.0355  0.1634  0.1583
  245MPD1    C2 3768   1.962   1.822  13.174 -0.0362 -0.4643  0.1560
  245MPD1    C3 3769   1.974   1.952  13.127  0.6106 -0.1741  0.3495
  245MPD1    C4 3770   1.987   1.976  12.989  0.2121  0.1503  0.0137
  245MPD1    C5 3771   1.993   1.869  12.907 -0.4475  0.3735  0.6479
  245MPD1     H 3772   1.945   1.810  13.280  2.0526 -2.8914  0.1893
  245MPD1    H1 3773   2.001   2.073  12.943  0.3125 -0.9027 -2.1686
  245MPD1    H2 3774   1.978   1.660  12.881 -0.0927  1.0195 -1.5940
  245MPD1    H3 3775   2.009   1.898  12.804 -0.5729  0.1477  0.5669
  245MPD1     N 3776   1.983   2.061  13.220  0.0192  0.2793  0.5083
  245MPD1    H5 3777   1.978   2.041  13.319 -0.4232  1.1948  0.6728
  245MPD1    N1 3778   1.925   1.591  13.126  0.1812  0.2230 -0.2120
  245MPD1    H6 3779   1.977   1.522  13.072 -0.1223 -0.2026  0.0416
  245MPD1    H7 3780   1.935   1.576  13.226  0.0039 -0.5289 -0.3061
  246MPD1     C 3781   3.085   0.532   9.743  0.4224 -0.6244 -0.6669
  246MPD1    C1 3782   3.080   0.404   9.775 -0.4115  0.1090  0.8440
  246MPD1    C2 3783   2.970   0.332   9.743 -0.0337  0.5751 -0.1440
  246MPD1    C3 3784   2.853   0.396   9.704 -0.0037  0.2663  0.5272
  246MPD1    C4 3785   2.851   0.533   9.695  0.0807 -0.6719  0.0815
  246MPD1    C5 3786   2.975   0.595   9.704  0.0703  0.1771 -1.0268
  246MPD1     H 3787   2.966   0.225   9.764  0.7587  0.6832  0.5529
  246MPD1    H1 3788   2.760   0.591   9.691 -0.9526 -2.1503  2.6468
  246MPD1    H2 3789   3.175   0.583   9.774 -0.9183  1.9035 -0.9305
  246MPD1    H3 3790   2.976   0.703   9.689 -0.3378  0.4406  0.7867
  246MPD1     N 3791   2.745   0.317   9.686  0.3040 -0.7377 -0.4111
  246MPD1    H5 3792   2.769   0.218   9.692 -0.8142 -1.0220 -0.6759
  246MPD1    N1 3793   3.187   0.330   9.825 -0.3704  0.3405 -0.1271
  246MPD1    H6 3794   3.168   0.238   9.863 -0.9920  1.1417  1.5447
  246MPD1    H7 3795   3.251   0.384   9.884 -0.8591 -0.7969  1.4381
  247MPD1     C 3796   1.474   1.865  16.752  0.4967  0.0792  0.1121
  247MPD1    C1 3797   1.546   1.934  16.663 -0.0496 -1.0403 -0.0674
  247MPD1    C2 3798   1.532   1.915  16.527  0.3128 -0.2345 -0.6562
  247MPD1    C3 3799   1.444   1.830  16.483  0.2811  0.2446 -0.1913
  247MPD1    C4 3800   1.363   1.764  16.574 -0.4311 -0.4605 -0.3219
  247MPD1    C5 3801   1.382   1.777  16.706 -0.1521  0.1605  0.3414
  247MPD1     H 3802   1.590   1.985  16.468  0.2651 -1.3657 -2.0457
  247MPD1    H1 3803   1.283   1.698  16.540  0.6180 -0.4235 -2.8678
  247MPD1    H2 3804   1.488   1.875  16.859  1.1470  0.9638 -0.0593
  247MPD1    H3 3805   1.317   1.743  16.786  1.3956 -1.0693  1.0905
  247MPD1     N 3806   1.415   1.818  16.344  0.2355 -0.3052  0.3595
  247MPD1    H5 3807   1.329   1.774  16.313  0.6941 -0.6678 -0.4015
  247MPD1    N1 3808   1.640   2.028  16.703  0.2907 -0.1235 -0.9913
  247MPD1    H6 3809   1.720   2.041  16.642 -0.2775 -0.7659 -1.8594
  247MPD1    H7 3810   1.668   2.013  16.800 -0.3496  0.5190 -0.7093
  248MPD1     C 3811   2.300   2.611   0.488  0.0724 -0.3339 -0.1780
  248MPD1    C1 3812   2.356   2.500   0.444 -0.3473 -0.2270 -0.0121
  248MPD1    C2 3813   2.268   2.410   0.385  0.4354 -0.2432  1.1888
  248MPD1    C3 3814   2.138   2.428   0.373  0.8126  0.2503  0.3022
  248MPD1    C4 3815   2.082   2.539   0.436 -0.2778 -0.0965 -0.1890
  248MPD1    C5 3816   2.164   2.628   0.495 -0.3088  0.4702  0.5078
  248MPD1     H 3817   2.321   2.321   0.353  1.7804  0.3442  1.7862
  248MPD1    H1 3818   1.976   2.562   0.440 -0.8573 -2.7007 -0.4166
  248MPD1    H2 3819   2.367   2.688   0.525 -0.5727 -0.0903  0.4896
  248MPD1    H3 3820   2.123   2.723   0.526  0.7859  0.8470  0.8232
  248MPD1     N 3821   2.070   2.319   0.313 -0.3282 -0.0266  0.3687
  248MPD1    H5 3822   2.130   2.245   0.279  0.5060  1.2882 -0.9902
  248MPD1    N1 3823   2.488   2.496   0.434 -0.2739  0.2899  0.1817
  248MPD1    H6 3824   2.532   2.552   0.507  0.0161 -2.4717  2.1129
  248MPD1    H7 3825   2.510   2.397   0.444 -0.2007  0.2471 -0.4200
  249MPD1     C 3826   3.556   1.372  10.262  0.0451 -1.4156 -0.0251
  249MPD1    C1 3827   3.666   1.386  10.340  0.5804 -0.2730  0.2078
  249MPD1    C2 3828   3.732   1.276  10.381  0.0216  0.9800  0.2166
  249MPD1    C3 3829   3.700   1.146  10.355 -0.3357  0.0582  0.2715
  249MPD1    C4 3830   3.579   1.131  10.276  0.1472 -0.4102  0.2700
  249MPD1    C5 3831   3.516   1.246  10.239  0.0948 -0.0871 -0.0412
  249MPD1     H 3832   3.820   1.291  10.442 -0.6992 -1.9927  1.9997
  249MPD1    H1 3833   3.540   1.031  10.258 -1.7569  0.5139 -0.6363
  249MPD1    H2 3834   3.507   1.462  10.225 -0.6533 -1.8560 -0.1620
  249MPD1    H3 3835   3.431   1.232  10.173 -0.6271  2.1545  0.3973
  249MPD1     N 3836   3.771   1.040  10.411  0.2337  0.3671 -0.2345
  249MPD1    H5 3837   3.847   1.065  10.474  0.1094 -0.9628  0.4336
  249MPD1    N1 3838   3.708   1.518  10.366 -0.0800  0.0001  0.0500
  249MPD1    H6 3839   3.641   1.595  10.375  0.6647  1.2281 -4.7089
  249MPD1    H7 3840   3.783   1.538  10.432  1.0288  0.3965 -1.3143
  250MPD2     C 3841   0.780   0.599  13.294  0.1593  0.0207  0.0701
  250MPD2    C1 3842   0.661   0.663  13.270  0.3767 -0.6056  0.3704
  250MPD2    C2 3843   0.553   0.600  13.212 -0.4266  0.2706  0.5644
  250MPD2    C3 3844   0.577   0.466  13.169 -0.8339 -0.8324 -0.1544
  250MPD2    C4 3845   0.693   0.400  13.201 -0.0279  0.5220  0.5381
  250MPD2    C5 3846   0.787   0.461  13.278  0.5890 -0.4577 -0.0635
  250MPD2     H 3847   0.459   0.650  13.193 -0.4328  0.6704  1.6121
  250MPD2    H1 3848   0.713   0.298  13.169 -0.3315  0.2814  1.1312
  250MPD2    H2 3849   0.854   0.645  13.359 -0.3517  0.6510  0.1963
  250MPD2    H3 3850   0.881   0.414  13.304  2.3404  2.0860 -1.8253
  250MPD2     N 3851   0.487   0.398  13.084 -0.2897  0.7958  0.2449
  250MPD2    H5 3852   0.501   0.299  13.070  0.3371  0.9057  0.1100
  250MPD2    N1 3853   0.666   0.802  13.310 -0.3026  0.1331  0.0418
  250MPD2    H7 3854   0.755   0.845  13.336 -0.8364  0.5319  1.2034
  251TMC3    C1 3855   0.608   1.026  13.291 -0.0354 -0.1178 -0.0261
  251TMC3    C2 3856   0.514   1.123  13.309 -0.6352 -0.5256  1.0168
  251TMC3    C3 3857   0.531   1.254  13.251  0.5383  0.2045 -0.6882
  251TMC3    C4 3858   0.716   1.046  13.209  0.1752  0.9477 -0.3389
  251TMC3    C5 3859   0.743   1.176  13.177 -0.4501  0.2633  0.0223
  251TMC3    C6 3860   0.657   1.282  13.199 -0.1746  0.1803 -0.3582
  251TMC3     C 3861   0.560   0.889  13.295 -0.5781  0.2265  0.6108
  251TMC3     O 3862   0.440   0.866  13.282  0.4016  0.1517  0.8025
  251TMC3     H 3863   0.415   1.095  13.341 -0.8872  0.9353  1.5518
  251TMC3    H1 3864   0.789   0.972  13.181  0.3378  0.8319  0.3742
  251TMC3    H2 3865   0.679   1.384  13.172  1.0705  0.3881  1.4020
  251TMC3    C7 3866   0.886   1.200  13.177 -0.3005  0.2940 -0.4855
  251TMC3    C8 3867   0.418   1.349  13.239  0.2525 -0.1885 -0.0429
  251TMC3    O1 3868   0.955   1.110  13.218 -0.2655  0.4157 -0.1429
  251TMC3    O2 3869   0.309   1.316  13.283 -0.3296  0.1482 -0.1593
  252TMC3    C1 3870   1.088   2.176   9.589 -0.6808  0.0464 -0.2901
  252TMC3    C2 3871   1.194   2.246   9.539 -0.9982 -0.0642 -0.8215
  252TMC3    C3 3872   1.208   2.370   9.587 -0.0518 -0.0333 -0.0492
  252TMC3    C4 3873   1.006   2.210   9.689  0.6978 -1.3746 -0.1255
  252TMC3    C5 3874   1.031   2.334   9.746  0.1928  0.8752  0.5358
  252TMC3    C6 3875   1.127   2.415   9.691  0.4031 -0.2944 -0.1802
  252TMC3     C 3876   1.099   2.034   9.561  0.3409 -0.8996 -0.7735
  252TMC3     O 3877   1.192   1.990   9.500 -0.0382 -0.8295 -0.1372
  252TMC3     H 3878   1.264   2.216   9.462 -1.1296 -0.2125 -0.8836
  252TMC3    H1 3879   0.911   2.165   9.719 -0.4505  1.9455  1.2321
  252TMC3    H2 3880   1.147   2.515   9.729 -3.5068  0.1644  0.6514
  252TMC3    C7 3881   0.945   2.378   9.845 -0.0802 -0.4008 -0.1999
  252TMC3    C8 3882   1.330   2.448   9.557 -0.6711  0.0624 -0.9581
  252TMC3    O1 3883   0.905   2.490   9.837  0.4276  0.6501  0.1121
  252TMC3    O2 3884   1.375   2.448   9.443 -0.0408  0.2179  0.0936
  253MPD2     C 3885   1.950   1.103  15.379 -0.4255  0.2881 -0.1470
  253MPD2    C1 3886   1.823   1.044  15.363 -1.1293 -0.5245  0.0446
  253MPD2    C2 3887   1.764   0.981  15.472  0.3671  0.7054 -0.2218
  253MPD2    C3 3888   1.828   0.970  15.590 -0.4316 -0.2050 -0.0318
  253MPD2    C4 3889   1.955   1.017  15.605  0.4344  0.3849  0.4410
  253MPD2    C5 3890   2.009   1.089  15.503  0.2168  0.0470  0.1400
  253MPD2     H 3891   1.656   0.970  15.476  0.3193  1.6113  0.8367
  253MPD2    H1 3892   2.018   1.001  15.691  0.3732 -3.0456 -0.1762
  253MPD2    H2 3893   2.011   1.151  15.303  1.2380  0.4504  1.2907
  253MPD2    H3 3894   2.101   1.142  15.525  0.8191 -1.3164  0.8678
  253MPD2     N 3895   1.764   0.925  15.705  0.7324 -0.2269  0.3887
  253MPD2    H5 3896   1.814   0.946  15.792  0.2210  4.6876 -0.4617
  253MPD2    N1 3897   1.753   1.045  15.236  0.2393  0.3019  0.0131
  253MPD2    H7 3898   1.664   0.997  15.238  0.1927  0.3527 -0.7483
  254TMC3    C1 3899   1.590   0.838  15.846 -0.0098  0.1564 -0.2639
  254TMC3    C2 3900   1.453   0.806  15.852  0.3281  0.3938 -0.5875
  254TMC3    C3 3901   1.396   0.820  15.976 -0.8358  0.1976 -0.0435
  254TMC3    C4 3902   1.673   0.835  15.949 -0.6135  0.0996 -0.5155
  254TMC3    C5 3903   1.621   0.823  16.075 -0.1023  0.4756  0.0352
  254TMC3    C6 3904   1.479   0.828  16.088 -0.0831  0.2398  0.4395
  254TMC3     C 3905   1.649   0.851  15.715 -0.3200  0.7014  0.2699
  254TMC3     O 3906   1.581   0.805  15.626  0.0368 -0.6237  0.1646
  254TMC3     H 3907   1.390   0.806  15.765 -0.2641 -1.3439 -0.1621
  254TMC3    H1 3908   1.777   0.808  15.931 -0.6396 -1.3965  1.6425
  254TMC3    H2 3909   1.422   0.810  16.179  1.5677  0.4855  1.5326
  254TMC3    C7 3910   1.696   0.772  16.189 -0.0230  0.9480 -0.2789
  254TMC3    C8 3911   1.255   0.792  15.993  0.3636 -0.0699  0.6982
  254TMC3    O1 3912   1.631   0.707  16.271  1.0332 -0.7014  0.5438
  254TMC3    O2 3913   1.221   0.838  16.099 -0.3706  0.3010  0.4706
  255MPD2     C 3914   0.468   3.678  10.382  0.6000  0.4067  0.4511
  255MPD2    C1 3915   0.452   3.792  10.313 -0.1109 -0.2145 -0.2646
  255MPD2    C2 3916   0.473   3.793  10.177  0.4406 -0.1778  0.2957
  255MPD2    C3 3917   0.494   3.670  10.107 -0.0576 -0.9602 -0.3821
  255MPD2    C4 3918   0.491   3.552  10.174  0.0108  0.4313 -0.6399
  255MPD2    C5 3919   0.488   3.559  10.313 -0.3070 -0.1529 -0.6326
  255MPD2     H 3920   0.464   3.888  10.124 -0.9549 -0.6817 -0.3885
  255MPD2    H1 3921   0.494   3.460  10.116 -1.5717  0.9512 -1.5286
  255MPD2    H2 3922   0.444   3.684  10.487  0.2823  2.4124  0.2635
  255MPD2    H3 3923   0.487   3.466  10.367 -0.5202  1.1856  1.6789
  255MPD2     N 3924   0.501   3.678   9.966  0.7288  0.3912 -0.4646
  255MPD2    H5 3925   0.486   3.772   9.933 -0.6764  0.0177 -0.8869
  255MPD2    N1 3926   0.423   3.912  10.390 -0.0337 -0.2568  0.1239
  255MPD2    H7 3927   0.408   3.907  10.490  0.4815 -0.9296  0.1659
  256TMC3    C1 3928   0.344   4.128  10.430 -0.2378 -0.2370 -0.1324
  256TMC3    C2 3929   0.349   4.265  10.428 -0.1285  0.3451  0.3652
  256TMC3    C3 3930   0.245   4.330  10.490 -0.0702  0.2698 -0.3952
  256TMC3    C4 3931   0.242   4.068  10.510  0.0009 -0.3967 -0.1388
  256TMC3    C5 3932   0.149   4.137  10.581 -0.7320 -0.2195 -0.2779
  256TMC3    C6 3933   0.154   4.274  10.572 -0.1314 -0.2619 -0.4220
  256TMC3     C 3934   0.426   4.045  10.347  1.0687  0.4947  0.6308
  256TMC3     O 3935   0.461   4.090  10.237 -0.0230  0.1657 -0.3568
  256TMC3     H 3936   0.417   4.317  10.362  0.0788 -0.5642 -0.1237
  256TMC3    H1 3937   0.231   3.960  10.504  1.1845 -0.6641  2.3523
  256TMC3    H2 3938   0.076   4.333  10.620  0.4766  0.4399 -0.2939
  256TMC3    C7 3939   0.014   4.084  10.561 -0.5533  0.1301 -0.8720
  256TMC3    C8 3940   0.247   4.472  10.498 -0.7578 -0.4476  0.5573
  256TMC3    O1 3941   4.722   4.030  10.449 -0.1533 -0.3505 -0.1054
  256TMC3    O2 3942   0.185   4.531  10.584 -0.1617 -0.1537  0.4147
  257MPD2     C 3943   3.915   0.555  13.588 -0.3248  0.0022 -0.3899
  257MPD2    C1 3944   3.861   0.476  13.489 -0.0771 -0.3780  0.6774
  257MPD2    C2 3945   3.805   0.350  13.521  0.6515 -0.3098 -0.3610
  257MPD2    C3 3946   3.828   0.305  13.649 -0.3760  1.0132 -0.2265
  257MPD2    C4 3947   3.888   0.384  13.750 -0.0227 -0.2941  0.1552
  257MPD2    C5 3948   3.926   0.510  13.713 -0.5808 -0.3909  0.5660
  257MPD2     H 3949   3.763   0.284  13.447 -1.0196 -0.7114  0.9198
  257MPD2    H1 3950   3.906   0.347  13.851 -2.5494 -1.0196  0.3588
  257MPD2    H2 3951   3.954   0.654  13.567 -0.6980  0.0566 -0.8263
  257MPD2    H3 3952   3.969   0.575  13.788 -1.6506 -0.1859  0.9906
  257MPD2     N 3953   3.794   0.174  13.670  0.4607  0.1696 -0.2907
  257MPD2    H5 3954   3.756   0.129  13.587  1.2274  2.9122 -2.1486
  257MPD2    N1 3955   3.868   0.518  13.357  0.4749  0.7138  0.0879
  257MPD2    H7 3956   3.817   0.466  13.287 -1.0413 -0.7944  2.2927
  258TMC3    C1 3957   3.807   4.698  13.756 -0.4059  0.2375  0.4674
  258TMC3    C2 3958   3.741   4.651  13.648  0.2749  0.4951  0.2100
  258TMC3    C3 3959   3.772   4.529  13.613 -0.0965  0.1299  0.0917
  258TMC3    C4 3960   3.894   4.628  13.838 -0.7252  0.2557  0.2032
  258TMC3    C5 3961   3.925   4.505  13.796 -0.5951  0.4709  0.0712
  258TMC3    C6 3962   3.861   4.451  13.684  0.0741  0.1003 -0.2797
  258TMC3     C 3963   3.813   0.101  13.783 -0.0044 -0.1797  1.0593
  258TMC3     O 3964   3.857   0.137  13.891  0.1252  0.1825  0.1793
  258TMC3     H 3965   3.660   4.704  13.599  1.3278  0.9008 -1.1074
  258TMC3    H1 3966   3.928   4.657  13.937 -0.0804  0.2043 -0.0016
  258TMC3    H2 3967   3.883   4.347  13.662 -1.6632  0.1104 -2.1072
  258TMC3    C7 3968   3.983   4.411  13.886 -0.1008 -0.7142 -0.0663
  258TMC3    C8 3969   3.711   4.468  13.502 -0.1394 -0.0684 -0.0862
  258TMC3    O1 3970   3.952   4.289  13.876  0.1580 -0.5722 -0.6583
  258TMC3    O2 3971   3.729   4.350  13.489 -0.5805  1.0824  0.5982
  259MPD2     C 3972   2.805   2.056   0.448  0.5269 -0.8718 -0.7257
  259MPD2    C1 3973   2.920   2.042   0.512  0.0180 -0.2619  0.5750
  259MPD2    C2 3974   3.031   2.018   0.440  0.2569  0.2240  0.9276
  259MPD2    C3 3975   3.032   2.012   0.305 -0.5695  0.1999 -0.2418
  259MPD2    C4 3976   2.911   2.017   0.238  0.1843  0.1575  0.3072
  259MPD2    C5 3977   2.804   2.048   0.315  0.5011 -0.3802  0.1239
  259MPD2     H 3978   3.130   2.009   0.483  0.2895 -0.0985  0.7832
  259MPD2    H1 3979   2.908   2.003   0.131  0.9815 -0.5556  0.3743
  259MPD2    H2 3980   2.718   2.079   0.509 -0.8915 -2.3943 -2.1919
  259MPD2    H3 3981   2.712   2.049   0.257  0.3030 -0.4267  0.4368
  259MPD2     N 3982   3.160   2.014   0.240  0.3938 -0.4293 -0.3031
  259MPD2    H5 3983   3.239   2.004   0.303  0.1307 -1.4276 -0.1269
  259MPD2    N1 3984   2.918   2.059   0.652 -0.6364 -0.4370 -0.3843
  259MPD2    H7 3985   2.832   2.100   0.689 -1.3761 -0.8628 -1.6506
  260TMC3    C1 3986   3.320   1.979   0.078  0.0709  0.1864  0.1901
  260TMC3    C2 3987   3.365   2.015  17.683  0.2297 -0.2467  0.9794
  260TMC3    C3 3988   3.499   1.993  17.663 -0.2307 -0.8544  1.0331
  260TMC3    C4 3989   3.403   1.922   0.179 -0.4696  0.9970  0.0167
  260TMC3    C5 3990   3.535   1.897   0.149  0.0721  0.8801  0.0356
  260TMC3    C6 3991   3.585   1.945   0.027  0.0434  0.1874  0.2698
  260TMC3     C 3992   3.185   2.008   0.104  0.2989  0.0010 -0.2126
  260TMC3     O 3993   3.106   2.020   0.012  0.1743  0.2393 -0.2335
  260TMC3     H 3994   3.306   2.064  17.606  0.9657  2.2508  2.0148
  260TMC3    H1 3995   3.366   1.897   0.278  1.0418  1.5218  0.7027
  260TMC3    H2 3996   3.688   1.928  17.729 -0.2284  0.3312 -0.8375
  260TMC3    C7 3997   3.563   1.754   0.143 -0.4654  0.1107  0.8403
  260TMC3    C8 3998   3.524   1.965  17.526 -0.1649  0.0404 -0.0792
  260TMC3    O1 3999   3.622   1.726   0.040  0.7905 -0.5571 -0.2728
  260TMC3    O2 4000   3.454   2.017  17.437  0.5774  0.6209  0.0831
  261MPD2     C 4001   4.570   0.468  12.580  0.0665  0.5435 -0.1649
  261MPD2    C1 4002   4.698   0.507  12.631  0.1885  0.2174  0.1480
  261MPD2    C2 4003   0.039   0.615  12.575  0.2871 -0.6503 -0.4301
  261MPD2    C3 4004   4.728   0.673  12.455 -0.5038 -0.7221  0.7779
  261MPD2    C4 4005   4.613   0.622  12.396 -0.4433 -0.2346 -0.2082
  261MPD2    C5 4006   4.532   0.531  12.459  1.0170 -0.3978 -1.2437
  261MPD2     H 4007   0.140   0.633  12.611 -0.0930  1.4363 -0.3950
  261MPD2    H1 4008   4.571   0.653  12.301 -0.2538  0.7237  0.0221
  261MPD2    H2 4009   4.511   0.383  12.613  2.6695 -0.8971  0.7531
  261MPD2    H3 4010   4.445   0.484  12.415  2.2490 -2.1430 -1.8158
  261MPD2     N 4011   0.085   0.765  12.395 -0.9933 -0.2393 -0.4372
  261MPD2    H5 4012   0.174   0.782  12.440 -1.5680  2.5053 -0.3318
  261MPD2    N1 4013   0.024   0.444  12.743  0.2182  0.2705  0.1400
  261MPD2    H7 4014   0.117   0.473  12.770 -0.0554 -1.0788  2.5692
  262TMC3    C1 4015   0.183   0.863  12.202 -0.9432 -0.0782  0.3365
  262TMC3    C2 4016   0.163   0.948  12.096 -0.4645  0.3107 -0.6560
  262TMC3    C3 4017   0.266   0.954  12.002  0.1165 -0.6634  0.3263
  262TMC3    C4 4018   0.303   0.799  12.209  0.1662  0.3987  0.3168
  262TMC3    C5 4019   0.401   0.807  12.112 -0.1583  0.0885  0.5071
  262TMC3    C6 4020   0.385   0.890  12.004  0.0564 -0.2589 -0.1165
  262TMC3     C 4021   0.066   0.817  12.268 -0.3261  0.0391  0.1256
  262TMC3     O 4022   4.695   0.827  12.206 -0.5534  0.3725  0.6714
  262TMC3     H 4023   0.066   0.998  12.095  0.8233  2.8355 -1.0118
  262TMC3    H1 4024   0.329   0.737  12.294  1.1510  0.9748  0.4341
  262TMC3    H2 4025   0.448   0.887  11.916 -0.9741  0.6206 -0.8922
  262TMC3    C7 4026   0.534   0.760  12.148 -0.0991 -0.1881 -0.3082
  262TMC3    C8 4027   0.242   1.067  11.916 -0.3556 -0.4509 -0.3516
  262TMC3    O1 4028   0.554   0.699  12.252 -1.0377 -0.1335  0.1613
  262TMC3    O2 4029   0.334   1.152  11.908  0.5148 -0.5560  0.4592
  263MPD2     C 4030   1.076   0.042  11.975 -0.5235 -0.2458 -0.0719
  263MPD2    C1 4031   1.171   4.723  11.892 -0.0252 -0.2192 -0.2819
  263MPD2    C2 4032   1.195   0.059  11.775  1.0611  0.7736  0.3202
  263MPD2    C3 4033   1.122   0.171  11.731  0.5319  0.3716  0.4902
  263MPD2    C4 4034   1.014   0.206  11.811  0.3988  0.1139  0.0917
  263MPD2    C5 4035   0.989   0.139  11.928  0.1098  0.3005  0.2641
  263MPD2     H 4036   1.281   0.028  11.717  0.8789  1.1156 -0.1294
  263MPD2    H1 4037   0.957   0.296  11.792 -0.9520 -1.1096 -1.6194
  263MPD2    H2 4038   1.063   0.001  12.075 -1.5308  2.2134  0.8038
  263MPD2    H3 4039   0.907   0.174  11.990  0.7956  1.4073  0.5400
  263MPD2     N 4040   1.165   0.250  11.617 -0.6231  0.6806  0.3547
  263MPD2    H5 4041   1.113   0.337  11.605 -0.5894  0.6036 -0.3610
  263MPD2    N1 4042   1.247   4.611  11.931 -0.1678 -0.3369 -0.3364
  263MPD2    H7 4043   1.222   4.575  12.023  0.0722  0.3686  0.0053
  264TMC3    C1 4044   1.274   0.330  11.425  0.0278 -0.0654  0.5008
  264TMC3    C2 4045   1.253   0.454  11.480 -0.3136 -0.4740  0.4438
  264TMC3    C3 4046   1.239   0.558  11.395 -0.1619  0.4651  0.0708
  264TMC3    C4 4047   1.265   0.312  11.291  0.1763 -0.5846  0.1861
  264TMC3    C5 4048   1.257   0.423  11.213  0.4277 -0.0317  1.0178
  264TMC3    C6 4049   1.241   0.546  11.257 -0.1441  0.5551  0.3838
  264TMC3     C 4050   1.250   0.215  11.520  0.1438 -0.3844 -0.1464
  264TMC3     O 4051   1.298   0.105  11.494 -0.4433  0.4001 -0.1633
  264TMC3     H 4052   1.241   0.464  11.587  1.6190  0.3551  0.5874
  264TMC3    H1 4053   1.272   0.211  11.251 -0.6357 -1.0403  1.1913
  264TMC3    H2 4054   1.259   0.632  11.193 -3.2790 -0.5390 -1.9417
  264TMC3    C7 4055   1.235   0.410  11.066  0.5861 -0.2218 -0.4682
  264TMC3    C8 4056   1.278   0.686  11.452 -0.8291  0.6983  0.1954
  264TMC3    O1 4057   1.265   0.506  11.003  0.0939 -0.2361 -0.0155
  264TMC3    O2 4058   1.324   0.769  11.375  0.1113 -0.0698  0.2181
  265MPD2     C 4059   2.551   0.326  15.446  0.1333  0.4060  0.4736
  265MPD2    C1 4060   2.644   0.427  15.410 -0.1480 -0.3278  0.0445
  265MPD2    C2 4061   2.716   0.404  15.294  0.2656  0.4015  0.6519
  265MPD2    C3 4062   2.699   0.290  15.220  0.0937 -0.0293  0.1874
  265MPD2    C4 4063   2.610   0.200  15.259  0.4845 -0.3269 -0.5661
  265MPD2    C5 4064   2.537   0.212  15.376  0.3816 -0.5839  0.8267
  265MPD2     H 4065   2.795   0.471  15.262  1.2922  0.3853  3.1865
  265MPD2    H1 4066   2.592   0.109  15.204  0.5089 -0.3711 -0.5022
  265MPD2    H2 4067   2.484   0.339  15.531 -1.9582 -1.3283 -0.9092
  265MPD2    H3 4068   2.465   0.137  15.406 -0.3398 -0.2027  0.0337
  265MPD2     N 4069   2.775   0.248  15.104  0.3065 -0.9746 -0.1598
  265MPD2    H5 4070   2.739   0.166  15.054 -1.2755 -0.8294  0.7439
  265MPD2    N1 4071   2.663   0.548  15.486  0.3141 -0.5411 -0.1169
  265MPD2    H7 4072   2.736   0.611  15.455  1.1200 -1.8921 -0.9407
  266TMC3    C1 4073   2.676   0.671  15.679 -0.2137 -0.6453  0.2768
  266TMC3    C2 4074   2.696   0.645  15.814  0.9764  0.4078 -0.7401
  266TMC3    C3 4075   2.783   0.721  15.884 -0.2497 -0.6445 -0.3581
  266TMC3    C4 4076   2.742   0.772  15.624  0.3549  0.2566  0.0270
  266TMC3    C5 4077   2.850   0.838  15.687  0.4307  0.3870  0.8023
  266TMC3    C6 4078   2.864   0.809  15.819  0.1174  0.0141  0.8327
  266TMC3     C 4079   2.618   0.558  15.612  0.7663  0.4389 -0.4398
  266TMC3     O 4080   2.561   0.479  15.686  0.3576  0.0387 -0.6072
  266TMC3     H 4081   2.647   0.561  15.861  2.6413 -0.9713 -1.4797
  266TMC3    H1 4082   2.721   0.801  15.521  0.8391  1.0490  0.1485
  266TMC3    H2 4083   2.953   0.834  15.876  0.8157  0.1988 -0.3594
  266TMC3    C7 4084   2.921   0.931  15.612 -0.4780 -0.1802  0.0589
  266TMC3    C8 4085   2.846   0.642  15.992  0.0096  0.1091  0.4629
  266TMC3    O1 4086   2.892   0.955  15.496 -0.3488 -0.6537  0.5431
  266TMC3    O2 4087   2.851   0.522  15.983 -0.0599 -0.2070  1.0959
  267MPD2     C 4088   0.516   2.549   1.181 -0.0978 -0.9159 -0.3509
  267MPD2    C1 4089   0.475   2.490   1.068 -0.6576 -1.0192  0.3033
  267MPD2    C2 4090   0.351   2.524   1.016  0.2677  0.2174 -0.7413
  267MPD2    C3 4091   0.265   2.614   1.079 -0.1054  0.6876 -0.2184
  267MPD2    C4 4092   0.308   2.667   1.201 -0.1263 -0.0912  0.4665
  267MPD2    C5 4093   0.429   2.626   1.256  0.0993 -0.4114  0.7519
  267MPD2     H 4094   0.307   2.481   0.927  0.0814  2.6857 -1.8398
  267MPD2    H1 4095   0.253   2.749   1.246  0.1481 -0.8048  2.0717
  267MPD2    H2 4096   0.610   2.522   1.228 -0.8211 -1.4935  0.7614
  267MPD2    H3 4097   0.460   2.649   1.358 -0.2135 -0.1493  0.7885
  267MPD2     N 4098   0.137   2.639   1.021 -0.3753  1.1681 -0.4360
  267MPD2    H5 4099   0.112   2.579   0.942  2.3727 -0.1575 -0.2909
  267MPD2    N1 4100   0.552   2.386   1.010  0.2071 -0.6667  0.2495
  267MPD2    H7 4101   0.637   2.358   1.059 -0.9272 -1.5859  1.6791
  268TMC3    C1 4102   0.581   2.191   0.869 -0.7462 -0.3085  0.6181
  268TMC3    C2 4103   0.526   2.125   0.762 -0.3803  0.2351  0.7857
  268TMC3    C3 4104   0.555   1.998   0.753 -0.6243  0.8249 -0.2927
  268TMC3    C4 4105   0.667   2.132   0.953 -0.2855  0.6313  0.0397
  268TMC3    C5 4106   0.691   1.999   0.941 -0.2348 -0.6572 -0.5215
  268TMC3    C6 4107   0.630   1.925   0.845  0.2468  0.0860  0.4049
  268TMC3     C 4108   0.517   2.320   0.892  0.4458  0.2619  0.2665
  268TMC3     O 4109   0.436   2.341   0.806 -0.3785  0.5126 -0.2913
  268TMC3     H 4110   0.439   2.159   0.706  0.9525  2.5195  0.1080
  268TMC3    H1 4111   0.718   2.189   1.030 -1.2888  1.8988 -0.2377
  268TMC3    H2 4112   0.655   1.820   0.832  2.0801  0.4025  1.4545
  268TMC3    C7 4113   0.773   1.936   1.042 -0.5735 -0.0579  0.5034
  268TMC3    C8 4114   0.510   1.914   0.648 -1.0194  0.0763  0.0253
  268TMC3    O1 4115   0.858   2.009   1.095 -0.0954 -0.1954  0.0090
  268TMC3    O2 4116   0.487   1.798   0.676  0.1364 -0.3949  0.5616
  269MPD2     C 4117   0.745   0.831  15.797 -0.5022 -0.0945 -0.2151
  269MPD2    C1 4118   0.631   0.885  15.855 -0.1441  0.3184 -0.5009
  269MPD2    C2 4119   0.611   1.018  15.851  0.6287  0.4013  0.0276
  269MPD2    C3 4120   0.691   1.106  15.772  1.1414  0.2082  0.9575
  269MPD2    C4 4121   0.799   1.050  15.708 -0.1178 -0.1366  0.6865
  269MPD2    C5 4122   0.822   0.918  15.726 -0.0338 -0.2460 -0.1993
  269MPD2     H 4123   0.526   1.057  15.907 -0.1107 -1.1441 -0.0127
  269MPD2    H1 4124   0.875   1.110  15.661  0.4311 -2.2434 -1.1165
  269MPD2    H2 4125   0.770   0.725  15.795 -3.1404 -0.6635 -2.3578
  269MPD2    H3 4126   0.901   0.870  15.669  0.8508  1.0793 -0.0766
  269MPD2     N 4127   0.647   1.240  15.748  0.3933 -0.8000 -0.1469
  269MPD2    H5 4128   0.565   1.267  15.801  0.8037  0.5404 -0.1994
  269MPD2    N1 4129   0.543   0.792  15.925 -0.2080  0.1408 -0.1578
  269MPD2    H7 4130   0.553   0.692  15.909  1.7314 -0.0014  1.8345
  270TMC3    C1 4131   0.351   0.720  16.047 -0.2259  0.3109 -0.4305
  270TMC3    C2 4132   0.259   0.669  15.967  0.3467  0.0752  0.3366
  270TMC3    C3 4133   0.208   0.542  15.978 -0.2229  0.7865  0.1510
  270TMC3    C4 4134   0.411   0.636  16.137 -0.1644 -0.0258  0.4819
  270TMC3    C5 4135   0.367   0.512  16.150  0.1141 -0.2984 -0.0659
  270TMC3    C6 4136   0.256   0.465  16.074  0.0330  0.0521 -0.5941
  270TMC3     C 4137   0.428   0.832  15.990  0.0424  1.4084  0.6614
  270TMC3     O 4138   0.367   0.937  15.982 -0.1242  0.2662  0.5216
  270TMC3     H 4139   0.226   0.734  15.886 -0.6952 -1.6348 -0.6052
  270TMC3    H1 4140   0.496   0.673  16.194  0.2694 -1.1486  0.5638
  270TMC3    H2 4141   0.209   0.370  16.098 -2.3051  1.1476 -0.8124
  270TMC3    C7 4142   0.471   0.413  16.139  0.1150  0.1680  0.7601
  270TMC3    C8 4143   0.222   0.472  15.851  1.1448 -0.0002  0.5253
  270TMC3    O1 4144   0.588   0.445  16.153  0.2663 -0.2705  0.1714
  270TMC3    O2 4145   0.295   0.377  15.855  0.2505  0.1837 -0.4979
  271MPD2     C 4146   0.017   0.418  14.008  0.8060  0.2927 -0.1253
  271MPD2    C1 4147   4.707   0.477  14.124 -0.2128 -0.1849  0.0977
  271MPD2    C2 4148   4.611   0.576  14.123 -0.4409 -0.5807  0.0634
  271MPD2    C3 4149   4.549   0.616  14.002  0.4625  0.0658 -0.0477
  271MPD2    C4 4150   4.604   0.558  13.885  0.3130  0.7405 -0.1224
  271MPD2    C5 4151   4.698   0.455  13.886 -1.6221 -0.6882  0.3042
  271MPD2     H 4152   4.574   0.612  14.218 -1.8456  0.8124 -1.0237
  271MPD2    H1 4153   4.573   0.582  13.784 -1.5109 -0.4796  0.1371
  271MPD2    H2 4154   0.101   0.350  14.000  0.0199 -0.5676 -1.0455
  271MPD2    H3 4155   0.006   0.416  13.794 -2.8702  2.0769 -1.4144
  271MPD2     N 4156   4.449   0.708  13.986  0.0013  0.1148  0.3190
  271MPD2    H5 4157   4.421   0.724  13.890 -0.4601 -2.2369  0.0596
  271MPD2    N1 4158   0.027   0.448  14.248 -0.8149 -0.5142 -0.0464
  271MPD2    H7 4159   4.727   0.507  14.323 -2.4278 -2.2096  0.6022
  272TMC3    C1 4160   0.165   0.355  14.410 -0.8005 -0.0712 -0.5054
  272TMC3    C2 4161   0.294   0.302  14.425  0.3401 -0.1253  1.2980
  272TMC3    C3 4162   0.350   0.314  14.545  0.9940  0.1408  0.2536
  272TMC3    C4 4163   0.093   0.415  14.505 -0.3415 -0.6410 -0.3140
  272TMC3    C5 4164   0.155   0.417  14.626 -0.4687  0.1056  0.1833
  272TMC3    C6 4165   0.280   0.366  14.648  0.0356  0.7353  0.3458
  272TMC3     C 4166   0.106   0.344  14.277 -0.6762 -0.1627  0.7430
  272TMC3     O 4167   0.161   0.264  14.201  0.4536  0.2651  0.2585
  272TMC3     H 4168   0.348   0.258  14.342  1.5643 -0.5896  2.3354
  272TMC3    H1 4169   4.725   0.451  14.491 -0.9086 -1.7119  0.9841
  272TMC3    H2 4170   0.330   0.382  14.743 -1.3807  0.6185  1.1172
  272TMC3    C7 4171   0.072   0.480  14.736  0.2970  0.2532  0.5046
  272TMC3    C8 4172   0.491   0.277  14.566 -0.5350 -0.2402 -0.0751
  272TMC3    O1 4173   4.690   0.506  14.701 -0.0268  0.0050  0.6275
  272TMC3    O2 4174   0.565   0.280  14.465 -0.0982 -0.2848 -0.7713
  273MPD2     C 4175   1.626   3.343  11.910 -0.7781  0.2885 -0.3633
  273MPD2    C1 4176   1.668   3.476  11.894  0.1923 -0.3524  0.4696
  273MPD2    C2 4177   1.699   3.525  11.767 -0.1881 -0.1801 -0.5052
  273MPD2    C3 4178   1.681   3.452  11.653  0.1489  0.9027  0.1245
  273MPD2    C4 4179   1.637   3.325  11.674  0.6616 -0.0437 -0.0698
  273MPD2    C5 4180   1.610   3.272  11.794  0.8459  0.6352  0.0277
  273MPD2     H 4181   1.723   3.630  11.756 -2.0338 -0.0173 -3.0917
  273MPD2    H1 4182   1.602   3.266  11.591  3.1465 -0.1805 -1.0124
  273MPD2    H2 4183   1.618   3.294  12.006  3.2334  1.3169  0.4845
  273MPD2    H3 4184   1.574   3.169  11.795 -0.0846  0.9728  1.7626
  273MPD2     N 4185   1.710   3.509  11.526 -0.3835  0.0485 -0.1695
  273MPD2    H5 4186   1.660   3.472  11.445 -0.0125 -2.2475  0.6720
  273MPD2    N1 4187   1.680   3.572  11.996  0.0075 -0.3491 -0.3441
  273MPD2    H7 4188   1.715   3.666  11.983 -3.4677  1.2561  1.9647
  274TMC3    C1 4189   1.780   3.685  11.382  0.1771 -0.4261 -0.1629
  274TMC3    C2 4190   1.678   3.647  11.299 -0.3241 -0.5532 -0.0433
  274TMC3    C3 4191   1.661   3.732  11.191  0.0513 -0.0369  0.1116
  274TMC3    C4 4192   1.868   3.786  11.369  0.0546 -0.3975 -0.0830
  274TMC3    C5 4193   1.856   3.862  11.252  0.1947  1.1271 -0.3399
  274TMC3    C6 4194   1.756   3.832  11.163 -0.3279 -0.1222 -0.1962
  274TMC3     C 4195   1.793   3.620  11.508  0.5255 -0.1297  0.2357
  274TMC3     O 4196   1.865   3.672  11.594 -0.0572 -0.2833  0.2144
  274TMC3     H 4197   1.610   3.565  11.314 -1.0050  0.0794  0.3511
  274TMC3    H1 4198   1.961   3.782  11.424 -0.1255 -3.1171  0.0185
  274TMC3    H2 4199   1.732   3.910  11.092 -1.3736  0.3600  0.6886
  274TMC3    C7 4200   1.875   3.999  11.277 -0.4918 -0.4371 -0.5901
  274TMC3    C8 4201   1.541   3.745  11.121  0.2931 -0.1591 -0.3532
  274TMC3    O1 4202   1.894   4.072  11.180  0.8379 -0.3780 -0.0638
  274TMC3    O2 4203   1.553   3.798  11.010  0.1269 -0.1586 -0.4655
  275MPD2     C 4204   1.630   1.729  14.645 -0.3556 -0.6913  0.1888
  275MPD2    C1 4205   1.502   1.758  14.606  0.9824 -0.0990 -0.5498
  275MPD2    C2 4206   1.412   1.658  14.599  0.0394 -0.4701  0.2391
  275MPD2    C3 4207   1.440   1.533  14.638  0.2151  0.2070 -0.0812
  275MPD2    C4 4208   1.569   1.498  14.666 -0.1856  0.2948 -0.3547
  275MPD2    C5 4209   1.661   1.599  14.679  0.7428  0.6984  0.4599
  275MPD2     H 4210   1.315   1.688  14.561  1.1650  0.7832 -1.6311
  275MPD2    H1 4211   1.596   1.395  14.688  0.1348  0.2238 -1.0716
  275MPD2    H2 4212   1.703   1.806  14.667 -0.0650 -1.6210  2.4740
  275MPD2    H3 4213   1.764   1.575  14.702  0.1828 -1.1724  1.0416
  275MPD2     N 4214   1.338   1.433  14.639 -0.5488 -0.2204 -0.1012
  275MPD2    H5 4215   1.381   1.342  14.653  1.1692  0.7231  0.7165
  275MPD2    N1 4216   1.452   1.895  14.583 -0.5419  0.5020 -0.3473
  275MPD2    H7 4217   1.354   1.906  14.559 -0.2623  0.6233 -1.4562
  276TMC3    C1 4218   1.426   2.112  14.654  0.2379 -0.7270  0.1056
  276TMC3    C2 4219   1.339   2.065  14.751 -0.0269  0.3011  0.1362
  276TMC3    C3 4220   1.319   2.138  14.865 -0.4883 -0.9098 -0.1005
  276TMC3    C4 4221   1.501   2.225  14.678  0.0215 -0.0469  0.5430
  276TMC3    C5 4222   1.490   2.284  14.798  0.5557  0.2621  0.4908
  276TMC3    C6 4223   1.396   2.253  14.886  0.5083 -0.2739  0.4051
  276TMC3     C 4224   1.521   2.010  14.609  0.2521  0.5632 -0.3329
  276TMC3     O 4225   1.641   2.017  14.641  0.0337 -0.3707 -0.1970
  276TMC3     H 4226   1.268   1.986  14.733 -0.1914  0.2898  0.8412
  276TMC3    H1 4227   1.577   2.244  14.604  1.3993  1.0356  2.2378
  276TMC3    H2 4228   1.381   2.291  14.986  1.6702  1.6817 -0.1644
  276TMC3    C7 4229   1.611   2.326  14.863  0.3343 -0.0889  0.6587
  276TMC3    C8 4230   1.276   2.059  14.976 -0.3833 -0.2431 -0.0665
  276TMC3    O1 4231   1.616   2.317  14.986  0.0375 -0.3213 -0.2659
  276TMC3    O2 4232   1.211   2.111  15.066 -0.2576 -0.7759 -0.0175
  277MPD2     C 4233   3.134   0.802  13.056  0.1103 -0.5781  0.5876
  277MPD2    C1 4234   3.016   0.821  13.124 -0.0466  0.2010 -0.4272
  277MPD2    C2 4235   2.985   0.729  13.218 -0.0884 -0.6126 -0.3267
  277MPD2    C3 4236   3.059   0.619  13.241 -0.0118 -0.4023 -0.0232
  277MPD2    C4 4237   3.179   0.601  13.176  0.1431 -0.4119  0.4073
  277MPD2    C5 4238   3.218   0.703  13.087  0.7123 -0.2523 -0.2273
  277MPD2     H 4239   2.883   0.742  13.255  0.9163 -1.8242  2.9002
  277MPD2    H1 4240   3.249   0.519  13.192  0.8134  0.4938  2.1082
  277MPD2    H2 4241   3.168   0.877  12.985 -1.4510 -0.6755 -0.2534
  277MPD2    H3 4242   3.315   0.707  13.039  0.1326  0.2149 -1.3494
  277MPD2     N 4243   3.001   0.532  13.338  0.2206 -0.6631 -0.5590
  277MPD2    H5 4244   2.914   0.570  13.374 -0.6514 -2.0972 -1.1557
  277MPD2    N1 4245   2.949   0.941  13.098  0.5150  0.3514 -0.2643
  277MPD2    H7 4246   2.985   1.001  13.025  1.1572 -1.8404 -1.7500
  278TMC3    C1 4247   2.984   0.349  13.497  0.7608  0.2642  0.8978
  278TMC3    C2 4248   2.990   0.214  13.513 -0.5228  0.6827 -0.1802
  278TMC3    C3 4249   2.907   0.160  13.608 -0.0403 -0.2926  0.0067
  278TMC3    C4 4250   2.903   0.426  13.577 -0.5542  0.4373  0.2080
  278TMC3    C5 4251   2.823   0.364  13.666 -0.3496 -0.8506 -0.4025
  278TMC3    C6 4252   2.828   0.232  13.694 -0.5488 -0.0436  0.4001
  278TMC3     C 4253   3.062   0.422  13.395  0.0022  1.2177 -0.6305
  278TMC3     O 4254   3.161   0.363  13.356 -0.3206 -0.2445  0.0519
  278TMC3     H 4255   3.049   0.148  13.451 -0.0933  1.6023 -0.7505
  278TMC3    H1 4256   2.895   0.534  13.569  2.6589  0.4915 -2.4162
  278TMC3    H2 4257   2.772   0.198  13.780  0.3004 -1.7604  0.2792
  278TMC3    C7 4258   2.759   0.458  13.756 -0.4991  0.0148  0.1401
  278TMC3    C8 4259   2.922   0.018  13.636 -0.1722  0.2130 -0.0485
  278TMC3    O1 4260   2.818   0.560  13.785  0.2317  0.0847  0.3509
  278TMC3    O2 4261   3.028   4.695  13.609  0.3166  0.4465 -0.5942
  279MPD2     C 4262   2.781   0.435   0.107 -0.3794 -0.4946 -0.4474
  279MPD2    C1 4263   2.698   0.336   0.055  0.5348 -0.4522 -0.3080
  279MPD2    C2 4264   2.743   0.264  17.677 -0.5345  0.4106 -0.2587
  279MPD2    C3 4265   2.861   0.287  17.614  0.5947 -0.7527  0.2234
  279MPD2    C4 4266   2.950   0.384  17.666 -0.0475  0.0159  0.1047
  279MPD2    C5 4267   2.899   0.453   0.046  0.9704 -0.5575 -0.3710
  279MPD2     H 4268   2.679   0.186  17.636  1.0726 -1.9653  1.7822
  279MPD2    H1 4269   3.047   0.409  17.624  0.7167  0.5251  2.1645
  279MPD2    H2 4270   2.750   0.507   0.181 -2.9956 -0.1383 -1.8938
  279MPD2    H3 4271   2.974   0.521   0.084  0.2146 -0.5227  1.0710
  279MPD2     N 4272   2.889   0.235  17.492  0.2190 -0.3366  0.4345
  279MPD2    H5 4273   2.966   0.282  17.445  0.9401 -1.3297  0.6174
  279MPD2    N1 4274   2.564   0.318   0.097 -0.0842  0.1443 -0.2939
  279MPD2    H7 4275   2.526   0.382   0.166 -1.9101 -0.3790 -0.8208
  280TMC3    C1 4276   2.350   0.219   0.103 -0.0099 -0.0206 -0.5625
  280TMC3    C2 4277   2.294   0.095   0.076  0.3488 -0.8769  0.2026
  280TMC3    C3 4278   2.189   0.095  17.721  0.3452 -0.5448 -0.0149
  280TMC3    C4 4279   2.293   0.338   0.057  0.0659  0.3933 -0.1333
  280TMC3    C5 4280   2.173   0.326  17.721 -0.1444 -0.0443 -0.2986
  280TMC3    C6 4281   2.126   0.207  17.678  0.5339  0.5292 -0.2772
  280TMC3     C 4282   2.493   0.202   0.073  0.0697  0.7216  0.0315
  280TMC3     O 4283   2.529   0.095   0.019 -0.2815  0.3939  0.6826
  280TMC3     H 4284   2.348   0.009   0.113  0.1031 -0.7020  0.9633
  280TMC3    H1 4285   2.333   0.435   0.085  0.9906 -0.6333  2.1217
  280TMC3    H2 4286   2.059   0.202  17.593  1.7880 -0.8424 -1.1805
  280TMC3    C7 4287   2.106   0.443  17.681 -0.2807 -0.1099 -0.6554
  280TMC3    C8 4288   2.165   4.713  17.630 -0.4525  0.3570  0.7853
  280TMC3    O1 4289   2.167   0.547  17.688 -0.7031  0.0743 -0.1121
  280TMC3    O2 4290   2.072   4.717  17.549  0.4778  0.7553  0.4958
  281TMC3    C1 4291   1.218   1.093  13.444 -0.2860 -0.2218 -0.1291
  281TMC3    C2 4292   1.286   1.164  13.342  0.0578  0.0185  0.3216
  281TMC3    C3 4293   1.350   1.095  13.246 -0.1133 -0.2316 -0.3413
  281TMC3    C4 4294   1.227   0.959  13.447  0.7441 -0.4674 -0.1219
  281TMC3    C5 4295   1.297   0.892  13.347 -0.4828 -0.7469  0.6509
  281TMC3    C6 4296   1.345   0.961  13.234 -0.3907  0.4086  0.2061
  281TMC3     C 4297   1.176   1.164  13.562  0.3627 -0.2711  0.1536
  281TMC3     O 4298   1.169   1.109  13.673  0.3118 -0.3988 -0.1514
  281TMC3     H 4299   1.310   1.269  13.355 -1.2469  0.2741  0.5984
  281TMC3    H1 4300   1.173   0.910  13.528  3.0288 -1.2042  0.9520
  281TMC3    H2 4301   1.391   0.907  13.152 -1.7251  0.6455 -0.7003
  281TMC3    C7 4302   1.294   0.750  13.348 -0.0893 -0.1927  0.2152
  281TMC3    C8 4303   1.444   1.166  13.155 -0.5483 -0.3132  0.3930
  281TMC3    O1 4304   1.376   0.696  13.277  0.4895 -0.9143  0.3658
  281TMC3    O2 4305   1.546   1.107  13.121 -0.2026  0.6114 -0.0743
  282MPD2     C 4306   2.753   2.348  14.808  0.3662 -0.1254  0.2472
  282MPD2    C1 4307   2.704   2.234  14.873  0.5719 -0.1896  0.8150
  282MPD2    C2 4308   2.669   2.125  14.789  0.2748 -0.3561 -0.8590
  282MPD2    C3 4309   2.697   2.119  14.657 -0.6399  0.0076 -0.0931
  282MPD2    C4 4310   2.754   2.230  14.599 -0.2074 -1.0175 -0.2906
  282MPD2    C5 4311   2.767   2.342  14.672  0.1756  0.3152 -0.4550
  282MPD2     H 4312   2.634   2.034  14.836  2.1767 -0.0131  1.2312
  282MPD2    H1 4313   2.779   2.244  14.495  2.2113 -1.1642  0.2583
  282MPD2    H2 4314   2.766   2.445  14.855 -0.5559 -0.6506  1.5721
  282MPD2    H3 4315   2.790   2.439  14.631  0.7512  0.2504 -0.2844
  282MPD2     N 4316   2.670   1.998  14.595 -0.0917 -0.0030  0.0970
  282MPD2    H5 4317   2.650   1.915  14.650 -0.1226 -0.3600 -0.4625
  282MPD2    N1 4318   2.691   2.225  15.015  0.0522  0.2289 -1.0639
  282MPD2    H7 4319   2.630   2.155  15.055 -1.8684  2.6364  0.2439
  283TMC3    C1 4320   2.667   2.295  15.237 -0.4808 -0.1808 -0.3363
  283TMC3    C2 4321   2.683   2.407  15.320 -0.3555  0.1588  0.5096
  283TMC3    C3 4322   2.637   2.384  15.452 -1.1535 -0.0077 -0.4212
  283TMC3    C4 4323   2.627   2.172  15.272 -0.3426 -0.7038  0.2080
  283TMC3    C5 4324   2.582   2.160  15.398 -0.4396  0.0679  0.7335
  283TMC3    C6 4325   2.597   2.260  15.492  0.7615 -0.0649  0.2425
  283TMC3     C 4326   2.723   2.318  15.108  0.7640  0.3084 -0.6184
  283TMC3     O 4327   2.782   2.420  15.086 -0.2268  0.5720  0.3983
  283TMC3     H 4328   2.725   2.502  15.292  0.2861 -0.3583 -0.2969
  283TMC3    H1 4329   2.627   2.088  15.204 -0.9266 -0.8375  0.3667
  283TMC3    H2 4330   2.573   2.243  15.596  2.8276  2.3020  1.0916
  283TMC3    C7 4331   2.495   2.052  15.431  0.9940  0.2609  0.2443
  283TMC3    C8 4332   2.621   2.496  15.539 -0.4117  0.6206  0.4047
  283TMC3    O1 4333   2.467   2.060  15.549 -0.1826 -0.7600 -0.2766
  283TMC3    O2 4334   2.604   2.479  15.658 -0.5336 -0.5164  0.3052
  284MPD2     C 4335   0.988   1.405  12.429 -0.1091  0.4834 -0.2946
  284MPD2    C1 4336   1.093   1.417  12.337 -0.1672 -0.1982  0.0940
  284MPD2    C2 4337   1.173   1.309  12.298  0.6202 -0.4370  0.7629
  284MPD2    C3 4338   1.167   1.194  12.370  0.9702 -0.2534  0.8143
  284MPD2    C4 4339   1.076   1.189  12.473  0.1165  0.3353  0.4132
  284MPD2    C5 4340   0.989   1.292  12.500 -0.9182 -0.1039 -0.2509
  284MPD2     H 4341   1.240   1.318  12.213 -0.2805 -1.8746 -0.0841
  284MPD2    H1 4342   1.065   1.098  12.530 -0.8747  0.7763  0.9301
  284MPD2    H2 4343   0.909   1.477  12.447  0.7357  1.3306  0.0122
  284MPD2    H3 4344   0.914   1.270  12.575 -1.7624 -2.3385 -1.7372
  284MPD2     N 4345   1.252   1.077  12.341 -1.0346  0.0310 -0.4117
  284MPD2    H5 4346   1.245   0.998  12.404 -1.8789 -0.7386 -1.4843
  284MPD2    N1 4347   1.113   1.539  12.262 -0.2240  0.1663  0.4491
  284MPD2    H7 4348   1.186   1.541  12.192 -1.6353 -1.3464 -1.0758
  285TMC3    C1 4349   1.104   1.767  12.212  0.1405  0.1255  0.3121
  285TMC3    C2 4350   1.240   1.770  12.179  0.1614 -0.0597  0.5488
  285TMC3    C3 4351   1.280   1.877  12.098  0.0692 -0.6238  0.1527
  285TMC3    C4 4352   1.022   1.868  12.173  0.3069  0.6290  1.0683
  285TMC3    C5 4353   1.074   1.988  12.123 -0.0830  0.2020 -1.0066
  285TMC3    C6 4354   1.202   1.989  12.083 -0.0434 -0.2926 -0.3659
  285TMC3     C 4355   1.044   1.652  12.275 -0.0935  0.3416  0.4446
  285TMC3     O 4356   0.940   1.678  12.331 -0.5210 -0.4308 -0.6171
  285TMC3     H 4357   1.307   1.693  12.216  0.9623 -0.8152 -2.4163
  285TMC3    H1 4358   0.919   1.856  12.203  0.2054 -0.3555  0.3167
  285TMC3    H2 4359   1.240   2.078  12.034  1.6471 -0.3785  0.7812
  285TMC3    C7 4360   0.978   2.082  12.073  0.5446 -0.1210  0.3394
  285TMC3    C8 4361   1.381   1.848  11.995  0.2476 -0.0077 -0.1020
  285TMC3    O1 4362   0.992   2.205  12.083 -0.0421 -0.1562  0.2263
  285TMC3    O2 4363   1.426   1.732  12.002 -0.1010  0.0574  0.3371
  286MPD2     C 4364   2.507   0.952   1.733  0.7144 -0.2610  0.8248
  286MPD2    C1 4365   2.426   0.915   1.630 -0.3632 -0.1796  0.3606
  286MPD2    C2 4366   2.470   0.817   1.541 -0.1730 -0.2476  0.3130
  286MPD2    C3 4367   2.599   0.763   1.559  0.2483 -0.1140 -0.9100
  286MPD2    C4 4368   2.687   0.833   1.640  0.4080  0.3973 -0.3635
  286MPD2    C5 4369   2.641   0.927   1.731 -0.8211 -0.6377 -0.3794
  286MPD2     H 4370   2.389   0.783   1.477  0.7724 -0.3752 -0.8139
  286MPD2    H1 4371   2.792   0.808   1.646  0.7832  2.0589  0.2012
  286MPD2    H2 4372   2.471   1.026   1.804 -1.7129 -0.5662 -0.0949
  286MPD2    H3 4373   2.702   0.986   1.799  0.7602 -0.5047 -1.9038
  286MPD2     N 4374   2.644   0.647   1.487  0.4907  0.1654  0.2496
  286MPD2    H5 4375   2.737   0.615   1.513 -0.9318 -2.6922  1.8132
  286MPD2    N1 4376   2.290   0.963   1.613 -0.0426 -0.0994 -0.2841
  286MPD2    H7 4377   2.243   0.948   1.525  1.4563 -1.7943 -0.7992
  287TMC3    C1 4378   2.630   0.448   1.370 -0.0934 -0.2396  0.0956
  287TMC3    C2 4379   2.579   0.379   1.263  0.1304 -0.4276  0.2904
  287TMC3    C3 4380   2.593   0.242   1.253  0.7274  0.5196  0.2441
  287TMC3    C4 4381   2.695   0.388   1.472 -0.3129  0.7887 -0.3645
  287TMC3    C5 4382   2.716   0.255   1.456  0.1767 -0.2311  0.2902
  287TMC3    C6 4383   2.658   0.180   1.357 -0.1560  0.1927  0.1200
  287TMC3     C 4384   2.574   0.578   1.392  0.1658 -0.0822  0.1332
  287TMC3     O 4385   2.475   0.607   1.326 -0.3098  0.1219  0.2741
  287TMC3     H 4386   2.517   0.440   1.198  0.9491 -0.5743 -0.6327
  287TMC3    H1 4387   2.732   0.435   1.563 -0.8020 -0.7191  0.6055
  287TMC3    H2 4388   2.675   0.073   1.353  0.1140  0.2282  0.3082
  287TMC3    C7 4389   2.825   0.183   1.521  0.1587 -0.1847 -0.2731
  287TMC3    C8 4390   2.514   0.160   1.167 -0.5298 -0.2515 -1.6602
  287TMC3    O1 4391   2.838   0.065   1.507  0.0380  0.0085 -0.1753
  287TMC3    O2 4392   2.548   0.043   1.152 -0.1746 -0.2502  0.1878
  288TMC3    C1 4393   3.243   4.437  14.487 -0.1173 -0.4793  0.4495
  288TMC3    C2 4394   3.139   4.519  14.447 -0.0318  0.6610 -0.5448
  288TMC3    C3 4395   3.167   4.639  14.385 -0.4844 -0.4244  0.1315
  288TMC3    C4 4396   3.371   4.478  14.484 -0.1224  0.2069  0.3124
  288TMC3    C5 4397   3.391   4.597  14.417  0.1031 -1.1742 -0.0657
  288TMC3    C6 4398   3.290   4.671  14.361  0.5164  0.0443 -0.6969
  288TMC3     C 4399   3.212   4.311  14.529  0.8040 -0.3169  0.3166
  288TMC3     O 4400   3.112   4.262  14.476 -0.2317 -0.1663  0.1813
  288TMC3     H 4401   3.037   4.483  14.452  1.0773 -2.4730 -0.4792
  288TMC3    H1 4402   3.450   4.411  14.515 -0.0848 -0.1771 -0.6162
  288TMC3    H2 4403   3.306   0.027  14.301  0.1990 -0.5165 -1.6177
  288TMC3    C7 4404   3.520   4.656  14.425 -0.6300  0.4855  0.5775
  288TMC3    C8 4405   3.083   0.015  14.425  0.8286  0.5985 -0.4076
  288TMC3    O1 4406   3.541   0.031  14.374  0.0749 -0.2395  0.0092
  288TMC3    O2 4407   3.139   0.116  14.469  0.1502 -0.6297  0.3507
  289MPD2     C 4408   3.135   3.760  14.270 -0.8582 -0.1268 -0.4877
  289MPD2    C1 4409   3.106   3.897  14.237 -0.5960  0.1131 -0.7942
  289MPD2    C2 4410   2.979   3.924  14.196 -0.2534 -0.1701  0.1033
  289MPD2    C3 4411   2.873   3.829  14.206  0.1986 -0.2044 -0.2827
  289MPD2    C4 4412   2.910   3.703  14.235  0.1448  0.1349  0.4270
  289MPD2    C5 4413   3.036   3.670  14.274  0.3024 -0.0977  0.2643
  289MPD2     H 4414   2.964   4.022  14.152 -0.0307 -0.9187 -1.6356
  289MPD2    H1 4415   2.845   3.618  14.251 -1.5021  1.2092 -0.5868
  289MPD2    H2 4416   3.227   3.734  14.321 -1.4486  0.7603  1.0353
  289MPD2    H3 4417   3.063   3.568  14.296  0.5217 -0.6754 -2.6942
  289MPD2     N 4418   2.740   3.871  14.179 -0.0732  0.3815 -0.1105
  289MPD2    H5 4419   2.667   3.802  14.170 -0.2985  0.6126 -0.0562
  289MPD2    N1 4420   3.213   3.992  14.242 -0.7011  0.2371 -0.1366
  289MPD2    H7 4421   3.291   3.946  14.288 -1.1046 -0.0967  0.2158
  290TMC3    C1 4422   2.570   4.012  14.073  0.4662  0.0973  0.3860
  290TMC3    C2 4423   2.522   4.141  14.065 -0.0832  0.5497 -0.4148
  290TMC3    C3 4424   2.407   4.168  14.005 -0.3407 -0.1642 -0.1363
  290TMC3    C4 4425   2.504   3.899  14.025  0.5050  0.6339  0.4090
  290TMC3    C5 4426   2.382   3.934  13.967  0.4175  0.8896 -0.3791
  290TMC3    C6 4427   2.326   4.058  13.971  0.1397  0.1766 -0.4559
  290TMC3     C 4428   2.700   3.999  14.133  0.2561 -0.3684 -0.3054
  290TMC3     O 4429   2.757   4.108  14.145  0.6126  0.4482  0.1358
  290TMC3     H 4430   2.575   4.222  14.116  1.3897 -0.4633 -0.3195
  290TMC3    H1 4431   2.538   3.797  14.025 -0.2870  0.3717  0.6136
  290TMC3    H2 4432   2.226   4.072  13.931  0.2721 -1.6119 -1.4016
  290TMC3    C7 4433   2.300   3.839  13.900 -0.8617  0.3096 -0.2492
  290TMC3    C8 4434   2.334   4.289  14.055  0.0453  0.2013  0.2990
  290TMC3    O1 4435   2.244   3.893  13.803  0.1958  0.1137  0.1773
  290TMC3    O2 4436   2.212   4.284  14.055 -0.6428 -0.3162 -0.5902
  291MPD2     C 4437   2.578   3.919  17.695  0.1672 -0.3573 -0.5890
  291MPD2    C1 4438   2.611   3.816   0.051 -0.9321  0.3843 -0.1710
  291MPD2    C2 4439   2.724   3.829   0.129  0.0023 -0.4045 -0.4523
  291MPD2    C3 4440   2.813   3.934   0.108 -0.6432  0.0117 -0.0846
  291MPD2    C4 4441   2.784   4.031   0.017  0.1977  0.8257 -0.4121
  291MPD2    C5 4442   2.664   4.030  17.678 -0.0141  0.5343  0.0040
  291MPD2     H 4443   2.749   3.752   0.202  0.3254 -0.7266 -0.9059
  291MPD2    H1 4444   2.866   4.100   0.003  1.5727 -1.0800 -1.8268
  291MPD2    H2 4445   2.492   3.915  17.628  0.5213 -0.7808 -1.0247
  291MPD2    H3 4446   2.639   4.107  17.606  2.0831  1.2961  0.0909
  291MPD2     N 4447   2.927   3.949   0.182  0.5001  0.3253  0.4778
  291MPD2    H5 4448   2.979   4.036   0.176  1.2718 -0.1975 -0.3943
  291MPD2    N1 4449   2.530   3.702   0.069  0.3520  0.0203 -0.0106
  291MPD2    H7 4450   2.563   3.644   0.146 -0.1717  0.5091  0.5794
  292TMC3    C1 4451   2.376   3.532   0.024  0.2907  0.0334 -0.4253
  292TMC3    C2 4452   2.335   3.512   0.153  0.2132 -0.4870 -0.0988
  292TMC3    C3 4453   2.317   3.382   0.185 -0.2736 -0.0157 -1.0218
  292TMC3    C4 4454   2.386   3.436  17.660 -0.8738 -0.3333  0.3116
  292TMC3    C5 4455   2.375   3.310  17.704  0.6375 -0.6191 -0.7735
  292TMC3    C6 4456   2.345   3.272   0.102 -0.2469  0.1560 -0.5191
  292TMC3     C 4457   2.434   3.661  17.712 -0.1337  0.1123  0.2094
  292TMC3     O 4458   2.414   3.683  17.593 -0.1156 -0.6709 -0.7772
  292TMC3     H 4459   2.302   3.587   0.224  0.6668 -0.5233  0.1462
  292TMC3    H1 4460   2.440   3.448  17.567  0.4969 -2.5162  0.7978
  292TMC3    H2 4461   2.332   3.167   0.126 -0.6762  0.5842  1.1344
  292TMC3    C7 4462   2.374   3.200  17.610  0.3961  0.2338 -0.6320
  292TMC3    C8 4463   2.222   3.359   0.291  0.2078  0.3706  0.2269
  292TMC3    O1 4464   2.418   3.087  17.642  0.0949  0.0956 -0.0388
  292TMC3    O2 4465   2.220   3.438   0.385 -0.8372  0.6323 -0.3268
  293MPD2     C 4466   3.893   0.044  13.034 -0.6099  0.6610 -0.2207
  293MPD2    C1 4467   3.945   0.171  12.994 -0.7091  0.2822 -0.7338
  293MPD2    C2 4468   4.014   0.252  13.087 -0.5565  0.5338 -0.3804
  293MPD2    C3 4469   4.045   0.191  13.209  0.1756  0.3908 -0.4998
  293MPD2    C4 4470   3.998   0.067  13.242  0.2455  0.2432  0.4843
  293MPD2    C5 4471   3.927   4.729  13.155  0.4329 -0.6523 -0.2731
  293MPD2     H 4472   4.044   0.352  13.059  1.7402 -0.1607 -0.4492
  293MPD2    H1 4473   4.005   0.017  13.339  0.8045  0.8673  0.7609
  293MPD2    H2 4474   3.838   4.710  12.968 -0.5064 -0.6871  1.0622
  293MPD2    H3 4475   3.885   4.636  13.191 -0.9531  0.1924  0.2840
  293MPD2     N 4476   4.114   0.268  13.304  0.3486  0.2575  0.6590
  293MPD2    H5 4477   4.126   0.367  13.286  2.0711 -0.3107 -1.2796
  293MPD2    N1 4478   3.897   0.211  12.866 -0.6440  0.0410 -0.5608
  293MPD2    H7 4479   3.833   0.153  12.812 -0.4758  0.4348 -1.1838
  294TMC3    C1 4480   3.843   0.346  12.694  0.0099  1.0159 -0.2317
  294TMC3    C2 4481   3.727   0.281  12.685 -0.4619  0.0138 -0.2919
  294TMC3    C3 4482   3.655   0.307  12.568  0.0812 -0.3483 -0.3981
  294TMC3    C4 4483   3.903   0.426  12.599  0.7054  0.0257 -0.2642
  294TMC3    C5 4484   3.827   0.445  12.489 -0.3951  0.2350 -0.8911
  294TMC3    C6 4485   3.701   0.389  12.465 -0.1551 -0.1239  0.3950
  294TMC3     C 4486   3.923   0.331  12.811  0.7568  0.0688  0.7746
  294TMC3     O 4487   3.996   0.424  12.843 -0.3099 -0.2879 -0.0710
  294TMC3     H 4488   3.676   0.234  12.768  1.2706 -1.4009 -0.0147
  294TMC3    H1 4489   3.989   0.488  12.621  0.9814  0.2660 -1.9629
  294TMC3    H2 4490   3.638   0.408  12.379  0.8202 -0.4578 -0.3873
  294TMC3    C7 4491   3.866   0.549  12.391  0.9045 -0.7678 -0.0464
  294TMC3    C8 4492   3.529   0.243  12.546 -0.5574 -0.0545  0.0923
  294TMC3    O1 4493   3.778   0.614  12.339  0.4657 -0.2021 -0.0683
  294TMC3    O2 4494   3.470   0.212  12.652 -0.3130 -0.2017 -0.0513
  295MPD2     C 4495   0.084   3.414   1.332 -0.1599  0.0431 -0.3100
  295MPD2    C1 4496   0.081   3.483   1.211  0.1762 -0.8548  0.4695
  295MPD2    C2 4497   0.085   3.621   1.210 -0.4686  0.1303  0.2995
  295MPD2    C3 4498   0.068   3.693   1.321 -0.0783 -0.0861 -0.3606
  295MPD2    C4 4499   0.068   3.629   1.442  0.7714 -0.2510  0.1605
  295MPD2    C5 4500   0.081   3.492   1.447 -0.5570  0.0462  0.0888
  295MPD2     H 4501   0.078   3.675   1.117  1.3403 -0.9003 -0.4210
  295MPD2    H1 4502   0.073   3.686   1.534 -2.8246  1.8402 -0.9279
  295MPD2    H2 4503   0.105   3.308   1.332 -0.4717 -0.0191  0.1199
  295MPD2    H3 4504   0.084   3.439   1.541 -0.3423 -0.9809 -0.4971
  295MPD2     N 4505   0.052   3.829   1.320 -0.1481 -0.3759  0.7708
  295MPD2    H5 4506   0.040   3.872   1.412  1.8430 -0.3947  1.0273
  295MPD2    N1 4507   0.087   3.405   1.090 -0.0784  0.2528  0.0053
  295MPD2    H7 4508   0.109   3.457   1.007 -1.9649  0.9325 -0.0786
  296TMC3    C1 4509   0.028   4.057   1.251  0.1825 -0.0077  0.0193
  296TMC3    C2 4510   0.058   4.146   1.157 -0.1679  1.1537  0.0077
  296TMC3    C3 4511   4.717   4.266   1.149  0.0274 -0.1142  0.1197
  296TMC3    C4 4512   4.649   4.069   1.322  0.0746  1.0689 -0.1285
  296TMC3    C5 4513   4.575   4.183   1.314 -0.2161  0.1492  1.0853
  296TMC3    C6 4514   4.603   4.281   1.226  0.0953  0.2395 -0.7746
  296TMC3     C 4515   0.067   3.920   1.218 -0.4573 -1.4088 -0.8347
  296TMC3     O 4516   0.139   3.892   1.121 -0.3228  0.4335 -0.1919
  296TMC3     H 4517   0.145   4.136   1.092  0.7914  2.0485  1.1536
  296TMC3    H1 4518   4.605   3.982   1.371 -0.1808  0.2757 -1.7372
  296TMC3    H2 4519   4.540   4.369   1.225 -1.6839 -1.0292  0.8276
  296TMC3    C7 4520   4.467   4.213   1.405 -0.2557 -0.2416  0.1984
  296TMC3    C8 4521   0.020   4.358   1.049 -0.4297  0.4305  0.0216
  296TMC3    O1 4522   4.386   4.299   1.368 -0.0609  0.0402  0.4312
  296TMC3    O2 4523   0.077   4.312   0.953 -0.5098 -0.4786  0.0303
  297MPD2     C 4524   1.949   0.959  16.479 -0.8275 -0.3767 -0.6511
  297MPD2    C1 4525   1.937   1.058  16.377 -0.1189 -0.1167  0.1351
  297MPD2    C2 4526   2.044   1.095  16.309  0.0481  0.2933  0.1720
  297MPD2    C3 4527   2.171   1.043  16.328 -0.2857  0.1929 -0.0299
  297MPD2    C4 4528   2.184   0.941  16.421  0.1767 -1.0746 -0.3442
  297MPD2    C5 4529   2.071   0.904  16.489 -0.1228 -0.1710 -0.2160
  297MPD2     H 4530   2.033   1.168  16.230  1.3556 -0.4643 -0.7158
  297MPD2    H1 4531   2.280   0.895  16.445  0.4475 -1.7644 -2.7447
  297MPD2    H2 4532   1.870   0.922  16.543  1.0446 -1.8328  0.8463
  297MPD2    H3 4533   2.081   0.820  16.557 -0.5690 -1.4170 -1.6940
  297MPD2     N 4534   2.274   1.118  16.256 -0.0383  0.3832  1.0260
  297MPD2    H5 4535   2.248   1.200  16.202 -1.3471 -0.6880  0.0289
  297MPD2    N1 4536   1.806   1.106  16.351 -0.0897 -0.6648 -0.3350
  297MPD2    H7 4537   1.795   1.153  16.262 -2.6675 -3.4531 -1.5000
  298TMC3    C1 4538   1.567   1.114  16.365  0.0194  0.5117 -0.3696
  298TMC3    C2 4539   1.570   1.143  16.228  0.0099  0.2650  0.3807
  298TMC3    C3 4540   1.446   1.153  16.161  0.2728 -0.3055 -0.9393
  298TMC3    C4 4541   1.450   1.085  16.426 -0.4303  0.2749 -0.0145
  298TMC3    C5 4542   1.335   1.105  16.363 -0.9180 -0.1673  0.1963
  298TMC3    C6 4543   1.327   1.130  16.228 -0.2310 -0.4983 -0.1525
  298TMC3     C 4544   1.695   1.090  16.429 -0.3545  0.0946  0.0454
  298TMC3     O 4545   1.677   1.068  16.550 -0.0841 -0.6734 -0.6508
  298TMC3     H 4546   1.665   1.157  16.178 -0.3246 -0.3142 -0.4114
  298TMC3    H1 4547   1.454   1.050  16.528  2.3442 -0.2170 -0.2962
  298TMC3    H2 4548   1.229   1.142  16.184 -1.1815 -2.2415  1.4644
  298TMC3    C7 4549   1.223   1.041  16.433  0.3445  0.9324  0.3977
  298TMC3    C8 4550   1.445   1.150  16.017  0.2980 -0.0479 -0.0940
  298TMC3    O1 4551   1.232   1.039  16.554  0.6511  0.4806 -0.1774
  298TMC3    O2 4552   1.545   1.113  15.958  0.2514  0.0497 -0.1754
  299MPD2     C 4553   2.320   1.753  10.305  0.2973  0.2973 -0.0173
  299MPD2    C1 4554   2.309   1.650  10.393  0.7394  0.9611 -0.1667
  299MPD2    C2 4555   2.195   1.567  10.383  0.0638  0.8446  0.4784
  299MPD2    C3 4556   2.108   1.569  10.272 -0.5780 -0.3952  0.3971
  299MPD2    C4 4557   2.131   1.669  10.186 -0.1830 -0.2455 -0.4684
  299MPD2    C5 4558   2.229   1.763  10.207  0.3880  0.1761 -0.5304
  299MPD2     H 4559   2.177   1.491  10.458 -0.5411  1.2923  0.7894
  299MPD2    H1 4560   2.064   1.683  10.102  1.9598  2.3864 -1.7223
  299MPD2    H2 4561   2.399   1.826  10.313  0.2528  0.3586 -0.1318
  299MPD2    H3 4562   2.235   1.848  10.140 -0.9511 -0.4306 -1.4178
  299MPD2     N 4563   1.990   1.487  10.260 -0.5999  0.1771 -0.1426
  299MPD2    H5 4564   1.929   1.513  10.183 -0.4226  0.8996 -0.0409
  299MPD2    N1 4565   2.409   1.641  10.494 -0.3159  0.2338  0.2699
  299MPD2    H7 4566   2.487   1.704  10.476 -0.7111  0.5262 -0.4072
  300TMC3    C1 4567   1.808   1.373  10.331 -1.0201 -0.2760 -0.0885
  300TMC3    C2 4568   1.746   1.429  10.219 -0.3721 -0.0957  0.3032
  300TMC3    C3 4569   1.614   1.449  10.213  0.4053  0.6016  0.1846
  300TMC3    C4 4570   1.745   1.324  10.438  0.1898  0.4726 -0.1045
  300TMC3    C5 4571   1.607   1.339  10.425 -0.0060 -0.6022 -0.4416
  300TMC3    C6 4572   1.545   1.401  10.320  0.7983  0.4022  0.1286
  300TMC3     C 4573   1.942   1.418  10.363  0.3614 -0.2641  0.0273
  300TMC3     O 4574   1.983   1.371  10.470 -0.0488 -0.3658  0.0329
  300TMC3     H 4575   1.802   1.426  10.127 -2.1598  0.8857 -0.8142
  300TMC3    H1 4576   1.795   1.283  10.525  0.7094  1.0092 -0.1504
  300TMC3    H2 4577   1.439   1.420  10.321  0.4135 -1.8135  1.0949
  300TMC3    C7 4578   1.514   1.286  10.514  0.1949 -0.4593 -0.8041
  300TMC3    C8 4579   1.598   1.591  10.199 -0.1075  0.6208 -0.0107
  300TMC3    O1 4580   1.418   1.231  10.463 -0.0299 -0.1641 -0.1137
  300TMC3    O2 4581   1.567   1.647  10.303  0.3683  0.2588 -0.3275
  301MPD2     C 4582   0.402   2.800   1.617  0.5539 -0.9592  0.4255
  301MPD2    C1 4583   0.277   2.740   1.633 -0.7284  1.2490  0.7493
  301MPD2    C2 4584   0.260   2.603   1.661 -0.6867  0.1753  0.2097
  301MPD2    C3 4585   0.375   2.523   1.673  0.1532 -0.1361 -0.1577
  301MPD2    C4 4586   0.494   2.585   1.655  0.3175 -0.0619  0.1571
  301MPD2    C5 4587   0.507   2.713   1.630 -0.5648  0.1150  0.0723
  301MPD2     H 4588   0.163   2.561   1.684  0.5577 -2.2127  1.0482
  301MPD2    H1 4589   0.586   2.527   1.659  0.4570  0.1855  0.5202
  301MPD2    H2 4590   0.416   2.905   1.596  1.4436 -1.0993  0.3268
  301MPD2    H3 4591   0.605   2.757   1.617 -0.5186 -0.3712 -1.2841
  301MPD2     N 4592   0.375   2.386   1.701  0.6048 -0.3720  0.1667
  301MPD2    H5 4593   0.465   2.340   1.688  1.6516  1.2217  1.9148
  301MPD2    N1 4594   0.149   2.807   1.633 -0.7546 -0.0763 -0.7616
  301MPD2    H7 4595   0.062   2.755   1.634  0.9012 -2.8364  1.6302
  302TMC3    C1 4596   0.294   2.165   1.704 -1.0317  0.1133  0.6369
  302TMC3    C2 4597   0.398   2.108   1.764 -0.5631  0.3085 -0.4885
  302TMC3    C3 4598   0.428   1.983   1.737  0.7329  0.2448  0.3434
  302TMC3    C4 4599   0.227   2.104   1.607  0.2560  0.5596  0.6659
  302TMC3    C5 4600   0.258   1.977   1.576 -0.1465  0.6487 -0.4525
  302TMC3    C6 4601   0.361   1.913   1.639 -0.1978  0.0877  0.2629
  302TMC3     C 4602   0.263   2.308   1.728 -0.3632  0.5040  0.5763
  302TMC3     O 4603   0.146   2.342   1.736 -0.2131 -0.1888 -0.6912
  302TMC3     H 4604   0.453   2.155   1.844  0.4582  1.2050 -1.7096
  302TMC3    H1 4605   0.153   2.162   1.554 -2.5277 -1.6903  2.0739
  302TMC3    H2 4606   0.395   1.812   1.620  0.7736  0.9787 -2.7000
  302TMC3    C7 4607   0.222   1.926   1.445  0.1083 -0.1422 -0.0531
  302TMC3    C8 4608   0.502   1.916   1.841 -0.4922 -0.4002 -0.1307
  302TMC3    O1 4609   0.279   1.825   1.416  0.1197 -0.3862  0.3236
  302TMC3    O2 4610   0.578   1.984   1.906  0.2942 -0.0291  0.4507
  303MPD2     C 4611   0.558   0.825  11.302  0.8603 -0.4003 -0.9166
  303MPD2    C1 4612   0.496   0.715  11.249 -0.5542  0.1919 -0.2452
  303MPD2    C2 4613   0.439   0.726  11.123  0.0583  0.1097  0.2812
  303MPD2    C3 4614   0.418   0.854  11.070  0.1921 -0.0071  0.0413
  303MPD2    C4 4615   0.485   0.962  11.123 -0.0394 -0.1109  0.3482
  303MPD2    C5 4616   0.560   0.937  11.229  0.2048 -0.6286  0.3728
  303MPD2     H 4617   0.390   0.638  11.082  0.6051 -0.5917  1.1336
  303MPD2    H1 4618   0.466   1.057  11.074 -2.7133 -1.3279 -0.9656
  303MPD2    H2 4619   0.603   0.827  11.401  0.4168 -1.1447 -0.7007
  303MPD2    H3 4620   0.621   1.022  11.261  1.3802 -1.3293 -0.0114
  303MPD2     N 4621   0.337   0.888  10.960 -0.0001  0.2162 -0.4205
  303MPD2    H5 4622   0.343   0.982  10.922 -3.5806  0.4181 -0.4665
  303MPD2    N1 4623   0.490   0.598  11.331  0.0943 -0.6599 -0.1411
  303MPD2    H7 4624   0.514   0.604  11.430 -1.0107  0.6768  0.0427
  304TMC3    C1 4625   0.418   0.380  11.396  0.4916 -0.5783  0.0344
  304TMC3    C2 4626   0.331   0.424  11.493 -0.7109 -0.2185 -0.2055
  304TMC3    C3 4627   0.235   0.335  11.543  0.1682 -0.4637 -0.1548
  304TMC3    C4 4628   0.417   0.249  11.356 -0.1413 -0.8151 -0.6767
  304TMC3    C5 4629   0.326   0.163  11.414 -0.5317 -0.6723  0.0059
  304TMC3    C6 4630   0.241   0.201  11.517  0.4229  1.1470  0.6397
  304TMC3     C 4631   0.446   0.477  11.285 -0.1300  0.3691  0.4339
  304TMC3     O 4632   0.423   0.431  11.173 -0.0486  0.3836  0.1325
  304TMC3     H 4633   0.312   0.530  11.501  0.9497  0.0514  0.0990
  304TMC3    H1 4634   0.442   0.221  11.255  0.2178  2.9564 -1.6525
  304TMC3    H2 4635   0.162   0.137  11.555  1.7948 -2.4517 -2.6038
  304TMC3    C7 4636   0.261   0.060  11.330 -0.2211 -0.6180 -0.1945
  304TMC3    C8 4637   0.101   0.395  11.531  0.3332  0.4756 -0.0258
  304TMC3    O1 4638   0.139   0.064  11.340 -0.3112  0.3822 -0.3989
  304TMC3    O2 4639   0.095   0.513  11.537 -0.1640 -0.1596 -0.3407
  305MPD2     C 4640   2.766   2.210  14.046  0.0169  0.1801 -0.4499
  305MPD2    C1 4641   2.898   2.170  14.023 -0.4312 -0.2399 -0.2681
  305MPD2    C2 4642   2.917   2.087  13.914  0.5208 -0.4075  0.0445
  305MPD2    C3 4643   2.818   2.061  13.820 -0.2741 -0.0984 -0.2386
  305MPD2    C4 4644   2.692   2.113  13.844  0.7009  0.0955  0.2245
  305MPD2    C5 4645   2.668   2.184  13.958 -0.0472  0.5705 -0.2145
  305MPD2     H 4646   3.014   2.052  13.881 -1.3012 -3.1540 -2.4093
  305MPD2    H1 4647   2.607   2.091  13.780  1.2281 -2.9919  0.5994
  305MPD2    H2 4648   2.749   2.269  14.136 -2.4538 -1.3521  0.0700
  305MPD2    H3 4649   2.564   2.209  13.969  0.0124  1.0536 -0.7264
  305MPD2     N 4650   2.831   1.976  13.705  0.0080 -0.6142 -0.6694
  305MPD2    H5 4651   2.743   1.978  13.654 -0.6955 -0.8321  0.5197
  305MPD2    N1 4652   2.990   2.200  14.131  0.4994 -0.2747 -0.4696
  305MPD2    H7 4653   2.946   2.243  14.212  1.2083  0.6808 -0.5914
  306TMC3    C1 4654   3.201   2.188  14.259 -0.0312  0.7864 -0.0557
  306TMC3    C2 4655   3.316   2.117  14.299  0.6141 -0.2467  0.3395
  306TMC3    C3 4656   3.398   2.171  14.389 -0.3491 -0.1951 -0.1086
  306TMC3    C4 4657   3.178   2.308  14.322 -0.6384 -0.3018 -0.1226
  306TMC3    C5 4658   3.258   2.350  14.424 -0.2159  0.0552  0.5273
  306TMC3    C6 4659   3.373   2.288  14.462 -0.3954  0.4868  0.1588
  306TMC3     C 4660   3.123   2.158  14.136  1.0568 -0.9445 -0.0082
  306TMC3     O 4661   3.189   2.100  14.051  0.6710 -0.8267  0.4667
  306TMC3     H 4662   3.335   2.023  14.249  0.2379 -1.7689  3.0800
  306TMC3    H1 4663   3.096   2.373  14.297 -0.9437 -0.5421  0.2417
  306TMC3    H2 4664   3.425   2.320  14.552  1.2419  0.3497 -0.7307
  306TMC3    C7 4665   3.206   2.456  14.519  0.3172  0.9522 -0.2339
  306TMC3    C8 4666   3.525   2.103  14.418 -0.8144 -0.3926  0.0977
  306TMC3    O1 4667   3.084   2.465  14.532 -0.0589 -0.7136  0.2446
  306TMC3    O2 4668   3.546   1.992  14.369 -0.0213 -0.8725 -0.5141
  307MPD2     C 4669   1.532   0.435   1.130 -0.6290 -0.1381 -0.1833
  307MPD2    C1 4670   1.469   0.561   1.137  0.0765  0.4230 -0.3824
  307MPD2    C2 4671   1.342   0.561   1.188 -0.1623  0.2573 -0.2143
  307MPD2    C3 4672   1.276   0.446   1.231  0.3212  0.1268 -0.0960
  307MPD2    C4 4673   1.341   0.327   1.236 -0.2077 -0.6671 -1.0676
  307MPD2    C5 4674   1.463   0.324   1.181 -0.4232  0.6699 -0.0329
  307MPD2     H 4675   1.290   0.655   1.203 -1.6278 -0.7580  1.0829
  307MPD2    H1 4676   1.303   0.235   1.280 -0.1259 -0.4039 -0.4441
  307MPD2    H2 4677   1.632   0.420   1.091 -1.4033 -2.1592 -1.3427
  307MPD2    H3 4678   1.507   0.227   1.159 -2.1408 -0.0653 -0.2202
  307MPD2     N 4679   1.151   0.478   1.284  0.1725  0.2753  0.1093
  307MPD2    H5 4680   1.124   0.576   1.284  0.5419  0.3783  3.2816
  307MPD2    N1 4681   1.522   0.682   1.077 -0.2442 -1.1721  0.2025
  307MPD2    H7 4682   1.463   0.764   1.081 -0.7140 -1.5202  0.4378
  308TMC3    C1 4683   0.744   0.517   1.233 -0.2083  0.2188  0.2586
  308TMC3    C2 4684   0.762   0.644   1.275  0.3199 -0.0992  0.1355
  308TMC3    C3 4685   0.869   0.673   1.351  0.1641  0.3096  0.5754
  308TMC3    C4 4686   0.829   0.415   1.274  0.0814 -0.9065  0.9591
  308TMC3    C5 4687   0.932   0.453   1.359  0.0977 -0.8413 -0.0254
  308TMC3    C6 4688   0.960   0.583   1.394 -0.7439  0.5250  0.3837
  308TMC3     C 4689   0.632   0.482   1.156 -0.2801  0.4702  0.3190
  308TMC3     O 4690   0.596   0.365   1.164  1.0704 -0.2497  0.0262
  308TMC3     H 4691   0.676   0.710   1.268  0.8562  0.8112  2.1612
  308TMC3    H1 4692   0.812   0.317   1.230 -4.0843 -0.4186  1.5161
  308TMC3    H2 4693   1.035   0.592   1.471 -0.5322  1.4723  0.0624
  308TMC3    C7 4694   1.056   0.386   1.323 -0.0718  0.4742 -0.4568
  308TMC3    C8 4695   0.929   0.802   1.340 -0.2626 -0.1776  0.0404
  308TMC3    O1 4696   1.055   0.269   1.286  0.8709  0.3989  0.2790
  308TMC3    O2 4697   1.049   0.799   1.373  0.2554  0.2333  0.5124
  309MPD2     C 4698   4.510   0.410  17.226 -0.5912 -0.5730 -0.7066
  309MPD2    C1 4699   4.489   0.517  17.146 -0.6641  0.2969 -0.5350
  309MPD2    C2 4700   4.453   0.639  17.206 -0.1109  0.1892  0.0494
  309MPD2    C3 4701   4.436   0.647  17.346  0.5398 -0.0917  0.0205
  309MPD2    C4 4702   4.466   0.535  17.421 -0.2000 -0.1213  0.2436
  309MPD2    C5 4703   4.501   0.419  17.360  0.0072 -1.2216  0.4831
  309MPD2     H 4704   4.453   0.724  17.138 -2.0870 -0.0453 -0.2431
  309MPD2    H1 4705   4.464   0.536  17.529 -0.5825  0.2404  0.2333
  309MPD2    H2 4706   4.537   0.316  17.180  0.3893  0.1093 -1.5308
  309MPD2    H3 4707   4.524   0.330  17.417 -1.3465 -2.6273 -1.1695
  309MPD2     N 4708   4.414   0.762  17.422 -0.3214 -0.2859 -0.0160
  309MPD2    H5 4709   4.417   0.746  17.523 -0.6354  0.0641  0.0485
  309MPD2    N1 4710   4.499   0.516  17.001  0.1073 -0.3685 -0.3319
  309MPD2    H7 4711   4.457   0.598  16.957 -0.1861 -1.5440 -2.2683
  310TMC3    C1 4712   4.527   0.440  16.778 -0.3824  0.1783 -1.1590
  310TMC3    C2 4713   4.443   0.541  16.734 -0.4129 -0.1874 -0.1144
  310TMC3    C3 4714   4.460   0.594  16.615  0.9996  0.1671  0.2318
  310TMC3    C4 4715   4.633   0.394  16.710  0.2295  0.4439  0.1561
  310TMC3    C5 4716   4.652   0.451  16.582  0.0571  0.9506  0.5196
  310TMC3    C6 4717   4.561   0.546  16.537  0.1370  0.7489  0.2583
  310TMC3     C 4718   4.538   0.409  16.921 -0.0755  0.2241 -0.3363
  310TMC3     O 4719   4.589   0.302  16.955  0.3791 -0.1572 -0.3878
  310TMC3     H 4720   4.357   0.571  16.793  0.8815 -0.0451  1.7122
  310TMC3    H1 4721   4.700   0.317  16.747  1.2717  1.2737  0.0053
  310TMC3    H2 4722   4.587   0.598  16.446 -0.6418 -1.9130 -1.4733
  310TMC3    C7 4723   0.048   0.435  16.522  0.3589 -0.6236  0.3801
  310TMC3    C8 4724   4.394   0.712  16.567 -0.6748  0.0661 -0.1151
  310TMC3    O1 4725   0.045   0.405  16.402 -0.4659 -1.1430  0.2386
  310TMC3    O2 4726   4.402   0.733  16.446  0.2323  0.6319  0.0758
  311MPD2     C 4727   1.796   1.949  12.661 -0.2169 -0.1336 -0.2971
  311MPD2    C1 4728   1.775   2.063  12.734  0.1128 -0.1121 -0.0213
  311MPD2    C2 4729   1.658   2.060  12.811  0.0136 -0.4897 -0.1856
  311MPD2    C3 4730   1.570   1.954  12.811 -0.4237 -0.1535 -0.4105
  311MPD2    C4 4731   1.600   1.845  12.732  0.0503 -0.1552 -1.0582
  311MPD2    C5 4732   1.711   1.843  12.662 -0.0474  0.3081 -0.2270
  311MPD2     H 4733   1.633   2.145  12.872 -0.9862 -0.0119 -1.2540
  311MPD2    H1 4734   1.534   1.760  12.723  0.1611 -0.6684  3.2579
  311MPD2    H2 4735   1.876   1.937  12.589 -0.0500  1.3134 -0.3556
  311MPD2    H3 4736   1.740   1.757  12.602 -0.2396  1.9200 -2.6578
  311MPD2     N 4737   1.464   1.958  12.897  0.4143  0.3104 -0.0043
  311MPD2    H5 4738   1.457   2.048  12.942 -0.7724 -0.2324  0.8805
  311MPD2    N1 4739   1.849   2.181  12.730  0.3721  0.3598  0.1022
  311MPD2    H7 4740   1.813   2.252  12.793 -1.9277 -0.1203 -0.7002
  312TMC3    C1 4741   1.252   1.937  12.971  0.4614  0.1776 -1.1323
  312TMC3    C2 4742   1.138   1.933  12.892 -0.4293  0.3109 -0.9256
  312TMC3    C3 4743   1.065   2.049  12.889  0.3816 -0.6100  0.5225
  312TMC3    C4 4744   1.286   2.036  13.049  0.1168  0.1582  0.3299
  312TMC3    C5 4745   1.213   2.151  13.040 -0.4000  0.4110  0.0670
  312TMC3    C6 4746   1.097   2.159  12.966 -0.1475  0.5749  0.0176
  312TMC3     C 4747   1.363   1.867  12.921 -0.4162  0.1371 -0.3372
  312TMC3     O 4748   1.351   1.755  12.875 -0.0094  0.5485 -0.2422
  312TMC3     H 4749   1.119   1.845  12.831 -0.5146 -0.4098  0.1223
  312TMC3    H1 4750   1.381   2.036  13.102  0.9935 -2.0784 -1.2291
  312TMC3    H2 4751   1.035   2.248  12.959 -1.4004 -0.4254 -1.4570
  312TMC3    C7 4752   1.236   2.261  13.134  0.0155  0.1130  0.3707
  312TMC3    C8 4753   0.948   2.047  12.800 -0.2902 -0.6993 -0.2163
  312TMC3    O1 4754   1.181   2.368  13.100 -0.4325  0.1436 -0.5647
  312TMC3    O2 4755   0.904   1.938  12.755 -0.0210 -0.6107 -0.3180
  313MPD2     C 4756   0.963   2.242  11.567  0.2764 -0.8521 -0.7624
  313MPD2    C1 4757   1.079   2.267  11.504 -0.1587 -0.8619  0.0548
  313MPD2    C2 4758   1.168   2.160  11.486 -0.1061 -0.1451 -0.5302
  313MPD2    C3 4759   1.131   2.038  11.534 -0.4043  0.6516  0.2082
  313MPD2    C4 4760   1.016   2.012  11.599  0.6123 -0.5337 -0.6784
  313MPD2    C5 4761   0.931   2.119  11.622 -0.3541 -0.1277  0.2062
  313MPD2     H 4762   1.255   2.173  11.421 -1.2384  1.1064 -1.8064
  313MPD2    H1 4763   0.984   1.915  11.633  1.1984 -1.1358 -1.8157
  313MPD2    H2 4764   0.887   2.318  11.583  1.6664  0.2376  0.6666
  313MPD2    H3 4765   0.832   2.108  11.664 -1.5121 -0.4031 -2.5408
  313MPD2     N 4766   1.204   1.926  11.485 -0.5623 -0.5704  0.2280
  313MPD2    H5 4767   1.281   1.944  11.422  1.1469  0.2089  2.5464
  313MPD2    N1 4768   1.105   2.392  11.435  0.1015 -0.4401 -0.9162
  313MPD2    H7 4769   1.201   2.414  11.412 -0.1481  1.2531 -0.2915
  314TMC3    C1 4770   1.072   2.597  11.337  0.3739  0.3207 -0.2294
  314TMC3    C2 4771   1.201   2.636  11.387  0.7949 -0.4024 -0.8644
  314TMC3    C3 4772   1.276   2.714  11.305 -0.2795 -0.3084  0.5406
  314TMC3    C4 4773   1.029   2.618  11.207  0.4534  0.2193  0.4027
  314TMC3    C5 4774   1.109   2.701  11.131 -0.3507  0.2252  0.0491
  314TMC3    C6 4775   1.231   2.751  11.181 -0.3717  0.0448 -0.6246
  314TMC3     C 4776   1.012   2.486  11.405 -0.2341  0.6244 -0.5105
  314TMC3     O 4777   0.892   2.471  11.391  0.0679  0.1589 -0.5627
  314TMC3     H 4778   1.234   2.606  11.485  0.3291  1.1406 -0.2289
  314TMC3    H1 4779   0.934   2.576  11.176  1.5554 -1.7824 -0.2177
  314TMC3    H2 4780   1.289   2.823  11.125 -0.7151  0.1269 -0.8747
  314TMC3    C7 4781   1.066   2.719  10.994  0.1629 -0.0396 -0.4363
  314TMC3    C8 4782   1.408   2.759  11.337 -0.6588 -0.2028 -0.0161
  314TMC3    O1 4783   0.947   2.695  10.964  0.1125  0.1846 -0.7325
  314TMC3    O2 4784   1.467   2.841  11.272 -0.3750  0.3547  0.8785
  315MPD2     C 4785   1.387   0.021   0.393 -0.3835 -0.4036 -0.3756
  315MPD2    C1 4786   1.474   0.126   0.396 -0.3265  0.4315 -0.2495
  315MPD2    C2 4787   1.439   0.239   0.334  0.0430  1.1374  0.7165
  315MPD2    C3 4788   1.310   0.253   0.283 -0.6719 -0.2210  0.5184
  315MPD2    C4 4789   1.219   0.150   0.281 -0.3914  0.6348  0.0181
  315MPD2    C5 4790   1.258   0.031   0.336 -1.0136  0.6454 -0.7971
  315MPD2     H 4791   1.509   0.322   0.330 -0.2849  1.2974 -1.6473
  315MPD2    H1 4792   1.135   0.156   0.213  1.7098 -1.1945 -2.7548
  315MPD2    H2 4793   1.402   4.662   0.448  1.0462 -1.7503 -2.9979
  315MPD2    H3 4794   1.191   4.679   0.348 -0.4472  0.5017  1.2987
  315MPD2     N 4795   1.285   0.368   0.209  0.1199  0.0554 -0.3617
  315MPD2    H5 4796   1.365   0.430   0.197 -0.5416  0.7838 -0.9428
  315MPD2    N1 4797   1.606   0.122   0.452  0.8116 -0.0629  0.0065
  315MPD2    H7 4798   1.651   0.213   0.455 -1.2608  0.9657  0.0739
  316TMC3    C1 4799   1.179   0.503   0.046 -0.3100 -0.2818 -0.4727
  316TMC3    C2 4800   1.287   0.501  17.692  0.5149  0.6447  0.0213
  316TMC3    C3 4801   1.290   0.596  17.596  0.2117 -0.7596  0.1524
  316TMC3    C4 4802   1.073   0.594   0.044  0.2967  0.0585  0.5835
  316TMC3    C5 4803   1.077   0.677  17.667 -0.4338 -0.2887 -0.4919
  316TMC3    C6 4804   1.180   0.679  17.576  0.0438  0.3842 -0.4911
  316TMC3     C 4805   1.169   0.395   0.146  0.5928  1.1890  0.0376
  316TMC3     O 4806   1.055   0.360   0.171  0.0800 -0.3175 -0.9971
  316TMC3     H 4807   1.366   0.428  17.707  0.8024  1.1033  0.7332
  316TMC3    H1 4808   0.987   0.579   0.107 -0.7511  0.2154 -0.8041
  316TMC3    H2 4809   1.187   0.748  17.492 -0.0392  0.9395 -0.0439
  316TMC3    C7 4810   0.995   0.795  17.680  0.0110 -0.3129 -0.7396
  316TMC3    C8 4811   1.413   0.631  17.531  0.1377  0.0305 -0.9455
  316TMC3    O1 4812   0.980   0.824   0.074  0.1201  0.1993 -0.4501
  316TMC3    O2 4813   1.416   0.708  17.434 -0.3162  0.0202  0.2455
  317MPD2     C 4814   2.560   4.241  12.814  0.2313  0.1862 -0.4203
  317MPD2    C1 4815   2.613   4.117  12.801  0.0590  0.0607  0.1821
  317MPD2    C2 4816   2.650   4.042  12.909 -0.0754 -0.5106  0.8476
  317MPD2    C3 4817   2.638   4.098  13.033  0.1511 -0.0355  0.1406
  317MPD2    C4 4818   2.586   4.220  13.043  0.5948 -0.1643  0.2713
  317MPD2    C5 4819   2.546   4.292  12.940 -0.1842 -0.1688 -0.2589
  317MPD2     H 4820   2.712   3.953  12.904  0.8717  0.0685  2.1552
  317MPD2    H1 4821   2.569   4.270  13.137  1.6096 -0.5754  0.6641
  317MPD2    H2 4822   2.556   4.306  12.727 -1.0688  0.6415 -0.0221
  317MPD2    H3 4823   2.507   4.390  12.962  1.6309  0.9167 -1.8006
  317MPD2     N 4824   2.686   4.025  13.141 -0.3022  0.1324  0.5248
  317MPD2    H5 4825   2.728   3.935  13.118  0.9996  1.0760 -0.8037
  317MPD2    N1 4826   2.646   4.066  12.679 -0.1347  0.0602 -0.0723
  317MPD2    H7 4827   2.689   3.975  12.668 -0.4773  0.3315 -3.7082
  318TMC3    C1 4828   2.738   3.967  13.361 -0.1020 -1.0073  1.1385
  318TMC3    C2 4829   2.683   3.845  13.341 -0.7731  0.5098  1.1306
  318TMC3    C3 4830   2.757   3.744  13.400  0.3480  0.3405 -0.2005
  318TMC3    C4 4831   2.850   3.996  13.433  0.0142  0.1780 -0.2787
  318TMC3    C5 4832   2.925   3.892  13.468 -0.4508  0.5900  0.1359
  318TMC3    C6 4833   2.878   3.767  13.456  0.5373  0.1240  0.0559
  318TMC3     C 4834   2.693   4.068  13.266  0.0816 -0.7340 -0.0306
  318TMC3     O 4835   2.685   4.178  13.316  0.2588  0.1938 -0.3636
  318TMC3     H 4836   2.602   3.828  13.271  0.4175 -0.5973  0.0312
  318TMC3    H1 4837   2.881   4.100  13.440  0.6432  0.0990 -1.9106
  318TMC3    H2 4838   2.930   3.680  13.495 -1.3885  0.0724  2.4852
  318TMC3    C7 4839   3.062   3.917  13.510  0.0060  0.4197  0.4300
  318TMC3    C8 4840   2.724   3.618  13.353 -0.2157 -0.1643  0.3848
  318TMC3    O1 4841   3.086   4.036  13.532 -0.5055  0.0227 -0.3428
  318TMC3    O2 4842   2.807   3.531  13.361  0.0062 -0.5348  0.6951
  319MPD2     C 4843   4.209   4.607  16.584  0.2640 -0.4565  0.2179
  319MPD2    C1 4844   4.107   4.554  16.660 -0.0018 -0.1897  0.4868
  319MPD2    C2 4845   3.991   4.514  16.588 -0.3302 -0.5594 -0.0737
  319MPD2    C3 4846   3.980   4.530  16.451 -0.2501  0.0585  0.3882
  319MPD2    C4 4847   4.081   4.589  16.382  0.3787  0.8430  0.3395
  319MPD2    C5 4848   4.191   4.632  16.445 -0.4829  0.0710 -0.8841
  319MPD2     H 4849   3.910   4.473  16.647  0.3239 -2.0855 -0.2114
  319MPD2    H1 4850   4.073   4.596  16.274  0.4427 -0.4049  0.2579
  319MPD2    H2 4851   4.304   4.632  16.629  0.6345  0.0914 -0.8900
  319MPD2    H3 4852   4.269   4.665  16.376  0.3633  0.3905  0.2288
  319MPD2     N 4853   3.870   4.484  16.378  0.2023  0.3350  0.0109
  319MPD2    H5 4854   3.872   4.514  16.281 -1.3728 -0.3594 -0.2291
  319MPD2    N1 4855   4.116   4.531  16.800  0.8664 -0.2959  0.6788
  319MPD2    H7 4856   4.037   4.487  16.846  0.2854  1.1283  1.0260
  320TMC3    C1 4857   3.658   4.392  16.341  0.4609 -0.4593  0.2540
  320TMC3    C2 4858   3.622   4.513  16.285 -0.0595 -0.1529  0.1277
  320TMC3    C3 4859   3.497   4.515  16.235  0.3787  0.1193  0.2845
  320TMC3    C4 4860   3.574   4.285  16.353 -0.1246  0.5633  0.4280
  320TMC3    C5 4861   3.453   4.295  16.303 -0.3018  0.7677 -0.5718
  320TMC3    C6 4862   3.419   4.402  16.226  0.0413  0.1113  0.5337
  320TMC3     C 4863   3.774   4.398  16.427  0.1778  0.0851 -0.3426
  320TMC3     O 4864   3.766   4.337  16.535  0.1493 -0.3585  0.1925
  320TMC3     H 4865   3.699   4.590  16.281  0.3297 -0.5161  0.5245
  320TMC3    H1 4866   3.622   4.196  16.393  0.6973  0.9570  0.3164
  320TMC3    H2 4867   3.322   4.403  16.178 -0.8161  0.0558  2.2460
  320TMC3    C7 4868   3.391   4.169  16.260 -0.0354  0.0474  0.5632
  320TMC3    C8 4869   3.453   4.624  16.152  0.2275 -0.6705 -0.1384
  320TMC3    O1 4870   3.313   4.167  16.166 -0.5165  0.2742 -0.0917
  320TMC3    O2 4871   3.518   4.724  16.166  0.3450  0.3327  0.5157
  321TMC3    C1 4872   4.203   4.520  17.015  0.7002 -0.7608  0.3570
  321TMC3    C2 4873   4.097   4.429  17.040  0.3738  0.2244  0.4292
  321TMC3    C3 4874   4.063   4.403  17.166  0.1458 -0.4460 -0.4797
  321TMC3    C4 4875   4.263   4.581  17.125  0.1642  0.1910  0.1312
  321TMC3    C5 4876   4.215   4.556  17.256 -0.0515  0.1616  0.3556
  321TMC3    C6 4877   4.116   4.470  17.273  0.2422  0.1977 -0.7946
  321TMC3     C 4878   4.221   4.566  16.882 -0.4049 -0.0007  0.2555
  321TMC3     O 4879   4.335   4.613  16.861  0.1669  0.6224 -0.3555
  321TMC3     H 4880   4.048   4.364  16.968  1.6033 -0.6875  0.4235
  321TMC3    H1 4881   4.349   4.646  17.116 -0.1132  0.5599  0.1820
  321TMC3    H2 4882   4.076   4.450  17.372 -1.4268  1.4771 -1.1922
  321TMC3    C7 4883   4.306   4.548  17.368  0.8896 -0.1027 -0.2742
  321TMC3    C8 4884   4.050   4.265  17.200  0.9541 -1.4362  0.1345
  321TMC3    O1 4885   4.275   4.461  17.453 -0.0740  0.2431  0.0818
  321TMC3    O2 4886   3.985   4.186  17.131  0.5115 -0.0863  0.4207
  322MPD2     C 4887   2.937   1.415  13.502 -0.3848 -0.4166  0.8858
  322MPD2    C1 4888   2.979   1.342  13.614  0.4399 -0.6796 -0.1132
  322MPD2    C2 4889   3.058   1.231  13.599  0.1122 -0.0676 -0.4078
  322MPD2    C3 4890   3.086   1.181  13.474 -0.0734  0.7296 -0.4872
  322MPD2    C4 4891   3.041   1.256  13.366 -0.5432 -1.1859 -0.2707
  322MPD2    C5 4892   2.978   1.371  13.376  0.0083 -0.8797 -0.8567
  322MPD2     H 4893   3.102   1.176  13.682 -0.4624 -1.7559 -1.2138
  322MPD2    H1 4894   3.070   1.217  13.269 -0.4430  0.2589 -0.8232
  322MPD2    H2 4895   2.892   1.513  13.513  2.9692  1.0602  1.4126
  322MPD2    H3 4896   2.952   1.429  13.288 -1.1209  1.5966  1.0956
  322MPD2     N 4897   3.167   1.062  13.466  0.2858  0.2467  0.6677
  322MPD2    H5 4898   3.201   1.017  13.550 -1.1608  2.1051  2.2349
  322MPD2    N1 4899   2.960   1.406  13.737 -0.0227  0.0602 -0.0010
  322MPD2    H7 4900   2.923   1.501  13.737  0.9416  0.4299 -0.4211
  323TMC3    C1 4901   2.979   1.444  13.962  0.0513  0.2943 -0.5969
  323TMC3    C2 4902   3.070   1.545  13.946 -0.0725 -0.3478 -0.2548
  323TMC3    C3 4903   3.103   1.619  14.053 -0.5602  0.4291 -0.2575
  323TMC3    C4 4904   2.931   1.409  14.089  0.3311  0.0020 -0.0484
  323TMC3    C5 4905   2.977   1.478  14.201 -0.1704  0.5945  0.7178
  323TMC3    C6 4906   3.056   1.593  14.183 -0.1074  0.2125  0.9382
  323TMC3     C 4907   2.973   1.346  13.855 -0.4313 -0.1812  0.2211
  323TMC3     O 4908   2.980   1.229  13.891 -0.2460  0.2668  0.0991
  323TMC3     H 4909   3.105   1.559  13.844 -0.8604  2.0977 -0.1912
  323TMC3    H1 4910   2.872   1.318  14.096 -0.3841  0.4212 -0.6831
  323TMC3    H2 4911   3.088   1.667  14.255  0.0188  2.5795 -1.5559
  323TMC3    C7 4912   3.026   1.396  14.313 -0.0890 -0.1647  0.3389
  323TMC3    C8 4913   3.230   1.693  14.050 -0.2759  0.2865  0.0633
  323TMC3    O1 4914   3.019   1.276  14.309 -0.5369  0.2326  0.5520
  323TMC3    O2 4915   3.305   1.678  14.144  0.1626  0.0827  0.2598
  324MPD2     C 4916   4.348   2.372  14.594  0.1355  0.1780  0.2362
  324MPD2    C1 4917   4.381   2.488  14.530 -0.8625 -0.7460  0.4012
  324MPD2    C2 4918   4.279   2.546  14.456  0.2880  0.0043  0.4836
  324MPD2    C3 4919   4.164   2.477  14.427  0.6366  0.0616  0.3960
  324MPD2    C4 4920   4.144   2.355  14.476  0.0271  0.1781  0.4042
  324MPD2    C5 4921   4.231   2.301  14.562  0.0897  0.0738  0.1587
  324MPD2     H 4922   4.299   2.646  14.418 -0.6850 -0.4050 -1.0970
  324MPD2    H1 4923   4.043   2.314  14.472  0.2622 -0.2621 -0.7724
  324MPD2    H2 4924   4.412   2.315  14.661  0.0139  0.6811  0.7872
  324MPD2    H3 4925   4.212   2.205  14.609 -1.0578  0.8037  1.1820
  324MPD2     N 4926   4.063   2.535  14.346  0.5361  0.3287  0.4998
  324MPD2    H5 4927   3.981   2.478  14.334 -0.6385  1.9770  0.6296
  324MPD2    N1 4928   4.494   2.566  14.546 -0.3866 -0.1709  0.0017
  324MPD2    H7 4929   4.496   2.654  14.497  2.1833 -0.3438 -0.1738
  325TMC3    C1 4930   3.947   2.716  14.231  0.2699  0.2132 -0.1178
  325TMC3    C2 4931   3.823   2.675  14.277  0.0129  0.2860  0.1136
  325TMC3    C3 4932   3.713   2.760  14.270  0.3639  0.3691  0.5724
  325TMC3    C4 4933   3.951   2.834  14.165  0.0219  0.2297  0.0187
  325TMC3    C5 4934   3.841   2.915  14.151 -1.0178  0.2201  0.1671
  325TMC3    C6 4935   3.720   2.887  14.205 -0.0625 -0.1822 -0.0669
  325TMC3     C 4936   4.071   2.661  14.288  0.1422  0.1137 -0.1962
  325TMC3     O 4937   4.169   2.726  14.265  0.0617 -0.3789 -0.1494
  325TMC3     H 4938   3.811   2.576  14.318  1.0004 -0.5156 -1.5498
  325TMC3    H1 4939   4.049   2.876  14.144  0.1447 -0.5426 -0.9609
  325TMC3    H2 4940   3.636   2.942  14.164 -1.1178 -3.6071 -2.5693
  325TMC3    C7 4941   3.878   3.046  14.099 -0.0828  0.6502 -0.0587
  325TMC3    C8 4942   3.594   2.686  14.233  1.0282  1.0885 -0.2987
  325TMC3    O1 4943   3.999   3.075  14.085 -0.3160 -0.2180 -0.5576
  325TMC3    O2 4944   3.611   2.580  14.181  0.5123  0.0508 -0.3396
  326MPD2     C 4945   1.529   4.287  10.570 -0.8403  0.9684 -0.8289
  326MPD2    C1 4946   1.461   4.236  10.458 -0.1263  0.4278  0.0576
  326MPD2    C2 4947   1.524   4.242  10.330  0.1764 -0.3511 -0.7589
  326MPD2    C3 4948   1.654   4.295  10.326  0.1260  0.3672 -0.0728
  326MPD2    C4 4949   1.724   4.339  10.443 -1.1173  0.0158 -0.0990
  326MPD2    C5 4950   1.665   4.328  10.562 -0.3577  0.4625  0.2933
  326MPD2     H 4951   1.466   4.232  10.239 -0.5323  1.1138 -0.4732
  326MPD2    H1 4952   1.830   4.364  10.444 -0.9708 -0.5201 -1.2468
  326MPD2    H2 4953   1.492   4.289  10.671  0.5734 -0.2031 -0.2763
  326MPD2    H3 4954   1.727   4.346  10.649  1.6384  0.8323 -1.1990
  326MPD2     N 4955   1.724   4.325  10.206  0.7131  0.0704  0.0147
  326MPD2    H5 4956   1.812   4.374  10.221  1.1227 -0.9044  0.7709
  326MPD2    N1 4957   1.336   4.172  10.466 -0.1806  0.0992 -0.2819
  326MPD2    H7 4958   1.294   4.144  10.378  0.1572 -0.3707 -0.2919
  327TMC3    C1 4959   1.140   4.077  10.574 -0.1778  0.5256 -0.0750
  327TMC3    C2 4960   1.065   4.180  10.531 -0.0709  0.5065 -0.4736
  327TMC3    C3 4961   0.952   4.206  10.599 -0.6750  0.1226 -0.3618
  327TMC3    C4 4962   1.103   3.996  10.674  0.8365  0.2130  0.2742
  327TMC3    C5 4963   0.994   4.036  10.752  0.2562  0.4599 -0.5473
  327TMC3    C6 4964   0.910   4.138  10.708  0.6463 -0.7397  0.0411
  327TMC3     C 4965   1.275   4.129  10.585 -0.1391 -0.8146  0.0260
  327TMC3     O 4966   1.326   4.130  10.696 -0.4861  0.1370 -0.3747
  327TMC3     H 4967   1.097   4.242  10.449 -3.3655  1.0191 -1.4009
  327TMC3    H1 4968   1.158   3.906  10.700 -0.1453 -0.0578  1.4222
  327TMC3    H2 4969   0.836   4.169  10.781  1.4411  1.7534 -0.2415
  327TMC3    C7 4970   0.982   3.984  10.885  0.0097  0.5130 -0.0596
  327TMC3    C8 4971   0.889   4.347  10.583  0.1460  0.3956  0.4267
  327TMC3    O1 4972   0.881   4.007  10.950  0.2143  0.3097 -0.3054
  327TMC3    O2 4973   0.948   4.441  10.531  0.5341  0.3908  0.6582
  328MPD2     C 4974   3.602   3.794  17.117 -0.4234  0.5363 -0.1231
  328MPD2    C1 4975   3.486   3.725  17.113 -0.8847  0.5851  0.5215
  328MPD2    C2 4976   3.387   3.768  17.027 -0.2773 -0.0743  0.9677
  328MPD2    C3 4977   3.404   3.870  16.940 -0.5834  0.2218 -0.6389
  328MPD2    C4 4978   3.521   3.936  16.944 -0.0071 -0.1932 -0.3302
  328MPD2    C5 4979   3.620   3.902  17.033 -0.1501  0.2248  0.2102
  328MPD2     H 4980   3.287   3.726  17.029 -0.5554  0.5846  0.9184
  328MPD2    H1 4981   3.553   4.009  16.872  0.9937 -0.5867 -0.2935
  328MPD2    H2 4982   3.675   3.772  17.195  0.0279 -0.6172 -0.8602
  328MPD2    H3 4983   3.708   3.964  17.041  0.2582 -0.1644 -1.4012
  328MPD2     N 4984   3.313   3.909  16.839 -0.3498  0.3305 -0.2486
  328MPD2    H5 4985   3.321   4.002  16.799 -0.5038 -0.0152 -1.0729
  328MPD2    N1 4986   3.479   3.620  17.205  0.2524 -0.3792  0.1230
  328MPD2    H7 4987   3.566   3.614  17.257  1.6350  0.7070 -2.0610
  329TMC3    C1 4988   3.391   3.437  17.326 -0.1856  0.5114  0.1278
  329TMC3    C2 4989   3.483   3.453  17.429 -0.3709  0.3160  0.3997
  329TMC3    C3 4990   3.518   3.339  17.498 -0.3266 -0.1308  0.2013
  329TMC3    C4 4991   3.309   3.332  17.320 -0.1033  0.4494  0.1097
  329TMC3    C5 4992   3.339   3.229  17.405  0.5519 -0.4911 -0.0794
  329TMC3    C6 4993   3.443   3.227  17.490 -0.3121 -0.1600 -0.0077
  329TMC3     C 4994   3.370   3.545  17.224 -0.0915  0.4289 -0.2866
  329TMC3     O 4995   3.268   3.539  17.156 -0.0037 -0.2921 -0.3995
  329TMC3     H 4996   3.537   3.545  17.445  1.1619 -0.6067  0.5869
  329TMC3    H1 4997   3.241   3.314  17.238  1.0594 -0.4959 -0.6612
  329TMC3    H2 4998   3.447   3.161  17.576 -1.1596  0.5133  0.5379
  329TMC3    C7 4999   3.229   3.138  17.436  0.3683  0.4286 -0.2856
  329TMC3    C8 5000   3.597   3.358  17.622  0.2623  0.1477  0.4743
  329TMC3    O1 5001   3.250   3.023  17.474  0.4300  0.0792  0.5988
  329TMC3    O2 5002   3.684   3.283  17.651 -0.1873  0.0810  0.4206
  330TMC3    C1 5003   1.517   3.503   9.522 -0.4360  0.0378  0.0088
  330TMC3    C2 5004   1.439   3.387   9.502  0.7151 -0.5534  0.7032
  330TMC3    C3 5005   1.499   3.274   9.548  0.5653 -0.2251  0.1622
  330TMC3    C4 5006   1.643   3.503   9.580  0.5251  0.2154 -0.8514
  330TMC3    C5 5007   1.681   3.383   9.640 -0.2231 -0.2293 -0.1258
  330TMC3    C6 5008   1.617   3.266   9.616 -0.5540 -0.0192 -0.4092
  330TMC3     C 5009   1.454   3.635   9.505 -0.6435 -0.0852  0.2734
  330TMC3     O 5010   1.505   3.721   9.576 -0.2069 -0.0622  0.1760
  330TMC3     H 5011   1.337   3.390   9.465  1.6628  2.2433 -1.6190
  330TMC3    H1 5012   1.702   3.589   9.610 -2.0263  1.1052  1.6122
  330TMC3    H2 5013   1.654   3.167   9.641 -2.4372 -0.6519 -0.0449
  330TMC3    C7 5014   1.812   3.382   9.701 -0.1170 -0.2447 -0.1001
  330TMC3    C8 5015   1.429   3.154   9.519 -0.2166 -0.0789 -0.2314
  330TMC3    O1 5016   1.867   3.489   9.711 -0.3136  0.0627  0.2043
  330TMC3    O2 5017   1.373   3.144   9.413 -0.0901 -0.0186 -0.4786
  331MPD2     C 5018   3.661   2.322  12.624 -0.2366 -0.0213 -0.2742
  331MPD2    C1 5019   3.779   2.287  12.565  0.3668 -0.2584 -0.0001
  331MPD2    C2 5020   3.809   2.154  12.531 -0.1055  0.0143 -0.0577
  331MPD2    C3 5021   3.729   2.050  12.580 -0.7108 -0.0559  0.0681
  331MPD2    C4 5022   3.628   2.085  12.666 -0.3473  0.0655  0.4033
  331MPD2    C5 5023   3.585   2.224  12.681  0.2888  0.2948 -1.1304
  331MPD2     H 5024   3.889   2.123  12.464  0.6980 -0.0660  0.9453
  331MPD2    H1 5025   3.565   2.011  12.714 -3.7546  1.7583 -1.5309
  331MPD2    H2 5026   3.632   2.424  12.646 -0.1155 -0.4031  1.6022
  331MPD2    H3 5027   3.484   2.242  12.715  0.3569 -1.6000  0.1303
  331MPD2     N 5028   3.770   1.921  12.546  0.4830  0.3703  0.4097
  331MPD2    H5 5029   3.848   1.911  12.481 -0.3032  1.1549 -0.6447
  331MPD2    N1 5030   3.867   2.391  12.522 -0.1344 -0.0849 -0.0376
  331MPD2    H7 5031   3.839   2.487  12.541 -1.0770 -0.9621  3.0775
  332TMC3    C1 5032   3.776   1.683  12.557  0.1516 -0.2245  0.2464
  332TMC3    C2 5033   3.815   1.678  12.422  0.6697 -0.0884  0.5405
  332TMC3    C3 5034   3.940   1.631  12.391 -0.8455 -0.4798  0.1579
  332TMC3    C4 5035   3.855   1.617  12.646  0.1735  0.7438  0.6302
  332TMC3    C5 5036   3.978   1.569  12.606 -0.5978 -0.2948 -0.1334
  332TMC3    C6 5037   4.021   1.572  12.477  0.0678 -1.3226 -0.5089
  332TMC3     C 5038   3.720   1.807  12.610  0.2122 -0.0377 -0.1731
  332TMC3     O 5039   3.648   1.797  12.710 -0.0265 -0.0533  0.1879
  332TMC3     H 5040   3.763   1.727  12.340 -0.4166 -1.3277  0.5031
  332TMC3    H1 5041   3.840   1.638  12.752  1.1162  1.4794  0.6174
  332TMC3    H2 5042   4.116   1.530  12.448 -0.3531 -1.9658 -0.9836
  332TMC3    C7 5043   4.071   1.559  12.720 -0.5586  0.6184  0.4580
  332TMC3    C8 5044   4.003   1.643  12.257  0.4896 -0.2627  0.2738
  332TMC3    O1 5045   4.028   1.525  12.829 -0.4886 -0.1318 -0.4334
  332TMC3    O2 5046   4.116   1.699  12.256 -0.5913  0.2553 -0.4597
  333MPD2     C 5047   0.044   2.842  11.825  0.4449 -0.0541  0.1880
  333MPD2    C1 5048   4.724   2.865  11.700  0.0828 -0.4176  0.4882
  333MPD2    C2 5049   4.590   2.819  11.661 -0.4613  0.1357 -0.9074
  333MPD2    C3 5050   4.527   2.733  11.748  0.2674 -0.7577 -0.3165
  333MPD2    C4 5051   4.574   2.725  11.875 -0.4618  0.0935  0.2464
  333MPD2    C5 5052   4.690   2.785  11.910  0.1644  0.3501 -0.3407
  333MPD2     H 5053   4.559   2.835  11.558 -0.1288  0.3311 -0.9801
  333MPD2    H1 5054   4.521   2.667  11.949 -0.4592  0.4768  0.5471
  333MPD2    H2 5055   0.143   2.874  11.855  1.4077 -2.1566 -0.7296
  333MPD2    H3 5056   4.731   2.772  12.009  2.5871 -0.0269 -1.4062
  333MPD2     N 5057   4.416   2.662  11.703  0.5089  0.2897  0.4600
  333MPD2    H5 5058   4.407   2.660  11.602 -0.5883 -0.2897  0.5719
  333MPD2    N1 5059   0.084   2.930  11.610 -0.1514  0.2625  0.7694
  333MPD2    H7 5060   0.175   2.956  11.647  1.0616 -0.2156 -1.8848
  334TMC3    C1 5061   0.163   3.023  11.397  0.8468 -0.4037 -0.3704
  334TMC3    C2 5062   0.296   3.003  11.426  0.7094 -0.1003 -0.6798
  334TMC3    C3 5063   0.390   3.043  11.328  0.0624 -0.4564  0.6446
  334TMC3    C4 5064   0.122   3.075  11.274  0.0861  0.5921 -0.4980
  334TMC3    C5 5065   0.218   3.118  11.185 -0.6025  0.3491  0.1169
  334TMC3    C6 5066   0.353   3.096  11.207 -0.1962  0.2787  0.8529
  334TMC3     C 5067   0.057   2.964  11.476 -0.4841  0.4696 -0.4976
  334TMC3     O 5068   4.679   2.961  11.421  0.1052  0.3788  0.6208
  334TMC3     H 5069   0.323   2.954  11.520  1.0611 -2.4305 -1.9956
  334TMC3    H1 5070   0.017   3.097  11.256  0.6102  0.6937 -3.2639
  334TMC3    H2 5071   0.433   3.137  11.146 -0.3342 -0.5163  0.1242
  334TMC3    C7 5072   0.174   3.216  11.094 -0.0304 -0.0208 -0.0275
  334TMC3    C8 5073   0.530   3.019  11.361  0.2782  0.6867 -0.0851
  334TMC3    O1 5074   0.062   3.266  11.120  0.2152 -0.3386  0.2597
  334TMC3    O2 5075   0.562   3.015  11.483  0.2986  0.3685 -0.2877
  335TMC3    C1 5076   4.338   3.470  17.558  0.0077  0.0350  1.0754
  335TMC3    C2 5077   4.210   3.470  17.509 -0.2021 -0.0564 -0.3243
  335TMC3    C3 5078   4.200   3.493  17.375 -0.2727  0.7184 -0.2256
  335TMC3    C4 5079   4.450   3.521  17.493 -1.3733  0.1995 -0.3303
  335TMC3    C5 5080   4.431   3.556  17.361 -0.4394 -0.6807 -0.8098
  335TMC3    C6 5081   4.308   3.533  17.292 -0.1179  0.5250  0.2950
  335TMC3     C 5082   4.351   3.386  17.673 -0.3096 -0.0502 -0.1517
  335TMC3     O 5083   4.266   3.387   0.027 -0.1915  0.7047  0.0976
  335TMC3     H 5084   4.121   3.437  17.561  0.2267  1.9620  1.6978
  335TMC3    H1 5085   4.549   3.520  17.536 -1.5720 -0.8312  0.1108
  335TMC3    H2 5086   4.295   3.544  17.185  1.0590  1.3063  0.2290
  335TMC3    C7 5087   4.539   3.542  17.269  0.4162  0.1716  0.6773
  335TMC3    C8 5088   4.080   3.522  17.303  0.6645  0.0395  0.4112
  335TMC3    O1 5089   4.521   3.466  17.176 -0.5201  0.0233  0.1824
  335TMC3    O2 5090   4.073   3.611  17.224 -0.0638 -0.1639 -0.3005
  336MPD2     C 5091   3.619   1.520  16.537  0.1908 -0.2332 -0.5211
  336MPD2    C1 5092   3.672   1.483  16.416  0.4060  0.0538  0.0984
  336MPD2    C2 5093   3.754   1.371  16.408  1.0969 -0.7386 -0.2652
  336MPD2    C3 5094   3.786   1.297  16.526 -0.2338  0.3268 -0.1049
  336MPD2    C4 5095   3.738   1.345  16.646 -0.5412 -0.0981  0.0493
  336MPD2    C5 5096   3.652   1.456  16.655 -0.0216 -1.0155  0.3447
  336MPD2     H 5097   3.796   1.349  16.310  1.1730  0.3313 -0.4723
  336MPD2    H1 5098   3.766   1.306  16.742  1.3616  1.6229  0.1948
  336MPD2    H2 5099   3.558   1.610  16.540  1.3798  0.5544  0.5598
  336MPD2    H3 5100   3.610   1.485  16.751 -1.0461  2.9908 -1.2856
  336MPD2     N 5101   3.875   1.185  16.522  0.0997  0.4513  0.5731
  336MPD2    H5 5102   3.911   1.143  16.607  1.4915  2.8062  1.1540
  336MPD2    N1 5103   3.630   1.543  16.297 -0.3639  0.7967 -0.2686
  336MPD2    H7 5104   3.689   1.530  16.215 -1.2623 -0.7824 -0.6712
  337TMC3    C1 5105   3.504   1.669  16.142 -0.0962  1.1946  0.0149
  337TMC3    C2 5106   3.380   1.683  16.092 -0.3644 -0.1935  0.1376
  337TMC3    C3 5107   3.368   1.767  15.985 -0.2234 -0.2066  1.3039
  337TMC3    C4 5108   3.617   1.742  16.106 -0.0512  0.5345 -0.0553
  337TMC3    C5 5109   3.596   1.825  15.995  1.0957 -0.4434 -0.2976
  337TMC3    C6 5110   3.477   1.834  15.925 -0.3144  0.6676 -0.2871
  337TMC3     C 5111   3.511   1.613  16.275 -0.2041 -0.2145  0.3991
  337TMC3     O 5112   3.403   1.611  16.337  0.3617 -0.9606 -0.6449
  337TMC3     H 5113   3.289   1.639  16.131  0.0022 -0.9057  0.2037
  337TMC3    H1 5114   3.706   1.747  16.167  0.8838  0.1448 -1.3868
  337TMC3    H2 5115   3.465   1.911  15.850  4.1192  1.7372  0.0784
  337TMC3    C7 5116   3.679   1.940  15.988 -0.3788  0.2221  0.1052
  337TMC3    C8 5117   3.244   1.752  15.912 -0.1507 -0.2940 -0.4822
  337TMC3    O1 5118   3.675   2.006  15.888 -0.0218 -0.3052  0.0198
  337TMC3    O2 5119   3.151   1.702  15.971  0.3358  0.2562  0.4473
  338MPD2     C 5120   0.032   1.431   1.050 -0.3911  0.6209  0.6681
  338MPD2    C1 5121   4.682   1.392   0.950  0.4155  0.2331  0.4786
  338MPD2    C2 5122   4.550   1.433   0.950  0.2080 -0.7813 -0.0184
  338MPD2    C3 5123   4.493   1.490   1.065 -0.2213  0.1338 -0.3679
  338MPD2    C4 5124   4.583   1.532   1.162 -0.1074  0.7677  0.4284
  338MPD2    C5 5125   4.715   1.500   1.156 -0.3464 -0.3300 -0.5451
  338MPD2     H 5126   4.491   1.387   0.872 -0.4646 -1.1964  0.7302
  338MPD2    H1 5127   4.552   1.597   1.243  0.9446  1.4263  0.3139
  338MPD2    H2 5128   0.138   1.409   1.060 -0.3766  1.4304  2.2201
  338MPD2    H3 5129   0.049   1.536   1.233 -1.1070  0.2890 -0.1811
  338MPD2     N 5130   4.360   1.492   1.082 -0.0572  0.3744 -0.0991
  338MPD2    H5 5131   4.301   1.484   0.999  0.9095 -0.6133 -0.6972
  338MPD2    N1 5132   4.721   1.317   0.838  0.0687  0.2163  0.3455
  338MPD2    H7 5133   4.647   1.291   0.773 -0.6703 -2.2218  2.1565
  339TMC3    C1 5134   4.151   1.488   1.181 -0.4724 -0.9216  0.8199
  339TMC3    C2 5135   4.073   1.416   1.271  0.1737 -0.2589  0.2195
  339TMC3    C3 5136   3.939   1.396   1.243  0.1354  0.4684  1.1327
  339TMC3    C4 5137   4.100   1.533   1.064 -1.1156 -0.2355  0.4265
  339TMC3    C5 5138   3.975   1.495   1.027 -0.9655  0.2289  0.6012
  339TMC3    C6 5139   3.894   1.432   1.119 -0.0742  0.3482  0.0270
  339TMC3     C 5140   4.299   1.498   1.206 -0.1930 -0.0077  0.2752
  339TMC3     O 5141   4.351   1.468   1.312  0.1328 -0.6287  0.1476
  339TMC3     H 5142   4.122   1.410   1.368 -0.6170  0.0803  0.6486
  339TMC3    H1 5143   4.158   1.602   1.005 -0.8033 -1.0706 -0.2420
  339TMC3    H2 5144   3.795   1.402   1.087 -0.7339  0.3277  2.0827
  339TMC3    C7 5145   3.939   1.485   0.884  0.0279  0.4992 -0.5360
  339TMC3    C8 5146   3.877   1.277   1.303  0.7149  0.6042  0.1510
  339TMC3    O1 5147   3.991   1.565   0.805 -0.5590 -0.0205 -0.7051
  339TMC3    O2 5148   3.761   1.263   1.277 -0.1093  0.1734 -0.2757
  340MPD2     C 5149   4.278   3.984  10.771 -0.1503 -0.0478  0.4965
  340MPD2    C1 5150   4.324   3.966  10.636  0.2099  0.5647  0.1109
  340MPD2    C2 5151   4.448   4.012  10.602 -0.2167  0.0214  0.4196
  340MPD2    C3 5152   4.524   4.083  10.692  0.5392 -0.8039 -0.6049
  340MPD2    C4 5153   4.473   4.118  10.812 -0.0431  0.4675 -0.0324
  340MPD2    C5 5154   4.356   4.065  10.851 -0.5920 -0.2696  0.5524
  340MPD2     H 5155   4.485   3.997  10.501  1.2271 -3.7147  1.5082
  340MPD2    H1 5156   4.527   4.189  10.875 -1.1001 -0.4505  1.9180
  340MPD2    H2 5157   4.185   3.936  10.802 -0.6468 -0.5642 -1.7711
  340MPD2    H3 5158   4.325   4.085  10.953 -1.7006  0.9954 -0.0504
  340MPD2     N 5159   4.659   4.128  10.663 -0.1655 -0.6318 -0.1015
  340MPD2    H5 5160   4.694   4.196  10.729 -0.0330 -0.8682  0.0743
  340MPD2    N1 5161   4.237   3.897  10.544 -0.0529 -0.2258 -0.1489
  340MPD2    H7 5162   4.162   3.840  10.583 -0.3524 -0.8201 -1.5633
  341TMC3    C1 5163   4.183   3.794  10.339  0.4809  0.2995  0.0217
  341TMC3    C2 5164   4.193   3.662  10.380  0.0692  0.3593  0.3075
  341TMC3    C3 5165   4.187   3.561  10.289 -0.3239  0.4919  0.6793
  341TMC3    C4 5166   4.151   3.825  10.210  1.0106  0.6527 -0.1947
  341TMC3    C5 5167   4.136   3.719  10.125 -0.1462 -0.2841  0.8668
  341TMC3    C6 5168   4.157   3.587  10.158 -0.6511 -0.4253  0.1374
  341TMC3     C 5169   4.255   3.894  10.407 -0.2811  1.0292 -0.2485
  341TMC3     O 5170   4.330   3.962  10.331  0.5093  0.2077  0.0971
  341TMC3     H 5171   4.222   3.644  10.483  1.9452 -0.1899 -0.3228
  341TMC3    H1 5172   4.162   3.930  10.183 -1.3638  1.0560  0.4526
  341TMC3    H2 5173   4.130   3.513  10.083 -0.8612  1.3917 -1.5873
  341TMC3    C7 5174   4.090   3.739   9.986  0.1829  0.4777 -0.5179
  341TMC3    C8 5175   4.172   3.426  10.329 -0.1377 -0.0500 -0.0879
  341TMC3    O1 5176   4.083   3.639   9.912  0.3755  0.3386  0.1536
  341TMC3    O2 5177   4.125   3.407  10.440  0.0708 -0.1471  0.5356
  342MPD2     C 5178   1.944   1.901  17.267  0.1434  0.3701  0.2336
  342MPD2    C1 5179   2.069   1.889  17.217  0.4138  0.0108 -0.0516
  342MPD2    C2 5180   2.152   1.996  17.215  0.9871  0.6739  0.4278
  342MPD2    C3 5181   2.115   2.117  17.257  0.3809 -0.1614 -0.0507
  342MPD2    C4 5182   1.990   2.126  17.313  0.8823  0.2099  0.8989
  342MPD2    C5 5183   1.904   2.023  17.317 -0.6219 -0.3729 -0.0506
  342MPD2     H 5184   2.244   1.988  17.159  0.5812  2.1898 -0.4470
  342MPD2    H1 5185   1.954   2.224  17.342  0.3633 -0.2141  1.6766
  342MPD2    H2 5186   1.873   1.819  17.268  0.5958 -0.0284 -1.0425
  342MPD2    H3 5187   1.800   2.035  17.346 -0.3056  1.9026  0.1596
  342MPD2     N 5188   2.191   2.233  17.239 -0.2542 -0.1519 -0.3734
  342MPD2    H5 5189   2.158   2.329  17.244 -2.7435 -1.0640  1.0217
  342MPD2    N1 5190   2.110   1.765  17.160  0.4441 -0.1273  0.0662
  342MPD2    H7 5191   2.196   1.772  17.108 -0.2287 -1.2556 -1.1793
  343TMC3    C1 5192   2.151   1.537  17.122 -0.0760 -0.4649 -0.3127
  343TMC3    C2 5193   2.286   1.568  17.111  0.0574  0.4784 -0.9814
  343TMC3    C3 5194   2.373   1.466  17.105  0.7367  0.3908  0.1879
  343TMC3    C4 5195   2.106   1.407  17.138  0.1958  0.4520 -1.0436
  343TMC3    C5 5196   2.195   1.310  17.131 -0.5208 -1.0877  0.9426
  343TMC3    C6 5197   2.334   1.333  17.113  0.2018  0.2965 -0.1323
  343TMC3     C 5198   2.059   1.640  17.164 -0.6392 -0.0331 -0.2996
  343TMC3     O 5199   1.950   1.609  17.204 -0.1244  0.1315  0.5517
  343TMC3     H 5200   2.322   1.670  17.120  1.0415  0.0404  0.0667
  343TMC3    H1 5201   2.007   1.373  17.165  1.2974 -1.3510  0.7767
  343TMC3    H2 5202   2.410   1.257  17.117 -2.8821 -2.7120  1.4548
  343TMC3    C7 5203   2.144   1.169  17.156 -0.1863  0.3838  0.6049
  343TMC3    C8 5204   2.517   1.496  17.078 -0.0862  0.0950  0.5390
  343TMC3    O1 5205   2.028   1.153  17.133 -0.7100 -0.2657  0.3063
  343TMC3    O2 5206   2.556   1.616  17.084 -0.1933 -0.0385  0.0475
  344MPD2     C 5207   3.167   1.730  10.877 -0.1011 -0.5946 -0.6523
  344MPD2    C1 5208   3.059   1.804  10.824  0.4635 -0.5775 -0.5095
  344MPD2    C2 5209   3.076   1.940  10.787 -0.4508  0.3511  0.8718
  344MPD2    C3 5210   3.206   1.996  10.804  0.7633  0.0145 -0.4195
  344MPD2    C4 5211   3.313   1.910  10.839  0.5977  0.2319  0.7350
  344MPD2    C5 5212   3.292   1.780  10.877 -0.1835 -0.5381 -0.4124
  344MPD2     H 5213   2.991   2.003  10.765  0.4718  0.8881 -1.0969
  344MPD2    H1 5214   3.415   1.946  10.836  1.0296 -1.1330 -0.8605
  344MPD2    H2 5215   3.156   1.631  10.918  0.2126  0.3147  1.5950
  344MPD2    H3 5216   3.371   1.711  10.904  1.6088  1.3509 -0.8418
  344MPD2     N 5217   3.235   2.130  10.766 -0.4306 -0.5325  0.1864
  344MPD2    H5 5218   3.328   2.167  10.783 -0.8378 -0.6462  2.7247
  344MPD2    N1 5219   2.939   1.729  10.819  0.1407  0.3830  0.5231
  344MPD2    H7 5220   2.944   1.631  10.848  1.8012  0.2294 -0.2619
  345TMC3    C1 5221   3.196   2.349  10.663 -0.3193  0.4802  0.0667
  345TMC3    C2 5222   3.282   2.403  10.747  0.0589  0.0215  0.2952
  345TMC3    C3 5223   3.349   2.512  10.695 -0.4512 -1.1596  0.1014
  345TMC3    C4 5224   3.145   2.425  10.566 -0.0087  0.0244 -0.7153
  345TMC3    C5 5225   3.205   2.541  10.519 -0.5798  0.7461 -0.4150
  345TMC3    C6 5226   3.322   2.577  10.580 -0.5241  0.4339  0.1483
  345TMC3     C 5227   3.143   2.220  10.700  0.3926 -0.4371  0.1458
  345TMC3     O 5228   3.048   2.184  10.635  0.1664 -0.2569 -0.1880
  345TMC3     H 5229   3.312   2.352  10.838  0.1953  1.3830  1.0156
  345TMC3    H1 5230   3.089   2.371  10.490 -0.7428  0.1566 -0.2723
  345TMC3    H2 5231   3.392   2.649  10.539  1.3953 -1.7966 -0.4561
  345TMC3    C7 5232   3.158   2.632  10.415 -0.2892 -0.3827 -0.3796
  345TMC3    C8 5233   3.433   2.579  10.793  0.2419 -0.8782 -0.4778
  345TMC3    O1 5234   3.242   2.719  10.383  0.3052 -0.0348 -0.7505
  345TMC3    O2 5235   3.457   2.517  10.896 -0.3091  0.1406 -0.1094
  346MPD2     C 5236   2.685   3.357  14.335  0.6061 -0.5109 -0.0185
  346MPD2    C1 5237   2.725   3.290  14.224 -0.3877 -0.8842  0.3625
  346MPD2    C2 5238   2.861   3.252  14.212 -0.0228 -0.5651 -0.0861
  346MPD2    C3 5239   2.951   3.280  14.311 -0.6402 -0.4430  0.4067
  346MPD2    C4 5240   2.906   3.340  14.426 -0.1705  0.1238  0.3672
  346MPD2    C5 5241   2.773   3.385  14.433 -0.3437  0.1509  0.0021
  346MPD2     H 5242   2.905   3.226  14.116 -1.6280  0.3837 -1.0832
  346MPD2    H1 5243   2.975   3.357  14.508 -0.2409  1.1293  0.2133
  346MPD2    H2 5244   2.584   3.389  14.354  0.8964 -0.3532  1.2727
  346MPD2    H3 5245   2.743   3.429  14.527  0.2339  0.2065  0.1578
  346MPD2     N 5246   3.088   3.242  14.289  0.0023 -0.5658 -0.5278
  346MPD2    H5 5247   3.110   3.184  14.209  3.3209  2.1159 -1.5532
  346MPD2    N1 5248   2.633   3.287  14.120 -0.8654  1.0242 -0.4708
  346MPD2    H7 5249   2.543   3.334  14.121 -0.8908  0.9618  0.0106
  347TMC3    C1 5250   3.309   3.247  14.317  0.2982 -0.6625 -0.0364
  347TMC3    C2 5251   3.318   3.317  14.196  0.3356 -0.0213 -0.3655
  347TMC3    C3 5252   3.426   3.408  14.179 -0.9345  0.3346  0.1313
  347TMC3    C4 5253   3.406   3.252  14.414  0.4412  0.7150  0.0333
  347TMC3    C5 5254   3.503   3.343  14.399  0.6211  0.7842  0.3962
  347TMC3    C6 5255   3.518   3.416  14.282 -0.1552 -0.2347 -0.0534
  347TMC3     C 5256   3.186   3.258  14.382  0.3669 -0.6499 -0.3832
  347TMC3     O 5257   3.194   3.305  14.498  0.3025  0.0279  0.3870
  347TMC3     H 5258   3.245   3.318  14.117 -1.4093 -1.5157  1.2290
  347TMC3    H1 5259   3.393   3.209  14.513 -1.9813  0.9347 -0.1905
  347TMC3    H2 5260   3.592   3.494  14.272 -0.1380 -0.1205  1.0495
  347TMC3    C7 5261   3.622   3.309  14.474  0.6877 -0.2620 -0.6507
  347TMC3    C8 5262   3.429   3.493  14.057 -0.5920  0.7207 -0.1178
  347TMC3    O1 5263   3.610   3.214  14.549 -0.2998  0.4579  0.5472
  347TMC3    O2 5264   3.319   3.517  14.005  0.8963 -0.1358  0.3098
  348MPD2     C 5265   1.898   3.157  12.288 -0.3389 -0.0613  0.1957
  348MPD2    C1 5266   1.867   3.098  12.165  0.1855 -0.1341  0.1334
  348MPD2    C2 5267   1.887   3.169  12.048  0.1588  0.7574 -0.0186
  348MPD2    C3 5268   1.969   3.286  12.053 -0.1565 -0.4273  0.2843
  348MPD2    C4 5269   2.004   3.339  12.175 -0.2927  0.5890 -0.9298
  348MPD2    C5 5270   1.957   3.277  12.287  0.0401  0.4127 -0.0074
  348MPD2     H 5271   1.840   3.134  11.956  1.0052 -0.1439 -0.0958
  348MPD2    H1 5272   2.046   3.439  12.186 -1.6254  0.9480  0.7585
  348MPD2    H2 5273   1.861   3.115  12.381  0.2436 -0.1936  0.3653
  348MPD2    H3 5274   1.979   3.324  12.382  0.1261  3.2772 -1.4325
  348MPD2     N 5275   1.984   3.345  11.923  0.1451 -0.2268  0.6691
  348MPD2    H5 5276   1.980   3.282  11.844 -1.1089  1.8395 -0.9133
  348MPD2    N1 5277   1.798   2.974  12.164  0.3826 -0.2780 -0.3607
  348MPD2    H7 5278   1.766   2.942  12.073 -1.3467  1.2594 -0.3040
  349TMC3    C1 5279   1.722   2.777  12.247 -0.0983  0.4723 -0.6074
  349TMC3    C2 5280   1.763   2.659  12.300 -0.2876  0.8024 -0.4668
  349TMC3    C3 5281   1.713   2.546  12.252  0.3820 -0.0473  0.1733
  349TMC3    C4 5282   1.630   2.777  12.144 -0.4151  0.0167  0.1970
  349TMC3    C5 5283   1.574   2.659  12.106 -0.1439 -0.5663  0.1471
  349TMC3    C6 5284   1.621   2.540  12.149 -0.4894  0.2007  0.1640
  349TMC3     C 5285   1.805   2.887  12.271 -0.2270  0.7817 -0.7453
  349TMC3     O 5286   1.890   2.878  12.362 -0.0086 -0.7666 -0.2499
  349TMC3     H 5287   1.849   2.655  12.366  1.6344 -1.3038 -3.0775
  349TMC3    H1 5288   1.582   2.870  12.114  0.6090 -0.3346 -2.5574
  349TMC3    H2 5289   1.577   2.452  12.104 -0.1475  0.2623 -0.2902
  349TMC3    C7 5290   1.476   2.661  11.997 -1.0362 -0.1266  0.2032
  349TMC3    C8 5291   1.771   2.419  12.294 -0.6416 -0.3059  0.0481
  349TMC3    O1 5292   1.422   2.556  11.959  0.4644  0.0929 -0.3916
  349TMC3    O2 5293   1.857   2.425  12.383 -0.0532 -0.3003  0.1159
  350MPD2     C 5294   1.321   1.585  10.569 -0.7859  1.0005 -0.1503
  350MPD2    C1 5295   1.218   1.505  10.624 -0.7346 -0.2701 -0.6341
  350MPD2    C2 5296   1.207   1.497  10.761  0.1387 -0.5582 -0.2732
  350MPD2    C3 5297   1.288   1.578  10.841 -0.7868 -0.0067 -0.0381
  350MPD2    C4 5298   1.375   1.669  10.786 -0.6374  0.2108  0.1646
  350MPD2    C5 5299   1.392   1.672  10.653 -0.3824  0.6346 -0.4166
  350MPD2     H 5300   1.134   1.434  10.810 -1.6837  1.3210 -0.5578
  350MPD2    H1 5301   1.435   1.728  10.855  0.7827  0.3287 -1.1739
  350MPD2    H2 5302   1.344   1.580  10.463 -0.3153  1.5881 -0.0765
  350MPD2    H3 5303   1.476   1.730  10.615  1.7520 -1.2539  1.3803
  350MPD2     N 5304   1.266   1.570  10.979 -0.2145  0.0150  0.4067
  350MPD2    H5 5305   1.217   1.487  11.012 -0.9685 -0.0868 -0.9460
  350MPD2    N1 5306   1.157   1.402  10.541 -0.3015  0.1513 -0.0193
  350MPD2    H7 5307   1.196   1.392  10.448 -0.1964  1.6697 -0.1437
  351TMC3    C1 5308   1.039   1.201  10.484 -1.2188 -0.2090 -0.1115
  351TMC3    C2 5309   1.134   1.169  10.391 -0.1114  0.1003  0.1608
  351TMC3    C3 5310   1.113   1.043  10.331  0.2189 -0.7258 -0.4657
  351TMC3    C4 5311   0.932   1.127  10.508 -0.1314  0.8498 -0.2453
  351TMC3    C5 5312   0.909   1.006  10.448 -0.0265  0.1688 -0.1504
  351TMC3    C6 5313   1.001   0.960  10.354  0.9210  0.0489  0.0742
  351TMC3     C 5314   1.062   1.309  10.581 -0.0969 -0.5640  0.2721
  351TMC3     O 5315   0.990   1.319  10.681  0.6029  0.2779 -0.1932
  351TMC3     H 5316   1.208   1.237  10.350 -1.1864  0.5749 -0.9916
  351TMC3    H1 5317   0.862   1.151  10.587 -1.1437  1.1429 -1.2320
  351TMC3    H2 5318   1.000   0.860  10.312 -1.5197  0.3697 -0.6083
  351TMC3    C7 5319   0.823   0.915  10.515  0.4283 -0.2796  0.8982
  351TMC3    C8 5320   1.199   0.996  10.223 -0.2696  0.3927 -0.0947
  351TMC3    O1 5321   0.759   0.963  10.607  0.1151 -0.0407  0.0530
  351TMC3    O2 5322   1.153   0.914  10.144  0.0744 -0.7015 -0.4598
  352MPD2     C 5323   4.363   3.707   1.496  0.2276 -0.4561 -0.1684
  352MPD2    C1 5324   4.314   3.607   1.411 -0.3921  0.2901 -0.0791
  352MPD2    C2 5325   4.357   3.478   1.432 -0.6911  0.8130  0.1079
  352MPD2    C3 5326   4.443   3.441   1.537 -0.5282  0.1544 -0.0116
  352MPD2    C4 5327   4.486   3.546   1.617 -0.6593  0.0097  0.4091
  352MPD2    C5 5328   4.438   3.669   1.598 -0.4274 -0.4467 -0.5292
  352MPD2     H 5329   4.317   3.392   1.379 -0.3357  1.1407 -0.6839
  352MPD2    H1 5330   4.560   3.531   1.695  0.4042  3.1146  0.0303
  352MPD2    H2 5331   4.312   3.802   1.502 -0.4476 -0.8085 -0.2951
  352MPD2    H3 5332   4.462   3.746   1.671 -1.1079  1.4421 -2.3239
  352MPD2     N 5333   4.505   3.320   1.552  0.0474 -0.3145 -0.1340
  352MPD2    H5 5334   4.572   3.316   1.628  0.2484  3.1191 -0.1397
  352MPD2    N1 5335   4.213   3.636   1.314 -0.0821  0.2680 -0.1971
  352MPD2    H7 5336   4.177   3.731   1.309  0.2404  0.3998 -0.0235
  353TMC3    C1 5337   4.554   3.093   1.519  0.6140 -0.2362  0.5704
  353TMC3    C2 5338   4.684   3.083   1.552 -0.2446  0.6699 -1.7723
  353TMC3    C3 5339   0.007   2.955   1.534 -0.0686 -0.0960 -0.0923
  353TMC3    C4 5340   4.486   2.990   1.460 -0.1682 -0.9152 -0.1744
  353TMC3    C5 5341   4.557   2.873   1.428  0.1786  1.2214  0.0302
  353TMC3    C6 5342   4.676   2.846   1.484 -0.7580 -0.6140  0.1631
  353TMC3     C 5343   4.495   3.215   1.463  0.0499 -0.6436 -0.2680
  353TMC3     O 5344   4.454   3.200   1.350 -0.0797 -0.1582  0.0045
  353TMC3     H 5345   0.007   3.157   1.608 -1.0808 -0.2545  0.2660
  353TMC3    H1 5346   4.383   2.991   1.425  0.3011  1.4168 -1.4642
  353TMC3    H2 5347   0.005   2.765   1.449 -0.3526 -0.4444  0.4894
  353TMC3    C7 5348   4.491   2.777   1.339 -0.6339 -0.0243  0.0040
  353TMC3    C8 5349   0.141   2.939   1.592 -0.3865 -0.1859  0.1469
  353TMC3    O1 5350   4.538   2.668   1.366  0.4210  0.6569  0.1282
  353TMC3    O2 5351   0.220   3.035   1.598  0.2199 -0.1632  0.0008
  354TMC3    C1 5352   0.446   3.834  13.724 -0.0708 -0.2402  0.4566
  354TMC3    C2 5353   0.499   3.962  13.726  0.0787 -0.3493  0.0462
  354TMC3    C3 5354   0.543   4.015  13.608  0.5012 -0.2832  0.1595
  354TMC3    C4 5355   0.425   3.762  13.606  0.4621 -0.2898  0.7191
  354TMC3    C5 5356   0.483   3.813  13.492  0.0689 -0.3707  0.8886
  354TMC3    C6 5357   0.542   3.939  13.496 -0.2268  0.1281 -0.0272
  354TMC3     C 5358   0.458   3.743  13.839 -0.1094 -0.9588  0.2267
  354TMC3     O 5359   0.384   3.645  13.843 -0.0295  0.3234 -0.3745
  354TMC3     H 5360   0.506   4.019  13.818 -1.4454  0.9014 -0.6190
  354TMC3    H1 5361   0.400   3.657  13.614 -0.6602 -0.1956 -1.6599
  354TMC3    H2 5362   0.580   3.980  13.403 -0.4231  1.3829  0.4508
  354TMC3    C7 5363   0.523   3.719  13.383 -0.3486 -0.3962 -0.5847
  354TMC3    C8 5364   0.599   4.151  13.629  0.0927 -0.4582  0.5732
  354TMC3    O1 5365   0.465   3.611  13.373 -0.1344 -0.2577 -0.0716
  354TMC3    O2 5366   0.618   4.190  13.745 -0.0641 -0.1621  0.0831
  355MPD2     C 5367   1.453   4.709  10.880  0.2596 -0.9688  0.1220
  355MPD2    C1 5368   1.551   0.058  10.825 -0.3501  0.5676  0.0038
  355MPD2    C2 5369   1.628   0.133  10.912 -0.3067 -0.1396  0.3483
  355MPD2    C3 5370   1.598   0.142  11.053 -0.4266 -0.0453 -0.2418
  355MPD2    C4 5371   1.485   0.074  11.098 -0.3071  0.1725  0.2112
  355MPD2    C5 5372   1.418   4.728  11.011  0.0507  0.0920 -0.2679
  355MPD2     H 5373   1.712   0.194  10.881  0.5765 -1.4490  0.1556
  355MPD2    H1 5374   1.462   0.050  11.201 -2.1874 -2.3107 -0.7888
  355MPD2    H2 5375   1.401   4.635  10.820  2.2009 -0.7409 -1.8351
  355MPD2    H3 5376   1.344   4.665  11.058  0.0667  0.6733  0.5317
  355MPD2     N 5377   1.678   0.227  11.135 -0.0097 -0.1040 -0.4417
  355MPD2    H5 5378   1.765   0.262  11.096 -0.1409  0.2891 -0.3862
  355MPD2    N1 5379   1.573   0.038  10.687  0.7120 -0.1117 -0.0503
  355MPD2    H7 5380   1.517   4.695  10.649 -0.4212  0.3342  0.7296
  356TMC3    C1 5381   1.733   0.355  11.326  0.2984 -0.1605 -0.2823
  356TMC3    C2 5382   1.839   0.418  11.258  0.1088 -0.5210  0.0091
  356TMC3    C3 5383   1.929   0.486  11.339 -0.0558 -0.4162 -0.3302
  356TMC3    C4 5384   1.735   0.339  11.467 -0.7170  0.3329  0.5611
  356TMC3    C5 5385   1.836   0.395  11.531  0.0447 -0.6956  0.0668
  356TMC3    C6 5386   1.923   0.477  11.470 -0.4669  0.5146 -0.7094
  356TMC3     C 5387   1.641   0.261  11.264 -0.1286  0.5479 -0.2692
  356TMC3     O 5388   1.551   0.226  11.335 -0.5013 -0.2600  0.0503
  356TMC3     H 5389   1.822   0.455  11.158 -3.5722 -0.1773  0.7605
  356TMC3    H1 5390   1.671   0.265  11.513 -0.1900 -0.7989 -0.5141
  356TMC3    H2 5391   2.001   0.530  11.524 -0.3928 -0.0859 -0.2241
  356TMC3    C7 5392   1.823   0.406  11.672 -0.1197  0.2336  0.5965
  356TMC3    C8 5393   2.023   0.568  11.271 -1.0024 -0.6784 -0.1291
  356TMC3    O1 5394   1.741   0.324  11.723  0.0961  0.2153 -0.5215
  356TMC3    O2 5395   2.049   0.516  11.160 -0.0286  0.4703 -0.4497
  357MPD2     C 5396   1.908   0.772   1.374 -0.4239 -0.0001  0.1311
  357MPD2    C1 5397   1.921   0.741   1.506  0.4663 -0.5272 -0.6325
  357MPD2    C2 5398   1.805   0.757   1.590  0.5972 -0.7833 -0.3085
  357MPD2    C3 5399   1.684   0.804   1.537  0.5790  0.1262  0.2502
  357MPD2    C4 5400   1.681   0.825   1.401  0.2340  0.1099  0.4547
  357MPD2    C5 5401   1.789   0.817   1.323 -0.4532 -0.0504 -0.4778
  357MPD2     H 5402   1.821   0.730   1.694  1.1308  3.2486  0.6421
  357MPD2    H1 5403   1.591   0.853   1.347 -0.6569 -1.3198  1.1981
  357MPD2    H2 5404   1.993   0.750   1.310  0.1546  0.4426  0.7403
  357MPD2    H3 5405   1.777   0.859   1.223  0.8069 -1.5110 -1.2455
  357MPD2     N 5406   1.557   0.826   1.603 -0.5072  0.3611 -0.3670
  357MPD2    H5 5407   1.482   0.812   1.537 -1.9659  1.6622  1.0270
  357MPD2    N1 5408   2.046   0.688   1.542  0.3577 -0.5310 -0.3873
  357MPD2    H7 5409   2.118   0.673   1.471  1.8697  0.2383  0.9750
  358TMC3    C1 5410   2.212   0.573   1.662 -0.0751  0.8522 -0.5664
  358TMC3    C2 5411   2.223   0.465   1.581  0.2767  0.1323  0.2616
  358TMC3    C3 5412   2.321   0.373   1.602 -0.7812 -0.2085 -0.5827
  358TMC3    C4 5413   2.309   0.602   1.757 -0.5861 -0.9266  0.3479
  358TMC3    C5 5414   2.418   0.513   1.759  0.4845  1.0239 -0.1075
  358TMC3    C6 5415   2.425   0.398   1.686 -0.3638  0.4277 -0.2693
  358TMC3     C 5416   2.092   0.653   1.668  0.1770 -0.2746 -0.1163
  358TMC3     O 5417   2.038   0.677   1.777  0.4445  0.2820  0.1276
  358TMC3     H 5418   2.151   0.436   1.505  1.3449 -1.3352 -0.2099
  358TMC3    H1 5419   2.311   0.699   1.805  2.0576 -0.4733 -0.6917
  358TMC3    H2 5420   2.514   0.336   1.686 -0.3160  0.4931 -1.8433
  358TMC3    C7 5421   2.543   0.551   1.824  0.3704 -0.2425 -0.0739
  358TMC3    C8 5422   2.310   0.255   1.513  0.0954  1.5200 -0.1501
  358TMC3    O1 5423   2.647   0.490   1.806  0.2786  0.1695 -0.4709
  358TMC3    O2 5424   2.268   0.276   1.399 -0.2105  0.1257 -0.3522
  359MPD2     C 5425   1.197   3.785  12.666 -0.2348  0.7193  0.9283
  359MPD2    C1 5426   1.247   3.683  12.580  0.4387  0.2056 -0.0845
  359MPD2    C2 5427   1.185   3.558  12.576 -0.3541  0.0134  0.5655
  359MPD2    C3 5428   1.068   3.534  12.646  0.6565 -0.1627  0.1824
  359MPD2    C4 5429   1.017   3.630  12.725 -0.4357 -0.0207 -0.1763
  359MPD2    C5 5430   1.088   3.750  12.740  0.1020 -0.1200 -0.4808
  359MPD2     H 5431   1.233   3.484  12.513  1.5447  1.2049  0.5908
  359MPD2    H1 5432   0.926   3.627  12.784  0.2038  1.3380  0.8823
  359MPD2    H2 5433   1.246   3.879  12.691 -1.5764  1.9096 -0.8463
  359MPD2    H3 5434   1.049   3.825  12.808  0.6222 -0.1842 -0.1123
  359MPD2     N 5435   0.999   3.407  12.634  0.9480  0.1495 -0.1261
  359MPD2    H5 5436   0.913   3.399  12.687  1.1972  1.1893  0.4169
  359MPD2    N1 5437   1.364   3.702  12.499  0.5489  0.1546 -0.4800
  359MPD2    H7 5438   1.381   3.629  12.431  1.2740 -0.9709  0.9201
  360TMC3    C1 5439   1.526   3.795  12.367 -1.3123 -0.1947 -0.4368
  360TMC3    C2 5440   1.589   3.912  12.321  0.1277  0.1497 -0.1440
  360TMC3    C3 5441   1.686   3.900  12.228  0.5783 -0.4468 -0.1170
  360TMC3    C4 5442   1.556   3.673  12.316  0.7606 -0.0155  0.9828
  360TMC3    C5 5443   1.649   3.665  12.210 -0.4349 -0.1425  0.0580
  360TMC3    C6 5444   1.713   3.778  12.163  0.8454 -0.6781 -0.3765
  360TMC3     C 5445   1.442   3.813  12.487  0.0738 -0.6959  0.0365
  360TMC3     O 5446   1.431   3.920  12.543  0.2734  0.5773 -0.7843
  360TMC3     H 5447   1.574   4.004  12.376  2.8088 -0.2116  1.1803
  360TMC3    H1 5448   1.513   3.578  12.344 -0.1428  0.1680  0.2035
  360TMC3    H2 5449   1.795   3.771  12.092  1.9792 -1.8517  1.0516
  360TMC3    C7 5450   1.655   3.543  12.131  0.6879  0.1167 -0.6039
  360TMC3    C8 5451   1.777   4.008  12.195 -0.3060  0.0386 -0.1141
  360TMC3    O1 5452   1.604   3.443  12.177 -0.7085  0.0129 -0.7605
  360TMC3    O2 5453   1.742   4.120  12.242  0.2443 -0.2223  0.1368
  361MPD2     C 5454   3.246   2.127  16.831  1.0237 -0.0296  0.3212
  361MPD2    C1 5455   3.226   2.197  16.945  0.6878 -0.0130  1.1034
  361MPD2    C2 5456   3.342   2.200  17.030  0.1039 -0.1953 -0.6108
  361MPD2    C3 5457   3.453   2.142  17.001 -0.0072 -0.7019 -0.5637
  361MPD2    C4 5458   3.460   2.068  16.882  0.2464  0.6834  0.4040
  361MPD2    C5 5459   3.363   2.069  16.795 -0.0349  0.4775  0.0732
  361MPD2     H 5460   3.331   2.251  17.125 -1.7626 -1.4816 -0.1331
  361MPD2    H1 5461   3.552   2.016  16.856 -0.6205 -0.7681  0.2099
  361MPD2    H2 5462   3.174   2.135  16.750  0.4868 -2.0681  0.6045
  361MPD2    H3 5463   3.369   2.030  16.694  1.8633  2.3766 -0.5542
  361MPD2     N 5464   3.576   2.149  17.074 -0.4416 -0.1228  0.0161
  361MPD2    H5 5465   3.658   2.096  17.048 -0.6319 -0.4134  0.0141
  361MPD2    N1 5466   3.111   2.270  16.978 -0.5162 -0.1930  0.3902
  361MPD2    H7 5467   3.104   2.331  17.059  0.1278  0.6445 -0.1831
  362TMC3    C1 5468   2.921   2.382  16.904  0.8574 -0.5923  1.0363
  362TMC3    C2 5469   2.959   2.496  16.970  0.3898 -0.1444 -0.0127
  362TMC3    C3 5470   2.878   2.606  16.982 -0.3498 -0.7430 -0.2579
  362TMC3    C4 5471   2.798   2.380  16.840  0.2032 -0.2287 -0.5494
  362TMC3    C5 5472   2.728   2.497  16.841  0.3074  0.2996 -0.0942
  362TMC3    C6 5473   2.761   2.604  16.918 -0.3610 -0.0802  0.3418
  362TMC3     C 5474   2.998   2.255  16.902  0.0618 -0.0970 -0.6078
  362TMC3     O 5475   2.957   2.165  16.827  0.6945  0.0998 -0.5150
  362TMC3     H 5476   3.061   2.498  17.006  0.3329 -3.2529  0.3303
  362TMC3    H1 5477   2.765   2.282  16.808  0.0827  0.3456 -2.1704
  362TMC3    H2 5478   2.696   2.689  16.905 -1.8009 -1.1094  0.7660
  362TMC3    C7 5479   2.621   2.519  16.739 -0.2811  0.1847 -0.2859
  362TMC3    C8 5480   2.952   2.730  16.983 -0.3002 -0.2642  0.2233
  362TMC3    O1 5481   2.526   2.588  16.774 -0.3327 -0.0845  0.0702
  362TMC3    O2 5482   3.076   2.717  16.964  0.4555  0.3218 -0.0590
  363TMC3    C1 5483   2.194   1.274   9.579 -0.0927  0.6077 -0.4252
  363TMC3    C2 5484   2.200   1.174   9.671  0.0935  0.4333  0.0721
  363TMC3    C3 5485   2.082   1.102   9.701  0.9411  0.2662  0.1672
  363TMC3    C4 5486   2.071   1.301   9.512  0.2628  0.4953  0.4967
  363TMC3    C5 5487   1.952   1.242   9.555 -0.4614  0.8023  0.1920
  363TMC3    C6 5488   1.962   1.138   9.648 -0.3660 -0.3577 -0.3307
  363TMC3     C 5489   2.315   1.344   9.551  0.2727  0.6114 -0.0941
  363TMC3     O 5490   2.420   1.284   9.544 -0.9114  0.2011 -0.3409
  363TMC3     H 5491   2.293   1.146   9.719 -0.5088 -0.5475  0.6567
  363TMC3    H1 5492   2.066   1.376   9.435  1.7187  0.5097  0.4120
  363TMC3    H2 5493   1.864   1.101   9.676 -1.2509  1.8748 -0.4672
  363TMC3    C7 5494   1.825   1.298   9.526 -0.4095  0.2870 -0.0606
  363TMC3    C8 5495   2.084   0.980   9.784 -0.3618  0.3813  0.3113
  363TMC3    O1 5496   1.823   1.408   9.471 -0.4125 -0.7100  0.4373
  363TMC3    O2 5497   1.978   0.931   9.818  0.4993 -0.5458 -0.0314
  364MPD2     C 5498   0.515   4.680  10.728 -0.4433 -0.5242  0.7248
  364MPD2    C1 5499   0.644   4.701  10.696 -0.4651 -0.2909  0.0094
  364MPD2    C2 5500   0.720   4.594  10.656  0.3701 -0.6243 -0.1661
  364MPD2    C3 5501   0.683   4.457  10.671  0.3720  0.7262 -0.4570
  364MPD2    C4 5502   0.548   4.440  10.704  0.1255 -0.6859  0.1028
  364MPD2    C5 5503   0.465   4.548  10.731  0.3659  0.2422 -0.5856
  364MPD2     H 5504   0.821   4.617  10.623 -0.6682  2.3003 -1.3265
  364MPD2    H1 5505   0.503   4.342  10.690  1.0805 -0.9594 -1.0424
  364MPD2    H2 5506   0.444   0.027  10.746 -0.0979  0.1887 -1.0090
  364MPD2    H3 5507   0.359   4.534  10.751  0.2424  0.2766 -1.2180
  364MPD2     N 5508   0.764   4.345  10.640 -0.0625  0.3452 -0.2220
  364MPD2    H5 5509   0.721   4.256  10.666  2.0339 -0.2276  1.2740
  364MPD2    N1 5510   0.709   0.092  10.712 -0.2351 -0.6961 -0.6580
  364MPD2    H7 5511   0.809   0.085  10.694 -0.1287  0.7397 -0.6300
  365TMC3    C1 5512   0.763   0.316  10.750 -0.6003  0.5276  0.0102
  365TMC3    C2 5513   0.844   0.339  10.642  0.2528 -0.2172  0.3301
  365TMC3    C3 5514   0.945   0.431  10.642 -0.1032  0.3369 -0.0904
  365TMC3    C4 5515   0.782   0.388  10.858  0.6725 -0.0215 -0.3314
  365TMC3    C5 5516   0.884   0.474  10.860 -1.0391 -0.0847 -0.4697
  365TMC3    C6 5517   0.970   0.495  10.755 -0.3001  0.8427  0.0642
  365TMC3     C 5518   0.659   0.219  10.741 -0.2268  0.1730  0.3898
  365TMC3     O 5519   0.546   0.244  10.791 -0.2033  0.0521  0.4259
  365TMC3     H 5520   0.819   0.276  10.557  2.9664  1.2036 -1.5518
  365TMC3    H1 5521   0.711   0.366  10.937  1.3201  0.0028  0.2584
  365TMC3    H2 5522   1.052   0.564  10.775 -1.8606  2.4285  0.9498
  365TMC3    C7 5523   0.899   0.558  10.981 -0.1832  0.1556  0.5143
  365TMC3    C8 5524   0.993   0.489  10.519 -0.7486 -0.0142  0.4676
  365TMC3    O1 5525   0.949   0.669  10.971 -0.0717 -0.4503 -0.1169
  365TMC3    O2 5526   1.060   0.591  10.532  0.0576 -0.0397  0.1214
  366MPD2     C 5527   3.403   0.418  15.465 -0.1777  0.0499  0.3667
  366MPD2    C1 5528   3.500   0.517  15.468  0.1484  0.6161 -0.0074
  366MPD2    C2 5529   3.625   0.487  15.498 -0.4461  0.1938  0.0314
  366MPD2    C3 5530   3.668   0.358  15.504 -0.0404  0.5924 -0.2158
  366MPD2    C4 5531   3.572   0.257  15.513 -0.1244 -0.5313  1.2840
  366MPD2    C5 5532   3.442   0.288  15.480  0.6244 -0.1405  1.0583
  366MPD2     H 5533   3.696   0.568  15.502 -1.5717  1.3473 -3.0953
  366MPD2    H1 5534   3.602   0.155  15.531 -4.3528 -2.4373 -2.3462
  366MPD2    H2 5535   3.299   0.426  15.435  0.1955 -0.2101 -0.9910
  366MPD2    H3 5536   3.371   0.206  15.475 -1.3732  1.7114 -0.4252
  366MPD2     N 5537   3.808   0.334  15.504  0.1719  0.2108 -0.1805
  366MPD2    H5 5538   3.873   0.411  15.516 -1.1779  1.2377  0.5585
  366MPD2    N1 5539   3.471   0.651  15.461  0.4008  0.1047 -0.3347
  366MPD2    H7 5540   3.539   0.718  15.497  1.0068 -0.7760  0.1366
  367TMC3    C1 5541   3.349   0.853  15.443  0.0111 -0.8637  0.2540
  367TMC3    C2 5542   3.437   0.901  15.537 -0.6021 -0.1612 -0.9651
  367TMC3    C3 5543   3.420   1.031  15.569 -0.9407  0.2470  0.3785
  367TMC3    C4 5544   3.259   0.924  15.373  0.2665 -0.0303 -0.0258
  367TMC3    C5 5545   3.258   1.055  15.394  0.2237 -0.0506  0.1065
  367TMC3    C6 5546   3.343   1.113  15.490 -0.0546  0.2412 -0.0389
  367TMC3     C 5547   3.351   0.709  15.427  0.3056 -0.1919 -0.0534
  367TMC3     O 5548   3.252   0.647  15.387  0.4324 -0.3911  0.1678
  367TMC3     H 5549   3.521   0.842  15.572 -2.0139 -2.1357 -0.9176
  367TMC3    H1 5550   3.213   0.873  15.288 -0.3040  1.2198 -0.4725
  367TMC3    H2 5551   3.347   1.220  15.506  0.7935  0.1264  0.4968
  367TMC3    C7 5552   3.205   1.152  15.299 -0.3897  0.1265 -0.0945
  367TMC3    C8 5553   3.512   1.074  15.676 -0.2410 -0.4435 -0.0044
  367TMC3    O1 5554   3.243   1.266  15.314 -0.4319 -0.3667 -0.4277
  367TMC3    O2 5555   3.569   0.986  15.735 -0.0640  0.1627 -0.4022
  368MPD2     C 5556   4.362   2.472  13.412  0.5337  0.3906  0.6346
  368MPD2    C1 5557   4.337   2.573  13.323 -0.2800 -0.4608  0.1209
  368MPD2    C2 5558   4.419   2.586  13.219 -0.2862 -0.0427 -0.2535
  368MPD2    C3 5559   4.536   2.518  13.203 -0.1203 -0.2474  0.4796
  368MPD2    C4 5560   4.565   2.418  13.291  0.5283  0.5123 -0.1860
  368MPD2    C5 5561   4.475   2.398  13.392 -0.0423  0.4369  0.6571
  368MPD2     H 5562   4.411   2.671  13.152 -0.3493  0.2169  0.0823
  368MPD2    H1 5563   4.656   2.361  13.274 -0.8206 -0.6638 -3.3222
  368MPD2    H2 5564   4.291   2.455  13.492 -0.7437 -1.7953 -0.9764
  368MPD2    H3 5565   4.492   2.322  13.467 -0.6279 -1.9033 -1.5541
  368MPD2     N 5566   4.637   2.553  13.109 -0.8759  0.3094 -0.2684
  368MPD2    H5 5567   0.001   2.528  13.129 -0.9117  1.5466  1.5352
  368MPD2    N1 5568   4.225   2.657  13.352  0.2381 -0.5299  0.3816
  368MPD2    H7 5569   4.169   2.649  13.436 -0.6067  1.2893  0.0050
  369TMC3    C1 5570   4.090   2.841  13.334  0.3647  0.8527 -1.0499
  369TMC3    C2 5571   4.125   2.967  13.309  0.0236 -0.7005 -0.7499
  369TMC3    C3 5572   4.024   3.048  13.270 -0.8121  0.7043 -0.3127
  369TMC3    C4 5573   3.964   2.798  13.340  0.4394  0.4259  0.5847
  369TMC3    C5 5574   3.862   2.888  13.317  0.9488  0.3867 -0.2221
  369TMC3    C6 5575   3.892   3.019  13.276  0.3032  0.4001 -0.0386
  369TMC3     C 5576   4.188   2.756  13.269 -0.0314  0.5965  0.2020
  369TMC3     O 5577   4.235   2.800  13.163  0.2796  0.0283  0.0267
  369TMC3     H 5578   4.229   2.997  13.309  0.0064 -0.6171  0.5222
  369TMC3    H1 5579   3.937   2.693  13.333  1.3183  0.1499  1.2253
  369TMC3    H2 5580   3.817   3.081  13.229 -1.1970 -1.0061  0.5348
  369TMC3    C7 5581   3.718   2.844  13.320 -1.0848  0.4205 -0.4494
  369TMC3    C8 5582   4.063   3.125  13.156 -0.4509  1.0054 -0.0218
  369TMC3    O1 5583   3.693   2.726  13.308  0.1435  0.4948  0.1175
  369TMC3    O2 5584   4.014   3.233  13.136 -0.1467 -0.3870 -0.2886
  370TMC3    C1 5585   4.055   3.311  16.140 -0.0045  0.2162  0.2296
  370TMC3    C2 5586   3.985   3.262  16.247  0.0153  0.5943  0.2535
  370TMC3    C3 5587   3.903   3.148  16.223 -0.0048 -0.0852  0.1502
  370TMC3    C4 5588   4.058   3.256  16.010  0.0259 -0.3011  0.0077
  370TMC3    C5 5589   3.991   3.143  15.998  0.0052 -0.1420  0.2419
  370TMC3    C6 5590   3.909   3.091  16.100 -0.2149 -0.4949 -0.8734
  370TMC3     C 5591   4.179   3.374  16.180 -0.2276 -0.3748 -0.0627
  370TMC3     O 5592   4.224   3.355  16.293  0.0966  0.0675  0.3523
  370TMC3     H 5593   4.012   3.301  16.344 -2.4947  0.6601  0.9190
  370TMC3    H1 5594   4.125   3.291  15.931 -2.3927 -0.2218 -2.0060
  370TMC3    H2 5595   3.851   3.003  16.074 -1.3447  0.3890 -1.3668
  370TMC3    C7 5596   4.034   3.058  15.887 -0.0898  0.4286  0.1373
  370TMC3    C8 5597   3.879   3.055  16.337 -0.5694  0.3129 -0.3795
  370TMC3    O1 5598   4.038   3.101  15.776 -0.1214  0.0263 -0.6885
  370TMC3    O2 5599   3.887   2.938  16.312 -0.4938 -0.4440 -0.3655
  371TMC3    C1 5600   0.620   1.431  15.630 -0.0892 -0.1287  0.0691
  371TMC3    C2 5601   0.488   1.422  15.661  0.4005 -0.0389 -0.1335
  371TMC3    C3 5602   0.419   1.541  15.642 -0.1462 -0.5266 -0.7997
  371TMC3    C4 5603   0.678   1.543  15.577 -0.7234  0.1097 -0.5434
  371TMC3    C5 5604   0.604   1.649  15.557 -0.5041  0.4118 -0.0439
  371TMC3    C6 5605   0.474   1.656  15.595  0.6378 -0.2749  0.8300
  371TMC3     C 5606   0.699   1.316  15.649 -0.0921  0.0266 -0.5043
  371TMC3     O 5607   0.803   1.321  15.575  0.2122  0.1533 -0.0820
  371TMC3     H 5608   0.434   1.332  15.686  0.8114 -0.1595  0.2977
  371TMC3    H1 5609   0.782   1.544  15.547 -0.5287 -1.8997  0.0644
  371TMC3    H2 5610   0.426   1.753  15.596 -0.1739 -0.6754  0.7851
  371TMC3    C7 5611   0.664   1.780  15.520  0.5236 -0.1988  0.0376
  371TMC3    C8 5612   0.281   1.540  15.697 -0.2974 -1.1843  0.9966
  371TMC3    O1 5613   0.610   1.882  15.563 -0.1833 -0.3669  0.0089
  371TMC3    O2 5614   0.247   1.436  15.745  0.8194  0.4879 -0.1908
  372MPD2     C 5615   0.180   2.965  13.022  0.4964  0.0082  0.5464
  372MPD2    C1 5616   0.272   2.895  13.100 -0.2625 -0.4011  0.2195
  372MPD2    C2 5617   0.232   2.826  13.211 -0.0626 -0.5076  0.2526
  372MPD2    C3 5618   0.101   2.832  13.247  0.4131  0.2119  0.3632
  372MPD2    C4 5619   0.009   2.902  13.174 -0.1762 -1.0143 -0.5930
  372MPD2    C5 5620   0.054   2.964  13.062  0.5861  0.1413  0.5381
  372MPD2     H 5621   0.305   2.775  13.274 -1.2007 -3.7937 -1.0825
  372MPD2    H1 5622   4.635   2.911  13.193 -0.2132 -2.0811 -0.3052
  372MPD2    H2 5623   0.208   3.025  12.937  4.8843 -2.5731  0.1979
  372MPD2    H3 5624   4.711   3.013  13.001  0.5574  0.2090  0.6272
  372MPD2     N 5625   0.066   2.756  13.360  0.0799  0.4539 -0.1657
  372MPD2    H5 5626   0.142   2.709  13.407  0.7228 -0.6118 -2.2566
  372MPD2    N1 5627   0.416   2.889  13.085 -0.1382  0.0457 -0.6365
  372MPD2    H7 5628   0.467   2.845  13.161 -0.6858  1.4210  0.5242
  373TMC3    C1 5629   4.662   2.674  13.537  0.5070 -0.2925 -0.0820
  373TMC3    C2 5630   4.574   2.706  13.635  0.7356 -0.1329 -0.6403
  373TMC3    C3 5631   4.556   2.611  13.733 -0.1581  0.7868  0.1916
  373TMC3    C4 5632   4.729   2.552  13.532 -0.1338 -0.0280  0.1131
  373TMC3    C5 5633   4.703   2.455  13.622 -0.2299  0.2476  0.1314
  373TMC3    C6 5634   4.622   2.486  13.724 -0.1181  0.0035  0.2395
  373TMC3     C 5635   4.673   2.755  13.415 -0.1853  0.0638 -0.8152
  373TMC3     O 5636   4.575   2.823  13.387  0.1343 -0.0814 -0.5223
  373TMC3     H 5637   4.507   2.792  13.630  2.2073  1.1327  1.6724
  373TMC3    H1 5638   0.075   2.542  13.459 -0.4914 -1.1006 -0.1222
  373TMC3    H2 5639   4.617   2.412  13.803 -1.3924 -0.8647 -0.6632
  373TMC3    C7 5640   0.063   2.345  13.622  0.5246  0.2959 -0.3434
  373TMC3    C8 5641   4.438   2.619  13.822  0.1484  0.5712  0.5234
  373TMC3    O1 5642   0.112   2.318  13.516 -0.2926 -0.0727  0.3879
  373TMC3    O2 5643   4.343   2.679  13.775 -0.0513 -0.0247  0.6078
  374TMC3    C1 5644   0.934   3.116   9.975  0.0796  0.5805 -0.4043
  374TMC3    C2 5645   1.061   3.170   9.981 -0.2158  0.9979  0.2654
  374TMC3    C3 5646   1.120   3.213   9.864  0.0609 -0.1469  0.2179
  374TMC3    C4 5647   0.880   3.084   9.848 -0.3333 -1.1510 -0.0598
  374TMC3    C5 5648   0.956   3.109   9.737 -0.6627  0.5405  0.4068
  374TMC3    C6 5649   1.076   3.179   9.735  0.1318  0.0708 -0.2923
  374TMC3     C 5650   0.875   3.078  10.098  0.3301  0.3807  0.0083
  374TMC3     O 5651   0.945   3.055  10.195 -0.1731  0.3300  0.3792
  374TMC3     H 5652   1.095   3.207  10.077  1.1107 -2.0983  0.9894
  374TMC3    H1 5653   0.786   3.031   9.843 -0.8726 -0.4649  2.4550
  374TMC3    H2 5654   1.128   3.203   9.643 -1.3985 -0.9090 -1.4041
  374TMC3    C7 5655   0.929   3.028   9.615  0.5296  0.4137  0.0510
  374TMC3    C8 5656   1.227   3.313   9.876  0.4205 -0.2143 -0.0040
  374TMC3    O1 5657   0.854   2.933   9.640  0.1379  0.0109 -0.2844
  374TMC3    O2 5658   1.248   3.388   9.778 -0.1175  0.4903 -0.0734
  375MPD2     C 5659   0.857   2.860  16.748 -0.1465 -0.3548 -0.9743
  375MPD2    C1 5660   0.818   2.958  16.661  0.1855  0.2602  0.1119
  375MPD2    C2 5661   0.884   2.960  16.540  0.6906 -0.0173 -0.2795
  375MPD2    C3 5662   0.997   2.879  16.523 -0.5639 -0.0488 -0.3650
  375MPD2    C4 5663   1.024   2.780  16.607 -0.1131  0.2999  0.5368
  375MPD2    C5 5664   0.957   2.776  16.719 -0.5056 -0.7125  0.1584
  375MPD2     H 5665   0.864   3.033  16.462  2.1924 -0.7766 -1.3840
  375MPD2    H1 5666   1.108   2.712  16.599 -0.1157  0.4437 -0.7749
  375MPD2    H2 5667   0.794   2.844  16.835 -0.3728  1.1149 -0.8718
  375MPD2    H3 5668   0.977   2.693  16.786 -0.6523 -1.9285 -1.3139
  375MPD2     N 5669   1.081   2.888  16.408 -0.2528  0.1742  1.0334
  375MPD2    H5 5670   1.158   2.823  16.394 -1.1929 -0.8162  0.4040
  375MPD2    N1 5671   0.706   3.039  16.677 -0.1382 -0.1634  0.2906
  375MPD2    H7 5672   0.677   3.099  16.600  0.3884 -0.2231  0.0446
  376TMC3    C1 5673   1.185   2.969  16.217 -0.1486 -0.6248 -0.2852
  376TMC3    C2 5674   1.318   2.948  16.260  0.9097 -0.5213 -0.3039
  376TMC3    C3 5675   1.420   2.996  16.184  0.2606 -0.6020 -0.1291
  376TMC3    C4 5676   1.163   3.032  16.098  0.4375  0.2973  1.0089
  376TMC3    C5 5677   1.271   3.065  16.023  0.1129  0.3799 -0.0355
  376TMC3    C6 5678   1.397   3.064  16.071 -0.0672 -0.1417 -0.3522
  376TMC3     C 5679   1.074   2.975  16.307  1.3944 -0.3462 -0.1825
  376TMC3     O 5680   1.007   3.072  16.283 -0.6005  0.3409 -0.0104
  376TMC3     H 5681   1.330   2.894  16.354  0.8733 -1.0442 -0.6019
  376TMC3    H1 5682   1.061   3.050  16.066  0.2496 -0.9274  0.9524
  376TMC3    H2 5683   1.479   3.103  16.012 -1.0697  0.0052 -1.6356
  376TMC3    C7 5684   1.237   3.143  15.905  1.3007 -0.4551  0.5380
  376TMC3    C8 5685   1.550   3.038  16.242  0.0824  0.0682 -0.2363
  376TMC3    O1 5686   1.318   3.228  15.867 -0.5788  0.1889  0.5083
  376TMC3    O2 5687   1.636   3.088  16.171 -0.0119  0.0643 -0.5087
  377MPD2     C 5688   3.750   3.171  12.946 -0.4266 -0.1272 -0.5372
  377MPD2    C1 5689   3.766   3.041  12.904  0.1736  0.4240 -0.4690
  377MPD2    C2 5690   3.667   2.947  12.935  0.3749 -0.3673 -0.4241
  377MPD2    C3 5691   3.559   2.983  13.009 -0.3575  0.3934 -0.8287
  377MPD2    C4 5692   3.546   3.114  13.047  0.1805 -0.7194  0.2788
  377MPD2    C5 5693   3.644   3.210  13.015 -0.0674 -0.2425  1.0873
  377MPD2     H 5694   3.677   2.843  12.909 -1.9109 -0.6032 -0.4038
  377MPD2    H1 5695   3.464   3.138  13.114 -0.0362  0.1524 -0.2981
  377MPD2    H2 5696   3.829   3.244  12.931 -0.7197 -0.2220 -2.5456
  377MPD2    H3 5697   3.631   3.311  13.052 -2.9273 -0.8443  1.7809
  377MPD2     N 5698   3.464   2.891  13.057  0.3627  0.2915  0.0968
  377MPD2    H5 5699   3.384   2.934  13.102  1.0064  0.9090  0.6399
  377MPD2    N1 5700   3.878   3.031  12.816  0.7428  0.3053  0.2260
  377MPD2    H7 5701   3.931   3.114  12.793 -0.3100  0.7144 -0.7785
  378TMC3    C1 5702   4.080   3.042  12.475  0.9338 -0.0108 -0.6628
  378TMC3    C2 5703   4.025   3.049  12.598 -0.0690 -0.1063  0.0111
  378TMC3    C3 5704   4.026   2.936  12.669  0.2254  0.5602 -0.6089
  378TMC3    C4 5705   4.156   2.936  12.433 -0.5059 -0.4698  0.5579
  378TMC3    C5 5706   4.173   2.835  12.520  0.9123  0.0471  0.1088
  378TMC3    C6 5707   4.116   2.835  12.640 -0.5678 -0.0467  0.8295
  378TMC3     C 5708   4.008   3.119  12.375  0.4794 -0.4410  0.0719
  378TMC3     O 5709   3.906   3.181  12.407  0.1717 -0.0741  0.0990
  378TMC3     H 5710   3.946   3.122  12.611 -0.5402 -0.1618 -2.5094
  378TMC3    H1 5711   4.193   2.925  12.332 -2.1180 -0.8459  0.0060
  378TMC3    H2 5712   4.119   2.752  12.710  0.3603 -2.1831 -1.7350
  378TMC3    C7 5713   4.288   2.752  12.500  0.2577  0.1599 -0.7048
  378TMC3    C8 5714   3.922   2.911  12.766  0.3274  0.6213  0.1558
  378TMC3    O1 5715   4.295   2.652  12.571  0.5438  0.0112 -0.9653
  378TMC3    O2 5716   3.881   2.798  12.792 -0.7105 -0.1204  0.2435
  379MPD2     C 5717   4.238   1.208  16.654 -0.6384 -0.2928 -0.2603
  379MPD2    C1 5718   4.281   1.138  16.544  0.8306 -0.7047 -0.5504
  379MPD2    C2 5719   4.329   1.009  16.548  0.3875  0.3163  0.7306
  379MPD2    C3 5720   4.320   0.935  16.662 -0.2700 -0.2887 -0.3505
  379MPD2    C4 5721   4.280   1.001  16.774 -0.2591 -0.6291 -0.3667
  379MPD2    C5 5722   4.241   1.132  16.774 -0.2951 -0.7176  0.7174
  379MPD2     H 5723   4.349   0.963  16.452 -2.1989  2.2433 -0.7224
  379MPD2    H1 5724   4.290   0.955  16.871  1.1231 -0.1140 -0.2610
  379MPD2    H2 5725   4.209   1.312  16.653 -0.2693 -0.1902 -0.0133
  379MPD2    H3 5726   4.204   1.177  16.866 -0.1985 -1.2611  1.0263
  379MPD2     N 5727   4.347   0.794  16.667  0.4140 -0.2248  0.2273
  379MPD2    H5 5728   4.335   0.753  16.759 -0.2968 -3.8401 -1.4888
  379MPD2    N1 5729   4.281   1.215  16.427 -0.1618 -0.3126  0.0505
  379MPD2    H7 5730   4.249   1.310  16.446  2.3045  0.8869 -1.6996
  380TMC3    C1 5731   4.306   1.273  16.207 -0.8871  1.0390 -0.3896
  380TMC3    C2 5732   4.394   1.258  16.105  0.4240 -0.2919  0.7237
  380TMC3    C3 5733   4.347   1.246  15.975 -0.6454  0.4360 -0.7427
  380TMC3    C4 5734   4.170   1.307  16.187 -0.2618  0.1556 -0.1166
  380TMC3    C5 5735   4.127   1.299  16.057 -0.0987  0.2939  0.0205
  380TMC3    C6 5736   4.211   1.266  15.950  0.0090  0.1663 -0.2456
  380TMC3     C 5737   4.333   1.177  16.310  0.0111 -0.0367  0.2842
  380TMC3     O 5738   4.380   1.073  16.267 -0.1267 -0.0826  0.0242
  380TMC3     H 5739   4.499   1.262  16.133  0.2581  0.4850  1.2468
  380TMC3    H1 5740   4.100   1.325  16.268 -0.8935 -2.9115  0.0203
  380TMC3    H2 5741   4.173   1.266  15.848 -0.0147  2.6900 -0.2271
  380TMC3    C7 5742   3.998   1.346  16.027 -0.4267  0.2930 -0.3884
  380TMC3    C8 5743   4.444   1.235  15.863  0.7208 -0.0080 -0.0963
  380TMC3    O1 5744   3.978   1.455  16.076 -0.0411  0.2034 -0.5569
  380TMC3    O2 5745   4.387   1.219  15.756  0.1630  0.1316 -0.2929
  381TMC3    C1 5746   4.157   2.227  16.259 -0.0240  0.0165  0.1262
  381TMC3    C2 5747   4.183   2.356  16.217 -0.9923 -1.3953 -0.0321
  381TMC3    C3 5748   4.169   2.459  16.310  0.5133 -0.3658 -0.4971
  381TMC3    C4 5749   4.120   2.194  16.387 -0.6419 -0.3306  0.2937
  381TMC3    C5 5750   4.092   2.299  16.470  0.3624 -0.0797 -0.2407
  381TMC3    C6 5751   4.128   2.429  16.440  0.4845 -0.3491  0.8342
  381TMC3     C 5752   4.188   2.129  16.159 -0.0439 -0.5149 -0.1061
  381TMC3     O 5753   4.259   2.172  16.072  0.2735  0.1916 -0.3514
  381TMC3     H 5754   4.186   2.390  16.114 -0.1436 -1.6122 -0.0749
  381TMC3    H1 5755   4.083   2.095  16.412  1.9436 -1.2443  0.4725
  381TMC3    H2 5756   4.114   2.509  16.511 -0.0113 -0.6957  1.1261
  381TMC3    C7 5757   4.066   2.260  16.608  0.6287  0.2521 -0.5287
  381TMC3    C8 5758   4.263   2.567  16.274 -0.4610  0.7573 -0.1686
  381TMC3    O1 5759   4.086   2.143  16.644  0.5279  0.8083  0.1564
  381TMC3    O2 5760   4.340   2.548  16.182 -0.0341  0.0261 -0.6352
  382MPD2     C 5761   3.869   0.112  16.647 -0.5061 -0.4212 -0.5188
  382MPD2    C1 5762   3.890   0.089  16.780 -1.3182  0.3789  0.0742
  382MPD2    C2 5763   3.817   4.723  16.847  0.1811 -0.4644  0.0834
  382MPD2    C3 5764   3.725   4.644  16.781  0.5526 -0.5172 -0.1324
  382MPD2    C4 5765   3.700   4.675  16.648  0.0917 -0.3707  0.6202
  382MPD2    C5 5766   3.772   0.040  16.581  0.0616  0.0971 -0.7261
  382MPD2     H 5767   3.837   4.704  16.952  2.2040 -1.1884 -0.4328
  382MPD2    H1 5768   3.627   4.614  16.595  0.1737  0.6891 -0.7141
  382MPD2    H2 5769   3.924   0.178  16.580 -1.9252 -0.4065 -1.6664
  382MPD2    H3 5770   3.758   0.054  16.475 -1.6552  0.8400 -0.4051
  382MPD2     N 5771   3.658   4.535  16.838  0.4066 -0.3638 -0.1934
  382MPD2    H5 5772   3.580   4.491  16.790  1.1359 -1.4149 -0.4253
  382MPD2    N1 5773   3.986   0.156  16.850  0.4591  0.5798  0.7178
  382MPD2    H7 5774   3.990   0.134  16.949 -1.7865 -0.7932  0.5080
  383TMC3    C1 5775   3.609   4.371  17.012 -0.7408  0.0719 -0.4088
  383TMC3    C2 5776   3.489   4.349  16.953  0.6305 -0.7231  0.5722
  383TMC3    C3 5777   3.406   4.268  17.026 -0.5142 -0.3923  0.0657
  383TMC3    C4 5778   3.650   4.310  17.127 -0.9062 -0.2581  0.8624
  383TMC3    C5 5779   3.560   4.232  17.199 -0.5687  0.3114 -0.1651
  383TMC3    C6 5780   3.436   4.215  17.148  0.2345 -0.4554 -0.2134
  383TMC3     C 5781   3.707   4.465  16.951 -0.3133 -0.0627 -0.5137
  383TMC3     O 5782   3.812   4.478  17.012  0.3062  0.0434  0.2792
  383TMC3     H 5783   3.460   4.412  16.870 -0.3503 -2.6911 -0.5664
  383TMC3    H1 5784   3.753   4.321  17.158 -0.1697 -2.6887 -0.6406
  383TMC3    H2 5785   3.360   4.182  17.217  0.0158 -1.3353 -0.8674
  383TMC3    C7 5786   3.589   4.155  17.322 -0.2123  0.8461  0.1807
  383TMC3    C8 5787   3.259   4.269  16.997  0.2821  0.0727 -0.0143
  383TMC3    O1 5788   3.501   4.089  17.370 -0.0170  0.6183 -0.2804
  383TMC3    O2 5789   3.216   4.366  16.934 -0.1234 -0.1805 -0.0993
  384MPD2     C 5790   0.551   1.241  12.332  0.1427 -0.3249 -0.0007
  384MPD2    C1 5791   0.508   1.137  12.408  0.4337  0.3591  0.1421
  384MPD2    C2 5792   0.592   1.027  12.435  0.3714  0.4842 -0.1636
  384MPD2    C3 5793   0.724   1.026  12.405 -0.1263 -0.0590 -0.0981
  384MPD2    C4 5794   0.769   1.137  12.337  0.6174 -0.5747 -0.3917
  384MPD2    C5 5795   0.685   1.240  12.302 -0.8299  0.5460  0.3059
  384MPD2     H 5796   0.537   0.955  12.493 -0.1312  1.6825  0.8501
  384MPD2    H1 5797   0.870   1.146  12.300  0.5526 -1.3824 -0.7569
  384MPD2    H2 5798   0.492   1.329  12.309 -0.0143  0.4043  3.1645
  384MPD2    H3 5799   0.732   1.309  12.233 -1.4357  1.0535  0.3999
  384MPD2     N 5800   0.816   0.934  12.445  0.0170  0.2438 -0.0068
  384MPD2    H5 5801   0.906   0.939  12.398 -0.6330 -1.0178 -1.4050
  384MPD2    N1 5802   0.384   1.142  12.464  0.1381 -0.9978 -0.5433
  384MPD2    H7 5803   0.344   1.236  12.469 -1.6051 -1.6635 -1.9973
  385TMC3    C1 5804   0.678   0.783  12.586  0.4314 -0.8036 -0.0064
  385TMC3    C2 5805   0.626   0.655  12.558 -0.3749 -0.6206 -0.0576
  385TMC3    C3 5806   0.524   0.618  12.647 -0.3352 -0.5670 -0.3149
  385TMC3    C4 5807   0.638   0.863  12.689  0.5162  0.1696 -0.1655
  385TMC3    C5 5808   0.522   0.822  12.760  0.6847  0.4321 -0.2882
  385TMC3    C6 5809   0.463   0.697  12.747 -0.8868  0.5914  0.4160
  385TMC3     C 5810   0.807   0.819  12.534 -0.4576  0.5655  0.2817
  385TMC3     O 5811   0.896   0.735  12.538 -0.7510  0.1626 -0.7122
  385TMC3     H 5812   0.671   0.588  12.486  1.7574 -1.0446  1.6286
  385TMC3    H1 5813   0.676   0.964  12.701 -0.5866  0.3519  1.7603
  385TMC3    H2 5814   0.380   0.667  12.810 -0.5378 -3.0580 -0.9130
  385TMC3    C7 5815   0.457   0.927  12.839 -0.2267 -0.4711 -0.5994
  385TMC3    C8 5816   0.423   0.522  12.598  0.5173 -0.2460 -0.1370
  385TMC3    O1 5817   0.508   1.035  12.828  0.6816 -0.1110  0.4884
  385TMC3    O2 5818   0.332   0.487  12.669  0.6017 -0.0939  0.1653
  386TMC3    C1 5819   0.287   3.617  11.989 -0.5383 -0.1607  0.1212
  386TMC3    C2 5820   0.330   3.650  11.861 -0.4036  0.3672 -0.9036
  386TMC3    C3 5821   0.238   3.641  11.755  0.5304 -0.5405 -0.0170
  386TMC3    C4 5822   0.162   3.567  12.019  0.4238  0.6731  0.7152
  386TMC3    C5 5823   0.070   3.581  11.910 -0.2463 -0.0954 -0.7133
  386TMC3    C6 5824   0.108   3.597  11.780 -0.1590 -0.0458  0.1462
  386TMC3     C 5825   0.383   3.627  12.093  0.3252  0.0044 -0.0661
  386TMC3     O 5826   0.348   3.661  12.207 -0.3245 -0.5399  0.1695
  386TMC3     H 5827   0.428   3.692  11.845 -0.2558 -0.1111 -1.2527
  386TMC3    H1 5828   0.131   3.531  12.116  0.4547  0.3915  0.6209
  386TMC3    H2 5829   0.031   3.589  11.704 -0.5753  0.1735  0.5438
  386TMC3    C7 5830   4.665   3.546  11.938 -0.4155 -0.3134  0.1559
  386TMC3    C8 5831   0.245   3.715  11.632 -0.2030  0.3494 -0.5572
  386TMC3    O1 5832   4.644   3.506  12.051 -0.4959  0.7451 -0.5027
  386TMC3    O2 5833   0.152   3.719  11.554  0.6266  0.4648 -0.3491
  387MPD2     C 5834   2.936   4.110  10.113 -0.1153 -0.5473 -1.0045
  387MPD2    C1 5835   3.060   4.053  10.123 -0.3383 -0.2970  0.7971
  387MPD2    C2 5836   3.077   3.920  10.125  0.0795 -0.2473  0.5225
  387MPD2    C3 5837   2.968   3.836  10.125 -0.4810  0.1492 -0.5572
  387MPD2    C4 5838   2.840   3.886  10.117  0.1945 -0.5658  0.1261
  387MPD2    C5 5839   2.827   4.024  10.100 -0.2032 -0.2399  1.1315
  387MPD2     H 5840   3.171   3.868  10.142  0.8306  0.3554 -1.7529
  387MPD2    H1 5841   2.752   3.824  10.120 -1.3581  1.6369  0.4568
  387MPD2    H2 5842   2.915   4.216  10.108 -1.7247 -0.7931  0.8110
  387MPD2    H3 5843   2.725   4.061  10.092  0.4161  1.2096  0.0320
  387MPD2     N 5844   2.998   3.697  10.116 -0.0577  0.7382  0.5733
  387MPD2    H5 5845   3.097   3.676  10.127  0.0254 -0.1555 -1.9572
  387MPD2    N1 5846   3.177   4.130  10.127  0.5260  0.1640 -0.4254
  387MPD2    H7 5847   3.258   4.068  10.130  2.7893  3.2154  1.0256
  388TMC3    C1 5848   3.345   4.270  10.068  0.1054 -0.0070  0.1812
  388TMC3    C2 5849   3.403   4.379  10.124  0.4112 -0.0031  0.2312
  388TMC3    C3 5850   3.536   4.379  10.152 -0.1788 -0.4797 -0.5453
  388TMC3    C4 5851   3.412   4.151  10.041 -0.1990  0.4429  0.1383
  388TMC3    C5 5852   3.540   4.149  10.084  0.0491 -0.2231  0.4860
  388TMC3    C6 5853   3.598   4.263  10.150  0.0522  0.1956  0.6234
  388TMC3     C 5854   3.206   4.262  10.098 -0.1857 -0.2027 -0.5280
  388TMC3     O 5855   3.144   4.366  10.120  0.4427  0.1066 -0.2862
  388TMC3     H 5856   3.347   4.468  10.152 -2.7806 -2.0110  0.1505
  388TMC3    H1 5857   3.372   4.060   9.999 -0.4233  0.1269  1.0441
  388TMC3    H2 5858   3.698   4.253  10.190  0.1344  0.2889  0.4441
  388TMC3    C7 5859   3.626   4.037  10.045  0.2433 -0.4101  0.6882
  388TMC3    C8 5860   3.594   4.495  10.204  0.0911  0.4310 -0.3715
  388TMC3    O1 5861   3.748   4.057  10.032 -0.1637  0.1241 -0.1192
  388TMC3    O2 5862   3.693   4.472  10.274  0.5591  0.4854 -0.0971
  389MPD2     C 5863   2.467   1.806  10.985  0.2185  0.6435  0.9117
  389MPD2    C1 5864   2.348   1.782  10.921 -0.5296  0.4021  0.7374
  389MPD2    C2 5865   2.262   1.677  10.962 -0.7138  0.0484  0.7583
  389MPD2    C3 5866   2.302   1.603  11.076 -0.3016 -0.7566 -0.1526
  389MPD2    C4 5867   2.416   1.638  11.141 -0.7609  0.8477 -0.0092
  389MPD2    C5 5868   2.503   1.735  11.098  0.3498 -0.5412  0.3579
  389MPD2     H 5869   2.165   1.664  10.917  0.2825  5.1048 -2.9178
  389MPD2    H1 5870   2.433   1.589  11.236 -2.5854 -0.9750 -0.5999
  389MPD2    H2 5871   2.536   1.881  10.948 -0.5221  1.6180  1.5191
  389MPD2    H3 5872   2.596   1.754  11.151 -0.7946 -0.1096  2.2152
  389MPD2     N 5873   2.222   1.501  11.138 -0.1284  0.4791  0.2699
  389MPD2    H5 5874   2.266   1.461  11.221 -2.0051 -0.2958  0.8859
  389MPD2    N1 5875   2.306   1.869  10.818 -0.3733 -0.5206  0.5486
  389MPD2    H7 5876   2.371   1.944  10.797  2.6112 -3.1779  0.2814
  390TMC3    C1 5877   2.054   1.337  11.159  0.8029 -0.3815 -0.4888
  390TMC3    C2 5878   1.991   1.241  11.092  0.0223  0.2169 -0.6522
  390TMC3    C3 5879   1.934   1.149  11.166  0.3437 -0.1309 -0.3053
  390TMC3    C4 5880   2.057   1.348  11.300 -0.9985 -1.0718  0.2049
  390TMC3    C5 5881   2.008   1.249  11.372  0.1678 -0.5515  0.6157
  390TMC3    C6 5882   1.934   1.153  11.307 -0.1547 -0.0076 -0.5234
  390TMC3     C 5883   2.103   1.449  11.083  0.2679  0.4037 -0.5025
  390TMC3     O 5884   2.043   1.469  10.976 -0.6358 -1.0053  0.1906
  390TMC3     H 5885   1.994   1.239  10.984 -1.9456  0.0607 -0.7033
  390TMC3    H1 5886   2.121   1.418  11.353 -2.1213 -1.5615  2.2025
  390TMC3    H2 5887   1.882   1.080  11.368 -1.3081  0.5887 -0.7840
  390TMC3    C7 5888   1.983   1.291  11.512 -0.1761  0.3296 -0.0027
  390TMC3    C8 5889   1.899   1.030  11.089  0.0538 -0.0060  0.0702
  390TMC3    O1 5890   2.025   1.402  11.537 -0.7192  0.2040 -0.1232
  390TMC3    O2 5891   1.947   1.012  10.980  0.0565  0.1294  0.0293
  391MPD2     C 5892   1.731   3.179  11.342  0.0932  0.6113 -0.2626
  391MPD2    C1 5893   1.825   3.281  11.328 -0.4382  0.4619  0.6472
  391MPD2    C2 5894   1.816   3.362  11.208  0.1061 -0.2973 -0.0229
  391MPD2    C3 5895   1.723   3.332  11.114  0.0600 -1.0566  0.0349
  391MPD2    C4 5896   1.641   3.222  11.117  0.5515 -0.3430 -0.2567
  391MPD2    C5 5897   1.648   3.146  11.232 -0.0188  0.2503 -0.7290
  391MPD2     H 5898   1.869   3.456  11.198 -0.3579  0.0482  0.7924
  391MPD2    H1 5899   1.575   3.195  11.036  0.2702  2.1326 -0.8599
  391MPD2    H2 5900   1.732   3.115  11.429 -0.0382  0.4212 -0.4031
  391MPD2    H3 5901   1.583   3.061  11.250 -0.9580  0.7304 -1.8485
  391MPD2     N 5902   1.721   3.412  10.997  0.3265 -0.5489 -0.2242
  391MPD2    H5 5903   1.811   3.455  10.978  0.3226 -0.7368 -0.6583
  391MPD2    N1 5904   1.923   3.309  11.434  0.0400  0.4346  0.1920
  391MPD2    H7 5905   1.936   3.260  11.522 -1.1330 -1.1474 -0.5056
  392TMC3    C1 5906   1.645   3.482  10.783  0.0412  0.7246 -0.2995
  392TMC3    C2 5907   1.566   3.461  10.672  0.4368 -0.0737  0.5462
  392TMC3    C3 5908   1.610   3.515  10.552 -0.2770 -0.4199  0.5392
  392TMC3    C4 5909   1.755   3.559  10.781 -0.4509 -0.6574  0.5430
  392TMC3    C5 5910   1.804   3.606  10.666 -0.4651 -0.4621 -0.2474
  392TMC3    C6 5911   1.733   3.578  10.548  0.0925  0.1320  0.2445
  392TMC3     C 5912   1.621   3.409  10.905 -0.1590 -0.7288  0.2292
  392TMC3     O 5913   1.504   3.378  10.927 -0.2500  0.2599 -0.3667
  392TMC3     H 5914   1.470   3.413  10.688 -0.6646  1.5086 -1.2846
  392TMC3    H1 5915   1.812   3.584  10.870  1.0475 -1.4403 -0.1954
  392TMC3    H2 5916   1.778   3.608  10.454  1.1700  0.7811  0.9695
  392TMC3    C7 5917   1.917   3.705  10.675  0.3788 -0.0412 -0.3493
  392TMC3    C8 5918   1.544   3.468  10.433  0.0728  0.4151 -0.5424
  392TMC3    O1 5919   1.954   3.734  10.786  0.4014 -0.5281  0.6093
  392TMC3    O2 5920   1.475   3.367  10.449 -0.3506  0.5951 -0.3268
  393TMC3    C1 5921   0.402   1.316  11.462  0.1904 -0.3712  0.1302
  393TMC3    C2 5922   0.294   1.241  11.421  0.4233  0.0073 -0.6788
  393TMC3    C3 5923   0.291   1.106  11.448 -0.0325  0.5103  0.2510
  393TMC3    C4 5924   0.512   1.257  11.530  0.2863  0.2179  0.2617
  393TMC3    C5 5925   0.497   1.122  11.551 -0.6231 -0.2611 -0.3884
  393TMC3    C6 5926   0.392   1.044  11.517 -0.0041  0.5300  0.5934
  393TMC3     C 5927   0.428   1.437  11.386  0.0296  0.0502  0.3076
  393TMC3     O 5928   0.363   1.450  11.282 -0.1016 -0.2863 -0.3877
  393TMC3     H 5929   0.202   1.282  11.381  0.1882 -1.5903 -1.8011
  393TMC3    H1 5930   0.604   1.314  11.540 -0.3091  0.7874  2.3854
  393TMC3    H2 5931   0.381   0.938  11.535 -0.9892  0.7293  1.1862
  393TMC3    C7 5932   0.613   1.047  11.599  0.0111  0.6066  0.2010
  393TMC3    C8 5933   0.177   1.022  11.411 -0.2774 -0.5314  0.2816
  393TMC3    O1 5934   0.595   0.944  11.664 -0.0558  0.3148  0.4677
  393TMC3    O2 5935   0.166   0.914  11.465  0.5798 -0.1028 -0.2379
  394TMC3    C1 5936   2.198   1.977  10.645  0.0975 -0.7888  0.5928
  394TMC3    C2 5937   2.112   1.970  10.540  0.0981  0.0232  0.2674
  394TMC3    C3 5938   2.099   2.082  10.456  0.5403 -0.0928 -0.4506
  394TMC3    C4 5939   2.268   2.095  10.677 -0.8008  0.9819  0.1306
  394TMC3    C5 5940   2.248   2.196  10.581  0.2912 -0.1686  0.1671
  394TMC3    C6 5941   2.177   2.187  10.468  0.0332 -0.1360  0.7113
  394TMC3     C 5942   2.192   1.863  10.740  0.1331  0.4628  0.5195
  394TMC3     O 5943   2.091   1.791  10.731 -0.2669  0.7091  0.2640
  394TMC3     H 5944   2.047   1.885  10.523 -0.6318  0.7957 -0.8457
  394TMC3    H1 5945   2.340   2.115  10.755 -2.3588  0.8222  1.6004
  394TMC3    H2 5946   2.167   2.274  10.404  0.6033 -0.3076  0.3902
  394TMC3    C7 5947   2.328   2.317  10.585  0.3616 -0.2522  0.0679
  394TMC3    C8 5948   2.048   2.057  10.321 -0.0506  1.0573  0.6122
  394TMC3    O1 5949   2.276   2.414  10.533 -0.1440  0.1245  0.7578
  394TMC3    O2 5950   2.076   2.147  10.238  0.7223  0.9688  0.5343
  395TMC3    C1 5951   1.888   3.410  14.850 -0.4418 -0.1552 -0.4549
  395TMC3    C2 5952   1.755   3.430  14.877 -0.0829 -0.5003  0.3632
  395TMC3    C3 5953   1.724   3.551  14.935  0.3267  0.2978  0.0989
  395TMC3    C4 5954   1.994   3.496  14.883  0.1300  0.1339 -0.1236
  395TMC3    C5 5955   1.952   3.613  14.935 -0.0913 -0.4651 -0.5730
  395TMC3    C6 5956   1.818   3.643  14.966  0.7816 -0.3819  0.1583
  395TMC3     C 5957   1.938   3.275  14.873 -0.3296  0.4497 -0.2740
  395TMC3     O 5958   2.054   3.264  14.854 -0.2166  0.3060  0.6223
  395TMC3     H 5959   1.681   3.366  14.831  0.2729  0.8786 -2.1119
  395TMC3    H1 5960   2.093   3.478  14.842  1.1445  1.2035  1.8611
  395TMC3    H2 5961   1.792   3.734  15.019 -0.4039 -1.1433  0.8685
  395TMC3    C7 5962   2.037   3.732  14.934  0.5259 -0.3343  0.1214
  395TMC3    C8 5963   1.586   3.582  14.972  0.3433  0.4601 -0.3575
  395TMC3    O1 5964   1.983   3.843  14.923  0.2746 -0.1348  0.1289
  395TMC3    O2 5965   1.566   3.696  15.007  0.3551 -0.0635 -0.0167
  396MPD2     C 5966   1.314   0.051  17.262  0.0942  0.1700  0.3345
  396MPD2    C1 5967   1.445   4.726  17.285 -0.0920  0.1059  0.1684
  396MPD2    C2 5968   1.549   0.030  17.199 -0.3470 -0.1809 -0.2531
  396MPD2    C3 5969   1.524   0.110  17.089  0.1073  0.3674  0.2753
  396MPD2    C4 5970   1.399   0.164  17.073  0.9398  0.1168 -0.2667
  396MPD2    C5 5971   1.295   0.138  17.161 -0.0583 -0.0169 -0.1693
  396MPD2     H 5972   1.651   4.728  17.212 -0.6465 -2.2303 -3.2257
  396MPD2    H1 5973   1.361   0.223  16.991 -0.9261  0.0599  0.5563
  396MPD2    H2 5974   1.228   0.028  17.324 -0.6827  1.1351 -0.3814
  396MPD2    H3 5975   1.203   0.194  17.152  1.3510  2.2586 -0.6357
  396MPD2     N 5976   1.631   0.154  17.013  0.2049 -0.4040  0.2492
  396MPD2    H5 5977   1.725   0.129  17.044  0.6926  2.5076  1.1665
  396MPD2    N1 5978   1.461   4.625  17.384 -0.1407  0.0905 -0.0455
  396MPD2    H7 5979   1.381   4.587  17.434  0.8394 -1.2829  0.4919
  397TMC3    C1 5980   1.545   4.432  17.483 -0.0856  0.0562 -0.2016
  397TMC3    C2 5981   1.655   4.353  17.459 -0.5626 -0.0773  0.1449
  397TMC3    C3 5982   1.692   4.266  17.557 -0.0755  0.0546  0.0127
  397TMC3    C4 5983   1.504   4.445  17.614 -0.1730  0.2808 -0.4014
  397TMC3    C5 5984   1.562   4.372  17.714  0.0250  0.2145  0.0355
  397TMC3    C6 5985   1.652   4.274  17.689 -0.4064 -0.1891 -0.0147
  397TMC3     C 5986   1.575   4.552  17.405  0.4048 -0.0855  0.6565
  397TMC3     O 5987   1.691   4.571  17.368  0.6409 -0.4672  0.0035
  397TMC3     H 5988   1.675   4.341  17.353 -1.0837 -0.8459  0.1411
  397TMC3    H1 5989   1.439   4.527  17.643 -1.2464  0.1923 -2.6135
  397TMC3    H2 5990   1.673   4.187   0.021  1.4477 -0.5915 -1.2009
  397TMC3    C7 5991   1.493   4.358   0.110  0.1504 -0.2230 -0.5103
  397TMC3    C8 5992   1.736   4.139  17.504  0.5090 -0.2980 -0.0542
  397TMC3    O1 5993   1.370   4.366   0.120  0.3486  0.1287 -1.2174
  397TMC3    O2 5994   1.738   4.049  17.589 -0.0578  0.2993  0.3353
  398MPD2     C 5995   0.311   0.930   0.327 -0.3041 -1.2269 -0.2890
  398MPD2    C1 5996   0.414   0.897   0.413 -0.2173 -0.4533 -0.1704
  398MPD2    C2 5997   0.477   0.994   0.486  0.0840  0.5719  0.7313
  398MPD2    C3 5998   0.450   1.126   0.471  0.2411  0.4980  0.0660
  398MPD2    C4 5999   0.347   1.160   0.395 -0.3740 -0.2406  0.2181
  398MPD2    C5 6000   0.276   1.064   0.321 -0.5634 -0.0851  0.0167
  398MPD2     H 6001   0.558   0.968   0.553  1.9334 -0.6049 -1.9450
  398MPD2    H1 6002   0.312   1.262   0.381  1.2126  0.3454  0.5563
  398MPD2    H2 6003   0.252   0.854   0.276  2.1852 -2.1469 -1.7825
  398MPD2    H3 6004   0.196   1.094   0.254 -1.2275  0.7033  1.1641
  398MPD2     N 6005   0.531   1.223   0.532 -0.0365  0.2874 -0.2884
  398MPD2    H5 6006   0.607   1.186   0.587  0.6711  0.0254 -1.4298
  398MPD2    N1 6007   0.448   0.765   0.448 -0.0123 -0.0561  0.2565
  398MPD2    H7 6008   0.531   0.751   0.505  0.9483 -0.7213 -1.2991
  399TMC3    C1 6009   0.431   0.533   0.476  0.6764 -0.1159 -0.4915
  399TMC3    C2 6010   0.525   0.546   0.576  0.2305 -0.0960 -0.3464
  399TMC3    C3 6011   0.562   0.431   0.639  0.0516 -0.7061  0.1985
  399TMC3    C4 6012   0.371   0.411   0.443 -0.3589  0.0749  0.2476
  399TMC3    C5 6013   0.415   0.301   0.505  0.4046 -1.0884 -0.5349
  399TMC3    C6 6014   0.510   0.307   0.607  0.1189  0.3978  0.3907
  399TMC3     C 6015   0.383   0.654   0.404  0.2404  0.9783  0.5264
  399TMC3     O 6016   0.283   0.646   0.333  0.1547  0.2477  0.3184
  399TMC3     H 6017   0.581   0.630   0.613  1.6259 -1.3247  0.3490
  399TMC3    H1 6018   0.302   0.411   0.360 -0.6310 -1.2798  0.4642
  399TMC3    H2 6019   0.540   0.213   0.650  0.5029  0.4322  0.1997
  399TMC3    C7 6020   0.336   0.182   0.501 -0.2454 -0.0675 -0.5251
  399TMC3    C8 6021   0.685   0.436   0.723 -0.0834 -0.9886  0.3181
  399TMC3    O1 6022   0.394   0.080   0.533  0.3078  0.4110  0.2935
  399TMC3    O2 6023   0.751   0.538   0.711 -0.0749  0.1006  0.4988
  400TMC3    C1 6024   3.132   3.905  16.693  0.3982 -0.0960 -0.8080
  400TMC3    C2 6025   3.001   3.868  16.683  0.6000  0.0912  0.3908
  400TMC3    C3 6026   2.909   3.954  16.630 -0.6425 -0.0423  0.4821
  400TMC3    C4 6027   3.168   4.029  16.659 -0.4832  0.7574  0.1413
  400TMC3    C5 6028   3.072   4.112  16.602  0.5574 -0.3274  0.3645
  400TMC3    C6 6029   2.947   4.071  16.575 -0.3019  0.4026  0.0157
  400TMC3     C 6030   3.209   3.834  16.797 -0.1153  0.0758 -0.1367
  400TMC3     O 6031   3.174   3.720  16.834 -0.3500 -0.0938  0.0999
  400TMC3     H 6032   2.975   3.775  16.733 -2.6731  1.9891  2.2075
  400TMC3    H1 6033   3.262   4.075  16.686 -1.4089  2.3260  0.6887
  400TMC3    H2 6034   2.865   4.131  16.538  0.3501  1.1265 -0.2659
  400TMC3    C7 6035   3.115   4.241  16.564  0.0660 -0.1894  0.0209
  400TMC3    C8 6036   2.775   3.919  16.614 -0.2421  0.0352  0.0362
  400TMC3    O1 6037   3.205   4.300  16.631  0.7654 -0.2639 -0.5248
  400TMC3    O2 6038   2.699   4.012  16.591 -0.1248  0.5274  0.0900
  401MPD2     C 6039   1.014   2.639   0.284  0.8215 -0.1427 -0.0080
  401MPD2    C1 6040   1.115   2.551   0.305 -0.0508 -0.4517  0.0056
  401MPD2    C2 6041   1.092   2.436   0.369  1.0135 -0.3872 -0.3974
  401MPD2    C3 6042   0.968   2.411   0.415 -0.8853 -0.2193 -0.1826
  401MPD2    C4 6043   0.866   2.498   0.404  0.5606 -0.6625  0.4287
  401MPD2    C5 6044   0.890   2.608   0.323 -0.0052  0.3568 -0.1658
  401MPD2     H 6045   1.169   2.361   0.381 -0.0475 -0.6633  4.5217
  401MPD2    H1 6046   0.771   2.478   0.453  1.6391 -1.5890  2.1174
  401MPD2    H2 6047   1.022   2.726   0.219  1.3381  0.3532  0.7229
  401MPD2    H3 6048   0.811   2.682   0.309  0.6454  0.6399 -2.2999
  401MPD2     N 6049   0.945   2.291   0.484  0.3633  0.0276  0.0340
  401MPD2    H5 6050   1.030   2.246   0.516  0.0013  1.8601  3.6187
  401MPD2    N1 6051   1.250   2.565   0.255  0.0491 -0.2482  0.5364
  401MPD2    H7 6052   1.313   2.487   0.243 -0.0957 -0.2702 -0.0898
  402TMC3    C1 6053   0.868   2.142   0.637 -0.1750 -0.1777 -0.3275
  402TMC3    C2 6054   0.928   2.204   0.743 -0.5625 -0.8390 -0.5005
  402TMC3    C3 6055   1.022   2.132   0.812  0.0457 -0.2283 -0.4515
  402TMC3    C4 6056   0.895   2.011   0.606  0.5330 -0.5429 -0.4197
  402TMC3    C5 6057   0.984   1.938   0.685  0.1135 -0.2748  0.4600
  402TMC3    C6 6058   1.038   1.996   0.792  0.0805  0.1602  0.0235
  402TMC3     C 6059   0.829   2.238   0.532 -0.1350  0.2392  0.0282
  402TMC3     O 6060   0.712   2.252   0.499 -0.0208  0.1018 -0.9016
  402TMC3     H 6061   0.921   2.312   0.741  0.5305 -0.7671 -0.5168
  402TMC3    H1 6062   0.857   1.965   0.515  1.5583 -1.3279 -0.4434
  402TMC3    H2 6063   1.118   1.951   0.850  0.2313 -0.2245 -0.4830
  402TMC3    C7 6064   1.046   1.824   0.623 -0.4243 -0.1277  0.5259
  402TMC3    C8 6065   1.141   2.191   0.871 -0.1464  0.0829  0.6304
  402TMC3    O1 6066   0.988   1.720   0.621  0.1192 -0.5346 -0.2081
  402TMC3    O2 6067   1.242   2.128   0.873 -0.3348  0.1886 -0.4737
  403MPD2     C 6068   4.362   0.871  13.321  0.0421 -0.1954 -0.6469
  403MPD2    C1 6069   4.397   0.817  13.439 -0.4084 -0.1740 -0.1562
  403MPD2    C2 6070   4.501   0.872  13.506  0.1870  0.1877 -0.1068
  403MPD2    C3 6071   4.584   0.970  13.452  0.1644 -0.5671  0.5950
  403MPD2    C4 6072   4.546   1.014  13.326 -0.8106  0.7304  1.0159
  403MPD2    C5 6073   4.439   0.968  13.271 -0.3442 -0.8015  0.0926
  403MPD2     H 6074   4.527   0.834  13.605 -0.8066  2.2524  0.9312
  403MPD2    H1 6075   4.595   1.094  13.271 -0.5094 -0.9780 -1.2068
  403MPD2    H2 6076   4.279   0.828  13.266 -0.9535 -0.0672  0.7511
  403MPD2    H3 6077   4.408   1.019  13.181 -0.2344  1.6687  1.4410
  403MPD2     N 6078   4.690   1.024  13.523  0.0003  0.5216 -0.3506
  403MPD2    H5 6079   4.721   0.974  13.606  3.4991  2.7724 -0.2845
  403MPD2    N1 6080   4.313   0.707  13.483  0.0820 -0.2555 -0.5450
  403MPD2    H7 6081   4.238   0.682  13.420 -1.5029  0.7098  0.9505
  404TMC3    C1 6082   4.274   0.510  13.623 -0.4808 -0.4488 -0.0297
  404TMC3    C2 6083   4.311   0.449  13.738  0.2615  0.6350 -0.4095
  404TMC3    C3 6084   4.320   0.314  13.741  0.3756 -0.2405 -0.2605
  404TMC3    C4 6085   4.240   0.434  13.513 -0.9940 -0.7566  0.8205
  404TMC3    C5 6086   4.245   0.296  13.512 -0.3625 -0.5657 -0.0216
  404TMC3    C6 6087   4.277   0.237  13.633 -0.1416  0.8261 -0.5319
  404TMC3     C 6088   4.321   0.650  13.607 -0.3989 -0.1127 -0.0879
  404TMC3     O 6089   4.379   0.694  13.700  0.2302  0.0841 -0.1056
  404TMC3     H 6090   4.340   0.505  13.826  0.0411  0.4412 -0.2105
  404TMC3    H1 6091   4.218   0.476  13.416  3.5948 -2.1579 -0.8379
  404TMC3    H2 6092   4.295   0.131  13.643 -4.1898  0.0559 -1.3824
  404TMC3    C7 6093   4.187   0.207  13.408  0.5143  0.1244  0.0812
  404TMC3    C8 6094   4.377   0.237  13.852 -0.2291  0.4808 -0.4864
  404TMC3    O1 6095   4.197   0.085  13.438  0.3548 -0.5288 -0.1902
  404TMC3    O2 6096   4.416   0.120  13.835  0.5224  0.3258 -0.0275
  405MPD2     C 6097   0.518   1.315  14.582  0.4189 -0.2907  0.5080
  405MPD2    C1 6098   0.529   1.198  14.518  0.4653  0.4882 -0.6467
  405MPD2    C2 6099   0.477   1.185  14.391 -0.7525 -0.2321  0.2531
  405MPD2    C3 6100   0.386   1.283  14.345  0.4459  0.4866  0.7012
  405MPD2    C4 6101   0.372   1.404  14.410  0.0938 -0.4997 -0.5101
  405MPD2    C5 6102   0.440   1.416  14.530 -0.1266 -0.5349  0.0787
  405MPD2     H 6103   0.491   1.099  14.327 -0.4282  0.0837 -0.1015
  405MPD2    H1 6104   0.311   1.486  14.374 -3.0999 -1.9882  1.5042
  405MPD2    H2 6105   0.551   1.326  14.684  0.9899  1.6317  0.1191
  405MPD2    H3 6106   0.428   1.503  14.593  0.7223  1.1628 -2.1181
  405MPD2     N 6107   0.314   1.246  14.225 -0.6841  0.3079 -0.6025
  405MPD2    H5 6108   0.328   1.150  14.194  0.1736  1.1110 -2.6928
  405MPD2    N1 6109   0.592   1.086  14.583  0.7575  0.4870  0.2375
  405MPD2    H7 6110   0.611   1.101  14.682 -0.0480  0.0256  0.4607
  406TMC3    C1 6111   4.645   1.200  13.968  0.0784 -0.2731 -1.0403
  406TMC3    C2 6112   4.685   1.084  13.905  0.1180  0.2529 -0.0569
  406TMC3    C3 6113   0.082   1.050  13.931 -0.3399 -0.7096  0.4855
  406TMC3    C4 6114   4.723   1.277  14.051  0.2949  0.1707 -0.0859
  406TMC3    C5 6115   0.122   1.243  14.078 -0.3535  0.5107  0.8138
  406TMC3    C6 6116   0.166   1.123  14.007  0.0783  0.3542  0.1714
  406TMC3     C 6117   4.509   1.245  13.948 -0.1088 -0.1744  0.1713
  406TMC3     O 6118   4.472   1.243  13.830 -0.1848  0.2246  0.4629
  406TMC3     H 6119   4.629   1.028  13.832  0.8557 -0.3054 -0.1990
  406TMC3    H1 6120   4.681   1.366  14.096 -2.3498 -0.8375 -0.5797
  406TMC3    H2 6121   0.268   1.089  14.024 -0.3806 -1.4439 -0.7239
  406TMC3    C7 6122   0.206   1.315  14.175  0.5062 -0.4082 -0.4287
  406TMC3    C8 6123   0.114   0.916  13.906 -0.1113 -0.0407  0.0565
  406TMC3    O1 6124   0.164   1.425  14.201 -0.3988  0.1266 -0.4080
  406TMC3    O2 6125   0.100   0.874  13.791 -0.5081  0.1621  0.0345
  407MPD2     C 6126   2.465   3.801  10.409  0.7031 -0.5829 -0.4769
  407MPD2    C1 6127   2.498   3.902  10.317  0.0117 -0.1968  0.2859
  407MPD2    C2 6128   2.574   4.001  10.372  0.4379 -0.0851 -0.2246
  407MPD2    C3 6129   2.626   4.008  10.496 -0.5350  0.5961 -0.6078
  407MPD2    C4 6130   2.592   3.902  10.582  0.1707  0.1000  0.1358
  407MPD2    C5 6131   2.504   3.807  10.541  0.2389  0.6433  0.2182
  407MPD2     H 6132   2.610   4.077  10.303 -0.6903 -0.8165 -1.6279
  407MPD2    H1 6133   2.622   3.899  10.686  0.6675 -0.9312 -0.0393
  407MPD2    H2 6134   2.392   3.727  10.377 -0.4912  0.4266 -0.0759
  407MPD2    H3 6135   2.472   3.733  10.613  0.7398  0.6962  0.4946
  407MPD2     N 6136   2.720   4.100  10.537 -0.2205 -0.3041  0.2094
  407MPD2    H5 6137   2.779   4.082  10.617 -0.5462 -1.7295  0.1264
  407MPD2    N1 6138   2.478   3.908  10.178  0.4109 -0.3934  0.1995
  407MPD2    H7 6139   2.502   3.989  10.122  1.5443  0.6221  2.1513
  408TMC3    C1 6140   2.495   3.800   9.965 -0.1643 -0.2180  0.2858
  408TMC3    C2 6141   2.543   3.685   9.912 -0.1838  0.0546 -0.0957
  408TMC3    C3 6142   2.630   3.702   9.805 -0.3166  0.3053 -0.7151
  408TMC3    C4 6143   2.480   3.915   9.892  0.1012  0.1294  0.5163
  408TMC3    C5 6144   2.549   3.922   9.775 -0.5532  0.2276 -0.4151
  408TMC3    C6 6145   2.628   3.817   9.731 -0.4337  0.1292  0.0433
  408TMC3     C 6146   2.447   3.791  10.099 -0.5365  0.3223 -0.6638
  408TMC3     O 6147   2.411   3.680  10.138  0.4325  0.0614 -0.7011
  408TMC3     H 6148   2.566   3.603   9.979  1.5877  0.8208  0.2374
  408TMC3    H1 6149   2.424   4.002   9.927  0.2811  1.1954 -1.8418
  408TMC3    H2 6150   2.689   3.825   9.643 -1.0525 -1.3325 -0.5240
  408TMC3    C7 6151   2.571   4.062   9.733  0.3732  0.0126  0.4279
  408TMC3    C8 6152   2.708   3.587   9.763  0.7036  1.3264  0.4577
  408TMC3    O1 6153   2.482   4.130   9.688  0.3127  0.2306  0.0976
  408TMC3    O2 6154   2.663   3.476   9.786 -0.4730  0.9137 -0.3094
  409MPD2     C 6155   2.076   3.732  16.952  0.3406  0.4959  0.6661
  409MPD2    C1 6156   2.203   3.760  16.990  0.2389 -0.2095  0.0597
  409MPD2    C2 6157   2.253   3.882  16.957 -1.1054  0.0210  0.0449
  409MPD2    C3 6158   2.188   3.966  16.863 -0.4454  0.2462  0.5901
  409MPD2    C4 6159   2.059   3.938  16.820 -0.9037 -0.1980  0.4837
  409MPD2    C5 6160   2.012   3.814  16.863 -0.5474 -0.1749  0.8693
  409MPD2     H 6161   2.350   3.902  17.001 -1.1997  0.3533  0.0985
  409MPD2    H1 6162   2.001   3.992  16.746 -0.8662 -0.2750  0.3980
  409MPD2    H2 6163   2.031   3.641  16.989  1.1717 -0.6420 -1.0925
  409MPD2    H3 6164   1.911   3.788  16.833 -0.6565 -0.0607  1.1406
  409MPD2     N 6165   2.242   4.086  16.811  0.4425 -0.5826 -0.0454
  409MPD2    H5 6166   2.182   4.137  16.748  1.6661 -0.2536 -0.9213
  409MPD2    N1 6167   2.284   3.677  17.072 -0.1963 -0.4230 -0.0047
  409MPD2    H7 6168   2.371   3.718  17.103 -1.6540  0.6497  2.7419
  410TMC3    C1 6169   2.415   4.246  16.758  0.1809  0.1039  0.5574
  410TMC3    C2 6170   2.515   4.316  16.817 -0.1440  0.5419  0.0840
  410TMC3    C3 6171   2.622   4.362  16.740  0.1287 -0.5559 -0.0541
  410TMC3    C4 6172   2.415   4.212  16.626  0.9123 -0.5388  0.0037
  410TMC3    C5 6173   2.516   4.261  16.550 -0.3516  0.6826  0.1773
  410TMC3    C6 6174   2.624   4.324  16.607  0.4090  0.6127 -0.1005
  410TMC3     C 6175   2.369   4.141  16.844 -0.0176 -0.2639  0.4389
  410TMC3     O 6176   2.434   4.118  16.944 -0.1915 -0.5041  0.1102
  410TMC3     H 6177   2.521   4.321  16.925 -2.9197 -1.3991  0.3375
  410TMC3    H1 6178   2.337   4.154  16.578  1.1142 -0.7594 -0.0582
  410TMC3    H2 6179   2.709   4.354  16.548  0.7824  2.8030  1.5277
  410TMC3    C7 6180   2.513   4.231  16.412 -1.1555  0.3563  0.2936
  410TMC3    C8 6181   2.749   4.326  16.797  0.2126  0.8390  0.2734
  410TMC3    O1 6182   2.430   4.154  16.372  0.7645  0.4916 -0.1909
  410TMC3    O2 6183   2.850   4.390  16.766  0.5289  0.4526  0.2351
  411MPD2     C 6184   2.401   0.081  14.551  0.5936 -0.5477  0.1758
  411MPD2    C1 6185   2.282   0.074  14.621  0.3121  0.0769  0.1442
  411MPD2    C2 6186   2.186   4.712  14.596  1.1311  0.4820  0.2386
  411MPD2    C3 6187   2.217   4.610  14.511  0.8513 -0.4784  0.1318
  411MPD2    C4 6188   2.342   4.606  14.449 -0.1684  0.2370 -0.7924
  411MPD2    C5 6189   2.425   4.710  14.462  0.2247 -0.9933  0.1306
  411MPD2     H 6190   2.086   4.725  14.636  1.0455 -0.5711  0.3606
  411MPD2    H1 6191   2.367   4.525  14.381  1.3290 -0.7079  0.8820
  411MPD2    H2 6192   2.474   0.160  14.549  0.5570 -0.6167 -3.2579
  411MPD2    H3 6193   2.512   4.724  14.398 -0.5463  1.8543 -0.2738
  411MPD2     N 6194   2.125   4.513  14.466 -0.3635 -0.2264 -0.7103
  411MPD2    H5 6195   2.151   4.438  14.403 -0.7715  0.3034 -1.5100
  411MPD2    N1 6196   2.251   0.175  14.713 -0.2229 -0.2496 -0.1813
  411MPD2    H7 6197   2.314   0.254  14.701  1.4305 -1.6037 -0.4472
  412TMC3    C1 6198   1.918   4.419  14.419  0.0419 -0.2902  0.7797
  412TMC3    C2 6199   1.822   4.337  14.474  0.3383  0.6967 -0.2093
  412TMC3    C3 6200   1.760   4.241  14.391  0.8644 -0.4685 -0.4125
  412TMC3    C4 6201   1.946   4.422  14.284 -0.9180  0.6773 -0.1146
  412TMC3    C5 6202   1.877   4.329  14.205  0.5718  0.7675  0.3933
  412TMC3    C6 6203   1.795   4.232  14.263 -0.4016 -0.0733  1.0123
  412TMC3     C 6204   1.994   4.499  14.506 -0.3977 -0.2627 -0.4921
  412TMC3     O 6205   1.931   4.552  14.596 -1.2366  0.0585  0.0071
  412TMC3     H 6206   1.796   4.331  14.579 -0.3415 -1.9084 -0.5224
  412TMC3    H1 6207   2.018   4.485  14.233 -2.4441  3.0123  0.6782
  412TMC3    H2 6208   1.746   4.156  14.204 -2.2633  1.2597  0.8256
  412TMC3    C7 6209   1.805   4.392  14.100 -0.0888 -0.8072 -0.5542
  412TMC3    C8 6210   1.616   4.225  14.409  0.0512 -0.5804 -0.1098
  412TMC3    O1 6211   1.862   4.480  14.039 -0.2111 -0.1946 -0.1048
  412TMC3    O2 6212   1.557   4.200  14.303 -0.1590 -0.3114  0.2849
  413MPD2     C 6213   4.332   2.967  15.170  0.4894 -0.7898 -0.6349
  413MPD2    C1 6214   4.215   2.903  15.127 -0.1916  0.2360 -0.6509
  413MPD2    C2 6215   4.204   2.771  15.162  0.8455 -0.5310  0.5207
  413MPD2    C3 6216   4.301   2.709  15.231  0.0972  0.1055  0.2826
  413MPD2    C4 6217   4.418   2.768  15.255 -0.0195 -0.3158  0.4220
  413MPD2    C5 6218   4.434   2.902  15.219  0.3899 -0.2915 -0.2315
  413MPD2     H 6219   4.122   2.707  15.129  0.6747  0.1784 -0.4195
  413MPD2    H1 6220   4.497   2.718  15.309 -1.3840 -3.3968 -0.4636
  413MPD2    H2 6221   4.342   3.070  15.135 -1.2459 -0.1026  0.8697
  413MPD2    H3 6222   4.526   2.953  15.245  0.2520  0.2014 -0.7294
  413MPD2     N 6223   4.272   2.579  15.266  0.5527 -0.5255 -0.4898
  413MPD2    H5 6224   4.189   2.541  15.221  1.9046 -1.1139 -2.4709
  413MPD2    N1 6225   4.116   2.974  15.052 -0.4127  0.7913 -0.1435
  413MPD2    H7 6226   4.134   3.070  15.026 -1.7432  1.4714  1.4781
  414TMC3    C1 6227   4.271   2.371  15.383 -0.4622 -0.4450  0.5392
  414TMC3    C2 6228   4.293   2.310  15.507  0.7538 -0.4498 -0.3569
  414TMC3    C3 6229   4.254   2.181  15.515  0.6187  0.7166 -0.3504
  414TMC3    C4 6230   4.209   2.299  15.281 -0.1631  1.0202  0.7859
  414TMC3    C5 6231   4.157   2.176  15.304  0.1559  0.1246  0.9963
  414TMC3    C6 6232   4.181   2.112  15.421  0.2514  0.2556 -0.2067
  414TMC3     C 6233   4.342   2.498  15.355  0.2128  0.1400 -0.0580
  414TMC3     O 6234   4.428   2.532  15.438  0.5077 -0.6674 -0.5355
  414TMC3     H 6235   4.347   2.368  15.580 -1.7064  1.5616 -0.1364
  414TMC3    H1 6236   4.199   2.335  15.179  0.5458 -0.9061  0.0366
  414TMC3    H2 6237   4.155   2.006  15.424  1.5414 -0.0797 -1.1315
  414TMC3    C7 6238   4.185   2.096  15.184 -0.4185  0.0295  0.8824
  414TMC3    C8 6239   4.360   2.092  15.566 -0.4134  0.1251 -0.5308
  414TMC3    O1 6240   4.094   2.058  15.113  0.2492  0.2260 -0.0855
  414TMC3    O2 6241   4.338   1.974  15.552 -0.2377 -0.2142  0.2659
  415TMC3    C1 6242   0.189   0.855  10.770  0.4073  0.6254  0.2377
  415TMC3    C2 6243   0.174   0.992  10.754 -0.3644  0.4990  0.2727
  415TMC3    C3 6244   0.074   1.027  10.663  0.3257 -0.1929 -0.1460
  415TMC3    C4 6245   0.128   0.766  10.685 -0.1692  0.1564 -0.3971
  415TMC3    C5 6246   0.035   0.814  10.601  0.2658  0.2381 -0.4261
  415TMC3    C6 6247   0.015   0.945  10.574  0.2881 -0.0085 -0.1741
  415TMC3     C 6248   0.265   0.800  10.879  0.3162 -0.4111  0.1597
  415TMC3     O 6249   0.270   0.678  10.889 -0.0594 -0.5416 -0.0241
  415TMC3     H 6250   0.201   1.057  10.837 -0.0926  0.7732 -0.0279
  415TMC3    H1 6251   0.156   0.662  10.686  0.5051  0.3458  0.0810
  415TMC3    H2 6252   4.661   0.985  10.523  2.6753  1.6656 -2.9536
  415TMC3    C7 6253   4.687   0.715  10.527 -0.2838 -0.3193  1.0840
  415TMC3    C8 6254   0.048   1.164  10.630 -0.4114  0.0956 -0.7077
  415TMC3    O1 6255   4.619   0.753  10.431  0.3695  0.2421 -0.0847
  415TMC3    O2 6256   4.666   1.198  10.609 -0.5040  0.0150  0.0261
  416MPD2     C 6257   1.840   4.412  11.567  0.6452 -0.0920 -0.7035
  416MPD2    C1 6258   1.830   4.305  11.652  0.1428  0.8117  0.0276
  416MPD2    C2 6259   1.846   4.178  11.600  0.3502 -0.5092  0.4473
  416MPD2    C3 6260   1.856   4.165  11.466 -0.1525  0.1364 -0.8113
  416MPD2    C4 6261   1.881   4.275  11.385 -0.4778  0.2933  0.9102
  416MPD2    C5 6262   1.890   4.398  11.440 -0.1543  0.7756  0.3685
  416MPD2     H 6263   1.843   4.091  11.664 -4.1373 -0.9066 -0.2935
  416MPD2    H1 6264   1.918   4.273  11.283  1.7813 -0.9034  1.7631
  416MPD2    H2 6265   1.817   4.508  11.610  2.0614  0.2693 -0.7467
  416MPD2    H3 6266   1.908   4.483  11.376 -1.0477 -0.7897 -1.9710
  416MPD2     N 6267   1.852   4.034  11.407 -0.2421 -0.5987  0.0689
  416MPD2    H5 6268   1.837   3.955  11.468  0.5895  0.9258  2.2770
  416MPD2    N1 6269   1.775   4.329  11.782  0.0582 -0.8321  0.2982
  416MPD2    H7 6270   1.764   4.425  11.813 -1.1463 -1.1698  0.9121
  417TMC3    C1 6271   1.598   4.306  11.935 -0.2793  0.2815 -0.2366
  417TMC3    C2 6272   1.538   4.250  12.050 -0.1466  0.2717 -0.4568
  417TMC3    C3 6273   1.414   4.286  12.087  0.3914  0.4368  0.0078
  417TMC3    C4 6274   1.530   4.403  11.862  0.0564  0.2078  0.1389
  417TMC3    C5 6275   1.414   4.448  11.923 -0.1634  0.3941 -0.3578
  417TMC3    C6 6276   1.346   4.386  12.023 -0.9104  0.0479  0.5082
  417TMC3     C 6277   1.713   4.239  11.869  0.0748 -0.1791 -0.4998
  417TMC3     O 6278   1.730   4.120  11.869  0.1703  0.4883 -0.0845
  417TMC3     H 6279   1.594   4.171  12.099 -3.0295 -1.2145  0.4769
  417TMC3    H1 6280   1.566   4.452  11.772  2.3593 -3.1110 -0.7456
  417TMC3    H2 6281   1.244   4.408  12.051 -1.4973 -2.5306  0.3780
  417TMC3    C7 6282   1.358   4.566  11.864 -0.2658  0.0209  0.4580
  417TMC3    C8 6283   1.367   4.264  12.222 -0.1259 -0.3548 -0.3128
  417TMC3    O1 6284   1.402   4.583  11.754 -0.1527 -0.0888 -0.3759
  417TMC3    O2 6285   1.253   4.293  12.256  0.8136  0.1659 -0.2217
  418TMC3    C1 6286   0.843   1.446   0.606  0.5321 -0.0657 -0.1397
  418TMC3    C2 6287   0.718   1.472   0.544  0.0930 -0.7257 -0.6343
  418TMC3    C3 6288   0.603   1.437   0.608 -0.5332  0.0824 -0.3440
  418TMC3    C4 6289   0.848   1.396   0.735 -0.2353 -0.2428  0.2995
  418TMC3    C5 6290   0.728   1.367   0.792 -0.5535 -0.3499  0.3200
  418TMC3    C6 6291   0.608   1.375   0.731  0.1869 -0.9052 -0.2546
  418TMC3     C 6292   0.947   1.413   0.515  0.5586 -0.3780 -0.0008
  418TMC3     O 6293   0.929   1.426   0.394 -0.6655  0.8479 -0.1745
  418TMC3     H 6294   0.712   1.504   0.441  2.4789  1.7815  0.0052
  418TMC3    H1 6295   0.944   1.375   0.780 -0.6053 -0.6586  0.9033
  418TMC3    H2 6296   0.519   1.340   0.782 -0.4355  2.3915  0.9230
  418TMC3    C7 6297   0.729   1.280   0.907  0.6379 -0.1901 -0.6548
  418TMC3    C8 6298   0.515   1.362   0.521  0.3238  0.6443  0.8271
  418TMC3    O1 6299   0.628   1.213   0.916  0.5170  0.2295 -0.1845
  418TMC3    O2 6300   0.472   1.419   0.422 -0.1246  0.5217  0.3444
  419MPD2     C 6301   3.161   3.905  12.315  0.4331 -0.4807 -0.4020
  419MPD2    C1 6302   3.166   4.045  12.313  0.1689  0.8949  0.0674
  419MPD2    C2 6303   3.117   4.110  12.427  1.0294 -0.1211 -1.0968
  419MPD2    C3 6304   3.052   4.043  12.530  0.1729  0.0138 -0.1548
  419MPD2    C4 6305   3.061   3.903  12.537 -0.3336  0.3138  0.4708
  419MPD2    C5 6306   3.107   3.844  12.425 -0.1987 -0.3171  0.1091
  419MPD2     H 6307   3.121   4.218  12.420  0.6175  0.0700  1.5495
  419MPD2    H1 6308   3.029   3.835  12.616  0.9629  1.3637  1.9014
  419MPD2    H2 6309   3.208   3.848  12.235  0.8289  1.2069 -1.3840
  419MPD2    H3 6310   3.105   3.736  12.430  0.0957 -0.2553  1.5909
  419MPD2     N 6311   3.005   4.117  12.638  0.7600 -0.1579  0.4529
  419MPD2    H5 6312   3.009   4.217  12.621  0.7676  0.2846  3.0564
  419MPD2    N1 6313   3.224   4.125  12.210 -0.3581  0.4794  0.4306
  419MPD2    H7 6314   3.218   4.226  12.217  2.2726  0.5756  1.3195
  420TMC3    C1 6315   2.945   4.200  12.846  0.2678 -0.3144 -0.0636
  420TMC3    C2 6316   2.902   4.321  12.789 -0.4790 -0.0461 -0.4773
  420TMC3    C3 6317   2.895   4.427  12.871  0.2325 -1.0585  0.3209
  420TMC3    C4 6318   2.976   4.196  12.977 -0.4510 -0.0576  0.1896
  420TMC3    C5 6319   2.983   4.313  13.055  0.1505 -0.1669  0.2303
  420TMC3    C6 6320   2.942   4.431  13.003  0.3331 -0.4460  0.0194
  420TMC3     C 6321   2.983   4.084  12.764 -0.3256 -0.6136  0.8992
  420TMC3     O 6322   2.982   3.969  12.811 -0.1652  0.0495 -0.6476
  420TMC3     H 6323   2.855   4.332  12.691 -1.0380  1.7284 -0.0169
  420TMC3    H1 6324   3.006   4.102  13.024 -2.0268 -0.1454  1.0207
  420TMC3    H2 6325   2.953   4.522  13.060 -1.1983 -0.0606 -0.2908
  420TMC3    C7 6326   3.040   4.293  13.190 -0.1786 -0.2044 -0.0333
  420TMC3    C8 6327   2.843   4.549  12.808 -0.3125 -0.3148 -0.0971
  420TMC3    O1 6328   3.023   4.181  13.238 -0.3076 -0.0111 -0.2717
  420TMC3    O2 6329   2.834   4.547  12.684 -0.3426  0.5997 -0.0728
  421TMC3    C1 6330   0.147   1.175  13.544  0.1598 -0.0511 -0.2107
  421TMC3    C2 6331   0.161   1.310  13.579  0.0278  0.4057 -0.2694
  421TMC3    C3 6332   0.267   1.334  13.663 -0.1584  0.2733 -0.0242
  421TMC3    C4 6333   0.239   1.075  13.567  0.3029 -0.4893 -0.7170
  421TMC3    C5 6334   0.354   1.111  13.635 -1.0618 -0.7678  0.4648
  421TMC3    C6 6335   0.366   1.241  13.679  0.4289  0.2754 -0.6521
  421TMC3     C 6336   0.016   1.145  13.487  0.5162  0.8277 -0.4200
  421TMC3     O 6337   4.683   1.237  13.437 -0.0711 -0.0333  0.0581
  421TMC3     H 6338   0.078   1.379  13.574 -0.2936  0.0939  0.7996
  421TMC3    H1 6339   0.219   0.973  13.537  1.9871 -0.3301 -2.3544
  421TMC3    H2 6340   0.443   1.275  13.748  0.5768  0.6953 -1.0282
  421TMC3    C7 6341   0.441   1.014  13.696  0.6894  0.1824 -1.0058
  421TMC3    C8 6342   0.268   1.439  13.762  0.2967  0.2944 -0.1776
  421TMC3    O1 6343   0.533   1.064  13.762 -0.5789 -0.4900 -0.1290
  421TMC3    O2 6344   0.331   1.416  13.864 -0.4023  0.7629 -0.2386
  422TMC3    C1 6345   2.206   2.469  12.626 -0.4939  0.2448 -0.0513
  422TMC3    C2 6346   2.151   2.569  12.697  0.6841  0.1102  0.1680
  422TMC3    C3 6347   2.027   2.548  12.747  0.2314  0.3773 -0.3477
  422TMC3    C4 6348   2.146   2.340  12.634 -0.2942  0.3848 -0.2617
  422TMC3    C5 6349   2.022   2.323  12.687 -0.5685 -1.1472 -0.0493
  422TMC3    C6 6350   1.960   2.428  12.749  0.2798 -0.2745  0.0431
  422TMC3     C 6351   2.350   2.475  12.595  0.0502  0.5043 -0.2892
  422TMC3     O 6352   2.409   2.576  12.570  0.5406  0.0486 -0.3757
  422TMC3     H 6353   2.213   2.655  12.720  0.7863  0.3925 -1.1482
  422TMC3    H1 6354   2.188   2.252  12.587 -0.3376  0.1957  0.0520
  422TMC3    H2 6355   1.858   2.415  12.782  0.2442 -0.1465 -0.0170
  422TMC3    C7 6356   1.959   2.201  12.653 -0.3868  0.0799 -0.5497
  422TMC3    C8 6357   1.960   2.661  12.816  0.1944  0.3026  0.2788
  422TMC3    O1 6358   2.012   2.123  12.583  0.0316 -0.8939 -0.1524
  422TMC3    O2 6359   1.906   2.640  12.922  0.1523  0.5581  0.0194
  423MPD2     C 6360   4.162   3.684   0.516  0.1868 -0.7237 -0.0226
  423MPD2    C1 6361   4.061   3.596   0.555  0.1060  0.0594 -0.0345
  423MPD2    C2 6362   4.007   3.502   0.466  0.3366  0.8629 -0.0653
  423MPD2    C3 6363   4.062   3.491   0.340  0.4020 -0.7676  0.1904
  423MPD2    C4 6364   4.171   3.568   0.308  0.6575  0.1450  0.0113
  423MPD2    C5 6365   4.209   3.670   0.385  0.1010  0.4818 -0.7416
  423MPD2     H 6366   3.921   3.443   0.497  1.7340 -0.3761  1.4100
  423MPD2    H1 6367   4.229   3.564   0.217  0.1181  0.2714 -0.3355
  423MPD2    H2 6368   4.203   3.772   0.564  1.9397 -0.7594 -1.4811
  423MPD2    H3 6369   4.284   3.738   0.347 -1.4674  2.0214 -1.1094
  423MPD2     N 6370   4.030   3.393   0.249 -0.3375 -0.0084 -0.1159
  423MPD2    H5 6371   4.082   3.395   0.161  1.2742  1.7893  0.8746
  423MPD2    N1 6372   4.007   3.597   0.688 -0.3321 -0.0519  0.8210
  423MPD2    H7 6373   3.927   3.536   0.706  0.5395 -1.0411  1.3345
  424TMC3    C1 6374   4.003   3.636   0.923  0.0363  0.1123 -0.3166
  424TMC3    C2 6375   4.096   3.650   1.019  0.2572 -0.4623  0.1191
  424TMC3    C3 6376   4.065   3.614   1.148 -0.6690 -0.1080  0.9381
  424TMC3    C4 6377   3.880   3.580   0.942 -0.2841 -0.0940 -0.6005
  424TMC3    C5 6378   3.848   3.547   1.069 -0.5563 -0.1155 -0.2152
  424TMC3    C6 6379   3.939   3.567   1.173 -0.0046  0.1342  0.1986
  424TMC3     C 6380   4.057   3.671   0.790 -0.0019 -0.9861 -0.2062
  424TMC3     O 6381   4.149   3.754   0.796 -0.3513  0.3558  0.0103
  424TMC3     H 6382   4.201   3.673   1.005 -0.4520  3.4200  1.1296
  424TMC3    H1 6383   3.808   3.571   0.862  0.1994 -2.1114 -0.8209
  424TMC3    H2 6384   3.913   3.527   1.271  1.1183 -1.5143 -0.1852
  424TMC3    C7 6385   3.729   3.471   1.097 -0.0804  0.9057  1.4342
  424TMC3    C8 6386   4.169   3.553   1.220 -0.0962 -0.3412 -0.2523
  424TMC3    O1 6387   3.735   3.404   1.199 -0.2997  0.3095  1.0691
  424TMC3    O2 6388   4.232   3.464   1.164 -0.2115  0.9259 -0.1425
  425MPD2     C 6389   3.201   2.312  17.360 -1.2516 -0.3638  0.5665
  425MPD2    C1 6390   3.116   2.201  17.368  0.7025  0.7459  0.2084
  425MPD2    C2 6391   2.979   2.225  17.345 -0.0722  0.0439 -0.1507
  425MPD2    C3 6392   2.942   2.351  17.319 -0.1761 -0.2694 -0.4045
  425MPD2    C4 6393   3.030   2.460  17.305  0.2741 -0.0634  0.2529
  425MPD2    C5 6394   3.162   2.433  17.320  0.4059 -0.2587 -0.0625
  425MPD2     H 6395   2.909   2.142  17.349 -0.9179  0.7865  0.2843
  425MPD2    H1 6396   3.003   2.564  17.286  0.8108 -0.2195 -1.3527
  425MPD2    H2 6397   3.308   2.307  17.377 -0.9349  0.4437 -1.1465
  425MPD2    H3 6398   3.241   2.507  17.322  0.3801 -0.2684  1.2657
  425MPD2     N 6399   2.805   2.379  17.298 -0.2926 -0.1727  0.6673
  425MPD2    H5 6400   2.746   2.297  17.290 -1.9780  1.3495 -2.6177
  425MPD2    N1 6401   3.172   2.069  17.386  0.2342 -0.5255  0.3531
  425MPD2    H7 6402   3.272   2.055  17.385  0.0403 -1.7219 -1.2000
  426TMC3    C1 6403   3.186   1.843  17.439 -0.2406 -0.2256 -0.4332
  426TMC3    C2 6404   3.252   1.799  17.326  0.3031 -0.3611 -0.1332
  426TMC3    C3 6405   3.293   1.671  17.312 -0.0575 -0.3792 -0.5021
  426TMC3    C4 6406   3.163   1.750  17.533  0.3218  0.0598 -0.5731
  426TMC3    C5 6407   3.210   1.623  17.518 -0.1836 -0.6172  0.0985
  426TMC3    C6 6408   3.280   1.581  17.412 -0.0262 -0.1087 -0.4419
  426TMC3     C 6409   3.097   1.959  17.424 -0.2150 -0.2676 -0.0271
  426TMC3     O 6410   2.975   1.933  17.428 -0.4203  0.2591  0.3731
  426TMC3     H 6411   3.282   1.874  17.254  0.1734  0.4383  0.6387
  426TMC3    H1 6412   3.094   1.781  17.611 -2.6887  2.3865 -4.1408
  426TMC3    H2 6413   3.322   1.482  17.403 -0.8956 -0.4925 -0.2643
  426TMC3    C7 6414   3.172   1.534  17.621  0.5571  0.0781 -0.5540
  426TMC3    C8 6415   3.288   1.605  17.180 -0.0445 -1.0265 -0.3143
  426TMC3    O1 6416   3.174   1.577   0.006  0.2817 -0.0157 -0.0422
  426TMC3    O2 6417   3.309   1.486  17.176 -0.2849  0.0623  0.3378
  427MPD2     C 6418   1.262   4.136  15.173  0.3378  0.3913  0.2028
  427MPD2    C1 6419   1.306   4.209  15.285  0.3868  0.0220  0.3049
  427MPD2    C2 6420   1.233   4.326  15.325 -0.2709  0.2759 -0.3458
  427MPD2    C3 6421   1.120   4.374  15.254 -0.0757 -0.3107 -0.2211
  427MPD2    C4 6422   1.076   4.296  15.149 -0.5284  0.3060 -0.5575
  427MPD2    C5 6423   1.145   4.181  15.112  0.7326  0.5791 -0.2716
  427MPD2     H 6424   1.269   4.391  15.404 -1.5775 -1.4808  1.6873
  427MPD2    H1 6425   0.979   4.319  15.106 -1.1031 -1.7313 -0.3987
  427MPD2    H2 6426   1.307   4.042  15.141  0.9854  0.7655  0.0117
  427MPD2    H3 6427   1.098   4.123  15.034  1.5854 -0.4294 -0.0392
  427MPD2     N 6428   1.032   4.480  15.285 -0.5977  0.0266 -0.6857
  427MPD2    H5 6429   0.954   4.496  15.222 -0.2150  0.4999 -1.0375
  427MPD2    N1 6430   1.417   4.165  15.361  0.0274 -0.4501  0.4295
  427MPD2    H7 6431   1.446   4.229  15.434 -2.2882 -0.6699  1.5619
  428TMC3    C1 6432   1.579   4.019  15.437  0.1814 -0.0160  0.3686
  428TMC3    C2 6433   1.582   3.902  15.497  0.2953  0.0835 -0.8694
  428TMC3    C3 6434   1.667   3.896  15.602  0.5786  0.0683  0.3171
  428TMC3    C4 6435   1.657   4.123  15.466  0.4477  0.4804 -0.4570
  428TMC3    C5 6436   1.754   4.113  15.564 -0.6028 -0.4336 -1.0125
  428TMC3    C6 6437   1.751   3.995  15.640  0.0513 -0.6326 -0.3107
  428TMC3     C 6438   1.467   4.038  15.349  0.3922 -0.6120 -0.7262
  428TMC3     O 6439   1.404   3.939  15.308  0.1524  0.1167 -0.0205
  428TMC3     H 6440   1.509   3.827  15.469  0.2551  0.0310 -0.6250
  428TMC3    H1 6441   1.655   4.213  15.407 -0.3325  0.9285  0.2629
  428TMC3    H2 6442   1.828   3.975  15.714  0.2367 -0.1218 -0.3629
  428TMC3    C7 6443   1.872   4.203  15.579 -0.2405 -0.0787  0.7418
  428TMC3    C8 6444   1.689   3.764  15.654  0.2689 -0.5612  0.3298
  428TMC3    O1 6445   1.947   4.186  15.675  0.1428 -0.5747 -0.1410
  428TMC3    O2 6446   1.677   3.669  15.576 -0.2745 -0.3595 -0.0111
  429MPD2     C 6447   3.531   4.647  17.373 -0.3425  0.2887  0.5624
  429MPD2    C1 6448   3.429   4.573  17.309 -0.3136  0.4403  0.0726
  429MPD2    C2 6449   3.398   4.619  17.177 -0.4394  0.1078 -0.0821
  429MPD2    C3 6450   3.464   4.726  17.115 -0.2072  0.1219 -0.1049
  429MPD2    C4 6451   3.563   0.052  17.188 -0.4490  0.9828 -0.3862
  429MPD2    C5 6452   3.597   0.010  17.314 -0.3912  0.0928  0.1323
  429MPD2     H 6453   3.313   4.575  17.126  0.1855 -2.7626  1.3854
  429MPD2    H1 6454   3.615   0.139  17.151  0.9795  0.7298  1.0101
  429MPD2    H2 6455   3.554   4.630  17.478  3.1494 -0.9149 -0.4037
  429MPD2    H3 6456   3.682   0.057  17.362 -0.5160 -1.4852  1.8748
  429MPD2     N 6457   3.429   0.046  16.988  0.0994  0.0279 -0.3485
  429MPD2    H5 6458   3.361   4.726  16.933 -0.5963  0.9957 -0.4173
  429MPD2    N1 6459   3.358   4.462  17.367  0.1857  0.0944 -0.0756
  429MPD2    H7 6460   3.297   4.403  17.312 -2.8963  2.1917  1.0473
  430TMC3    C1 6461   3.412   0.194  16.810  0.0023  0.3924 -0.2528
  430TMC3    C2 6462   3.378   0.323  16.782  0.1080 -0.6887  0.2300
  430TMC3    C3 6463   3.330   0.343  16.653  0.7927 -0.0012  0.2357
  430TMC3    C4 6464   3.415   0.096  16.717 -0.1042 -0.3142  0.6084
  430TMC3    C5 6465   3.372   0.119  16.593  0.3933 -0.1088 -0.2112
  430TMC3    C6 6466   3.326   0.238  16.556  0.9108 -0.2960 -0.3404
  430TMC3     C 6467   3.434   0.179  16.952 -0.3756 -0.1071  0.1985
  430TMC3     O 6468   3.465   0.275  17.020 -0.4667  0.0501 -0.2488
  430TMC3     H 6469   3.378   0.397  16.862  2.3401  0.3002 -0.6793
  430TMC3    H1 6470   3.453   4.731  16.745 -1.3352 -0.8658  0.3198
  430TMC3    H2 6471   3.317   0.259  16.450 -0.9094 -1.3475 -0.3931
  430TMC3    C7 6472   3.352   0.007  16.511  0.0220 -0.0673  0.0023
  430TMC3    C8 6473   3.250   0.460  16.619  0.4352 -0.6927 -0.4476
  430TMC3    O1 6474   3.412   4.634  16.545 -0.6835 -0.3191  0.4373
  430TMC3    O2 6475   3.278   0.559  16.686  0.1175 -0.1086 -0.4582
  431MPD2     C 6476   3.277   0.136  12.431  0.2019 -0.1250 -0.2149
  431MPD2    C1 6477   3.403   0.121  12.370 -0.6321  0.1330 -0.3764
  431MPD2    C2 6478   3.425   0.012  12.288 -0.5037 -0.2715  0.1526
  431MPD2    C3 6479   3.326   4.655  12.272  0.6966 -0.3031 -0.1510
  431MPD2    C4 6480   3.202   4.658  12.342 -0.3164  1.0526  0.3417
  431MPD2    C5 6481   3.174   0.040  12.409 -0.3703 -0.6932  0.1150
  431MPD2     H 6482   3.517   4.732  12.231 -0.9848 -1.0419 -0.4629
  431MPD2    H1 6483   3.134   4.574  12.341  0.9143  0.0348  0.9440
  431MPD2    H2 6484   3.264   0.221  12.496  0.1947 -0.6073  0.4213
  431MPD2    H3 6485   3.074   0.058  12.447  0.0674  0.0409  0.9320
  431MPD2     N 6486   3.344   4.539  12.190  0.5661  0.2123  0.3773
  431MPD2    H5 6487   3.270   4.470  12.187  0.5615  0.1139  2.5340
  431MPD2    N1 6488   3.510   0.207  12.415 -0.2136  0.3614  0.7380
  431MPD2    H7 6489   3.593   0.211  12.358  0.3024 -2.1837  1.2855
  432TMC3    C1 6490   3.420   4.405  12.020  0.5974  0.6805  0.2982
  432TMC3    C2 6491   3.455   4.392  11.890 -0.9248 -0.6670 -0.1588
  432TMC3    C3 6492   3.434   4.268  11.829  0.2220  0.3642  0.6029
  432TMC3    C4 6493   3.363   4.305  12.086  0.0348 -0.5531 -0.5122
  432TMC3    C5 6494   3.326   4.194  12.019 -0.1174  0.4452 -0.5295
  432TMC3    C6 6495   3.352   4.175  11.889  0.5137 -0.5020  0.2957
  432TMC3     C 6496   3.433   4.536  12.079 -0.3889 -0.2930 -0.0973
  432TMC3     O 6497   3.515   4.614  12.029  0.1821  0.3378 -0.7217
  432TMC3     H 6498   3.507   4.472  11.838 -2.8909  0.4212 -0.4302
  432TMC3    H1 6499   3.372   4.311  12.194  1.6242  1.4711 -0.7487
  432TMC3    H2 6500   3.357   4.078  11.842 -1.3702 -1.3959  1.9445
  432TMC3    C7 6501   3.275   4.078  12.093  0.3808  0.2200  0.3493
  432TMC3    C8 6502   3.518   4.227  11.713 -0.5660  0.9670  0.1487
  432TMC3    O1 6503   3.261   3.973  12.027 -0.1017 -0.3310  0.2280
  432TMC3    O2 6504   3.481   4.134  11.644 -0.5621  0.1729  0.1763
  433MPD2     C 6505   2.864   4.043  11.154 -0.7282 -0.6388 -0.0369
  433MPD2    C1 6506   2.780   3.935  11.142 -0.7837  0.2154  0.0458
  433MPD2    C2 6507   2.710   3.885  11.252  0.2953 -0.5846  0.4223
  433MPD2    C3 6508   2.710   3.954  11.372 -0.2461  0.7985  0.9592
  433MPD2    C4 6509   2.774   4.080  11.379  0.2438 -0.0241 -0.0556
  433MPD2    C5 6510   2.855   4.112  11.273 -0.0875 -0.9651  0.2247
  433MPD2     H 6511   2.666   3.786  11.245  2.8140 -1.5953 -1.0193
  433MPD2    H1 6512   2.779   4.139  11.470 -0.1454 -1.1440  0.6916
  433MPD2    H2 6513   2.933   4.087  11.083 -0.5735 -1.5554 -0.4505
  433MPD2    H3 6514   2.929   4.191  11.283 -2.4776  1.1030  1.7429
  433MPD2     N 6515   2.644   3.899  11.483 -0.3145 -0.1216  0.3094
  433MPD2    H5 6516   2.610   3.804  11.473  1.0262 -0.4131 -1.3671
  433MPD2    N1 6517   2.791   3.857  11.023  0.3216  0.1371 -0.2478
  433MPD2    H7 6518   2.883   3.864  10.982 -1.2655  1.1476 -3.6028
  434TMC3    C1 6519   2.748   3.675  10.897  0.0482  0.5625  1.0879
  434TMC3    C2 6520   2.857   3.598  10.935 -0.5356 -0.3191 -0.3554
  434TMC3    C3 6521   2.883   3.482  10.874 -0.7673  0.0716 -0.3880
  434TMC3    C4 6522   2.662   3.631  10.803 -0.0929 -0.5796 -0.4332
  434TMC3    C5 6523   2.681   3.508  10.768 -0.2994  0.4257 -0.4719
  434TMC3    C6 6524   2.798   3.438  10.779 -0.3862 -0.6594 -0.1485
  434TMC3     C 6525   2.698   3.766  10.990  0.8964  1.1749 -0.5734
  434TMC3     O 6526   2.588   3.746  11.037 -0.1148 -0.2992  0.0007
  434TMC3     H 6527   2.908   3.620  11.029  0.8558 -2.4423 -0.6059
  434TMC3    H1 6528   2.565   3.678  10.799 -0.0157 -0.3022  1.2320
  434TMC3    H2 6529   2.820   3.341  10.737  3.0494  0.0360  0.0673
  434TMC3    C7 6530   2.576   3.435  10.704 -0.8476  0.4616  1.0236
  434TMC3    C8 6531   2.913   3.379  10.965 -0.1940 -0.4724 -0.4511
  434TMC3    O1 6532   2.494   3.497  10.636  0.3502 -0.2599 -0.1822
  434TMC3    O2 6533   2.855   3.380  11.074 -0.4666  0.3544 -0.2569
  435MPD2     C 6534   4.564   3.276  15.261 -0.2685 -0.7056 -0.2913
  435MPD2    C1 6535   4.476   3.238  15.354  0.3965  0.4224  0.6978
  435MPD2    C2 6536   4.520   3.167  15.464  0.0501  0.1417  0.1377
  435MPD2    C3 6537   4.658   3.134  15.475  0.0436 -0.4268 -0.3502
  435MPD2    C4 6538   0.011   3.161  15.371 -0.1080  0.0641 -0.2497
  435MPD2    C5 6539   4.696   3.234  15.267  0.6896 -0.0145  0.5055
  435MPD2     H 6540   4.450   3.139  15.542  1.4937 -1.0612  1.0048
  435MPD2    H1 6541   0.118   3.146  15.365 -0.1404 -0.8518  1.6031
  435MPD2    H2 6542   4.545   3.339  15.176  0.6582 -0.4497 -0.3133
  435MPD2    H3 6543   0.034   3.277  15.197 -0.6917  1.8943  0.2892
  435MPD2     N 6544   4.698   3.057  15.587  0.0212  0.2412 -0.0045
  435MPD2    H5 6545   4.632   3.030  15.659  0.1327 -0.3371 -0.1186
  435MPD2    N1 6546   4.350   3.293  15.358  0.5036 -0.0829  0.0478
  435MPD2    H7 6547   4.290   3.264  15.434  0.0595 -0.9280 -0.6320
  436TMC3    C1 6548   3.964   3.397  15.452 -0.7045 -0.1402 -0.1864
  436TMC3    C2 6549   4.083   3.347  15.402  0.5012  0.3225 -0.1516
  436TMC3    C3 6550   4.159   3.426  15.320 -0.2900 -0.0010 -0.4230
  436TMC3    C4 6551   3.922   3.527  15.435  0.6263 -1.0973  0.6993
  436TMC3    C5 6552   4.010   3.615  15.363  0.0025  0.3271 -0.4423
  436TMC3    C6 6553   4.130   3.563  15.304  0.2365 -0.1589 -0.2596
  436TMC3     C 6554   3.863   3.295  15.478  0.1173 -0.9249  0.0219
  436TMC3     O 6555   3.873   3.189  15.421 -0.1839 -0.1870  0.4541
  436TMC3     H 6556   4.097   3.241  15.419 -1.9070 -0.2991 -2.0021
  436TMC3    H1 6557   3.823   3.550  15.472 -0.7877 -1.3581 -2.8782
  436TMC3    H2 6558   4.203   3.623  15.252  1.0281  0.0478  1.0936
  436TMC3    C7 6559   3.954   3.746  15.337 -1.3270 -0.2237 -0.5072
  436TMC3    C8 6560   4.290   3.380  15.273 -0.5673 -0.0775 -0.6657
  436TMC3    O1 6561   3.842   3.770  15.386 -0.1686 -0.1464 -0.5419
  436TMC3    O2 6562   4.337   3.437  15.175  0.7712  0.2138  0.6213
  437TMC3    C1 6563   2.879   0.391  13.010  0.3035  0.3367  0.6419
  437TMC3    C2 6564   2.775   0.473  13.036 -0.3456 -0.1558 -0.5258
  437TMC3    C3 6565   2.759   0.589  12.968  0.1652 -0.0243  0.2441
  437TMC3    C4 6566   2.981   0.426  12.932 -0.0052  0.2724  0.5189
  437TMC3    C5 6567   2.966   0.550  12.868  0.7033  0.7027  0.1806
  437TMC3    C6 6568   2.851   0.629  12.881 -0.0806 -0.2869 -0.7569
  437TMC3     C 6569   2.893   0.264  13.084  0.0914  0.4027  0.1648
  437TMC3     O 6570   2.979   0.188  13.044  0.0078 -0.3113 -0.7993
  437TMC3     H 6571   2.692   0.440  13.098  0.5517  0.0247  0.7646
  437TMC3    H1 6572   3.064   0.359  12.911  0.2130 -0.4823  3.8511
  437TMC3    H2 6573   2.851   0.731  12.846 -0.2982  0.3954  1.1810
  437TMC3    C7 6574   3.058   0.587  12.764 -0.3215  0.0381 -0.5083
  437TMC3    C8 6575   2.664   0.680  13.032  0.4293 -0.7731  0.6047
  437TMC3    O1 6576   3.014   0.664  12.680 -0.3048  0.3952  0.2499
  437TMC3    O2 6577   2.605   0.648  13.137  0.3291  0.9345  0.9060
  438MPD2     C 6578   0.374   0.918  16.779  0.3185  0.0951  0.4517
  438MPD2    C1 6579   0.467   0.839  16.838 -0.5723  0.2956  0.7449
  438MPD2    C2 6580   0.477   0.854  16.976 -0.0641 -0.6145 -1.0480
  438MPD2    C3 6581   0.395   0.943  17.047  0.3527  0.3836  0.1944
  438MPD2    C4 6582   0.315   1.033  16.974  0.4828 -0.1262 -0.4722
  438MPD2    C5 6583   0.303   1.018  16.841  0.0780  0.6764  0.7447
  438MPD2     H 6584   0.548   0.793  17.030 -0.8298 -1.3799 -0.9190
  438MPD2    H1 6585   0.252   1.109  17.019 -2.5750 -3.5672  1.0231
  438MPD2    H2 6586   0.355   0.912  16.672 -0.5197  0.6920  0.5694
  438MPD2    H3 6587   0.233   1.073  16.778  0.6804  1.7387  1.0091
  438MPD2     N 6588   0.398   0.970  17.185 -0.5498 -0.0080 -0.3356
  438MPD2    H5 6589   0.344   1.044  17.230  1.0033  1.8935 -1.6086
  438MPD2    N1 6590   0.551   0.744  16.767 -0.4191  0.4261  0.2746
  438MPD2    H7 6591   0.610   0.696  16.833  0.1137 -0.9092 -1.1729
  439TMC3    C1 6592   0.663   0.616  16.596 -0.2436 -0.1834  0.0125
  439TMC3    C2 6593   0.687   0.600  16.457 -0.2888 -0.1985 -0.3434
  439TMC3    C3 6594   0.801   0.531  16.422  0.5068 -0.0474  0.2185
  439TMC3    C4 6595   0.738   0.561  16.696 -0.0447 -0.4687 -0.4588
  439TMC3    C5 6596   0.857   0.508  16.649  1.0908 -0.1135  0.3753
  439TMC3    C6 6597   0.891   0.487  16.520 -0.0361  0.4937  1.2589
  439TMC3     C 6598   0.549   0.705  16.635  0.4391  0.3414 -0.1957
  439TMC3     O 6599   0.466   0.745  16.553  0.0329  0.4952  0.3183
  439TMC3     H 6600   0.630   0.655  16.383  0.6857  0.8027 -0.3532
  439TMC3    H1 6601   0.713   0.553  16.801  1.2439  2.4581  0.0779
  439TMC3    H2 6602   0.989   0.446  16.497  0.3141  0.2413  3.1679
  439TMC3    C7 6603   0.985   0.542  16.722  0.5653  0.4553 -0.4866
  439TMC3    C8 6604   0.875   0.580  16.311 -0.3565  0.1366 -0.1893
  439TMC3    O1 6605   0.998   0.536  16.843  0.2480  0.2492  0.0207
  439TMC3    O2 6606   0.987   0.609  16.342 -0.2357 -0.1138 -0.0824
  440MPD2     C 6607   4.009   1.528  15.204 -0.5139  0.6599  0.1224
  440MPD2    C1 6608   4.064   1.648  15.170  0.5790  0.0357 -1.1272
  440MPD2    C2 6609   4.201   1.660  15.195  0.0844  0.3827  0.5078
  440MPD2    C3 6610   4.274   1.553  15.246 -0.2434  0.3804  0.2635
  440MPD2    C4 6611   4.217   1.435  15.291  0.3235  0.3456  0.4238
  440MPD2    C5 6612   4.083   1.427  15.264  0.1802 -0.4338 -0.4673
  440MPD2     H 6613   4.251   1.751  15.166 -1.2096  0.2568 -2.0903
  440MPD2    H1 6614   4.262   1.352  15.344 -0.5723 -0.9857 -0.9255
  440MPD2    H2 6615   3.904   1.504  15.193 -0.4679  0.3325  0.4181
  440MPD2    H3 6616   4.027   1.339  15.297  0.1268  0.0884  0.8357
  440MPD2     N 6617   4.417   1.553  15.250 -0.6415 -0.2443  0.2237
  440MPD2    H5 6618   4.458   1.478  15.305 -0.3732 -0.3679 -0.1427
  440MPD2    N1 6619   3.989   1.755  15.120 -0.2316 -0.0759 -0.0772
  440MPD2    H7 6620   4.029   1.849  15.116  0.4146 -0.4383 -2.1650
  441TMC3    C1 6621   4.638   1.591  15.181 -0.2309  0.5863 -0.4130
  441TMC3    C2 6622   4.730   1.688  15.206 -0.1757 -0.0028 -0.3169
  441TMC3    C3 6623   0.101   1.659  15.287 -0.2073 -0.5493  0.3620
  441TMC3    C4 6624   4.659   1.464  15.222  0.1951 -0.3153 -0.1264
  441TMC3    C5 6625   0.033   1.433  15.308 -0.6237 -0.2801  0.0987
  441TMC3    C6 6626   0.121   1.533  15.344  0.1941  0.2300 -0.2781
  441TMC3     C 6627   4.496   1.636  15.177  0.6721 -0.5223  0.1958
  441TMC3     O 6628   4.474   1.736  15.112  1.2002 -0.0245 -0.6606
  441TMC3     H 6629   4.719   1.784  15.158 -1.7473 -1.2272 -2.4400
  441TMC3    H1 6630   4.594   1.384  15.186  1.0452 -1.6154  1.2220
  441TMC3    H2 6631   0.187   1.509  15.426 -0.2590 -1.0069 -0.2821
  441TMC3    C7 6632   4.721   1.343  15.415 -0.4382 -0.4546  0.9500
  441TMC3    C8 6633   0.145   1.770  15.365 -0.1471 -0.1425 -0.1692
  441TMC3    O1 6634   4.598   1.339  15.414  0.0346  0.2621 -0.4754
  441TMC3    O2 6635   0.253   1.774  15.420  0.0615 -0.6501 -0.1534
  442MPD2     C 6636   2.745   1.757  16.751 -0.3119  0.1080  0.3150
  442MPD2    C1 6637   2.649   1.792  16.657 -0.5796  0.5363  0.2444
  442MPD2    C2 6638   2.627   1.710  16.544 -0.1331  0.0715 -0.5877
  442MPD2    C3 6639   2.703   1.590  16.542  0.3535 -0.2709 -0.1403
  442MPD2    C4 6640   2.794   1.557  16.634  0.0580  0.1876 -0.3060
  442MPD2    C5 6641   2.819   1.640  16.738 -0.0573 -0.4267  0.1795
  442MPD2     H 6642   2.557   1.749  16.470 -2.3732 -1.5085  0.7021
  442MPD2    H1 6643   2.845   1.461  16.640  0.2868  0.1692 -2.6800
  442MPD2    H2 6644   2.748   1.816  16.842  1.9479 -0.4742  0.6179
  442MPD2    H3 6645   2.882   1.610  16.821  0.3283 -0.8345 -0.2600
  442MPD2     N 6646   2.689   1.501  16.432 -0.2341 -0.0026  0.0607
  442MPD2    H5 6647   2.734   1.412  16.450 -0.3513 -0.3751 -1.5173
  442MPD2    N1 6648   2.571   1.911  16.659  0.4232 -0.0251 -0.2240
  442MPD2    H7 6649   2.488   1.912  16.600  0.2113  3.1268  0.1318
  443TMC3    C1 6650   2.471   2.109  16.729  0.3530 -0.4851  0.1518
  443TMC3    C2 6651   2.434   2.139  16.604  0.3006 -0.5116 -0.3673
  443TMC3    C3 6652   2.319   2.212  16.586  0.0247 -0.4032 -0.5909
  443TMC3    C4 6653   2.395   2.144  16.837  0.1997  0.7208 -0.3140
  443TMC3    C5 6654   2.278   2.208  16.817 -0.1448  0.9037  0.1213
  443TMC3    C6 6655   2.247   2.253  16.695 -0.3197 -0.1231 -0.4713
  443TMC3     C 6656   2.572   2.012  16.752 -0.3127 -0.0451  0.0177
  443TMC3     O 6657   2.643   2.032  16.848 -0.6466  0.1233 -0.0993
  443TMC3     H 6658   2.499   2.114  16.520  0.1214  0.6764 -0.8542
  443TMC3    H1 6659   2.433   2.127  16.938 -2.2807 -0.0678  0.4701
  443TMC3    H2 6660   2.148   2.292  16.675 -0.5381 -0.7182 -0.5674
  443TMC3    C7 6661   2.171   2.128  16.877 -0.4692  0.4524 -0.6496
  443TMC3    C8 6662   2.263   2.222  16.449  0.4345 -0.1445 -0.4025
  443TMC3    O1 6663   2.193   2.008  16.896 -0.3591 -0.1857 -0.1784
  443TMC3    O2 6664   2.290   2.135  16.366 -0.0906 -0.0791  0.1134
  444MPD2     C 6665   2.816   1.497  17.052  0.1289  0.1508  0.1061
  444MPD2    C1 6666   2.733   1.394  17.020 -0.0734  0.3554 -0.2281
  444MPD2    C2 6667   2.790   1.272  16.981 -0.1509 -0.3712  0.3535
  444MPD2    C3 6668   2.926   1.248  16.997  0.2046 -0.3396  0.7252
  444MPD2    C4 6669   3.004   1.363  17.023 -0.0301  0.1819 -0.1618
  444MPD2    C5 6670   2.944   1.484  17.050  0.0158  0.5259  0.3298
  444MPD2     H 6671   2.724   1.189  16.959 -0.9159  0.3792 -0.1432
  444MPD2    H1 6672   3.112   1.352  17.030  0.2822  3.0720 -0.4181
  444MPD2    H2 6673   2.766   1.588  17.084 -1.5260 -0.6615 -0.1731
  444MPD2    H3 6674   3.002   1.565  17.093  0.9458 -0.3834  0.8173
  444MPD2     N 6675   2.983   1.116  16.978 -0.7002  0.9584  0.0523
  444MPD2    H5 6676   2.931   1.050  16.921 -0.3971  0.8508 -0.1007
  444MPD2    N1 6677   2.594   1.390  17.046 -0.4234 -0.5857  0.1783
  444MPD2    H7 6678   2.545   1.303  17.028  2.1520 -1.8748 -0.7696
  445TMC3    C1 6679   3.151   0.949  17.006  0.1994  0.9971  0.6823
  445TMC3    C2 6680   3.070   0.842  16.968  0.6656  0.1157  0.5934
  445TMC3    C3 6681   3.132   0.724  16.956 -0.1844 -0.0652  0.7611
  445TMC3    C4 6682   3.283   0.931  17.034  0.0963  0.1617  0.1472
  445TMC3    C5 6683   3.335   0.805  17.029  0.0670 -0.7138 -0.9977
  445TMC3    C6 6684   3.261   0.699  16.993 -0.0583  0.2309 -0.0975
  445TMC3     C 6685   3.104   1.082  17.038 -0.0720  0.4349  0.6590
  445TMC3     O 6686   3.172   1.145  17.119  0.0748 -0.0002 -0.4542
  445TMC3     H 6687   2.965   0.860  16.952  0.8901  1.3954  0.5920
  445TMC3    H1 6688   3.348   1.016  17.055  0.4749  0.0665 -0.6208
  445TMC3    H2 6689   3.310   0.603  16.976  1.3800  0.9482  0.0366
  445TMC3    C7 6690   3.486   0.803  17.012  0.0184  0.0891 -0.5278
  445TMC3    C8 6691   3.052   0.611  16.913  0.5273 -0.0470 -0.6385
  445TMC3    O1 6692   3.528   0.887  16.934 -0.1971  0.1886 -0.2850
  445TMC3    O2 6693   2.943   0.625  16.859  0.2736  0.4259 -0.0834
  446MPD2     C 6694   2.452   3.305  11.550 -0.0880  0.0995 -0.0968
  446MPD2    C1 6695   2.455   3.285  11.413 -0.4038 -0.0902 -0.6170
  446MPD2    C2 6696   2.566   3.331  11.341  0.2687 -0.2628  0.8627
  446MPD2    C3 6697   2.675   3.393  11.403  0.3404 -0.0795  0.0252
  446MPD2    C4 6698   2.662   3.427  11.535  0.2278 -0.3797 -0.1605
  446MPD2    C5 6699   2.548   3.382  11.605 -0.0664 -0.1052 -0.5307
  446MPD2     H 6700   2.575   3.310  11.235  0.1382  1.5611  0.4913
  446MPD2    H1 6701   2.729   3.487  11.596 -0.1963 -1.8990  1.7906
  446MPD2    H2 6702   2.371   3.280  11.617 -0.8639 -1.4548 -1.6067
  446MPD2    H3 6703   2.530   3.412  11.708  2.2226  1.6774 -0.6421
  446MPD2     N 6704   2.783   3.440  11.319 -0.2834 -0.4917 -0.5420
  446MPD2    H5 6705   2.788   3.413  11.221 -0.2501 -0.2532 -0.6056
  446MPD2    N1 6706   2.368   3.205  11.332 -0.3906 -0.0117  0.2312
  446MPD2    H7 6707   2.378   3.207  11.232  0.3575 -0.9753  0.2873
  447TMC3    C1 6708   3.000   3.547  11.287 -0.0266 -0.4979  0.0141
  447TMC3    C2 6709   3.051   3.667  11.257 -0.5476 -1.3185  0.7514
  447TMC3    C3 6710   3.171   3.675  11.189 -0.3118  1.0928  0.5609
  447TMC3    C4 6711   3.072   3.432  11.291  0.2472 -0.7842  0.5478
  447TMC3    C5 6712   3.195   3.437  11.229 -0.0096  0.2818 -0.2503
  447TMC3    C6 6713   3.246   3.555  11.168 -0.3125  0.0361 -0.2582
  447TMC3     C 6714   2.868   3.546  11.353  0.1234  0.5589  0.3560
  447TMC3     O 6715   2.830   3.640  11.426  0.1998  0.8087  0.3441
  447TMC3     H 6716   2.996   3.759  11.272  0.7804 -0.4272  0.1881
  447TMC3    H1 6717   3.026   3.337  11.318  3.0541 -2.2344  0.2295
  447TMC3    H2 6718   3.343   3.555  11.118 -0.4252  0.8723 -0.4777
  447TMC3    C7 6719   3.300   3.343  11.273 -0.0274 -0.0378 -0.0724
  447TMC3    C8 6720   3.172   3.769  11.073 -0.2371 -0.3659 -0.0806
  447TMC3    O1 6721   3.408   3.348  11.215 -0.2326  0.0072  0.0608
  447TMC3    O2 6722   3.064   3.807  11.027  0.5393 -0.3839 -0.3338
  448TMC3    C1 6723   0.386   2.127  17.473  0.7029  0.1553  0.7334
  448TMC3    C2 6724   0.420   2.094  17.341  0.7022  0.4704  0.3810
  448TMC3    C3 6725   0.538   2.024  17.321  0.4216  0.0656 -0.4838
  448TMC3    C4 6726   0.466   2.102  17.574  0.3012  0.6338 -0.8017
  448TMC3    C5 6727   0.582   2.036  17.555 -0.7522 -0.2432 -0.0466
  448TMC3    C6 6728   0.621   1.992  17.429  0.0424 -1.0966 -0.1350
  448TMC3     C 6729   0.283   2.218  17.505  0.1932 -0.8339  0.2033
  448TMC3     O 6730   0.250   2.239  17.620 -0.3193 -0.6011  0.3871
  448TMC3     H 6731   0.345   2.116  17.266  1.0214 -2.2502 -0.7286
  448TMC3    H1 6732   0.436   2.121  17.677 -0.6842 -0.3861 -0.9087
  448TMC3    H2 6733   0.720   1.949  17.419  1.5055  2.4413 -0.8614
  448TMC3    C7 6734   0.622   1.936  17.652  0.8553 -0.0450  0.7915
  448TMC3    C8 6735   0.551   1.944  17.192  0.0177 -0.4973  0.3312
  448TMC3    O1 6736   0.656   1.829  17.606  0.0095 -0.0750 -0.0359
  448TMC3    O2 6737   0.648   1.874  17.191  0.3459  0.1130  0.0363
  449MPD2     C 6738   2.244   1.200  14.256 -0.4701 -0.1835  0.4301
  449MPD2    C1 6739   2.132   1.246  14.189  0.3057 -0.2897  0.3522
  449MPD2    C2 6740   2.014   1.179  14.203 -0.0607 -0.2680  0.5265
  449MPD2    C3 6741   2.001   1.060  14.275  0.2690  0.6347  0.1350
  449MPD2    C4 6742   2.122   1.010  14.333 -0.4571  0.3809  0.0469
  449MPD2    C5 6743   2.236   1.086  14.325 -0.0330  0.1610 -0.5427
  449MPD2     H 6744   1.925   1.213  14.152  1.8795  1.3604 -1.8094
  449MPD2    H1 6745   2.125   0.907  14.367  1.1639  0.0277 -1.1678
  449MPD2    H2 6746   2.336   1.257  14.252 -0.6996  0.3654  2.6786
  449MPD2    H3 6747   2.324   1.041  14.370 -0.0081  0.3097 -0.4412
  449MPD2     N 6748   1.877   0.993  14.287 -0.4603  0.8173 -0.0239
  449MPD2    H5 6749   1.803   1.025  14.225 -2.0359 -1.1830  0.8217
  449MPD2    N1 6750   2.130   1.359  14.104  0.0848 -0.7903 -0.4365
  449MPD2    H7 6751   2.039   1.395  14.077  0.5829  0.3314 -0.6257
  450TMC3    C1 6752   2.174   1.556  14.010 -0.7314 -0.6012 -0.0804
  450TMC3    C2 6753   2.194   1.551  13.875 -0.7687  0.6514 -0.1273
  450TMC3    C3 6754   2.081   1.579  13.799  0.2816  1.1973 -0.0313
  450TMC3    C4 6755   2.057   1.593  14.066  0.1794 -0.3619  0.3815
  450TMC3    C5 6756   1.949   1.616  13.989 -0.7417  0.2179 -0.6549
  450TMC3    C6 6757   1.958   1.605  13.850  0.2874 -0.2893 -0.4000
  450TMC3     C 6758   2.233   1.444  14.079 -0.6919  0.5919  0.0976
  450TMC3     O 6759   2.354   1.430  14.082  0.5269  0.2828  0.0301
  450TMC3     H 6760   2.295   1.553  13.836  0.5702 -0.6727  3.2136
  450TMC3    H1 6761   2.056   1.600  14.174 -2.4489 -3.6796  0.5560
  450TMC3    H2 6762   1.871   1.621  13.787  0.7288  0.4053 -0.8290
  450TMC3    C7 6763   1.836   1.546  14.046 -0.4667 -0.2419  0.7564
  450TMC3    C8 6764   2.092   1.599  13.650  0.3392 -0.0883 -0.5137
  450TMC3    O1 6765   1.866   1.447  14.111  0.5258 -0.3488 -0.4052
  450TMC3    O2 6766   1.998   1.651  13.594 -0.7792  0.6388 -0.0541
  451MPD2     C 6767   4.338   0.181   1.248 -0.2526  0.2004  0.9186
  451MPD2    C1 6768   4.205   0.168   1.277  0.2378 -0.1269 -0.3844
  451MPD2    C2 6769   4.155   0.040   1.300 -0.2853 -0.7123 -0.2339
  451MPD2    C3 6770   4.233   4.657   1.285  0.9002 -0.1993  0.8074
  451MPD2    C4 6771   4.372   4.673   1.270  0.1426  0.2121  0.2648
  451MPD2    C5 6772   4.420   0.066   1.253  0.1036  0.3420 -0.3688
  451MPD2     H 6773   4.047   0.032   1.305 -0.1377 -3.8512 -2.5101
  451MPD2    H1 6774   4.442   4.591   1.262  0.9098  0.8513  0.4629
  451MPD2    H2 6775   4.377   0.279   1.224 -1.1664  0.7893  1.7750
  451MPD2    H3 6776   4.527   0.082   1.246  0.2157  0.4306  1.6048
  451MPD2     N 6777   4.176   4.525   1.279 -0.1465 -0.0918 -0.3569
  451MPD2    H5 6778   4.243   4.449   1.282 -2.0067 -1.7466 -0.9287
  451MPD2    N1 6779   4.129   0.284   1.270  0.0896  0.2326  0.6200
  451MPD2    H7 6780   4.174   0.374   1.256 -3.5194  2.4861  3.3796
  452TMC3    C1 6781   4.020   4.347   1.251  0.2254 -0.1058 -0.2818
  452TMC3    C2 6782   3.896   4.307   1.299  0.1712  0.6119 -0.1599
  452TMC3    C3 6783   3.863   4.177   1.279  0.4310  0.0272 -0.7232
  452TMC3    C4 6784   4.112   4.254   1.216 -0.4976  1.0101  0.3137
  452TMC3    C5 6785   4.072   4.122   1.204 -0.4421 -0.1991  0.7305
  452TMC3    C6 6786   3.946   4.082   1.228 -0.2844  0.5942 -0.2991
  452TMC3     C 6787   4.044   4.491   1.271  0.4264  0.0396 -0.3388
  452TMC3     O 6788   3.953   4.562   1.275  0.0108 -0.3932  0.0145
  452TMC3     H 6789   3.824   4.376   1.341  1.3035 -0.9670  4.3740
  452TMC3    H1 6790   4.216   4.282   1.206  0.2327 -0.9728  2.2708
  452TMC3    H2 6791   3.922   3.977   1.221  0.9068  0.2057  1.5476
  452TMC3    C7 6792   4.173   4.017   1.208 -0.5294  0.5857 -0.4295
  452TMC3    C8 6793   3.724   4.162   1.245 -0.6699 -0.0639  0.0192
  452TMC3    O1 6794   4.134   3.913   1.261  0.2860  0.6288  0.1975
  452TMC3    O2 6795   3.657   4.259   1.281  0.2674  0.0940 -0.4210
  453TMC3    C1 6796   0.241   1.854  11.762  0.1214 -0.2983 -0.7155
  453TMC3    C2 6797   0.198   1.726  11.735 -0.0447  0.3236  0.0504
  453TMC3    C3 6798   0.178   1.700  11.601 -0.3251  0.6127 -0.1074
  453TMC3    C4 6799   0.261   1.949  11.664 -0.1350  0.1682  0.1372
  453TMC3    C5 6800   0.226   1.914  11.539  0.2482 -1.1169  0.5656
  453TMC3    C6 6801   0.199   1.790  11.499 -0.3636 -0.4182  0.0641
  453TMC3     C 6802   0.284   1.882  11.903  0.5664 -0.7256  0.1225
  453TMC3     O 6803   0.278   1.997  11.940 -0.2064  0.3500  0.4685
  453TMC3     H 6804   0.148   1.658  11.803 -0.0842  0.0492 -0.2499
  453TMC3    H1 6805   0.306   2.044  11.691 -0.5719  0.2607  0.5496
  453TMC3    H2 6806   0.166   1.766  11.399  1.2604  1.5394 -0.9140
  453TMC3    C7 6807   0.208   2.028  11.450  0.1384  0.1213 -0.2743
  453TMC3    C8 6808   0.102   1.583  11.555  0.0856  0.6022 -0.9088
  453TMC3    O1 6809   0.222   2.018  11.328  0.2866  0.6125  0.1503
  453TMC3    O2 6810   0.008   1.591  11.479  0.2625 -0.1804  0.2004
  454MPD2     C 6811   3.644   0.465  16.322 -0.5172 -0.2712 -0.2272
  454MPD2    C1 6812   3.648   0.596  16.278  0.1672  0.5395  0.2210
  454MPD2    C2 6813   3.647   0.698  16.364  0.0467 -0.2546  0.1693
  454MPD2    C3 6814   3.612   0.667  16.493 -0.8584  0.0776  0.6631
  454MPD2    C4 6815   3.610   0.533  16.541  0.9352  0.3009 -0.6142
  454MPD2    C5 6816   3.629   0.432  16.451  0.2322 -0.6676 -0.4579
  454MPD2     H 6817   3.626   0.796  16.322 -0.9633 -1.0889 -1.2790
  454MPD2    H1 6818   3.589   0.496  16.641  0.6114  1.0717 -0.4025
  454MPD2    H2 6819   3.635   0.389  16.245 -2.6679  0.6741 -0.9184
  454MPD2    H3 6820   3.637   0.328  16.481  2.1609 -0.2088  0.6542
  454MPD2     N 6821   3.569   0.757  16.592 -0.3812 -0.3778 -0.1390
  454MPD2    H5 6822   3.533   0.718  16.678  0.1507  0.5291  0.4893
  454MPD2    N1 6823   3.645   0.640  16.140 -0.1796 -0.3321 -0.3488
  454MPD2    H7 6824   3.648   0.740  16.120 -0.0838 -0.6656 -2.0299
  455TMC3    C1 6825   3.477   0.951  16.660 -0.0952  0.5370 -0.0069
  455TMC3    C2 6826   3.494   1.087  16.672 -0.1388  0.3834 -0.3106
  455TMC3    C3 6827   3.395   1.176  16.645 -0.5665 -0.2168  0.6562
  455TMC3    C4 6828   3.360   0.896  16.625  0.0368  0.3036 -0.4953
  455TMC3    C5 6829   3.267   0.990  16.591  0.9896 -0.2984  0.5380
  455TMC3    C6 6830   3.275   1.124  16.595  0.0836 -0.0759  0.1387
  455TMC3     C 6831   3.588   0.888  16.587 -0.0089  0.1327  0.3449
  455TMC3     O 6832   3.640   0.954  16.501 -0.3278 -0.0336  0.5673
  455TMC3     H 6833   3.593   1.128  16.689  0.5487 -1.0470 -0.8425
  455TMC3    H1 6834   3.339   0.798  16.667 -1.9515  0.0984 -1.9994
  455TMC3    H2 6835   3.202   1.197  16.561  1.6845  1.0651 -0.8134
  455TMC3    C7 6836   3.185   0.942  16.482  0.2112 -0.3267  0.8119
  455TMC3    C8 6837   3.389   1.287  16.735 -0.6480  0.4420  0.2523
  455TMC3    O1 6838   3.085   1.012  16.457  0.2321  0.1944  0.6427
  455TMC3    O2 6839   3.448   1.277  16.839 -0.1426 -0.0091 -1.0516
  456MPD2     C 6840   0.904   0.936  16.290 -0.4094  0.2594  0.3522
  456MPD2    C1 6841   0.990   0.981  16.385 -0.4734 -0.7286  0.3783
  456MPD2    C2 6842   0.939   1.020  16.506  0.0949 -0.7468  0.4519
  456MPD2    C3 6843   0.803   1.033  16.525 -0.7486 -0.4499  0.0923
  456MPD2    C4 6844   0.720   0.988  16.425  0.3650  0.3082 -0.6645
  456MPD2    C5 6845   0.770   0.928  16.314  0.1541 -0.5370 -0.1102
  456MPD2     H 6846   1.010   1.060  16.578  0.2565  0.9653 -0.6799
  456MPD2    H1 6847   0.612   0.991  16.441  0.2709 -0.3191 -1.1766
  456MPD2    H2 6848   0.935   0.903  16.192 -1.5628  0.6343 -0.1367
  456MPD2    H3 6849   0.701   0.898  16.236  0.9075  1.2248 -1.4574
  456MPD2     N 6850   0.759   1.088  16.647  0.3815  0.0930  0.5713
  456MPD2    H5 6851   0.829   1.101  16.720  1.2301  1.0136 -0.3909
  456MPD2    N1 6852   1.127   0.997  16.348  0.0648  0.0568 -0.3336
  456MPD2    H7 6853   1.158   0.975  16.254  4.1098  3.1942  0.2623
  457TMC3    C1 6854   0.617   1.160  16.817  0.0390  0.3100  0.0112
  457TMC3    C2 6855   0.592   1.291  16.820  0.0968  0.3347  0.1852
  457TMC3    C3 6856   0.656   1.363  16.915  0.2665  0.2998 -0.3849
  457TMC3    C4 6857   0.689   1.090  16.902  0.3157 -0.4076 -0.1500
  457TMC3    C5 6858   0.738   1.165  17.010  0.3709 -0.0154 -0.5868
  457TMC3    C6 6859   0.717   1.299  17.021 -0.2676 -0.4723 -0.2930
  457TMC3     C 6860   0.623   1.118  16.678 -0.1338  0.1676 -0.3312
  457TMC3     O 6861   0.527   1.145  16.605 -0.1278 -0.2022 -0.1257
  457TMC3     H 6862   0.554   1.346  16.734  0.7678 -0.5175 -0.6652
  457TMC3    H1 6863   0.703   0.983  16.889  1.7997 -0.5512  2.5644
  457TMC3    H2 6864   0.767   1.354  17.100  1.4363 -0.9520 -1.0396
  457TMC3    C7 6865   0.745   1.089  17.136  0.2037 -0.0417  1.0598
  457TMC3    C8 6866   0.606   1.496  16.950 -0.0994 -0.1434  0.3259
  457TMC3    O1 6867   0.782   0.973  17.118 -0.1976 -0.3534 -0.3614
  457TMC3    O2 6868   0.595   1.516  17.067  0.3462  0.8253  0.0452
  458MPD2     C 6869   3.536   0.650  12.600  0.0647  0.3502 -0.3444
  458MPD2    C1 6870   3.537   0.612  12.733 -0.1254  0.0551 -0.4138
  458MPD2    C2 6871   3.415   0.579  12.794  0.5264  0.1575 -0.8155
  458MPD2    C3 6872   3.299   0.581  12.724 -0.1624 -0.0398 -0.0723
  458MPD2    C4 6873   3.292   0.619  12.587  0.3817  0.2394 -0.1691
  458MPD2    C5 6874   3.417   0.654  12.528 -0.3198  0.0599  0.6676
  458MPD2     H 6875   3.403   0.535  12.892 -0.1486  1.5101 -0.2877
  458MPD2    H1 6876   3.193   0.620  12.542  0.7071 -2.5801 -0.9760
  458MPD2    H2 6877   3.622   0.681  12.542  1.7572 -2.3127  0.7521
  458MPD2    H3 6878   3.413   0.688  12.425  0.4977 -1.7604  0.0235
  458MPD2     N 6879   3.183   0.542  12.797  0.2164  0.6689 -0.7465
  458MPD2    H5 6880   3.200   0.502  12.889  0.2941 -0.9430 -1.4487
  458MPD2    N1 6881   3.657   0.626  12.812  0.2858 -0.6391 -0.1447
  458MPD2    H7 6882   3.739   0.666  12.766  1.0771 -3.8247 -1.5573
  459TMC3    C1 6883   3.796   0.628  12.998  0.5170 -0.3281  0.1290
  459TMC3    C2 6884   3.899   0.670  12.920  0.5708  0.1747  0.1365
  459TMC3    C3 6885   4.013   0.714  12.985 -0.2333 -0.1233 -0.3965
  459TMC3    C4 6886   3.804   0.623  13.131 -0.0599 -0.1458 -0.2222
  459TMC3    C5 6887   3.924   0.660  13.191  0.9527  0.2851  0.0831
  459TMC3    C6 6888   4.023   0.713  13.118 -0.4485 -0.0090 -0.7047
  459TMC3     C 6889   3.665   0.599  12.947 -0.1433  0.1859  0.4332
  459TMC3     O 6890   3.594   0.530  13.019 -0.9633  0.3507 -0.1890
  459TMC3     H 6891   3.902   0.649  12.814  2.8347 -1.5139  0.5366
  459TMC3    H1 6892   3.714   0.615  13.190  1.5654  0.4171  2.3105
  459TMC3    H2 6893   4.114   0.749  13.165 -1.0047  1.7998 -1.0250
  459TMC3    C7 6894   3.949   0.620  13.321  0.3167  0.3958 -0.6800
  459TMC3    C8 6895   4.132   0.761  12.920 -0.6232 -0.2640 -0.6487
  459TMC3    O1 6896   4.057   0.659  13.367  0.1430 -1.0807  0.0367
  459TMC3    O2 6897   4.225   0.806  12.990 -0.4951 -0.1127 -0.6891
  460MPD2     C 6898   3.454   3.805  10.849 -0.7771  0.1824  0.2102
  460MPD2    C1 6899   3.334   3.842  10.904 -0.2835  0.9622  0.5511
  460MPD2    C2 6900   3.250   3.919  10.834  0.0365 -0.2947  0.0179
  460MPD2    C3 6901   3.280   3.972  10.713  1.5074  0.0760  0.4300
  460MPD2    C4 6902   3.403   3.931  10.657 -0.3027 -0.7322  0.0030
  460MPD2    C5 6903   3.490   3.852  10.723  0.0257 -0.5570 -0.4624
  460MPD2     H 6904   3.153   3.943  10.876  0.6652  0.6574  0.9261
  460MPD2    H1 6905   3.429   3.976  10.562 -0.8000 -3.3045 -1.3580
  460MPD2    H2 6906   3.515   3.738  10.908 -0.2566  0.5719  0.1147
  460MPD2    H3 6907   3.586   3.836  10.676  0.9782  0.2687  1.2123
  460MPD2     N 6908   3.198   4.065  10.656  0.4384 -0.3747 -0.2130
  460MPD2    H5 6909   3.112   4.087  10.706  0.4466 -0.7025 -0.0525
  460MPD2    N1 6910   3.299   3.780  11.021  0.3483 -0.4783 -0.2530
  460MPD2    H7 6911   3.370   3.734  11.077  0.6566  1.3806  0.8662
  461TMC3    C1 6912   3.107   4.212  10.495 -0.5368  0.2260 -0.9821
  461TMC3    C2 6913   2.979   4.171  10.525 -0.4170  0.0273  0.1857
  461TMC3    C3 6914   2.882   4.259  10.493  1.0397 -0.1750  0.6497
  461TMC3    C4 6915   3.144   4.330  10.441  0.0846  0.5809  0.1436
  461TMC3    C5 6916   3.042   4.413  10.422 -0.1116  0.8514  0.1533
  461TMC3    C6 6917   2.912   4.380  10.444 -0.2129 -0.8238 -0.3374
  461TMC3     C 6918   3.225   4.131  10.535  0.0277 -0.0049 -0.1503
  461TMC3     O 6919   3.324   4.142  10.462  0.6811 -0.1601  0.1555
  461TMC3     H 6920   2.950   4.073  10.561  0.5142  0.5195  2.3172
  461TMC3    H1 6921   3.247   4.351  10.416  1.0073 -2.3834  1.4851
  461TMC3    H2 6922   2.835   4.454  10.426  0.9971 -0.0182 -2.1991
  461TMC3    C7 6923   3.068   4.553  10.374 -0.4542 -0.0174 -0.0710
  461TMC3    C8 6924   2.746   4.214  10.472  0.1143 -0.2347  0.0562
  461TMC3    O1 6925   2.981   4.599  10.300 -0.2223 -0.1478 -0.0039
  461TMC3    O2 6926   2.670   4.277  10.403 -0.5799 -0.0381  0.5264
  462TMC3    C1 6927   3.207   4.094   0.462  0.1602  0.2765 -0.3319
  462TMC3    C2 6928   3.312   4.010   0.493 -0.1399 -0.3035 -0.5818
  462TMC3    C3 6929   3.307   3.888   0.441 -0.4909 -0.1807 -0.4078
  462TMC3    C4 6930   3.101   4.048   0.386 -0.3559 -0.1615  0.7091
  462TMC3    C5 6931   3.105   3.918   0.334 -0.0936 -0.1314 -0.0865
  462TMC3    C6 6932   3.218   3.839   0.350  0.1174  0.9357  0.6562
  462TMC3     C 6933   3.192   4.222   0.527 -0.1660 -0.1338 -0.4410
  462TMC3     O 6934   3.153   4.305   0.445  0.6608 -0.4329 -0.0199
  462TMC3     H 6935   3.400   4.044   0.545 -0.9987  0.8211  0.1361
  462TMC3    H1 6936   3.016   4.112   0.364 -2.8080 -3.1168  1.5341
  462TMC3    H2 6937   3.203   3.733   0.336  0.5314  1.1413 -1.3449
  462TMC3    C7 6938   2.987   3.859   0.274 -0.4518 -0.0704 -0.5027
  462TMC3    C8 6939   3.434   3.825   0.444 -0.1209  0.0872 -0.1623
  462TMC3    O1 6940   2.973   3.741   0.288 -0.3289  0.6325  0.4613
  462TMC3    O2 6941   3.509   3.820   0.545  0.1530 -0.4255  0.3800
  463MPD2     C 6942   4.371   2.774   1.736 -0.3180  0.0664  0.1018
  463MPD2    C1 6943   4.268   2.855   1.683 -0.0115 -0.1583  0.2223
  463MPD2    C2 6944   4.261   2.988   1.726 -0.2072  0.4020  0.0717
  463MPD2    C3 6945   4.358   3.043   1.805 -0.0816  1.0654  0.6752
  463MPD2    C4 6946   4.468   2.966   1.835 -0.5493  0.4970 -0.5864
  463MPD2    C5 6947   4.477   2.833   1.811  0.1887  0.4996  1.0353
  463MPD2     H 6948   4.180   3.053   1.696 -2.1604 -0.4253  3.5732
  463MPD2    H1 6949   4.543   3.008   1.902 -1.2295  1.8817 -0.6855
  463MPD2    H2 6950   4.372   2.668   1.713  1.1127  0.0937  0.0349
  463MPD2    H3 6951   4.564   2.779   1.846 -0.0054 -2.1554 -2.5364
  463MPD2     N 6952   4.362   3.169   1.866 -0.2021 -0.2081  0.1012
  463MPD2    H5 6953   4.435   3.187   1.935 -1.3703  0.2660  1.2167
  463MPD2    N1 6954   4.169   2.806   1.594  0.4613 -0.3593  0.5454
  463MPD2    H7 6955   4.093   2.870   1.572  1.3114  0.8585  1.1683
  464TMC3    C1 6956   4.061   2.671   1.439  0.3990  0.6534 -0.1688
  464TMC3    C2 6957   4.025   2.780   1.361 -0.2975  0.5419 -0.3580
  464TMC3    C3 6958   3.922   2.759   1.272  0.1214 -0.1897  0.1563
  464TMC3    C4 6959   3.993   2.549   1.426 -0.2742 -0.0992 -0.0989
  464TMC3    C5 6960   3.886   2.539   1.344  0.8544  0.5409 -0.1432
  464TMC3    C6 6961   3.846   2.645   1.273 -0.1203 -0.1870 -0.8040
  464TMC3     C 6962   4.161   2.677   1.541 -0.2456 -0.0446  0.4895
  464TMC3     O 6963   4.218   2.571   1.564 -0.4030  0.0511  0.0672
  464TMC3     H 6964   4.082   2.872   1.366 -0.6997  0.6342  2.8274
  464TMC3    H1 6965   4.029   2.464   1.483  0.4824  0.4377  0.2162
  464TMC3    H2 6966   3.767   2.638   1.199  1.7207 -1.4834 -2.6333
  464TMC3    C7 6967   3.812   2.414   1.350 -0.2116 -0.1584 -0.2121
  464TMC3    C8 6968   3.876   2.856   1.182 -0.6144 -0.1288  0.3416
  464TMC3    O1 6969   3.878   2.323   1.393  0.0787 -0.2303  0.6014
  464TMC3    O2 6970   3.763   2.849   1.138 -0.4399 -1.1513  0.0564
  465MPD2     C 6971   0.018   0.823  16.720 -0.6141  0.9959  0.1658
  465MPD2    C1 6972   0.007   0.868  16.852 -0.7204 -0.7063  0.2643
  465MPD2    C2 6973   4.693   0.996  16.887 -0.4521 -0.0036 -0.4246
  465MPD2    C3 6974   4.649   1.083  16.779  0.2772 -0.1659  0.4418
  465MPD2    C4 6975   4.660   1.032  16.647  1.1118  0.0270 -0.0204
  465MPD2    C5 6976   4.716   0.905  16.620  0.6388  0.1880 -0.2116
  465MPD2     H 6977   4.689   1.034  16.988 -1.6354 -1.1040 -0.0552
  465MPD2    H1 6978   4.649   1.100  16.564  1.4082  1.2320  0.9257
  465MPD2    H2 6979   0.061   0.731  16.682  0.1463  0.6380  1.8829
  465MPD2    H3 6980   4.731   0.869  16.519 -1.2789 -1.3155  0.0544
  465MPD2     N 6981   4.609   1.216  16.814  0.5153  0.2526 -0.0916
  465MPD2    H5 6982   4.594   1.231  16.914 -1.0323  0.5387 -0.3711
  465MPD2    N1 6983   0.034   0.784  16.964 -0.0252 -0.2504  0.6832
  465MPD2    H7 6984   0.020   0.823  17.057  1.2497  1.8731 -0.0211
  466TMC3    C1 6985   4.532   1.595  16.954  0.1462 -0.6860  0.1193
  466TMC3    C2 6986   4.518   1.696  16.869  0.6019 -0.2557  0.3905
  466TMC3    C3 6987   4.505   1.663  16.739  0.1360 -0.2295 -0.1199
  466TMC3    C4 6988   4.526   1.459  16.922  0.7487 -0.1280  0.2367
  466TMC3    C5 6989   4.510   1.434  16.789 -0.3586  0.3271 -0.2027
  466TMC3    C6 6990   4.499   1.534  16.697  0.0891 -1.0818  0.6161
  466TMC3     C 6991   4.536   1.639  17.092  0.6153  0.3174 -0.0433
  466TMC3     O 6992   4.506   1.754  17.116 -0.6115  0.5138 -0.0270
  466TMC3     H 6993   4.557   1.792  16.902 -1.6496  0.2801  1.4652
  466TMC3    H1 6994   4.544   1.383  16.998 -1.5208  0.2194  1.1202
  466TMC3    H2 6995   4.491   1.504  16.593 -2.3931  0.0588  0.4814
  466TMC3    C7 6996   4.558   1.311  16.727 -0.4533 -0.4261 -0.3435
  466TMC3    C8 6997   4.468   1.768  16.643 -0.2195  0.3839 -0.6080
  466TMC3    O1 6998   4.566   1.308  16.605  0.0651  0.3893  0.0174
  466TMC3    O2 6999   4.452   1.736  16.527 -0.4406 -0.3549 -0.7850
  467TMC3    C1 7000   1.106   0.074  13.958  0.0784  0.5016 -0.3194
  467TMC3    C2 7001   1.062   0.182  13.882  0.1812 -0.1056 -0.1016
  467TMC3    C3 7002   0.943   0.176  13.816 -0.3761  0.0446  0.2498
  467TMC3    C4 7003   1.033   4.693  13.966 -0.4384  0.8464  0.2664
  467TMC3    C5 7004   0.901   4.702  13.925 -0.1019  0.2385  0.1322
  467TMC3    C6 7005   0.859   0.072  13.846 -0.8256 -0.3912 -0.6708
  467TMC3     C 7006   1.213   0.101  14.056 -0.0736 -0.6952  0.2112
  467TMC3     O 7007   1.253   0.217  14.054  0.4348  0.2081  0.0546
  467TMC3     H 7008   1.130   0.265  13.862  1.9569 -1.3599  0.7539
  467TMC3    H1 7009   1.062   4.605  14.022 -0.5651  0.5091 -0.1944
  467TMC3    H2 7010   0.762   0.076  13.798 -0.8210  0.3627 -0.6164
  467TMC3    C7 7011   0.813   4.588  13.939 -0.4289 -0.1745 -0.0426
  467TMC3    C8 7012   0.948   0.197  13.672  0.5451 -1.0422  0.6812
  467TMC3    O1 7013   0.868   4.476  13.927  0.4233  0.1913  0.0921
  467TMC3    O2 7014   0.923   0.115  13.584 -0.0935  0.4950 -0.5040
  468MPD2     C 7015   0.213   3.490  10.665  0.6258  0.4496 -1.2778
  468MPD2    C1 7016   0.130   3.510  10.778  0.5752  0.5737 -0.3278
  468MPD2    C2 7017   0.122   3.406  10.878 -0.1860 -0.6185  0.6655
  468MPD2    C3 7018   0.218   3.305  10.873 -0.6764  0.2928 -0.7115
  468MPD2    C4 7019   0.299   3.296  10.756  0.2238  0.0193 -0.3557
  468MPD2    C5 7020   0.295   3.386  10.654  0.0369  0.4852  0.2124
  468MPD2     H 7021   0.054   3.426  10.959 -1.6145 -0.7193 -0.4941
  468MPD2    H1 7022   0.375   3.219  10.758  1.3436  1.1567  1.0932
  468MPD2    H2 7023   0.211   3.560  10.582  1.1094  0.0710 -1.6066
  468MPD2    H3 7024   0.356   3.386  10.565  2.2013  1.7212  1.6778
  468MPD2     N 7025   0.242   3.216  10.977  0.5350  0.1198  0.9581
  468MPD2    H5 7026   0.310   3.144  10.955  0.6743  0.6990 -0.5255
  468MPD2    N1 7027   0.052   3.626  10.798 -0.0389  0.2090 -0.1113
  468MPD2    H7 7028   4.718   3.615  10.875 -1.9879 -0.7635 -1.9322
  469TMC3    C1 7029   0.015   3.857  10.813 -0.9930 -0.4317 -1.0186
  469TMC3    C2 7030   0.108   3.937  10.866 -0.1789  0.8608 -0.2418
  469TMC3    C3 7031   0.100   3.961  11.001 -0.6875  0.1917  0.0296
  469TMC3    C4 7032   4.634   3.821  10.890  0.5264 -0.5410 -0.0101
  469TMC3    C5 7033   4.628   3.855  11.023 -0.1574  0.0046  0.7202
  469TMC3    C6 7034   4.732   3.920  11.079  0.1552 -0.0087 -0.6192
  469TMC3     C 7035   0.068   3.747  10.739 -0.1508  0.0322 -0.4256
  469TMC3     O 7036   0.147   3.774  10.648  0.5238 -1.3358  0.1713
  469TMC3     H 7037   0.202   3.941  10.812 -0.7218  0.5121 -1.2268
  469TMC3    H1 7038   4.561   3.761  10.838 -2.0828  1.4091  1.4301
  469TMC3    H2 7039   4.721   3.961  11.179  2.9997  0.7366 -0.6079
  469TMC3    C7 7040   4.496   3.846  11.090  0.3606  0.1943  0.5102
  469TMC3    C8 7041   0.235   3.995  11.053  0.5071  0.4218 -0.6913
  469TMC3    O1 7042   4.397   3.818  11.015  0.8967  0.4357 -0.0397
  469TMC3    O2 7043   0.333   3.999  10.981 -0.0540  0.7326  0.0165
  470TMC3    C1 7044   2.477   4.456   0.680  0.4928 -0.8404 -0.0743
  470TMC3    C2 7045   2.516   4.583   0.655 -0.4172  0.5100  0.4184
  470TMC3    C3 7046   2.564   4.661   0.759 -0.4965  0.4636 -0.0353
  470TMC3    C4 7047   2.489   4.396   0.792 -0.6268 -0.3396 -1.0761
  470TMC3    C5 7048   2.540   4.469   0.894 -0.3717 -0.4723  0.1436
  470TMC3    C6 7049   2.592   4.602   0.881  0.1668 -0.0446 -0.0658
  470TMC3     C 7050   2.403   4.389   0.574 -0.4101 -0.3463  0.0790
  470TMC3     O 7051   2.378   4.454   0.473  0.0554 -0.0436 -0.3273
  470TMC3     H 7052   2.509   4.627   0.555  1.3536 -0.2685 -0.0460
  470TMC3    H1 7053   2.444   4.300   0.813  3.5298 -1.7835  1.3557
  470TMC3    H2 7054   2.632   4.664   0.961 -0.5882 -1.4561  1.3881
  470TMC3    C7 7055   2.571   4.403   1.020 -0.5033 -0.1978 -0.4247
  470TMC3    C8 7056   2.649   0.045   0.721  0.2399 -0.0825  0.3517
  470TMC3    O1 7057   2.566   4.279   1.016  0.1513  0.3726 -0.1180
  470TMC3    O2 7058   2.702   0.046   0.611 -0.2116 -0.2431 -0.1082
  471MPD2     C 7059   2.804   0.641  16.431  0.2259  0.2537  0.7905
  471MPD2    C1 7060   2.812   0.508  16.408 -0.0790 -0.0369  0.5400
  471MPD2    C2 7061   2.927   0.445  16.450  0.5196 -0.4398 -0.5222
  471MPD2    C3 7062   3.025   0.501  16.526 -0.8041 -0.0661 -0.6000
  471MPD2    C4 7063   3.010   0.630  16.561  0.1600 -0.2371 -0.0477
  471MPD2    C5 7064   2.900   0.697  16.518 -0.5479  0.0517  0.4147
  471MPD2     H 7065   2.935   0.339  16.427  2.9563 -0.0368 -1.5171
  471MPD2    H1 7066   3.071   0.689  16.628 -0.4126  0.8088 -0.4395
  471MPD2    H2 7067   2.725   0.707  16.398 -0.7324 -1.1943  0.1769
  471MPD2    H3 7068   2.883   0.800  16.547  0.4372  0.3322  0.0281
  471MPD2     N 7069   3.141   0.426  16.543 -0.4324 -0.1385 -0.0558
  471MPD2    H5 7070   3.137   0.332  16.506  1.5999  0.0264 -0.7150
  471MPD2    N1 7071   2.727   0.438  16.317 -0.2172  0.2600  0.3027
  471MPD2    H7 7072   2.749   0.340  16.309 -0.4526  0.2084  0.3025
  472TMC3    C1 7073   2.529   0.394  16.182 -0.0159 -0.5673 -0.4183
  472TMC3    C2 7074   2.398   0.397  16.203 -0.4782 -0.0346  0.6192
  472TMC3    C3 7075   2.327   0.283  16.177 -0.1257 -0.4998 -0.4147
  472TMC3    C4 7076   2.584   0.282  16.129  0.3097  0.0886  0.6146
  472TMC3    C5 7077   2.507   0.175  16.092  0.4227 -0.2666 -0.5333
  472TMC3    C6 7078   2.371   0.167  16.113 -0.4412 -0.0863 -0.3175
  472TMC3     C 7079   2.609   0.491  16.264  0.6364  0.4184 -0.3114
  472TMC3     O 7080   2.546   0.593  16.293  0.6261 -0.1252  0.5538
  472TMC3     H 7081   2.342   0.475  16.253  2.4020  2.3858 -0.0086
  472TMC3    H1 7082   2.689   0.298  16.103  0.7423 -2.7488  0.5548
  472TMC3    H2 7083   2.298   0.091  16.086 -0.8634  1.0043 -2.2699
  472TMC3    C7 7084   2.589   0.054  16.088 -0.2847  0.1678 -0.4201
  472TMC3    C8 7085   2.183   0.289  16.192 -0.2510 -0.4037  0.9215
  472TMC3    O1 7086   2.694   0.057  16.156 -0.4483  0.7390  0.4331
  472TMC3    O2 7087   2.118   0.350  16.110 -0.1933 -0.7794 -0.4503
  473MPD2     C 7088   2.230   2.288  13.895 -0.6775 -0.1472  0.6574
  473MPD2    C1 7089   2.165   2.401  13.839  0.1459  0.2934 -0.5163
  473MPD2    C2 7090   2.179   2.518  13.904 -0.0507 -0.1669  0.1502
  473MPD2    C3 7091   2.243   2.529  14.031  1.0452 -0.0092  0.5011
  473MPD2    C4 7092   2.298   2.418  14.088  0.7303 -0.0694 -0.9587
  473MPD2    C5 7093   2.294   2.305  14.008  0.4015  0.0632 -0.7505
  473MPD2     H 7094   2.139   2.602  13.848 -2.9734 -1.3436  0.4753
  473MPD2    H1 7095   2.351   2.429  14.182  0.9336 -0.8714 -0.9789
  473MPD2    H2 7096   2.217   2.189  13.852  1.9681 -0.6177  0.9341
  473MPD2    H3 7097   2.335   2.214  14.050  0.0621 -0.5773 -1.8161
  473MPD2     N 7098   2.266   2.652  14.094  0.8990 -0.2772 -0.1835
  473MPD2    H5 7099   2.319   2.658  14.181 -0.4298 -0.8508  0.6694
  473MPD2    N1 7100   2.096   2.406  13.715 -0.0206  0.3637 -0.4596
  473MPD2    H7 7101   2.067   2.500  13.690  0.3505  0.2619 -1.2658
  474TMC3    C1 7102   2.293   2.885  14.118  0.4794 -0.4497  0.8501
  474TMC3    C2 7103   2.233   3.007  14.112  0.7495  0.1208 -0.1446
  474TMC3    C3 7104   2.279   3.109  14.190  0.6920 -0.1584  0.6436
  474TMC3    C4 7105   2.400   2.864  14.194 -0.7357 -0.0494 -0.0477
  474TMC3    C5 7106   2.454   2.966  14.265  0.6303  0.2959 -0.4584
  474TMC3    C6 7107   2.388   3.085  14.272  0.0652  0.0307 -0.4645
  474TMC3     C 7108   2.232   2.772  14.035  0.0704  0.7522  0.6529
  474TMC3     O 7109   2.166   2.799  13.935  0.4178  0.0520 -0.1320
  474TMC3     H 7110   2.167   3.023  14.028  1.0584  0.9379 -0.2315
  474TMC3    H1 7111   2.465   2.781  14.170 -1.7044 -0.8214  0.0139
  474TMC3    H2 7112   2.428   3.163  14.334 -0.0576  0.1405 -0.5241
  474TMC3    C7 7113   2.571   2.937  14.346 -0.0635 -0.2685 -0.4490
  474TMC3    C8 7114   2.270   3.249  14.143 -0.5295  0.0794  0.3550
  474TMC3    O1 7115   2.629   2.836  14.316 -0.3513 -0.3139 -0.1164
  474TMC3    O2 7116   2.351   3.326  14.192 -0.0674  0.0991 -0.2840
  475MPD2     C 7117   1.116   1.122  11.670  0.2273 -0.0749 -0.9112
  475MPD2    C1 7118   1.078   1.193  11.561  0.5421 -0.1368  0.2244
  475MPD2    C2 7119   0.949   1.171  11.519  0.4708 -0.1834  0.1656
  475MPD2    C3 7120   0.861   1.093  11.584  0.3441 -0.0753 -0.0912
  475MPD2    C4 7121   0.903   1.018  11.692  0.1591  0.3171  1.1706
  475MPD2    C5 7122   1.032   1.029  11.735 -0.9264  0.7034 -0.0261
  475MPD2     H 7123   0.919   1.226  11.430  1.5011 -0.0111 -0.0712
  475MPD2    H1 7124   0.828   0.962  11.746  0.1285 -0.0042  0.7934
  475MPD2    H2 7125   1.209   1.141  11.721  0.4379 -0.1525 -1.2642
  475MPD2    H3 7126   1.070   0.979  11.823  1.2893  1.5235 -0.5328
  475MPD2     N 7127   0.729   1.100  11.542 -0.1025  0.2266  0.3721
  475MPD2    H5 7128   0.721   1.157  11.459  0.7685 -1.3845 -0.8067
  475MPD2    N1 7129   1.161   1.286  11.511 -0.1937 -0.3859  0.2740
  475MPD2    H7 7130   1.232   1.320  11.575  1.6583 -1.1015 -1.3898
  476TMC3    C1 7131   1.234   1.465  11.370  0.0110  0.7801  0.0481
  476TMC3    C2 7132   1.255   1.500  11.243  0.0083 -0.0002 -0.6405
  476TMC3    C3 7133   1.289   1.631  11.211 -0.9359 -0.5704  0.3689
  476TMC3    C4 7134   1.234   1.563  11.468  0.0993 -0.5640  0.5877
  476TMC3    C5 7135   1.257   1.698  11.440 -0.2891 -0.3215  0.6772
  476TMC3    C6 7136   1.300   1.732  11.311 -0.2507  0.5437  0.3787
  476TMC3     C 7137   1.143   1.353  11.394 -0.1671  0.1233 -0.1183
  476TMC3     O 7138   1.077   1.322  11.300  0.7326  0.1579 -0.5328
  476TMC3     H 7139   1.247   1.425  11.166 -0.0175  0.0043 -0.6422
  476TMC3    H1 7140   1.196   1.528  11.564 -1.3229 -0.2567  0.1429
  476TMC3    H2 7141   1.337   1.832  11.291  0.3069  0.1115 -0.7509
  476TMC3    C7 7142   1.196   1.801  11.530 -0.1527 -0.2360  0.4422
  476TMC3    C8 7143   1.299   1.665  11.073 -0.3341  0.3978 -0.2650
  476TMC3    O1 7144   1.144   1.756  11.631 -0.0605  0.4990  0.3379
  476TMC3    O2 7145   1.335   1.782  11.052 -0.1258 -0.2757 -0.2701
  477MPD2     C 7146   3.400   2.878  12.108 -0.3167 -0.7536  0.5562
  477MPD2    C1 7147   3.344   2.778  12.025  0.2565  0.3787  0.5668
  477MPD2    C2 7148   3.357   2.646  12.059 -0.8777 -0.3312  0.3500
  477MPD2    C3 7149   3.421   2.615  12.179 -0.0301 -0.4280 -0.0705
  477MPD2    C4 7150   3.467   2.715  12.270 -0.0682  0.2961  0.3222
  477MPD2    C5 7151   3.440   2.846  12.237  0.0798 -0.1506 -0.1869
  477MPD2     H 7152   3.314   2.579  11.985 -0.6296 -0.8656  0.6851
  477MPD2    H1 7153   3.521   2.693  12.361 -3.0058 -0.2367  1.9627
  477MPD2    H2 7154   3.399   2.982  12.080 -0.6985 -1.1645 -0.9778
  477MPD2    H3 7155   3.473   2.925  12.303 -1.5867  1.1724 -0.9266
  477MPD2     N 7156   3.423   2.478  12.210  0.2106 -0.4015  0.2231
  477MPD2    H5 7157   3.407   2.413  12.134  1.9028 -0.7553  0.1690
  477MPD2    N1 7158   3.260   2.814  11.922  0.2477 -0.1976 -0.1185
  477MPD2    H7 7159   3.232   2.910  11.935 -1.4929 -0.7099 -0.0187
  478TMC3    C1 7160   3.135   2.803  11.727  0.2175  0.1043  0.8952
  478TMC3    C2 7161   3.045   2.890  11.779 -0.1745  0.2655 -0.4414
  478TMC3    C3 7162   2.971   2.963  11.689 -0.4136 -0.2703  0.9194
  478TMC3    C4 7163   3.166   2.794  11.595 -0.9570  0.6940 -0.2166
  478TMC3    C5 7164   3.089   2.871  11.512  0.0184 -0.7813 -0.0007
  478TMC3    C6 7165   2.984   2.955  11.550  0.4885 -0.1405  0.2252
  478TMC3     C 7166   3.222   2.735  11.818  0.3033 -0.0518  0.1879
  478TMC3     O 7167   3.274   2.633  11.771 -0.5470 -0.2592 -0.0862
  478TMC3     H 7168   3.025   2.901  11.885  2.0672  0.6059 -0.0601
  478TMC3    H1 7169   3.262   2.754  11.562 -0.3696  2.2924 -0.5024
  478TMC3    H2 7170   2.926   3.023  11.489 -1.8530  1.6543  4.4605
  478TMC3    C7 7171   3.147   2.895  11.382 -0.1759 -0.3194  0.0258
  478TMC3    C8 7172   2.883   3.067  11.746  0.2498  0.3839 -0.0547
  478TMC3    O1 7173   3.259   2.858  11.361 -0.2630  0.1728  0.6638
  478TMC3    O2 7174   2.854   3.167  11.673 -0.0074 -0.3620  0.2526
  479MPD2     C 7175   2.005   4.443  15.337 -0.5106  0.5891 -0.3247
  479MPD2    C1 7176   1.989   4.386  15.458  0.2427 -0.3646  0.1942
  479MPD2    C2 7177   2.049   4.454  15.567  0.2946 -0.2759 -0.7771
  479MPD2    C3 7178   2.113   4.573  15.551  0.6050  0.2318  0.6308
  479MPD2    C4 7179   2.127   4.627  15.429  0.2733  0.1596  0.9216
  479MPD2    C5 7180   2.075   4.565  15.318 -0.3879 -0.3950  0.4484
  479MPD2     H 7181   2.016   4.412  15.660 -1.4245  2.6591 -0.0649
  479MPD2    H1 7182   2.197   4.709  15.417  2.1168 -1.5578 -0.1773
  479MPD2    H2 7183   1.972   4.400  15.243 -0.7776 -0.2451  0.1507
  479MPD2    H3 7184   2.074   4.618  15.223 -1.7619 -0.2762  0.5334
  479MPD2     N 7185   2.167   4.634  15.664 -0.6422  0.4168  0.0296
  479MPD2    H5 7186   2.186   0.001  15.665  0.3948  0.2204 -0.4732
  479MPD2    N1 7187   1.898   4.277  15.464 -0.0148 -0.0063 -0.3149
  479MPD2    H7 7188   1.846   4.244  15.383 -0.1237 -0.1502 -0.1878
  480TMC3    C1 7189   2.015   4.622  16.074 -0.1716 -0.4345  0.3508
  480TMC3    C2 7190   1.931   4.719  16.027 -1.0114  0.0111 -0.4275
  480TMC3    C3 7191   1.974   0.073  15.933  0.8292 -0.2973  0.3036
  480TMC3    C4 7192   2.136   4.600  16.008 -0.0610  0.5311  0.5848
  480TMC3    C5 7193   2.169   4.672  15.898  0.4478  0.0376  0.3769
  480TMC3    C6 7194   2.096   0.048  15.872  0.6063 -0.0657 -0.0733
  480TMC3     C 7195   1.986   4.519  16.170 -0.2149  0.4042 -0.4412
  480TMC3     O 7196   2.077   4.469  16.234  0.4321 -0.1160 -0.0333
  480TMC3     H 7197   1.844   0.010  16.087 -0.3468 -0.8000  0.8582
  480TMC3    H1 7198   2.172   4.500  16.028 -1.5937  0.0495  0.9372
  480TMC3    H2 7199   2.140   0.127  15.812 -0.1995 -0.1339 -0.7489
  480TMC3    C7 7200   2.176   4.575  15.789 -0.0239 -0.5267 -0.6966
  480TMC3    C8 7201   1.865   0.133  15.846 -0.0079 -0.0188  0.6952
  480TMC3    O1 7202   2.184   4.454  15.810 -0.1595  0.6657 -0.7272
  480TMC3    O2 7203   1.753   0.102  15.880 -0.2146  0.2657 -0.5777
  481MPD2     C 7204   3.877   3.916  14.061 -0.1694  0.2245  0.1336
  481MPD2    C1 7205   3.751   3.890  14.109 -0.1519 -0.5344  0.1441
  481MPD2    C2 7206   3.742   3.843  14.242 -0.5192  0.0897 -0.3173
  481MPD2    C3 7207   3.854   3.799  14.316  0.0155 -0.0724  0.2629
  481MPD2    C4 7208   3.974   3.831  14.260  0.2293  0.5084 -0.1626
  481MPD2    C5 7209   3.985   3.888  14.135 -0.8613  0.0363 -0.4129
  481MPD2     H 7210   3.646   3.834  14.292  0.6774  1.2008  2.1743
  481MPD2    H1 7211   4.063   3.804  14.316 -1.1833 -0.5503  1.5707
  481MPD2    H2 7212   3.889   3.950  13.959  0.1331 -1.2302 -0.3231
  481MPD2    H3 7213   4.082   3.903  14.088  0.3332 -2.6938  1.2412
  481MPD2     N 7214   3.841   3.731  14.441  0.4514  0.4573 -0.4467
  481MPD2    H5 7215   3.927   3.724  14.495 -0.3131  1.7707  0.9351
  481MPD2    N1 7216   3.643   3.921  14.029 -0.4145  0.4004  0.8899
  481MPD2    H7 7217   3.665   3.960  13.938  0.2684 -2.8754 -0.3605
  482TMC3    C1 7218   3.421   3.917  13.945 -0.0198 -0.0589  0.2442
  482TMC3    C2 7219   3.294   3.865  13.960  0.1420  0.5733 -0.6313
  482TMC3    C3 7220   3.194   3.925  13.899  0.2379 -0.7634  1.0648
  482TMC3    C4 7221   3.440   4.040  13.888  0.0106 -0.6976  0.2411
  482TMC3    C5 7222   3.328   4.097  13.835  0.1763 -0.0026 -0.2143
  482TMC3    C6 7223   3.202   4.046  13.832  0.3723  0.6906 -0.5213
  482TMC3     C 7224   3.512   3.892  14.055 -0.5029  0.2677 -0.4141
  482TMC3     O 7225   3.462   3.854  14.162  0.2787 -0.6604 -0.0778
  482TMC3     H 7226   3.294   3.765  14.002  1.7548  1.2703  1.0570
  482TMC3    H1 7227   3.530   4.099  13.889  1.0537 -2.2057 -3.7441
  482TMC3    H2 7228   3.113   4.100  13.801  0.6070  0.3760 -1.7431
  482TMC3    C7 7229   3.348   4.221  13.772 -0.0773  0.3931 -0.6440
  482TMC3    C8 7230   3.080   3.841  13.875 -0.0760  0.6796 -0.5333
  482TMC3    O1 7231   3.453   4.281  13.781 -0.4847 -0.6152 -0.1151
  482TMC3    O2 7232   3.100   3.720  13.868 -0.5347 -0.3029 -0.5544
  483TMC3    C1 7233   1.448   2.683   0.216 -0.0491  0.0537  0.1002
  483TMC3    C2 7234   1.529   2.786   0.252 -0.0341 -0.0673 -0.3138
  483TMC3    C3 7235   1.666   2.776   0.224 -0.0474 -0.2338  0.1642
  483TMC3    C4 7236   1.497   2.570   0.152  0.3357  0.0163 -0.4257
  483TMC3    C5 7237   1.632   2.555   0.126  0.0437 -0.0633  0.3699
  483TMC3    C6 7238   1.713   2.664   0.159  0.0245 -0.2744 -0.6219
  483TMC3     C 7239   1.306   2.689   0.250 -0.1782  0.0515  0.5849
  483TMC3     O 7240   1.265   2.802   0.276  0.4335 -0.4810 -0.1834
  483TMC3     H 7241   1.486   2.879   0.287  2.4724  0.6172  0.9196
  483TMC3    H1 7242   1.424   2.499   0.114  0.0720  0.0680 -0.0230
  483TMC3    H2 7243   1.819   2.646   0.151 -0.3408 -2.2697 -0.9568
  483TMC3    C7 7244   1.695   2.443   0.047  0.0179  0.0039 -0.4597
  483TMC3    C8 7245   1.756   2.894   0.233  0.2972 -0.5448 -0.1751
  483TMC3    O1 7246   1.811   2.446   0.007  0.8111 -0.2449  0.5639
  483TMC3    O2 7247   1.856   2.883   0.164  0.1497 -0.4309 -0.7623
  484MPD2     C 7248   4.182   0.793  12.560  0.1561  1.1439  0.6399
  484MPD2    C1 7249   4.219   0.801  12.687 -0.4100 -0.2697  0.5025
  484MPD2    C2 7250   4.351   0.833  12.713  0.1918  0.3931  0.5664
  484MPD2    C3 7251   4.441   0.860  12.614 -0.7788 -0.0648 -0.5449
  484MPD2    C4 7252   4.399   0.849  12.483  0.9332  0.1549  0.5306
  484MPD2    C5 7253   4.264   0.830  12.459  0.6714  0.2698 -0.1756
  484MPD2     H 7254   4.380   0.832  12.818  2.6640 -0.4362 -0.1140
  484MPD2    H1 7255   4.459   0.875  12.396  2.2744 -0.0478  1.3890
  484MPD2    H2 7256   4.082   0.765  12.530  0.1882  0.2439  1.3602
  484MPD2    H3 7257   4.233   0.829  12.355 -0.8681 -0.1730  0.2725
  484MPD2     N 7258   4.562   0.924  12.640 -0.1873 -0.1781  0.2342
  484MPD2    H5 7259   4.609   0.953  12.554  0.3618  0.2249  0.6674
  484MPD2    N1 7260   4.121   0.766  12.779  0.2175  0.2505  0.4302
  484MPD2    H7 7261   4.033   0.728  12.743  1.4025 -2.7908  0.7053
  485TMC3    C1 7262   4.732   1.049  12.742 -0.4305 -0.0878  0.5634
  485TMC3    C2 7263   0.004   1.169  12.798 -1.1593 -0.5742  0.2600
  485TMC3    C3 7264   0.103   1.253  12.769 -0.3784 -0.5460  0.4786
  485TMC3    C4 7265   0.099   1.010  12.649 -0.3881 -0.2726 -0.2335
  485TMC3    C5 7266   0.189   1.103  12.604 -0.0543 -0.1868 -0.1723
  485TMC3    C6 7267   0.193   1.222  12.673  0.1349 -0.0549  0.7106
  485TMC3     C 7268   4.608   0.979  12.753 -0.0774  0.3277  0.2623
  485TMC3     O 7269   4.551   0.984  12.864 -0.1271  0.2244 -0.2889
  485TMC3     H 7270   4.657   1.204  12.862 -0.7932 -0.9023  0.8985
  485TMC3    H1 7271   0.090   0.915  12.597  2.8483  0.1244 -1.5128
  485TMC3    H2 7272   0.274   1.290  12.648 -2.0005  1.8812 -0.9023
  485TMC3    C7 7273   0.313   1.047  12.543  0.6616  0.3035 -0.9099
  485TMC3    C8 7274   0.145   1.349  12.872 -0.4608  0.0170  0.0125
  485TMC3    O1 7275   0.303   0.925  12.532 -0.9281 -0.1172 -0.1333
  485TMC3    O2 7276   0.139   1.465  12.835  0.0928 -0.5206  0.0448
  486MPD2     C 7277   1.272   4.334  13.399 -0.1813 -0.2118 -0.2541
  486MPD2    C1 7278   1.302   4.311  13.264 -0.0707  0.4769  0.5367
  486MPD2    C2 7279   1.311   4.417  13.181  0.3290 -0.1415  0.0592
  486MPD2    C3 7280   1.271   4.542  13.225 -0.4239  0.1985  0.1365
  486MPD2    C4 7281   1.240   4.561  13.360 -0.5866 -0.1956  0.1052
  486MPD2    C5 7282   1.256   4.461  13.447 -0.3720 -0.4314  0.3397
  486MPD2     H 7283   1.330   4.400  13.076 -0.1260 -2.3873  0.3479
  486MPD2    H1 7284   1.214   4.657  13.402  0.8961  0.4737 -0.5020
  486MPD2    H2 7285   1.259   4.265  13.482  0.1439  0.4427  0.3401
  486MPD2    H3 7286   1.241   4.473  13.554 -1.5526  1.8944 -0.0880
  486MPD2     N 7287   1.273   4.643  13.129  0.7455  0.5059  0.2168
  486MPD2    H5 7288   1.327   4.632  13.044  0.5673 -2.3583  0.4756
  486MPD2    N1 7289   1.328   4.169  13.230 -0.2005 -0.4364 -0.7324
  486MPD2    H7 7290   1.333   4.109  13.311  1.1803 -0.9095 -1.1620
  487TMC3    C1 7291   1.384   3.967  13.108 -0.5079  0.1646 -0.3489
  487TMC3    C2 7292   1.296   3.882  13.045 -0.3423 -0.1631  0.2480
  487TMC3    C3 7293   1.268   3.764  13.113  0.6717 -0.0920  0.0323
  487TMC3    C4 7294   1.436   3.936  13.235 -0.5855  0.1073 -0.1448
  487TMC3    C5 7295   1.408   3.807  13.288 -0.3267 -0.4090  0.3789
  487TMC3    C6 7296   1.333   3.714  13.222  0.5007  0.1806  0.1720
  487TMC3     C 7297   1.355   4.111  13.100  0.5681 -0.4684 -0.1611
  487TMC3     O 7298   1.330   4.154  12.987 -0.0872  0.0011  0.4183
  487TMC3     H 7299   1.243   3.923  12.960 -0.2410  0.6429  0.5752
  487TMC3    H1 7300   1.491   4.003  13.299 -1.5613 -0.9591  1.8131
  487TMC3    H2 7301   1.283   3.635  13.276  0.3701 -0.3171 -0.6759
  487TMC3    C7 7302   1.361   3.816  13.424  0.0778  0.0229 -0.5390
  487TMC3    C8 7303   1.164   3.681  13.070 -1.5932  0.7615  0.2369
  487TMC3    O1 7304   1.321   3.931  13.464  0.6354 -0.1377 -0.5167
  487TMC3    O2 7305   1.191   3.563  13.068 -0.0059 -0.1843  0.2389
  488MPD2     C 7306   1.552   1.510  16.175 -0.4116 -0.1686  0.0833
  488MPD2    C1 7307   1.661   1.568  16.224  0.5786  0.8648 -0.0596
  488MPD2    C2 7308   1.671   1.561  16.364  0.1644  0.0465  0.5641
  488MPD2    C3 7309   1.581   1.498  16.445 -0.2199 -0.0248 -0.1290
  488MPD2    C4 7310   1.468   1.439  16.386 -0.3870 -1.0009 -0.3666
  488MPD2    C5 7311   1.455   1.454  16.251  0.0113 -0.8727 -0.6645
  488MPD2     H 7312   1.755   1.614  16.407 -0.3825  1.1926  0.2207
  488MPD2    H1 7313   1.385   1.398  16.442 -0.4244 -2.5558 -1.5730
  488MPD2    H2 7314   1.543   1.503  16.067  2.7263  1.1802 -0.2673
  488MPD2    H3 7315   1.369   1.430  16.189  1.0743  0.5709 -2.6856
  488MPD2     N 7316   1.612   1.496  16.586 -0.2341  0.2776 -0.0092
  488MPD2    H5 7317   1.683   1.558  16.620  0.9309  0.0833 -2.0959
  488MPD2    N1 7318   1.753   1.642  16.150 -0.1869  0.0014 -0.2591
  488MPD2    H7 7319   1.818   1.698  16.204  1.6719 -1.3068 -1.1434
  489TMC3    C1 7320   1.588   1.473  16.809 -0.4444  0.2021  0.3833
  489TMC3    C2 7321   1.704   1.547  16.829 -0.4233  0.2677 -0.1336
  489TMC3    C3 7322   1.727   1.616  16.945 -0.1986 -1.0268 -0.6381
  489TMC3    C4 7323   1.501   1.453  16.915 -0.3690 -0.5743 -0.3986
  489TMC3    C5 7324   1.533   1.523  17.030 -0.3279 -0.0416 -0.1628
  489TMC3    C6 7325   1.635   1.607  17.047  0.4969  0.5068 -0.3553
  489TMC3     C 7326   1.539   1.435  16.675 -0.5305 -0.3329 -0.9506
  489TMC3     O 7327   1.450   1.353  16.676 -0.2648  0.2112 -0.2261
  489TMC3     H 7328   1.792   1.539  16.767 -0.3435  1.1784 -0.1375
  489TMC3    H1 7329   1.398   1.424  16.901 -0.5653 -0.0561 -0.0438
  489TMC3    H2 7330   1.659   1.651  17.143  1.1835 -0.8228  0.0904
  489TMC3    C7 7331   1.461   1.495  17.155  0.0712 -0.0339  0.6825
  489TMC3    C8 7332   1.792   1.741  16.919 -0.1602 -0.2592  0.0520
  489TMC3    O1 7333   1.478   1.567  17.249  0.2381 -0.1954 -0.5293
  489TMC3    O2 7334   1.866   1.751  16.822 -0.5750 -0.6042  0.3128
  490MPD2     C 7335   2.769   0.871  17.203 -0.1202 -0.4855  0.0321
  490MPD2    C1 7336   2.858   0.778  17.252 -0.1518 -0.3553  0.2394
  490MPD2    C2 7337   2.963   0.816  17.328  0.0792 -0.2426 -0.0660
  490MPD2    C3 7338   2.997   0.948  17.349  0.5300 -0.3309  0.1249
  490MPD2    C4 7339   2.912   1.045  17.305 -0.8913  0.2897  0.6941
  490MPD2    C5 7340   2.800   1.004  17.234  0.0781  0.3570 -0.8182
  490MPD2     H 7341   3.028   0.733  17.355  1.0762  0.4067 -0.4506
  490MPD2    H1 7342   2.942   1.149  17.302  0.1336  0.0206  1.6016
  490MPD2    H2 7343   2.680   0.857  17.143  0.2935 -3.0399  0.0325
  490MPD2    H3 7344   2.739   1.080  17.186 -1.9052 -0.2258  0.7916
  490MPD2     N 7345   3.119   0.998  17.408 -0.4191  0.2900  0.0686
  490MPD2    H5 7346   3.130   1.098  17.401  1.7718  0.1771  1.7205
  490MPD2    N1 7347   2.848   0.637  17.225 -0.3589 -0.2113 -0.0447
  490MPD2    H7 7348   2.913   0.575  17.272 -0.2645  1.2781  1.7933
  491TMC3    C1 7349   2.771   0.433  17.144  1.1898  0.5146 -0.5097
  491TMC3    C2 7350   2.814   0.372  17.257  0.0698 -0.2505  0.0736
  491TMC3    C3 7351   2.797   0.235  17.270 -0.1080  0.1228  0.9805
  491TMC3    C4 7352   2.680   0.376  17.063 -0.1732  0.1492  1.3934
  491TMC3    C5 7353   2.653   0.242  17.083  0.1905  0.4865 -0.1232
  491TMC3    C6 7354   2.708   0.172  17.188 -0.3225  0.2706  0.6559
  491TMC3     C 7355   2.752   0.577  17.153 -0.2935 -0.2795  0.0873
  491TMC3     O 7356   2.659   0.635  17.098 -0.7813  0.4946  0.1543
  491TMC3     H 7357   2.841   0.431  17.343  0.4065  1.2643 -1.0721
  491TMC3    H1 7358   2.640   0.423  16.974 -0.1108 -1.8614  0.3182
  491TMC3    H2 7359   2.706   0.063  17.186  0.6989  0.2991 -1.9540
  491TMC3    C7 7360   2.557   0.184  17.001 -0.6063  0.1331 -0.6287
  491TMC3    C8 7361   2.796   0.174  17.410 -0.2666 -0.1325  0.0848
  491TMC3    O1 7362   2.503   0.249  16.913 -0.0182  0.2712  0.3767
  491TMC3    O2 7363   2.708   0.092  17.431  0.7873 -0.3966 -0.7151
  492MPD2     C 7364   2.955   1.201  11.024 -0.5850 -0.1714 -0.3056
  492MPD2    C1 7365   2.817   1.209  11.026 -0.0710  0.1430 -0.3223
  492MPD2    C2 7366   2.741   1.097  11.063  0.1395  0.6630 -0.0008
  492MPD2    C3 7367   2.811   0.992  11.120 -0.0283 -0.6168  0.3299
  492MPD2    C4 7368   2.946   0.994  11.134  0.5176  0.0738  0.6174
  492MPD2    C5 7369   3.025   1.094  11.082  0.0607 -0.2586 -0.7729
  492MPD2     H 7370   2.632   1.105  11.060  0.0812 -0.0039  0.4408
  492MPD2    H1 7371   2.987   0.913  11.193  1.2497  0.2026  0.2966
  492MPD2    H2 7372   3.014   1.279  10.978  0.5245 -1.0525 -0.3717
  492MPD2    H3 7373   3.133   1.096  11.086  0.0011 -0.6825  0.7968
  492MPD2     N 7374   2.744   0.888  11.196 -0.1092  1.2450  0.1897
  492MPD2    H5 7375   2.798   0.852  11.273 -0.5518 -0.6149 -0.3714
  492MPD2    N1 7376   2.769   1.326  10.967  0.2298  0.4731  0.6504
  492MPD2    H7 7377   2.840   1.381  10.918 -0.3742  1.3160  0.7197
  493TMC3    C1 7378   2.610   1.490  10.898  0.5290  0.3181  0.0173
  493TMC3    C2 7379   2.718   1.567  10.866 -0.4179  0.1882  0.0121
  493TMC3    C3 7380   2.725   1.647  10.752  0.0492  0.9861  0.0398
  493TMC3    C4 7381   2.502   1.496  10.807 -0.0407 -0.5454  0.4957
  493TMC3    C5 7382   2.516   1.572  10.691  0.0271  0.1935 -0.0662
  493TMC3    C6 7383   2.620   1.648  10.662  0.1596  1.0326  1.0619
  493TMC3     C 7384   2.633   1.359  10.960  0.0431 -0.5552 -0.5391
  493TMC3     O 7385   2.532   1.304  11.004  0.2758 -0.6544 -0.2055
  493TMC3     H 7386   2.802   1.558  10.935  0.2211 -0.6489 -0.8777
  493TMC3    H1 7387   2.418   1.429  10.825  0.3660 -0.8235  1.3226
  493TMC3    H2 7388   2.611   1.715  10.578  0.8306 -1.0786 -0.6907
  493TMC3    C7 7389   2.400   1.569  10.609  0.2502 -0.8506 -0.4516
  493TMC3    C8 7390   2.826   1.754  10.743 -0.1558 -0.0475 -0.3837
  493TMC3    O1 7391   2.294   1.521  10.650  0.0159 -0.1329 -0.7882
  493TMC3    O2 7392   2.804   1.849  10.673  0.6160  0.0259  0.4386
  494TMC3    C1 7393   3.149   2.331   0.503  0.3224  0.4945  0.5816
  494TMC3    C2 7394   3.236   2.246   0.568 -0.1403  0.2257  0.2253
  494TMC3    C3 7395   3.347   2.211   0.500  0.1115  0.0526 -0.6678
  494TMC3    C4 7396   3.185   2.377   0.382 -0.4392  0.5714 -0.2736
  494TMC3    C5 7397   3.291   2.327   0.319  0.0732 -0.5949  0.3551
  494TMC3    C6 7398   3.388   2.254   0.377 -0.8250 -0.6040  0.5709
  494TMC3     C 7399   3.089   2.434   0.578  0.6744  0.0744  0.3326
  494TMC3     O 7400   2.984   2.407   0.636  0.1141  0.3164 -0.2311
  494TMC3     H 7401   3.212   2.229   0.673 -0.5909  1.2798  0.2939
  494TMC3    H1 7402   3.128   2.461   0.343 -1.3186  1.5100  3.0097
  494TMC3    H2 7403   3.457   2.200   0.313 -0.4038  2.6972 -1.7875
  494TMC3    C7 7404   3.326   2.400   0.197  0.2740 -0.6732 -0.1274
  494TMC3    C8 7405   3.446   2.139   0.575 -0.1961 -0.2236 -0.3047
  494TMC3    O1 7406   3.440   2.423   0.178  0.2815 -0.3718  0.2811
  494TMC3    O2 7407   3.563   2.139   0.542  0.6487 -0.4504  0.1623
  495TMC3    C1 7408   2.159   0.279  14.907 -0.3602  0.0947  0.0268
  495TMC3    C2 7409   2.106   0.390  14.840  0.7105  0.5240  0.3804
  495TMC3    C3 7410   1.986   0.439  14.888  0.0518 -0.0113  0.5542
  495TMC3    C4 7411   2.129   0.248  15.031 -0.5166 -0.2117  0.2093
  495TMC3    C5 7412   2.009   0.301  15.077 -1.2171  0.4214  0.4804
  495TMC3    C6 7413   1.929   0.394  15.001 -0.6314 -0.2767 -0.3492
  495TMC3     C 7414   2.170   0.165  14.823  0.1448 -0.6572  0.7795
  495TMC3     O 7415   2.118   0.064  14.863 -0.5941  0.1288 -0.0796
  495TMC3     H 7416   2.157   0.433  14.755  0.9855 -0.7609 -0.1054
  495TMC3    H1 7417   2.167   0.156  15.074 -0.2751 -0.8489 -1.3536
  495TMC3    H2 7418   1.833   0.427  15.039 -0.8534 -0.9233 -0.3495
  495TMC3    C7 7419   1.982   0.278  15.218 -0.0760 -0.0189 -1.0507
  495TMC3    C8 7420   1.900   0.480  14.779 -0.4962 -0.4759 -0.3932
  495TMC3    O1 7421   2.064   0.214  15.277 -0.2837 -0.6242 -0.0602
  495TMC3    O2 7422   1.958   0.528  14.685 -0.6086  0.0457  0.3378
  496MPD2     C 7423   4.049   0.164  15.927  0.4786  1.0358 -0.8943
  496MPD2    C1 7424   4.024   0.087  15.809  0.3696  0.4462  0.4230
  496MPD2    C2 7425   3.895   0.042  15.783  0.6134 -0.4945 -0.1269
  496MPD2    C3 7426   3.792   0.065  15.872 -0.9608  0.6961 -0.8235
  496MPD2    C4 7427   3.823   0.137  15.987 -0.0421 -0.2146 -0.3178
  496MPD2    C5 7428   3.944   0.191  16.018  0.7396 -0.1620  0.1819
  496MPD2     H 7429   3.876   4.732  15.686  0.2077  0.4069 -0.4502
  496MPD2    H1 7430   3.754   0.152  16.069 -0.1746  1.7169 -0.7836
  496MPD2    H2 7431   4.147   0.197  15.957  0.8246  0.0494 -0.9304
  496MPD2    H3 7432   3.953   0.239  16.115  0.2787  1.4990 -0.5841
  496MPD2     N 7433   3.673   4.732  15.858 -0.2187  0.2463  0.1509
  496MPD2    H5 7434   3.613   4.716  15.939 -0.4514  1.1730  0.1560
  496MPD2    N1 7435   4.137   0.049  15.727  0.3621 -0.1503 -0.2336
  496MPD2    H7 7436   4.226   0.091  15.750 -0.3814  1.1290  0.3390
  497TMC3    C1 7437   3.547   4.564  15.756 -0.4977  0.8319  0.0144
  497TMC3    C2 7438   3.464   4.545  15.648  0.4982  0.2802  0.7661
  497TMC3    C3 7439   3.416   4.418  15.630 -1.0924 -0.2808  0.8216
  497TMC3    C4 7440   3.599   4.461  15.827 -0.5990 -0.4501  0.0232
  497TMC3    C5 7441   3.548   4.332  15.806  0.0502 -0.7214  0.4720
  497TMC3    C6 7442   3.451   4.313  15.709  0.6836 -0.5086 -0.6286
  497TMC3     C 7443   3.638   4.675  15.737 -0.0181  0.2912  0.4618
  497TMC3     O 7444   3.676   4.682  15.625 -0.2309  0.1348  0.2371
  497TMC3     H 7445   3.441   4.625  15.580 -1.7472  0.2215  1.4398
  497TMC3    H1 7446   3.683   4.474  15.894  1.5134 -0.7280 -2.5619
  497TMC3    H2 7447   3.399   4.218  15.705  0.2206 -0.2459 -0.8816
  497TMC3    C7 7448   3.586   4.214  15.885 -0.0295  0.0369  0.2507
  497TMC3    C8 7449   3.341   4.394  15.514 -1.2410  0.5327 -0.5744
  497TMC3    O1 7450   3.505   4.123  15.888  0.7900 -0.3203  0.6274
  497TMC3    O2 7451   3.246   4.318  15.527 -0.1094  0.3439 -0.0671
  498MPD2     C 7452   0.180   1.659  10.567  0.0118  0.9564  0.7357
  498MPD2    C1 7453   0.296   1.593  10.574 -0.8328  0.5238 -0.1489
  498MPD2    C2 7454   0.286   1.456  10.602  0.1765  0.3974 -0.2898
  498MPD2    C3 7455   0.163   1.385  10.614  0.3502 -0.0940 -0.0053
  498MPD2    C4 7456   0.047   1.462  10.611 -0.5473  0.0070 -0.0656
  498MPD2    C5 7457   0.061   1.593  10.581  0.1168 -0.0100  0.2225
  498MPD2     H 7458   0.374   1.391  10.607 -0.5984 -0.6807 -0.6999
  498MPD2    H1 7459   4.680   1.421  10.625  0.1726 -0.9996  2.1145
  498MPD2    H2 7460   0.182   1.762  10.534  0.3172  1.0776  1.1398
  498MPD2    H3 7461   4.706   1.657  10.585 -0.8476 -1.2268 -1.3510
  498MPD2     N 7462   0.162   1.245  10.633  0.6302  0.3718 -0.5613
  498MPD2    H5 7463   0.252   1.201  10.653  1.6389  2.1558 -1.1747
  498MPD2    N1 7464   0.421   1.651  10.558  0.3448 -0.2777 -0.6117
  498MPD2    H7 7465   0.499   1.585  10.555 -0.9871 -1.8564 -0.3163
  499TMC3    C1 7466   0.595   1.823  10.513 -0.1859 -0.6106  0.2946
  499TMC3    C2 7467   0.685   1.719  10.517 -0.1038  0.0803  0.2579
  499TMC3    C3 7468   0.812   1.754  10.501  0.6193 -0.4140 -0.5972
  499TMC3    C4 7469   0.624   1.953  10.488 -0.1008 -0.3047  0.6511
  499TMC3    C5 7470   0.756   1.986  10.488  0.2222  0.7208 -0.1083
  499TMC3    C6 7471   0.851   1.889  10.505 -0.2492 -0.3594  0.1404
  499TMC3     C 7472   0.452   1.784  10.524  0.3476 -1.1462  0.7870
  499TMC3     O 7473   0.371   1.880  10.523  0.1028  0.4128  0.1581
  499TMC3     H 7474   0.666   1.614  10.538 -1.6749  0.7765  2.2347
  499TMC3    H1 7475   0.551   2.032  10.492 -0.3212 -0.4815  0.1038
  499TMC3    H2 7476   0.954   1.919  10.518  0.2168 -1.8516 -0.1435
  499TMC3    C7 7477   0.798   2.083  10.390 -0.5628  0.1490  0.5871
  499TMC3    C8 7478   0.893   1.654  10.431 -0.8738 -0.0724 -0.0180
  499TMC3    O1 7479   0.915   2.068  10.358 -0.0561 -0.0823  0.1267
  499TMC3    O2 7480   0.865   1.533  10.437 -0.4886 -1.1147 -0.0319
  500MPD2     C 7481   1.978   2.259  10.807 -0.2091  0.4669 -0.2836
  500MPD2    C1 7482   2.030   2.381  10.766 -0.0128 -0.2295  1.1250
  500MPD2    C2 7483   1.958   2.448  10.669 -0.0152 -0.7363  0.5064
  500MPD2    C3 7484   1.850   2.397  10.607 -0.7478  0.1965  0.0924
  500MPD2    C4 7485   1.798   2.281  10.654  0.0613  0.0876 -0.1143
  500MPD2    C5 7486   1.864   2.209  10.751  0.5282 -0.3022 -0.2474
  500MPD2     H 7487   1.996   2.543  10.631 -1.6009  0.0925  0.9967
  500MPD2    H1 7488   1.710   2.234  10.613 -0.0612  0.8919 -0.7608
  500MPD2    H2 7489   2.020   2.192  10.882 -2.2898  1.5517  1.8386
  500MPD2    H3 7490   1.817   2.124  10.799  0.5757  0.6956  1.5515
  500MPD2     N 7491   1.785   2.463  10.498  0.9008 -0.3841 -0.0359
  500MPD2    H5 7492   1.686   2.446  10.485  0.8968 -1.2763  1.2581
  500MPD2    N1 7493   2.139   2.442  10.827  0.8791  0.3677 -0.4668
  500MPD2    H7 7494   2.161   2.537  10.797  0.8912  0.2613 -0.7927
  501TMC3    C1 7495   2.350   2.472  10.921 -0.4970  0.0077 -0.2896
  501TMC3    C2 7496   2.360   2.604  10.876  0.7274 -0.2189 -0.7035
  501TMC3    C3 7497   2.487   2.656  10.875  0.0597 -0.0815 -0.3832
  501TMC3    C4 7498   2.451   2.412  10.995  0.5837  0.3922  0.2523
  501TMC3    C5 7499   2.576   2.461  10.976  0.4357 -0.4320  0.3247
  501TMC3    C6 7500   2.589   2.581  10.912  0.1316  0.5345 -0.1771
  501TMC3     C 7501   2.237   2.385  10.903  0.0145 -0.8875 -0.0588
  501TMC3     O 7502   2.251   2.271  10.941 -0.3113 -0.0365 -0.4419
  501TMC3     H 7503   2.274   2.658  10.837  0.3805 -1.0749 -1.1306
  501TMC3    H1 7504   2.447   2.307  11.021 -2.5330  0.1524 -1.3303
  501TMC3    H2 7505   2.686   2.626  10.897  0.9680 -1.8701 -2.0673
  501TMC3    C7 7506   2.694   2.379  10.995 -0.5438  0.1493 -0.0577
  501TMC3    C8 7507   2.508   2.793  10.841  0.2243 -0.1121 -0.3829
  501TMC3    O1 7508   2.679   2.258  11.007 -0.8525 -0.0371  0.4247
  501TMC3    O2 7509   2.615   2.841  10.868  0.3387  0.3449 -0.5741
  502TMC3    C1 7510   1.681   1.127  15.031 -0.6658  0.0484 -0.2472
  502TMC3    C2 7511   1.643   1.258  15.024  0.4224  0.2215 -0.0385
  502TMC3    C3 7512   1.514   1.289  15.061  0.0820 -0.1735 -0.7314
  502TMC3    C4 7513   1.584   1.037  15.054 -0.2589 -0.0342  0.7066
  502TMC3    C5 7514   1.456   1.072  15.093  0.2509 -0.1323  0.0845
  502TMC3    C6 7515   1.419   1.204  15.099 -0.5295 -0.0562 -0.0625
  502TMC3     C 7516   1.793   1.118  15.124  0.0438 -0.3321  0.0511
  502TMC3     O 7517   1.883   1.201  15.112 -0.3919  0.2024  0.2850
  502TMC3     H 7518   1.713   1.340  15.015  0.8869 -0.2214 -0.4395
  502TMC3    H1 7519   1.618   0.934  15.051 -1.9357 -0.5828  0.5991
  502TMC3    H2 7520   1.316   1.223  15.125  0.3630  3.6858  0.7917
  502TMC3    C7 7521   1.398   0.969  15.184 -0.3303  0.0544  0.1729
  502TMC3    C8 7522   1.498   1.436  15.063 -0.2133  0.5257  0.4829
  502TMC3    O1 7523   1.483   0.891  15.222  0.0479  0.8324  0.3650
  502TMC3    O2 7524   1.574   1.503  14.992 -0.9200 -0.9869  0.5000
  503MPD2     C 7525   4.088   1.689  17.083  0.6496  0.4849  0.3220
  503MPD2    C1 7526   4.061   1.722  17.219  0.6489 -0.1317  0.8555
  503MPD2    C2 7527   4.110   1.627  17.309  0.7055  0.2038 -0.6492
  503MPD2    C3 7528   4.174   1.510  17.273  0.7188 -0.1303 -0.2706
  503MPD2    C4 7529   4.165   1.475  17.141  0.0488  0.6083 -0.3758
  503MPD2    C5 7530   4.127   1.564  17.046 -0.5617  0.2123 -0.0779
  503MPD2     H 7531   4.120   1.645  17.416 -0.8598 -0.4968 -0.3874
  503MPD2    H1 7532   4.211   1.385  17.102  2.5592  1.6401  0.1379
  503MPD2    H2 7533   4.077   1.760  17.002 -0.7818 -0.3825 -0.2384
  503MPD2    H3 7534   4.140   1.544  16.941 -1.7240 -2.0797  0.2251
  503MPD2     N 7535   4.239   1.434  17.369  0.0984 -0.0191 -0.4415
  503MPD2    H5 7536   4.249   1.477  17.460 -3.2092  0.7355 -0.4181
  503MPD2    N1 7537   4.011   1.846  17.263 -0.2451 -0.1768 -0.0809
  503MPD2    H7 7538   4.020   1.872  17.360  1.0862 -1.4417  0.1334
  504TMC3    C1 7539   4.324   1.219  17.441  0.0317 -0.9087 -0.6212
  504TMC3    C2 7540   4.209   1.197  17.522  0.9002  0.1704  0.1542
  504TMC3    C3 7541   4.198   1.071  17.578 -0.0742  0.2635  0.0442
  504TMC3    C4 7542   4.413   1.114  17.415 -0.5158  0.0405  0.1059
  504TMC3    C5 7543   4.384   0.994  17.471  0.4934 -0.3438 -0.4265
  504TMC3    C6 7544   4.281   0.970  17.556 -1.0419 -0.0277  0.0587
  504TMC3     C 7545   4.308   1.318  17.331 -0.0973 -0.5618  0.1962
  504TMC3     O 7546   4.377   1.297  17.233  0.1702  0.2712  0.2207
  504TMC3     H 7547   4.147   1.279  17.556  2.3846  0.0026  3.2971
  504TMC3    H1 7548   4.484   1.128  17.334  0.0410  3.4774  1.1931
  504TMC3    H2 7549   4.271   0.875  17.607 -3.7423  0.2635  0.0384
  504TMC3    C7 7550   4.405   0.891  17.372  0.1768 -0.2993  0.1395
  504TMC3    C8 7551   4.142   1.068  17.712  0.5471  0.1202  0.4761
  504TMC3    O1 7552   4.427   0.923  17.255 -0.1164 -0.0013 -0.8501
  504TMC3    O2 7553   4.030   1.104   0.008 -0.0235  0.1251  0.0938
  505MPD2     C 7554   4.466   0.372  11.161 -0.6369 -0.1956  0.1093
  505MPD2    C1 7555   4.503   0.243  11.192  0.0572  0.3500 -0.8645
  505MPD2    C2 7556   4.611   0.227  11.284 -0.2422  0.4785  0.7178
  505MPD2    C3 7557   4.663   0.336  11.350  0.1634 -0.3680  0.8321
  505MPD2    C4 7558   4.622   0.467  11.310  0.6016  0.6447  0.7368
  505MPD2    C5 7559   4.526   0.487  11.213  0.1988 -0.2450 -0.5326
  505MPD2     H 7560   4.650   0.135  11.326 -2.8891 -0.2888  1.5028
  505MPD2    H1 7561   4.657   0.552  11.368  1.2038  0.4785  0.6194
  505MPD2    H2 7562   4.389   0.380  11.085  0.7158 -0.4766 -1.3000
  505MPD2    H3 7563   4.498   0.583  11.171  1.4819 -0.1272 -1.1210
  505MPD2     N 7564   0.027   0.309  11.455  0.7219  0.2026 -0.0395
  505MPD2    H5 7565   0.061   0.214  11.452  2.4793  0.8508 -0.6073
  505MPD2    N1 7566   4.440   0.135  11.123 -0.9379 -0.2938  0.2238
  505MPD2    H7 7567   4.357   0.152  11.069 -0.9247  0.1616  0.3527
  506TMC3    C1 7568   4.471   4.665  11.021 -0.3010 -0.8279  0.0769
  506TMC3    C2 7569   4.479   4.731  10.896 -0.8671 -0.4228 -0.3997
  506TMC3    C3 7570   4.522   4.670  10.784 -0.2734  0.1217  0.4617
  506TMC3    C4 7571   4.510   4.535  11.017 -1.2054 -0.8675  0.3394
  506TMC3    C5 7572   4.555   4.480  10.903  0.1055 -0.3547 -0.0640
  506TMC3    C6 7573   4.565   4.541  10.777 -0.1383  0.1250  0.7166
  506TMC3     C 7574   4.492   0.009  11.141  0.3761 -0.3114  0.1041
  506TMC3     O 7575   4.571   4.696  11.221 -0.4993 -0.4708  0.5983
  506TMC3     H 7576   4.455   0.103  10.883 -0.8013 -0.4565 -0.8042
  506TMC3    H1 7577   4.513   4.476  11.108 -1.3933 -0.9704  0.2787
  506TMC3    H2 7578   4.624   4.506  10.693  1.3084 -1.8205  2.5391
  506TMC3    C7 7579   4.687   4.420  10.915  0.1206 -0.0129 -0.1274
  506TMC3    C8 7580   4.531   0.015  10.664 -0.4874  0.2537  0.1815
  506TMC3    O1 7581   0.002   4.335  10.845 -0.5881  0.8349  0.4692
  506TMC3    O2 7582   4.505   4.693  10.558  0.0267  0.3051 -0.0529
  507TMC3    C1 7583   0.425   0.810  14.758  0.9390  0.7102  0.6207
  507TMC3    C2 7584   0.360   0.730  14.669 -0.0099  0.3486  0.9275
  507TMC3    C3 7585   0.427   0.692  14.556 -0.2538  0.2877 -0.8010
  507TMC3    C4 7586   0.539   0.876  14.725  0.5085  0.3043  0.0879
  507TMC3    C5 7587   0.598   0.857  14.600 -0.4100 -0.1943  0.0593
  507TMC3    C6 7588   0.548   0.758  14.526 -0.0241 -0.0417 -0.1104
  507TMC3     C 7589   0.359   0.865  14.871 -0.4671 -0.0612  0.1896
  507TMC3     O 7590   0.436   0.906  14.961  0.0070 -0.3946 -0.4036
  507TMC3     H 7591   0.261   0.693  14.694  0.3520 -1.3341 -0.1184
  507TMC3    H1 7592   0.591   0.947  14.788  0.9429 -0.6307  0.7994
  507TMC3    H2 7593   0.593   0.742  14.429 -0.7623 -0.4943 -0.3759
  507TMC3    C7 7594   0.620   0.968  14.514 -0.3911  0.2719  1.1080
  507TMC3    C8 7595   0.338   0.672  14.446  0.1842  0.4189  0.1075
  507TMC3    O1 7596   0.634   0.944  14.392 -0.0650  0.5341  0.4669
  507TMC3    O2 7597   0.217   0.688  14.466  0.2425  0.2551 -0.1664
  508MPD2     C 7598   0.956   3.064  15.673 -0.3320  0.7664  1.1208
  508MPD2    C1 7599   1.069   3.133  15.721  0.3642  0.0859  0.6202
  508MPD2    C2 7600   1.110   3.253  15.660 -0.6581 -0.5146 -1.0893
  508MPD2    C3 7601   1.045   3.310  15.559  0.3958 -0.3099 -0.1120
  508MPD2    C4 7602   0.925   3.250  15.514  0.6283  0.5020  0.2372
  508MPD2    C5 7603   0.897   3.122  15.567 -0.6634 -0.2191 -0.0018
  508MPD2     H 7604   1.201   3.304  15.690 -1.8252  1.8243 -1.5294
  508MPD2    H1 7605   0.868   3.279  15.426 -1.5936  0.1236  1.5812
  508MPD2    H2 7606   0.917   2.971  15.715 -0.9170  0.2398 -0.5676
  508MPD2    H3 7607   0.811   3.070  15.526 -0.4563 -0.0844 -0.6041
  508MPD2     N 7608   1.091   3.436  15.519  0.3418  0.5485  0.5143
  508MPD2    H5 7609   1.179   3.471  15.556  1.4987 -1.8105 -0.0078
  508MPD2    N1 7610   1.125   3.089  15.846 -1.0689  0.8538  0.2268
  508MPD2    H7 7611   1.091   3.002  15.884  1.0147  0.1424  0.4444
  509TMC3    C1 7612   1.030   3.864  15.349 -0.2445  0.0573 -0.0702
  509TMC3    C2 7613   1.107   3.921  15.446 -0.3056  0.1828 -0.0893
  509TMC3    C3 7614   1.166   3.838  15.531  0.1144 -0.1053  0.9226
  509TMC3    C4 7615   1.023   3.730  15.332  0.1908  0.0668 -0.1115
  509TMC3    C5 7616   1.081   3.652  15.430 -0.1466  0.1442 -0.0701
  509TMC3    C6 7617   1.153   3.703  15.535  0.8173 -0.1039 -0.6428
  509TMC3     C 7618   0.953   3.952  15.263 -0.1354 -0.4727 -0.1518
  509TMC3     O 7619   0.942   3.904  15.150  0.7895  0.4447 -0.0584
  509TMC3     H 7620   1.131   4.027  15.435  1.2398 -0.0379  1.3198
  509TMC3    H1 7621   0.974   3.691  15.244 -2.0958  0.4103  1.0085
  509TMC3    H2 7622   1.199   3.649  15.617 -1.1714  0.2963  0.7170
  509TMC3    C7 7623   1.026   3.520  15.434 -0.1495  0.2047  0.0441
  509TMC3    C8 7624   1.243   3.893  15.636  0.4498  0.1550 -0.2904
  509TMC3    O1 7625   0.932   3.490  15.359  0.1581  0.2070  0.1296
  509TMC3    O2 7626   1.308   3.822  15.712  0.6516  0.3643  0.1566
  510MPD2     C 7627   3.412   0.305  14.430  0.8141 -0.1065 -0.4594
  510MPD2    C1 7628   3.414   0.304  14.568 -0.4211  0.2745  0.1215
  510MPD2    C2 7629   3.534   0.347  14.625 -0.1039 -0.2023  0.3386
  510MPD2    C3 7630   3.645   0.381  14.550  0.2106 -0.4632  0.3805
  510MPD2    C4 7631   3.637   0.397  14.409 -0.1794 -0.0502 -0.3851
  510MPD2    C5 7632   3.511   0.360  14.361 -0.3270  0.1012  0.7199
  510MPD2     H 7633   3.534   0.348  14.734 -1.4742 -3.3836  0.3637
  510MPD2    H1 7634   3.713   0.441  14.346 -0.1362 -0.7237 -0.8054
  510MPD2    H2 7635   3.328   0.281  14.366  0.9643 -1.7484 -0.0278
  510MPD2    H3 7636   3.491   0.374  14.255  0.8960 -1.8373  0.2324
  510MPD2     N 7637   3.763   0.402  14.621 -0.1985 -0.2424  0.0581
  510MPD2    H5 7638   3.760   0.384  14.721 -0.2652 -1.0549 -0.0958
  510MPD2    N1 7639   3.294   0.266  14.638  0.3338  0.4184  0.0085
  510MPD2    H7 7640   3.218   0.229  14.582  0.9756  1.7348 -1.7467
  511TMC3    C1 7641   3.153   0.227  14.816  0.4646 -0.1788  0.2698
  511TMC3    C2 7642   3.085   0.294  14.923 -0.1027 -0.8492 -1.2128
  511TMC3    C3 7643   2.974   0.232  14.977 -1.0052 -0.0162  0.5533
  511TMC3    C4 7644   3.136   0.098  14.790  0.2269  0.4889 -0.1443
  511TMC3    C5 7645   3.039   0.031  14.861  0.0618  0.0338 -0.4994
  511TMC3    C6 7646   2.944   0.102  14.941  0.5908 -0.1900 -0.0836
  511TMC3     C 7647   3.272   0.292  14.772 -0.2158  0.3627 -0.4068
  511TMC3     O 7648   3.322   0.377  14.845  0.3869  0.0946 -0.6254
  511TMC3     H 7649   3.113   0.394  14.954  2.0382 -2.0685  0.7497
  511TMC3    H1 7650   3.173   0.044  14.704  0.2077 -3.4940  2.3680
  511TMC3    H2 7651   2.862   0.047  14.985 -1.5172  0.1678 -3.5823
  511TMC3    C7 7652   3.017   4.620  14.833 -0.0664 -0.4777 -0.1633
  511TMC3    C8 7653   2.895   0.303  15.077  0.3224 -0.0373  0.6755
  511TMC3    O1 7654   3.088   4.575  14.744 -0.1371  0.2074 -0.0654
  511TMC3    O2 7655   2.948   0.395  15.131  0.5668  0.4823 -0.6034
  512TMC3    C1 7656   2.053   4.477  13.766  0.7212  0.6657  0.7592
  512TMC3    C2 7657   2.182   4.457  13.737 -0.1845 -0.1886 -0.4798
  512TMC3    C3 7658   2.219   4.329  13.715 -0.3129 -0.1517  0.5383
  512TMC3    C4 7659   1.967   4.375  13.779 -0.8054  0.8243 -0.1258
  512TMC3    C5 7660   2.006   4.249  13.755  0.1366 -0.1943  0.5920
  512TMC3    C6 7661   2.131   4.220  13.716 -0.5293 -0.6649  0.4010
  512TMC3     C 7662   1.997   4.613  13.739 -0.4415  0.0179 -0.4335
  512TMC3     O 7663   2.064   4.674  13.658 -0.6160  0.6491  0.1705
  512TMC3     H 7664   2.240   4.548  13.728 -2.0825  1.2245  1.4622
  512TMC3    H1 7665   1.862   4.379  13.806 -0.6563 -2.3889  0.9754
  512TMC3    H2 7666   2.175   4.122  13.703 -1.4584 -1.1234  0.7649
  512TMC3    C7 7667   1.919   4.142  13.785 -0.3247  0.0509 -0.8135
  512TMC3    C8 7668   2.359   4.302  13.673  0.2800 -0.9793  0.4141
  512TMC3    O1 7669   1.835   4.160  13.870 -0.5442 -0.5746 -0.1883
  512TMC3    O2 7670   2.389   4.182  13.657  0.2043 -0.0106 -0.0100
  513MPD2     C 7671   3.964   4.386  13.022 -0.0254 -0.4365  0.0610
  513MPD2    C1 7672   4.085   4.454  13.034  0.5418 -0.5782  0.1204
  513MPD2    C2 7673   4.158   4.465  13.155 -0.9851  0.5223  0.3052
  513MPD2    C3 7674   4.107   4.405  13.271 -0.0282 -0.8808  0.1490
  513MPD2    C4 7675   3.985   4.335  13.261  0.0389 -1.3581 -0.0216
  513MPD2    C5 7676   3.921   4.316  13.134 -0.1631  0.2972 -0.0072
  513MPD2     H 7677   4.253   4.518  13.167 -1.5939  2.0701 -1.6863
  513MPD2    H1 7678   3.952   4.262  13.334 -0.3162 -0.1477  1.0185
  513MPD2    H2 7679   3.905   4.372  12.932 -0.1698 -0.1899  0.1135
  513MPD2    H3 7680   3.847   4.237  13.135 -2.4320  2.4407  1.3869
  513MPD2     N 7681   4.183   4.428  13.387 -0.6522  0.1220 -0.2384
  513MPD2    H5 7682   4.255   4.499  13.388 -0.8495  0.3399 -1.9621
  513MPD2    N1 7683   4.141   4.537  12.935 -0.1056 -0.2469  0.4811
  513MPD2    H7 7684   4.234   4.577  12.946 -0.6999  1.3138 -0.2170
  514TMC3    C1 7685   4.147   4.707  12.772 -0.0571  0.0416  0.5973
  514TMC3    C2 7686   4.143   0.016  12.636 -0.7830  0.1902  0.7521
  514TMC3    C3 7687   4.172   0.148  12.607 -0.0991 -1.1347 -0.2752
  514TMC3    C4 7688   4.197   0.060  12.867 -1.0033 -0.0955 -0.0360
  514TMC3    C5 7689   4.246   0.187  12.828  0.5068  0.2973 -0.7281
  514TMC3    C6 7690   4.234   0.230  12.698  0.2676 -0.3507  0.1615
  514TMC3     C 7691   4.080   4.580  12.814 -1.1080 -0.4517 -0.2446
  514TMC3     O 7692   3.982   4.534  12.756  0.2305 -0.0583  0.3579
  514TMC3     H 7693   4.094   4.673  12.576  0.1036  2.2030 -2.5062
  514TMC3    H1 7694   4.195   0.026  12.970 -0.1990  0.2676  0.1038
  514TMC3    H2 7695   4.269   0.331  12.676  2.3706 -0.6854  2.0339
  514TMC3    C7 7696   4.335   0.259  12.918  0.7535 -0.2351 -0.2417
  514TMC3    C8 7697   4.156   0.192  12.472  0.3125  0.7413  0.0945
  514TMC3    O1 7698   4.357   0.377  12.907  0.3937  0.5874 -0.2065
  514TMC3    O2 7699   4.153   0.315  12.465 -0.1180 -0.0656  0.0151
  515MPD2     C 7700   2.523   1.474  15.094 -0.7088  0.3935 -0.3212
  515MPD2    C1 7701   2.518   1.519  14.967 -0.0338  0.1606 -0.3457
  515MPD2    C2 7702   2.587   1.630  14.934 -0.3759  0.5824  0.0014
  515MPD2    C3 7703   2.668   1.699  15.027 -0.7200  0.5135  0.7533
  515MPD2    C4 7704   2.671   1.647  15.157  0.4492 -0.0871  0.4362
  515MPD2    C5 7705   2.593   1.538  15.191  0.1774 -0.2279  0.1852
  515MPD2     H 7706   2.585   1.653  14.829  0.9738 -1.1461 -0.3982
  515MPD2    H1 7707   2.729   1.691  15.238  0.7837  3.7711 -1.9278
  515MPD2    H2 7708   2.467   1.384  15.117 -0.3379 -0.2674 -1.9726
  515MPD2    H3 7709   2.590   1.501  15.292 -0.3939 -1.8878 -0.4353
  515MPD2     N 7710   2.755   1.806  15.005  0.2597  0.5591  0.1454
  515MPD2    H5 7711   2.810   1.830  15.088 -0.4608 -0.1003  0.8087
  515MPD2    N1 7712   2.463   1.446  14.865  0.5760 -0.6146  0.4773
  515MPD2    H7 7713   2.439   1.497  14.781 -0.1608 -0.1879  0.9448
  516TMC3    C1 7714   2.361   1.263  14.756 -1.0498  0.7977  0.4365
  516TMC3    C2 7715   2.275   1.354  14.697 -0.5933 -0.4827  0.2109
  516TMC3    C3 7716   2.171   1.306  14.628  0.8667  0.3782  0.1574
  516TMC3    C4 7717   2.333   1.127  14.745  0.2245 -0.1459 -0.2643
  516TMC3    C5 7718   2.224   1.082  14.680 -0.3234 -0.3689 -0.8665
  516TMC3    C6 7719   2.140   1.170  14.623  0.2672 -0.2777  0.1814
  516TMC3     C 7720   2.433   1.314  14.876  0.3800  0.0489  0.6676
  516TMC3     O 7721   2.469   1.235  14.959  0.0188 -0.3779  0.1183
  516TMC3     H 7722   2.269   1.459  14.723  2.2220  0.1129 -1.5472
  516TMC3    H1 7723   2.388   1.047  14.792  0.7480 -0.1675 -0.9124
  516TMC3    H2 7724   2.049   1.148  14.568 -0.5366  0.5033  1.1954
  516TMC3    C7 7725   2.168   0.961  14.749  0.4106 -0.3435 -0.2185
  516TMC3    C8 7726   2.074   1.383  14.553  0.6093 -0.4540 -0.1667
  516TMC3    O1 7727   2.246   0.883  14.799 -0.4693 -0.3249  0.2049
  516TMC3    O2 7728   1.955   1.344  14.545  0.0669 -0.6046  0.3002
  517MPD2     C 7729   2.241   2.997  17.146 -0.3453 -0.0380 -0.0997
  517MPD2    C1 7730   2.305   2.945  17.255 -0.2823 -0.1663 -0.2267
  517MPD2    C2 7731   2.341   3.024  17.362 -0.8655  0.2825  0.5182
  517MPD2    C3 7732   2.303   3.155  17.372  0.3225 -0.3477 -0.5878
  517MPD2    C4 7733   2.231   3.212  17.262 -0.2379  0.5071 -0.9240
  517MPD2    C5 7734   2.218   3.128  17.148  0.7781 -0.1213  0.1077
  517MPD2     H 7735   2.394   2.977  17.444  0.5338 -1.1939 -1.2289
  517MPD2    H1 7736   2.188   3.312  17.265  2.0732  1.5123 -0.7812
  517MPD2    H2 7737   2.227   2.950  17.049 -2.0123  1.1975 -0.4408
  517MPD2    H3 7738   2.166   3.165  17.061  1.3436 -3.8487 -1.8120
  517MPD2     N 7739   2.329   3.241  17.484  0.7244  0.4445  0.0858
  517MPD2    H5 7740   2.299   3.338  17.480  0.3041  0.2858 -0.5956
  517MPD2    N1 7741   2.339   2.806  17.267  0.1549  0.0418 -0.1955
  517MPD2    H7 7742   2.392   2.777  17.348 -0.7557 -3.3262 -0.7902
  518TMC3    C1 7743   2.387   2.587  17.203  0.5245 -0.4040 -0.5640
  518TMC3    C2 7744   2.324   2.465  17.193  0.0999 -0.6196 -0.4895
  518TMC3    C3 7745   2.399   2.353  17.216  0.4935 -0.0059 -0.0315
  518TMC3    C4 7746   2.520   2.604  17.239 -0.5775  0.4192 -0.2447
  518TMC3    C5 7747   2.590   2.488  17.261 -0.0275  0.1486  0.0104
  518TMC3    C6 7748   2.533   2.359  17.248 -0.1330 -0.9333 -0.8320
  518TMC3     C 7749   2.310   2.707  17.177 -0.7333 -0.2274  0.3469
  518TMC3     O 7750   2.217   2.697  17.105 -0.1274  0.2214  0.1664
  518TMC3     H 7751   2.233   2.457  17.134  0.0143 -0.0327 -0.4348
  518TMC3    H1 7752   2.562   2.704  17.246 -2.5398  1.1176  1.3467
  518TMC3    H2 7753   2.575   2.266  17.285 -3.0865 -1.3868  1.3431
  518TMC3    C7 7754   2.737   2.500  17.285 -0.7040 -0.2959  0.9461
  518TMC3    C8 7755   2.327   2.230  17.208 -0.2617 -0.0724 -0.0785
  518TMC3    O1 7756   2.778   2.614  17.278 -0.7367 -0.1172 -0.0905
  518TMC3    O2 7757   2.395   2.130  17.187  0.4899 -0.3148 -0.2103
  519MPD2     C 7758   3.718   1.283  14.501  0.0568  0.3854 -0.4837
  519MPD2    C1 7759   3.707   1.290  14.364  0.2173 -0.2172 -0.0921
  519MPD2    C2 7760   3.796   1.217  14.289  0.7879  0.3315  0.8741
  519MPD2    C3 7761   3.898   1.147  14.342  0.2250 -0.0499  0.1623
  519MPD2    C4 7762   3.913   1.154  14.478 -0.3826  0.4197 -0.2265
  519MPD2    C5 7763   3.822   1.217  14.555  0.0524  0.2438  0.3663
  519MPD2     H 7764   3.783   1.220  14.181 -0.8729 -1.5654  1.0148
  519MPD2    H1 7765   3.993   1.101  14.529  0.1202  1.1602 -0.2525
  519MPD2    H2 7766   3.663   1.344  14.572  1.9496  1.1086  0.3885
  519MPD2    H3 7767   3.841   1.208  14.662 -2.5207  2.1778  0.9814
  519MPD2     N 7768   3.996   1.082  14.256  0.4167  0.1403  0.1000
  519MPD2    H5 7769   4.076   1.035  14.299  0.0067  1.6290  2.5212
  519MPD2    N1 7770   3.615   1.382  14.311  0.3710 -0.1716  0.4258
  519MPD2    H7 7771   3.552   1.428  14.377 -0.4438  0.2697 -0.6516
  520TMC3    C1 7772   4.111   1.030  14.060  0.6869 -0.1306 -0.2058
  520TMC3    C2 7773   4.122   1.066  13.935 -0.2990 -0.1939  0.4437
  520TMC3    C3 7774   4.228   1.023  13.867 -0.7065  0.0256  0.3915
  520TMC3    C4 7775   4.195   0.937  14.116 -0.5061  0.2368 -0.1061
  520TMC3    C5 7776   4.302   0.889  14.042 -1.0438 -0.1525  0.0584
  520TMC3    C6 7777   4.319   0.936  13.915  0.6352 -0.0219  0.4015
  520TMC3     C 7778   3.989   1.078  14.119 -0.4834 -1.2262 -0.0118
  520TMC3     O 7779   3.907   1.122  14.037 -0.4621  0.2290 -0.0462
  520TMC3     H 7780   4.057   1.136  13.884 -0.3783  0.4069  1.3702
  520TMC3    H1 7781   4.183   0.902  14.217 -1.4499  0.1099 -0.2580
  520TMC3    H2 7782   4.398   0.904  13.848  1.2824 -0.3922  1.3398
  520TMC3    C7 7783   4.374   0.776  14.083 -0.4458  0.6422 -0.5399
  520TMC3    C8 7784   4.212   1.026  13.726  0.0682 -0.5865 -0.1348
  520TMC3    O1 7785   4.368   0.757  14.200  0.6995 -0.0484  0.0341
  520TMC3    O2 7786   4.293   1.083  13.657 -0.3259 -0.0516 -0.2496
  521MPD2     C 7787   0.129   3.721  17.319 -0.1969  0.0709 -0.1362
  521MPD2    C1 7788   0.044   3.628  17.264  0.1245  0.2045 -0.3951
  521MPD2    C2 7789   0.096   3.547  17.159 -0.8348 -0.1616  0.3247
  521MPD2    C3 7790   0.224   3.552  17.119  0.2304 -0.2324 -0.2060
  521MPD2    C4 7791   0.311   3.641  17.178 -0.2306  0.9810 -0.1982
  521MPD2    C5 7792   0.263   3.729  17.277  0.4465  0.9969  0.8148
  521MPD2     H 7793   0.028   3.478  17.110 -0.3978 -0.0445 -0.4409
  521MPD2    H1 7794   0.417   3.648  17.156 -0.5623  2.0520 -1.4465
  521MPD2    H2 7795   0.093   3.789  17.395  0.6527  1.9224 -1.4078
  521MPD2    H3 7796   0.332   3.798  17.324  0.1509  3.8435 -2.9389
  521MPD2     N 7797   0.262   3.465  17.012 -0.1885 -0.5480 -0.3580
  521MPD2    H5 7798   0.190   3.420  16.957 -0.2865 -1.3651  0.4511
  521MPD2    N1 7799   4.647   3.615  17.313 -0.2075 -0.4672 -0.4892
  521MPD2    H7 7800   4.631   3.666  17.399  1.4104  1.8724 -1.5883
  522TMC3    C1 7801   0.412   3.335  16.874  0.4126 -0.2449 -0.1948
  522TMC3    C2 7802   0.529   3.262  16.864 -0.3550 -0.4018 -0.1550
  522TMC3    C3 7803   0.538   3.169  16.768 -0.3635  0.3720  0.0816
  522TMC3    C4 7804   0.307   3.304  16.786 -0.3305 -0.4005  0.2398
  522TMC3    C5 7805   0.319   3.211  16.685  0.0517  0.0049  0.0819
  522TMC3    C6 7806   0.435   3.136  16.685  0.1691 -0.0295 -0.4741
  522TMC3     C 7807   0.397   3.431  16.981 -0.7518 -0.8286 -0.2224
  522TMC3     O 7808   0.503   3.470  17.035  0.1515  0.3582  0.0856
  522TMC3     H 7809   0.608   3.269  16.937 -1.7082 -3.7860  1.6492
  522TMC3    H1 7810   0.214   3.357  16.799 -0.9229 -1.5906  0.8678
  522TMC3    H2 7811   0.448   3.056  16.613  3.6242 -0.1569  0.2964
  522TMC3    C7 7812   0.223   3.186  16.582 -0.8441 -0.3830  0.0270
  522TMC3    C8 7813   0.637   3.062  16.791  0.3789 -0.4052  0.2185
  522TMC3    O1 7814   0.230   3.087  16.515  0.2471 -0.7012  0.1885
  522TMC3    O2 7815   0.650   3.022  16.905  0.1670  0.2600  0.1153
  523MPD2     C 7816   3.320   0.055  10.486  0.5804 -1.2045  0.0223
  523MPD2    C1 7817   3.221   0.008  10.404  0.1590  0.3387 -0.2366
  523MPD2    C2 7818   3.157   0.099  10.311  0.0555  0.8423  0.3922
  523MPD2    C3 7819   3.196   0.227  10.293 -0.4122  0.1473 -0.2195
  523MPD2    C4 7820   3.287   0.271  10.389 -0.5561  0.0328  1.3124
  523MPD2    C5 7821   3.350   0.188  10.472  0.0726  0.0372  0.5703
  523MPD2     H 7822   3.081   0.060  10.245  3.0535 -0.9375 -2.0310
  523MPD2    H1 7823   3.314   0.376  10.397  1.4052 -0.3810  0.0232
  523MPD2    H2 7824   3.369   4.725  10.560  0.5381  1.3247  2.1838
  523MPD2    H3 7825   3.420   0.233  10.541  2.2887 -2.7077  0.1009
  523MPD2     N 7826   3.122   0.327  10.220 -0.4066 -0.2098 -0.4584
  523MPD2    H5 7827   3.149   0.422  10.243 -0.2229 -0.3292 -0.1782
  523MPD2    N1 7828   3.180   4.608  10.430 -0.3448 -0.1066 -0.2072
  523MPD2    H7 7829   3.243   4.550  10.485 -0.4940 -0.8902 -0.8780
  524TMC3    C1 7830   2.951   0.416  10.092 -0.6024  0.2176  0.6972
  524TMC3    C2 7831   3.020   0.530  10.100  0.6172  0.1355 -0.3821
  524TMC3    C3 7832   2.944   0.638  10.060 -0.5009 -0.0943  0.1499
  524TMC3    C4 7833   2.817   0.407  10.056 -0.8887  0.2378  0.1653
  524TMC3    C5 7834   2.747   0.521  10.021  0.0938  0.1283  0.1846
  524TMC3    C6 7835   2.811   0.639  10.034 -0.3658 -0.0760  0.3428
  524TMC3     C 7836   3.018   0.293  10.131  0.0237 -0.8379  0.0130
  524TMC3     O 7837   2.961   0.188  10.103  0.4774  0.1112 -0.8683
  524TMC3     H 7838   3.127   0.527  10.091  0.6668  1.6255 -0.3999
  524TMC3    H1 7839   2.772   0.310  10.039  0.2999 -0.4244  0.7173
  524TMC3    H2 7840   2.757   0.733  10.026 -0.6783 -0.3560 -0.7928
  524TMC3    C7 7841   2.606   0.509   9.999  0.6924 -0.1038  0.0362
  524TMC3    C8 7842   3.015   0.764  10.039  0.0535  0.4408 -0.5239
  524TMC3    O1 7843   2.554   0.409  10.039  0.3765  0.8833 -0.7022
  524TMC3    O2 7844   3.121   0.781  10.100  0.5086  1.0375  0.1290
  525MPD2     C 7845   0.807   0.565  14.772 -0.1684  0.4391 -0.6729
  525MPD2    C1 7846   0.882   0.645  14.854  0.3634  0.2308 -0.3328
  525MPD2    C2 7847   0.969   0.741  14.800 -0.0264  0.4101  0.4465
  525MPD2    C3 7848   0.963   0.768  14.659 -0.2504 -0.4911 -0.0040
  525MPD2    C4 7849   0.885   0.686  14.579 -0.3265  1.2263  0.1135
  525MPD2    C5 7850   0.816   0.581  14.635 -0.4631  0.6698  0.4256
  525MPD2     H 7851   1.032   0.801  14.865  1.9822  1.0902 -2.1322
  525MPD2    H1 7852   0.886   0.693  14.471  0.9245  1.2505  0.1307
  525MPD2    H2 7853   0.739   0.485  14.800  0.3892 -0.4428 -1.8666
  525MPD2    H3 7854   0.780   0.515  14.557 -1.0910  0.6747  0.7064
  525MPD2     N 7855   1.036   0.868  14.591  0.2774  0.1308 -0.0265
  525MPD2    H5 7856   1.021   0.877  14.491 -0.7457  0.2838  0.1454
  525MPD2    N1 7857   0.883   0.621  14.995 -0.0235 -0.1947 -0.5393
  525MPD2    H7 7858   0.967   0.631  15.051  0.1097  0.9895 -0.9389
  526TMC3    C1 7859   0.778   0.499  15.179 -0.5651  0.3368 -0.5966
  526TMC3    C2 7860   0.658   0.466  15.235 -0.8282  0.7569 -0.1407
  526TMC3    C3 7861   0.665   0.407  15.357 -0.3338  0.0565 -0.2825
  526TMC3    C4 7862   0.898   0.478  15.240  0.4122 -0.1389 -0.0378
  526TMC3    C5 7863   0.896   0.418  15.368  0.3818  0.3079 -0.1951
  526TMC3    C6 7864   0.786   0.379  15.422  0.2108  0.0148  0.4452
  526TMC3     C 7865   0.770   0.569  15.056  0.0697  0.1835 -0.0021
  526TMC3     O 7866   0.661   0.571  15.005 -0.3603  0.1622  0.0040
  526TMC3     H 7867   0.566   0.482  15.181 -0.5748 -1.3675 -1.1972
  526TMC3    H1 7868   0.986   0.525  15.198  0.3014 -0.9833 -1.2016
  526TMC3    H2 7869   0.780   0.312  15.507  0.9070  0.5900  0.9545
  526TMC3    C7 7870   1.007   0.340  15.416  0.2363 -0.5778 -0.4624
  526TMC3    C8 7871   0.545   0.383  15.438  0.4674  0.3918 -0.0876
  526TMC3    O1 7872   1.030   0.337  15.531  0.3383  0.1953  0.2610
  526TMC3    O2 7873   0.561   0.342  15.552  0.2582 -0.5496 -0.0719
  527MPD2     C 7874   3.262   3.274   0.973  0.6063  0.1738 -0.2236
  527MPD2    C1 7875   3.284   3.381   0.889  0.0263  0.1956  0.2406
  527MPD2    C2 7876   3.405   3.456   0.907 -0.3239  0.0290 -0.1556
  527MPD2    C3 7877   3.498   3.425   1.008 -0.0312 -0.2448 -0.2695
  527MPD2    C4 7878   3.467   3.319   1.090 -0.1242 -0.0615  0.6179
  527MPD2    C5 7879   3.351   3.254   1.074  0.1595 -0.2750  0.5199
  527MPD2     H 7880   3.426   3.533   0.834 -1.0285  2.0872  1.8251
  527MPD2    H1 7881   3.515   3.309   1.187 -1.2149 -0.2417  1.1477
  527MPD2    H2 7882   3.169   3.219   0.980  0.1111  1.3776  2.8460
  527MPD2    H3 7883   3.324   3.174   1.141 -0.4343 -0.3256  0.2206
  527MPD2     N 7884   3.624   3.494   1.009  0.0167 -0.1467 -0.0992
  527MPD2    H5 7885   3.639   3.565   0.937  0.5784 -0.8750 -0.6984
  527MPD2    N1 7886   3.185   3.431   0.800 -0.0350 -0.2178 -0.0354
  527MPD2    H7 7887   3.210   3.516   0.749  1.3883 -1.7919 -1.9543
  528TMC3    C1 7888   2.990   3.435   0.671  0.9310 -0.0090  0.3334
  528TMC3    C2 7889   2.985   3.571   0.669 -0.2102 -0.1935 -0.0848
  528TMC3    C3 7890   2.886   3.636   0.598  0.3805  0.1080 -0.1032
  528TMC3    C4 7891   2.893   3.361   0.599 -0.5688 -1.3989  0.0139
  528TMC3    C5 7892   2.805   3.433   0.525 -0.1991 -0.4981  0.1725
  528TMC3    C6 7893   2.795   3.569   0.525 -0.2939 -0.0141 -0.3121
  528TMC3     C 7894   3.075   3.365   0.751  0.2034  0.1117 -0.4653
  528TMC3     O 7895   3.043   3.247   0.777  0.0203  0.6939 -0.0360
  528TMC3     H 7896   3.044   3.634   0.734 -0.8086  0.7960 -0.5009
  528TMC3    H1 7897   2.886   3.252   0.602 -0.6674 -1.4147 -0.9370
  528TMC3    H2 7898   2.723   3.620   0.463  0.9169  1.0375 -0.8494
  528TMC3    C7 7899   2.683   3.359   0.479  0.3531  0.2239 -0.0318
  528TMC3    C8 7900   2.894   3.785   0.599 -0.6107  0.8504  0.0363
  528TMC3    O1 7901   2.577   3.417   0.496 -0.4041  0.6744  0.3640
  528TMC3    O2 7902   3.000   3.842   0.615  0.1284 -0.0489  0.3558
  529MPD2     C 7903   0.866   1.531   1.339  0.3082  0.3668  0.3336
  529MPD2    C1 7904   0.960   1.626   1.295 -1.1011  0.7130  0.3120
  529MPD2    C2 7905   0.903   1.725   1.216  0.4326 -0.1945 -0.2452
  529MPD2    C3 7906   0.768   1.733   1.180  0.2291 -0.4608 -0.5712
  529MPD2    C4 7907   0.686   1.622   1.219 -1.1823 -0.3518  0.6069
  529MPD2    C5 7908   0.733   1.524   1.296 -0.1815  0.2701  0.3013
  529MPD2     H 7909   0.968   1.800   1.173 -0.2779  0.7377  0.3182
  529MPD2    H1 7910   0.587   1.607   1.177 -1.1168  1.8061 -0.3005
  529MPD2    H2 7911   0.906   1.453   1.404 -1.4884  0.6431  1.7586
  529MPD2    H3 7912   0.669   1.443   1.329 -0.3497  1.1050  2.0148
  529MPD2     N 7913   0.717   1.819   1.080  0.2039 -0.4414 -0.3874
  529MPD2    H5 7914   0.632   1.799   1.027  0.5224 -0.4793 -0.8797
  529MPD2    N1 7915   1.095   1.635   1.326 -0.7891  0.0960  0.1963
  529MPD2    H7 7916   1.149   1.705   1.277 -1.0758 -0.7077 -1.2749
  530TMC3    C1 7917   1.299   1.533   1.380  0.4703 -0.5432  0.2611
  530TMC3    C2 7918   1.359   1.570   1.265  0.5483  0.1250  0.0641
  530TMC3    C3 7919   1.490   1.528   1.246 -0.2241 -0.1416 -0.7343
  530TMC3    C4 7920   1.363   1.462   1.482  0.4305  0.6659 -0.5054
  530TMC3    C5 7921   1.500   1.446   1.464 -0.4390 -0.0195  0.0444
  530TMC3    C6 7922   1.565   1.475   1.346  0.0260 -0.0279 -0.3392
  530TMC3     C 7923   1.158   1.535   1.395 -0.7123 -0.2847 -0.3413
  530TMC3     O 7924   1.117   1.456   1.476  0.0653 -0.0257 -0.3261
  530TMC3     H 7925   1.294   1.612   1.189  0.4785 -0.8180 -0.3973
  530TMC3    H1 7926   1.302   1.411   1.556 -1.2734  1.0511 -1.6325
  530TMC3    H2 7927   1.673   1.468   1.354  0.1471  1.2887 -0.8055
  530TMC3    C7 7928   1.579   1.461   1.584 -0.9891 -0.1113  0.5305
  530TMC3    C8 7929   1.557   1.612   1.153  0.5745  0.0811  0.0238
  530TMC3    O1 7930   1.698   1.446   1.577 -0.0076  0.4140  0.1282
  530TMC3    O2 7931   1.503   1.717   1.117  0.7081  0.4126  0.4856
  531MPD2     C 7932   4.601   0.239  13.359  0.3728  0.5954  0.8252
  531MPD2    C1 7933   4.543   0.118  13.343  0.0485 -0.5678 -0.5514
  531MPD2    C2 7934   4.474   0.098  13.224  0.7906 -0.6129  0.0859
  531MPD2    C3 7935   4.462   0.198  13.130  0.3883 -0.3009  0.0761
  531MPD2    C4 7936   4.520   0.322  13.146  0.7244  0.1841  0.3898
  531MPD2    C5 7937   4.592   0.331  13.257 -1.0610 -0.5896 -0.3807
  531MPD2     H 7938   4.409   0.013  13.204 -1.1038  0.2799  2.4168
  531MPD2    H1 7939   4.515   0.409  13.082 -4.3339 -1.9364 -2.0653
  531MPD2    H2 7940   4.652   0.270  13.448  0.5286 -0.1406  0.9940
  531MPD2    H3 7941   4.625   0.433  13.275  2.8238 -1.7521 -0.9759
  531MPD2     N 7942   4.389   0.170  13.012 -0.0861  0.4268 -0.2311
  531MPD2    H5 7943   4.362   0.076  12.985  2.2511 -1.7594  4.9796
  531MPD2    N1 7944   4.535   0.024  13.447 -0.3752  0.0810  0.0022
  531MPD2    H7 7945   4.579   0.045  13.536 -1.5072 -1.1287  0.8359
  532TMC3    C1 7946   4.428   4.585  13.565 -0.0008  1.2678 -0.5834
  532TMC3    C2 7947   4.297   4.548  13.569  0.1845  0.5932  1.0585
  532TMC3    C3 7948   4.258   4.423  13.595  0.0763 -0.3292  0.3480
  532TMC3    C4 7949   4.521   4.493  13.587 -1.0898 -0.2091 -0.0069
  532TMC3    C5 7950   4.487   4.357  13.599 -0.0636 -0.1100 -0.8390
  532TMC3    C6 7951   4.354   4.330  13.610 -0.5924  0.0813 -0.4201
  532TMC3     C 7952   4.464   4.640  13.442  1.4378 -0.0676 -0.0090
  532TMC3     O 7953   4.403   4.593  13.351 -0.1647 -0.1447 -0.3842
  532TMC3     H 7954   4.228   4.624  13.534 -0.0877 -0.6596 -1.1126
  532TMC3    H1 7955   4.623   4.530  13.586 -1.0108 -0.4322 -0.1729
  532TMC3    H2 7956   4.325   4.226  13.608  0.0101 -0.1404  3.6795
  532TMC3    C7 7957   4.591   4.255  13.586  0.1880  0.0884 -0.3641
  532TMC3    C8 7958   4.158   4.374  13.506 -0.3415 -1.2791  0.6839
  532TMC3    O1 7959   4.708   4.284  13.610 -0.1397  0.0121 -0.1685
  532TMC3    O2 7960   4.104   4.270  13.537 -0.1329  0.0115 -0.0923
  533TMC3    C1 7961   1.078   1.099  14.589  0.2830  0.2771  0.7049
  533TMC3    C2 7962   1.160   1.204  14.602 -0.7798  0.2722 -0.0082
  533TMC3    C3 7963   1.125   1.326  14.663 -0.3304  0.8308  0.1211
  533TMC3    C4 7964   0.957   1.126  14.649 -0.8054 -0.5454 -0.0047
  533TMC3    C5 7965   0.923   1.240  14.720  0.0632  0.1957  0.5022
  533TMC3    C6 7966   1.005   1.351  14.721  0.7483  0.2107  0.6273
  533TMC3     C 7967   1.117   0.965  14.646  0.3477 -0.8181  0.2726
  533TMC3     O 7968   1.164   0.993  14.759 -0.1240 -0.1675  0.0634
  533TMC3     H 7969   1.258   1.198  14.555 -0.2191 -0.6082  1.2839
  533TMC3    H1 7970   0.872   1.059  14.641 -1.3481 -0.0017  1.2637
  533TMC3    H2 7971   0.981   1.452  14.751 -0.0542 -0.3348  1.8491
  533TMC3    C7 7972   0.804   1.223  14.802  0.5500 -0.6969 -0.2491
  533TMC3    C8 7973   1.197   1.447  14.633 -0.5661 -0.6638  0.5616
  533TMC3    O1 7974   0.758   1.108  14.826 -0.2115  0.2206 -0.3431
  533TMC3    O2 7975   1.132   1.553  14.636 -0.4083 -0.2225  0.0667
  534MPD2     C 7976   3.667   2.171   1.272 -0.2078 -0.0987 -0.0367
  534MPD2    C1 7977   3.617   2.296   1.248 -1.3035 -0.6416 -1.1641
  534MPD2    C2 7978   3.499   2.318   1.189 -0.2958  0.3826 -0.1227
  534MPD2    C3 7979   3.420   2.205   1.152  0.0501  0.4618 -0.2695
  534MPD2    C4 7980   3.471   2.080   1.173 -0.0486  0.4296 -0.1916
  534MPD2    C5 7981   3.592   2.066   1.231 -0.2385 -0.6985  0.1175
  534MPD2     H 7982   3.470   2.422   1.180  1.3428  0.7656 -0.9728
  534MPD2    H1 7983   3.427   1.989   1.133  0.0026 -0.3505  1.5191
  534MPD2    H2 7984   3.766   2.142   1.307 -0.2667  1.7035  1.6064
  534MPD2    H3 7985   3.634   1.969   1.252  2.0360  0.5522  1.4238
  534MPD2     N 7986   3.290   2.216   1.103 -0.5848 -0.0061 -0.6354
  534MPD2    H5 7987   3.253   2.125   1.078 -0.9864  0.1987 -0.7937
  534MPD2    N1 7988   3.691   2.414   1.288 -0.1344  0.0715  0.1756
  534MPD2    H7 7989   3.650   2.504   1.263 -2.1664 -0.7315  0.6419
  535TMC3    C1 7990   3.105   2.288   0.994 -0.1388 -0.5405 -0.8218
  535TMC3    C2 7991   2.988   2.360   1.003  0.3292  0.6112 -0.7122
  535TMC3    C3 7992   2.873   2.300   0.955  0.0674 -0.6580 -0.1005
  535TMC3    C4 7993   3.110   2.170   0.923 -0.0834 -0.2896 -0.1382
  535TMC3    C5 7994   3.000   2.114   0.863 -0.5122 -0.3157 -0.1506
  535TMC3    C6 7995   2.884   2.186   0.876  0.6005  0.0952 -0.3199
  535TMC3     C 7996   3.215   2.324   1.080  0.0346 -0.4185 -0.5363
  535TMC3     O 7997   3.235   2.440   1.122 -0.1575  1.1562  0.4062
  535TMC3     H 7998   2.990   2.445   1.070  1.7536  0.1005 -0.1191
  535TMC3    H1 7999   3.206   2.133   0.888  0.8492  1.2889  0.7385
  535TMC3    H2 8000   2.796   2.142   0.832  1.6507 -1.3889 -0.9276
  535TMC3    C7 8001   3.018   2.035   0.738 -0.1564  0.3163  0.6982
  535TMC3    C8 8002   2.744   2.370   0.939 -0.2653 -0.0645  0.3155
  535TMC3    O1 8003   3.135   1.992   0.719  0.0557 -0.3705 -0.1430
  535TMC3    O2 8004   2.655   2.294   0.898 -0.7871  0.6588  0.0050
  536MPD2     C 8005   2.122   0.588  16.372 -0.7304 -0.4494 -0.1232
  536MPD2    C1 8006   1.998   0.590  16.422 -0.6871  0.4733 -0.3023
  536MPD2    C2 8007   1.897   0.664  16.365  0.2712  0.6358 -1.0182
  536MPD2    C3 8008   1.924   0.723  16.245 -0.0974  0.0192  0.0577
  536MPD2    C4 8009   2.054   0.718  16.195 -0.5212  0.1294  0.2721
  536MPD2    C5 8010   2.154   0.644  16.259  0.9525  0.4054 -0.5642
  536MPD2     H 8011   1.799   0.671  16.412 -0.1106 -0.4873 -1.6427
  536MPD2    H1 8012   2.078   0.762  16.099 -4.1503  3.2958  0.8421
  536MPD2    H2 8013   2.199   0.526  16.417  0.2455  1.1223  0.3699
  536MPD2    H3 8014   2.257   0.637  16.226  1.0284 -2.8445  0.3654
  536MPD2     N 8015   1.829   0.784  16.162 -0.3048 -0.1488 -0.1397
  536MPD2    H5 8016   1.858   0.832  16.078  0.0565 -0.3688 -0.1404
  536MPD2    N1 8017   1.969   0.499  16.527 -0.1501 -0.3520  0.0714
  536MPD2    H7 8018   2.040   0.430  16.551  0.8396  0.2978 -0.9971
  537TMC3    C1 8019   1.852   0.365  16.673  0.0257  0.1160 -0.1837
  537TMC3    C2 8020   1.947   0.269  16.673 -0.8347 -0.1344  0.0263
  537TMC3    C3 8021   1.943   0.167  16.761  0.3273  0.6393  0.2255
  537TMC3    C4 8022   1.759   0.370  16.777  0.4609 -0.8323  0.5749
  537TMC3    C5 8023   1.755   0.267  16.865 -0.3410 -0.0477 -0.6321
  537TMC3    C6 8024   1.849   0.164  16.857  1.2346 -0.1810  0.0294
  537TMC3     C 8025   1.847   0.480  16.583 -0.7545  0.9171  0.0995
  537TMC3     O 8026   1.738   0.535  16.582  0.5155  0.1866  0.3202
  537TMC3     H 8027   2.001   0.252  16.580  0.2292  0.4273  0.5416
  537TMC3    H1 8028   1.689   0.452  16.784 -0.6225 -1.5418 -1.9627
  537TMC3    H2 8029   1.849   0.084  16.930 -1.3518 -1.6035 -1.5649
  537TMC3    C7 8030   1.626   0.247  16.921  0.0695 -0.2514  0.4492
  537TMC3    C8 8031   2.069   0.099  16.776  0.5324  0.3983 -0.2357
  537TMC3    O1 8032   1.532   0.301  16.863  0.1516  0.1040 -0.7246
  537TMC3    O2 8033   2.166   0.143  16.713  0.7249  0.3904 -0.6307
  538TMC3    C1 8034   3.340   4.150  11.187  0.2331 -0.2693 -1.1114
  538TMC3    C2 8035   3.461   4.104  11.150 -0.2554 -0.0496  0.5915
  538TMC3    C3 8036   3.511   4.158  11.029 -0.6395  0.1783  0.0021
  538TMC3    C4 8037   3.260   4.228  11.107  0.1551 -0.8173 -1.1259
  538TMC3    C5 8038   3.311   4.266  10.990  0.0208 -0.0242 -0.7501
  538TMC3    C6 8039   3.433   4.238  10.947 -1.2405  0.0273  0.2595
  538TMC3     C 8040   3.284   4.111  11.316  0.1429  0.3803  0.3888
  538TMC3     O 8041   3.193   4.183  11.360 -0.1334  0.0369 -0.1779
  538TMC3     H 8042   3.526   4.055  11.222 -1.2723  0.1086  1.6107
  538TMC3    H1 8043   3.156   4.240  11.138  0.8485 -1.6079  1.5460
  538TMC3    H2 8044   3.442   4.244  10.839  0.9225 -1.3182  0.3679
  538TMC3    C7 8045   3.209   4.282  10.891  1.0012 -0.5650 -1.0096
  538TMC3    C8 8046   3.627   4.091  10.970  0.0807 -0.4480 -0.5476
  538TMC3    O1 8047   3.125   4.192  10.900 -0.0389 -0.3613 -0.0611
  538TMC3    O2 8048   3.657   3.982  11.017 -0.1870  0.4829  0.2274
  539MPD2     C 8049   2.700   3.068  12.061  0.2660 -0.5469 -0.2421
  539MPD2    C1 8050   2.764   3.124  11.956 -0.1251  0.1012 -0.3989
  539MPD2    C2 8051   2.741   3.259  11.930 -0.0613  0.1709 -0.3100
  539MPD2    C3 8052   2.652   3.335  12.007 -0.1948 -1.1009  0.1075
  539MPD2    C4 8053   2.587   3.275  12.108  0.0838  0.2958 -0.3814
  539MPD2    C5 8054   2.611   3.142  12.135  0.0615 -0.5029  0.1555
  539MPD2     H 8055   2.784   3.307  11.843 -0.2872  0.9426  0.0106
  539MPD2    H1 8056   2.526   3.343  12.166  2.9888  1.4453  1.2997
  539MPD2    H2 8057   2.740   2.975  12.100  1.1708 -0.1938 -0.3220
  539MPD2    H3 8058   2.565   3.103  12.224 -1.1884  1.2144  0.2575
  539MPD2     N 8059   2.622   3.474  11.979 -0.5194 -0.1102  0.6871
  539MPD2    H5 8060   2.547   3.512  12.037  0.0834  1.4394  0.4412
  539MPD2    N1 8061   2.844   3.043  11.877 -0.3590  0.0958 -0.1435
  539MPD2    H7 8062   2.850   2.955  11.928  0.3151  1.3168  1.8711
  540TMC3    C1 8063   2.642   3.693  11.869 -1.0887 -0.2272 -0.3579
  540TMC3    C2 8064   2.660   3.752  11.742  0.2849 -0.2410  1.2926
  540TMC3    C3 8065   2.590   3.867  11.710  0.4507 -0.3977  0.3658
  540TMC3    C4 8066   2.550   3.745  11.959 -0.3100  0.5547  0.2835
  540TMC3    C5 8067   2.480   3.855  11.927 -0.0794 -0.1962 -0.0472
  540TMC3    C6 8068   2.496   3.917  11.804  0.2196 -0.0350 -0.4490
  540TMC3     C 8069   2.696   3.554  11.891  0.1473  0.1725 -0.0553
  540TMC3     O 8070   2.784   3.525  11.811  0.9976 -0.6384 -0.2070
  540TMC3     H 8071   2.712   3.698  11.663 -0.7677  0.5404  0.0610
  540TMC3    H1 8072   2.539   3.691  12.052 -1.9139  0.1284 -0.1416
  540TMC3    H2 8073   2.447   4.009  11.775  1.7045  0.2348 -2.0944
  540TMC3    C7 8074   2.375   3.892  12.015  0.1096 -0.0843 -0.0275
  540TMC3    C8 8075   2.633   3.960  11.607 -0.3722  0.2911  0.1129
  540TMC3    O1 8076   2.310   3.799  12.060  0.2634  0.3685  0.1394
  540TMC3    O2 8077   2.637   4.078  11.641 -0.1125 -0.1929  0.2316
  541MPD2     C 8078   0.729   4.418  13.614  0.2619  0.0558  0.3251
  541MPD2    C1 8079   0.726   4.330  13.508  0.0791  0.6161  0.0314
  541MPD2    C2 8080   0.792   4.361  13.390 -0.1184  0.6641 -0.2249
  541MPD2    C3 8081   0.868   4.472  13.371 -0.7939 -0.3367 -0.4025
  541MPD2    C4 8082   0.868   4.560  13.470 -0.3398  0.2452 -0.2709
  541MPD2    C5 8083   0.800   4.537  13.589  0.3566 -1.0212 -0.5608
  541MPD2     H 8084   0.790   4.290  13.309  0.4598  0.3251  0.0592
  541MPD2    H1 8085   0.929   4.650  13.469 -1.6144  1.1037 -0.6232
  541MPD2    H2 8086   0.687   4.395  13.711  2.0292  0.0757  1.0848
  541MPD2    H3 8087   0.814   4.612  13.667  0.1982  0.2997 -1.7992
  541MPD2     N 8088   0.938   4.498  13.253  0.0317  0.7866  0.1770
  541MPD2    H5 8089   0.973   4.593  13.240  1.1941  0.6959  2.6252
  541MPD2    N1 8090   0.651   4.208  13.516 -0.3510 -0.5795  0.1794
  541MPD2    H7 8091   0.638   4.150  13.433  0.3021  1.6768 -1.4927
  542TMC3    C1 8092   1.005   4.478  13.033 -0.7870  0.6079  0.5300
  542TMC3    C2 8093   1.059   4.390  12.932 -0.2461  0.4621  0.4485
  542TMC3    C3 8094   1.017   4.405  12.803  0.6092  0.1817 -0.2168
  542TMC3    C4 8095   0.901   4.564  12.999 -0.5629 -0.1060  0.6583
  542TMC3    C5 8096   0.867   4.566  12.868  0.1360 -0.0906  0.3869
  542TMC3    C6 8097   0.932   4.499  12.769 -0.3385 -0.3008  0.1030
  542TMC3     C 8098   0.974   4.401  13.161  0.9185 -0.7354 -0.2581
  542TMC3     O 8099   0.974   4.280  13.160  0.5690  0.0318  0.2330
  542TMC3     H 8100   1.130   4.315  12.966  0.0925  1.2643  1.4800
  542TMC3    H1 8101   0.847   4.632  13.063 -2.2822 -3.3821  2.7344
  542TMC3    H2 8102   0.921   4.516  12.662  0.4017  0.1659  0.1028
  542TMC3    C7 8103   0.779   4.674  12.827  0.1947 -0.3151  0.1453
  542TMC3    C8 8104   1.103   4.355  12.695 -0.6781  0.2463 -0.4013
  542TMC3    O1 8105   0.774   0.047  12.895 -0.1145 -0.1900  0.1220
  542TMC3    O2 8106   1.060   4.355  12.579 -0.5902 -0.4255 -0.7177
  543TMC3    C1 8107   0.450   0.936  17.414  0.2695 -0.4889  0.1491
  543TMC3    C2 8108   0.473   0.847  17.513  0.2191  0.8214 -0.8686
  543TMC3    C3 8109   0.472   0.880  17.646 -0.1778 -0.2221 -0.1079
  543TMC3    C4 8110   0.424   1.068  17.448  0.1624 -0.2236 -0.3998
  543TMC3    C5 8111   0.403   1.098  17.581  1.0494  0.0060 -0.6204
  543TMC3    C6 8112   0.428   1.003  17.684  0.7140  0.0314  0.1868
  543TMC3     C 8113   0.444   0.879  17.276  0.4302  0.4948  0.4651
  543TMC3     O 8114   0.456   0.762  17.257 -0.3913 -0.1552 -0.1774
  543TMC3     H 8115   0.502   0.745  17.491 -0.7711  0.5932 -1.1193
  543TMC3    H1 8116   0.402   1.143  17.372 -0.9981 -0.2504 -0.0919
  543TMC3    H2 8117   0.390   1.017   0.055  1.7815  1.6851  0.3570
  543TMC3    C7 8118   0.400   1.235  17.633  0.0721 -0.7894 -0.6678
  543TMC3    C8 8119   0.561   0.818   0.008 -0.2327 -0.2516  0.9242
  543TMC3    O1 8120   0.412   1.242   0.028  0.0944  0.4380 -0.4153
  543TMC3    O2 8121   0.597   0.701  17.715  0.1526 -0.3582 -0.0537
  544MPD2     C 8122   0.868   0.828   0.419  0.1124 -0.2738  0.5708
  544MPD2    C1 8123   0.817   0.723   0.346 -0.6148  0.6222 -0.5379
  544MPD2    C2 8124   0.721   0.743   0.248 -0.6453  0.1081 -0.0203
  544MPD2    C3 8125   0.693   0.876   0.208 -0.1755  0.6380 -0.7605
  544MPD2    C4 8126   0.748   0.976   0.285  0.0254  0.0679  0.5509
  544MPD2    C5 8127   0.839   0.954   0.381 -0.0258  0.7605 -0.3490
  544MPD2     H 8128   0.663   0.662   0.205 -0.8483  0.9925 -1.4346
  544MPD2    H1 8129   0.718   1.078   0.261 -2.6619 -0.3383  2.1027
  544MPD2    H2 8130   0.944   0.817   0.495  0.2905 -0.1215  0.4117
  544MPD2    H3 8131   0.880   1.028   0.448  1.2483  0.2603 -0.5670
  544MPD2     N 8132   0.602   0.907   0.102  0.3593  0.0253  0.5437
  544MPD2    H5 8133   0.568   1.002   0.100  0.4682 -0.0023 -2.0292
  544MPD2    N1 8134   0.849   0.592   0.392 -0.3489 -0.0950 -0.5951
  544MPD2    H7 8135   0.920   0.584   0.464  1.1618 -1.7396 -2.2547
  545TMC3    C1 8136   0.881   0.364   0.395  0.5652  0.1439  0.2290
  545TMC3    C2 8137   0.819   0.243   0.414 -0.7578 -0.3051  0.6857
  545TMC3    C3 8138   0.875   0.156   0.510  0.2483 -0.2562 -0.1247
  545TMC3    C4 8139   0.999   0.395   0.462  0.3094  0.9817  0.0154
  545TMC3    C5 8140   1.055   0.305   0.549 -0.0916  0.2618  0.0096
  545TMC3    C6 8141   0.993   0.185   0.582  1.1251 -0.5149  0.2671
  545TMC3     C 8142   0.806   0.474   0.339  0.0829  0.7284  0.0633
  545TMC3     O 8143   0.712   0.448   0.260 -0.0322 -0.0150 -0.1014
  545TMC3     H 8144   0.735   0.206   0.356 -0.8986  0.2930  0.5050
  545TMC3    H1 8145   1.063   0.478   0.434  0.5546  1.4700  1.9687
  545TMC3    H2 8146   1.038   0.124   0.660  1.6256  0.0297  0.3990
  545TMC3    C7 8147   1.176   0.354   0.620 -0.0534 -0.1229 -0.5049
  545TMC3    C8 8148   0.807   0.035   0.544 -0.1658  0.1762 -0.8453
  545TMC3    O1 8149   1.192   0.477   0.623  0.1513  0.3458 -0.1793
  545TMC3    O2 8150   0.712   0.026   0.466  0.5917  0.4678  0.3197
  546MPD2     C 8151   2.230   0.667  17.231 -0.0338  0.7225 -0.6223
  546MPD2    C1 8152   2.114   0.729  17.190 -0.0786  0.0781  0.3064
  546MPD2    C2 8153   2.119   0.869  17.168  0.0549 -0.0882  0.0024
  546MPD2    C3 8154   2.235   0.938  17.188  0.3016  0.1843  0.5095
  546MPD2    C4 8155   2.354   0.872  17.225  0.2785 -0.2926  0.5879
  546MPD2    C5 8156   2.350   0.735  17.242  0.0170 -0.7511 -0.2225
  546MPD2     H 8157   2.031   0.922  17.134  0.8465  0.1883 -1.6159
  546MPD2    H1 8158   2.449   0.919  17.249 -0.8445  1.5230  1.4998
  546MPD2    H2 8159   2.235   0.560  17.247 -1.5125  0.6892 -0.3988
  546MPD2    H3 8160   2.436   0.674  17.265  0.5881  0.1164 -0.0447
  546MPD2     N 8161   2.249   1.074  17.163  0.1709  0.3304  0.2718
  546MPD2    H5 8162   2.346   1.102  17.161  1.6668 -4.5052  3.3117
  546MPD2    N1 8163   1.994   0.650  17.176  0.7859  0.0188  0.3042
  546MPD2    H7 8164   2.000   0.549  17.175  0.8211  0.0375 -2.0756
  547TMC3    C1 8165   1.766   0.604  17.149  0.7995  0.6618  0.3633
  547TMC3    C2 8166   1.648   0.653  17.104  0.9062  0.3692  1.2194
  547TMC3    C3 8167   1.548   0.565  17.121 -0.0954  0.4791 -0.3356
  547TMC3    C4 8168   1.779   0.485  17.220 -0.0114 -0.3630  0.1930
  547TMC3    C5 8169   1.668   0.411  17.250 -0.6121  1.1905  1.0795
  547TMC3    C6 8170   1.548   0.451  17.197 -0.2131  0.4621  0.3107
  547TMC3     C 8171   1.875   0.699  17.126 -0.4536  1.1755  0.9297
  547TMC3     O 8172   1.849   0.815  17.101  0.0943  0.3746  0.2767
  547TMC3     H 8173   1.641   0.754  17.065 -2.4466 -0.1239  0.5497
  547TMC3    H1 8174   1.877   0.455  17.257 -0.0151 -1.3198 -0.5664
  547TMC3    H2 8175   1.458   0.390  17.193 -0.9168  1.4683  0.7831
  547TMC3    C7 8176   1.672   0.321  17.362  0.0303 -0.1140  0.3777
  547TMC3    C8 8177   1.444   0.575  17.018 -0.1370  0.1987  0.4605
  547TMC3    O1 8178   1.784   0.275  17.390 -0.0521 -0.0498  0.1880
  547TMC3    O2 8179   1.335   0.522  17.045 -0.1897  0.4427  0.3826
  548MPD2     C 8180   1.764   1.004  12.824 -0.4667  0.3145 -0.4668
  548MPD2    C1 8181   1.707   1.075  12.722  0.5528 -0.4698  0.1258
  548MPD2    C2 8182   1.783   1.099  12.605  1.0804 -0.7082 -0.4939
  548MPD2    C3 8183   1.912   1.065  12.595  0.7486 -0.2465 -0.6090
  548MPD2    C4 8184   1.963   1.005  12.703  0.0275 -0.0388 -0.0628
  548MPD2    C5 8185   1.896   0.966  12.811 -0.2164  0.0407 -1.0066
  548MPD2     H 8186   1.738   1.143  12.516  0.0885 -1.9185 -0.6037
  548MPD2    H1 8187   2.066   0.971  12.699  0.5429  1.7851 -2.1123
  548MPD2    H2 8188   1.704   0.965  12.904 -1.1833  0.3843 -0.9663
  548MPD2    H3 8189   1.942   0.919  12.897  1.5094  1.2925 -1.2424
  548MPD2     N 8190   1.987   1.103  12.473  0.4212 -0.0012 -0.0766
  548MPD2    H5 8191   1.941   1.133  12.387 -0.9394  2.2818  1.4404
  548MPD2    N1 8192   1.578   1.128  12.744 -0.2915  0.2879 -0.1921
  548MPD2    H7 8193   1.530   1.125  12.834 -1.6439  0.6420 -0.8950
  549TMC3    C1 8194   1.394   1.266  12.727  0.0833  0.2681  1.2309
  549TMC3    C2 8195   1.355   1.382  12.662  0.4607 -0.1402 -0.2542
  549TMC3    C3 8196   1.238   1.437  12.699 -0.8252  0.0643  0.1064
  549TMC3    C4 8197   1.310   1.190  12.796 -0.1350 -0.1864 -0.3251
  549TMC3    C5 8198   1.182   1.239  12.806 -0.0877 -0.1842  0.1797
  549TMC3    C6 8199   1.147   1.366  12.768 -0.2662 -0.4076 -0.3669
  549TMC3     C 8200   1.512   1.217  12.657 -0.5552 -0.4381 -0.1903
  549TMC3     O 8201   1.543   1.259  12.548 -0.6598  0.2356 -0.2590
  549TMC3     H 8202   1.423   1.436  12.597 -0.0839  1.4311  0.4809
  549TMC3    H1 8203   1.336   1.094  12.839  1.3776 -0.0889 -1.0487
  549TMC3    H2 8204   1.050   1.411  12.784 -0.4097 -0.9536  0.2772
  549TMC3    C7 8205   1.067   1.152  12.840 -0.5323 -0.1211 -0.0586
  549TMC3    C8 8206   1.192   1.570  12.650  0.6280 -0.3794  0.8357
  549TMC3    O1 8207   0.954   1.201  12.832 -0.1718  0.1175 -0.4262
  549TMC3    O2 8208   1.080   1.604  12.674  0.2653 -0.2747  0.3687
  550TMC3    C1 8209   0.474   3.954  12.500  0.2213  0.1500 -0.2184
  550TMC3    C2 8210   0.460   4.029  12.609 -0.0152  0.2325  0.0391
  550TMC3    C3 8211   0.349   4.112  12.615 -0.2435 -1.1646 -0.3222
  550TMC3    C4 8212   0.377   3.935  12.395 -0.0863 -0.0855 -0.6771
  550TMC3    C5 8213   0.270   4.023  12.403  0.1700  0.3732  0.1513
  550TMC3    C6 8214   0.258   4.110  12.516 -0.4203  0.4121  0.0522
  550TMC3     C 8215   0.610   3.914  12.474  0.1825  0.7540 -0.5595
  550TMC3     O 8216   0.691   3.885  12.560  0.0109  0.1553 -0.6804
  550TMC3     H 8217   0.537   4.029  12.685 -0.0654 -2.4155  0.0687
  550TMC3    H1 8218   0.388   3.852  12.326  0.2501 -0.0985 -0.6056
  550TMC3    H2 8219   0.182   4.187  12.502  0.4578  1.2077 -0.3383
  550TMC3    C7 8220   0.183   4.046  12.283  0.0130  0.3241  0.2552
  550TMC3    C8 8221   0.347   4.224  12.701  0.1719 -0.5611  0.7091
  550TMC3    O1 8222   0.087   4.120  12.297 -0.1071 -0.7418  0.1787
  550TMC3    O2 8223   0.237   4.283  12.709  0.1095 -0.4481  0.2866
  551TMC3    C1 8224   2.819   1.762  13.349  0.0524 -0.1259 -0.7744
  551TMC3    C2 8225   2.933   1.711  13.300  0.4479  0.4980 -0.2892
  551TMC3    C3 8226   3.047   1.733  13.374  0.5541  0.2500  0.5581
  551TMC3    C4 8227   2.812   1.819  13.472  0.3896  0.4315 -0.9025
  551TMC3    C5 8228   2.928   1.823  13.544  0.1678 -0.0615 -0.2091
  551TMC3    C6 8229   3.046   1.784  13.495 -0.1613 -0.5005  0.3221
  551TMC3     C 8230   2.721   1.793  13.246  0.2835 -0.2522  0.1892
  551TMC3     O 8231   2.728   1.724  13.147 -0.1762 -0.3357 -0.1896
  551TMC3     H 8232   2.939   1.664  13.202  0.0826  0.0268 -0.0866
  551TMC3    H1 8233   2.717   1.824  13.525  0.4315  0.3610 -0.8215
  551TMC3    H2 8234   3.139   1.814  13.543 -0.3956  2.1016 -0.7984
  551TMC3    C7 8235   2.937   1.896  13.670 -0.0614 -0.9949  0.6383
  551TMC3    C8 8236   3.161   1.754  13.287 -0.3245  0.4202 -0.7970
  551TMC3    O1 8237   3.029   1.860  13.742  0.2807 -0.2891 -0.2504
  551TMC3    O2 8238   3.178   1.676  13.198 -0.5361  0.5373 -0.2191
  552MPD2     C 8239   0.145   3.966  13.963  0.1285 -0.6086  0.1096
  552MPD2    C1 8240   0.100   3.846  14.026 -0.0092 -0.8144  0.1185
  552MPD2    C2 8241   0.165   3.801  14.140 -0.4359  0.6079 -0.5267
  552MPD2    C3 8242   0.276   3.875  14.189 -0.2101 -0.0047 -0.3099
  552MPD2    C4 8243   0.330   3.974  14.108  0.3621 -0.6300 -0.1814
  552MPD2    C5 8244   0.257   4.025  14.004 -0.4823  0.2985  0.0286
  552MPD2     H 8245   0.137   3.713  14.197  0.8844 -0.0129 -0.8467
  552MPD2    H1 8246   0.425   4.013  14.144  0.7595  0.3403 -2.2787
  552MPD2    H2 8247   0.088   4.020  13.888  3.6260  2.6291 -0.2600
  552MPD2    H3 8248   0.299   4.111  13.954  0.7958 -0.7329 -0.6873
  552MPD2     N 8249   0.332   3.858  14.320 -0.1524  0.2411 -0.3002
  552MPD2    H5 8250   0.421   3.903  14.341  0.1435 -1.2419  1.5936
  552MPD2    N1 8251   4.724   3.767  13.977  0.6774 -0.0446  0.4214
  552MPD2    H7 8252   4.718   3.670  14.008  0.8391 -0.1265  0.1988
  553TMC3    C1 8253   4.568   3.695  13.817  0.7372  0.4339 -0.5391
  553TMC3    C2 8254   4.501   3.725  13.702  0.4000  0.8615  0.6351
  553TMC3    C3 8255   4.430   3.625  13.648  1.2236  0.8372 -0.5197
  553TMC3    C4 8256   4.591   3.560  13.864  0.0712  0.4154  0.3140
  553TMC3    C5 8257   4.528   3.460  13.789 -0.8689 -0.1672  0.6924
  553TMC3    C6 8258   4.439   3.493  13.689 -0.0467 -0.2832  0.2142
  553TMC3     C 8259   4.632   3.808  13.884  0.1715  0.5557  0.6412
  553TMC3     O 8260   4.620   3.921  13.839  0.7084  0.1644  0.1942
  553TMC3     H 8261   4.480   3.827  13.670  0.0950  0.3544 -0.7954
  553TMC3    H1 8262   4.640   3.532  13.956 -0.2137 -0.4056  0.2147
  553TMC3    H2 8263   4.382   3.420  13.633 -1.7440  2.4948 -1.7026
  553TMC3    C7 8264   4.530   3.324  13.836 -0.2283  0.0619 -0.0419
  553TMC3    C8 8265   4.383   3.636  13.513  0.0413  0.0213  0.2347
  553TMC3    O1 8266   4.430   3.258  13.813  0.0518  0.2707 -0.7887
  553TMC3    O2 8267   4.423   3.551  13.434  0.1534  0.5437 -1.3572
  554TMC3    C1 8268   2.065   3.509  11.766  0.4037  0.0784 -0.7042
  554TMC3    C2 8269   2.032   3.414  11.671  0.0199  0.5400  0.1786
  554TMC3    C3 8270   2.093   3.431  11.550 -0.1233 -0.0833  0.8197
  554TMC3    C4 8271   2.156   3.604  11.749  0.0427  0.4263 -0.6429
  554TMC3    C5 8272   2.215   3.614  11.629  0.1572  0.5156  0.1007
  554TMC3    C6 8273   2.194   3.523  11.526 -0.4387 -0.0744  0.3154
  554TMC3     C 8274   2.033   3.476  11.908  0.3218  0.4131  0.2073
  554TMC3     O 8275   2.077   3.551  11.991 -0.3603 -0.1051  0.3094
  554TMC3     H 8276   1.955   3.340  11.690  0.7214 -0.1738  0.2520
  554TMC3    H1 8277   2.172   3.675  11.830  1.8300 -0.0954 -0.5324
  554TMC3    H2 8278   2.247   3.522  11.432  0.4226 -2.0200  0.8258
  554TMC3    C7 8279   2.283   3.735  11.597 -0.3168 -0.3961 -0.0633
  554TMC3    C8 8280   2.016   3.403  11.428 -0.0370 -0.3760  0.2464
  554TMC3    O1 8281   2.372   3.721  11.518 -0.7808  0.0411 -0.3953
  554TMC3    O2 8282   2.050   3.469  11.333 -0.1686  0.3021 -0.2224
  555TMC3    C1 8283   0.642   2.624  15.465  0.1397 -0.6291 -0.0913
  555TMC3    C2 8284   0.657   2.680  15.588  0.2814  0.9785 -0.4946
  555TMC3    C3 8285   0.710   2.600  15.691 -0.2995 -0.1474  0.6193
  555TMC3    C4 8286   0.700   2.505  15.430 -0.6668  0.1311  0.1854
  555TMC3    C5 8287   0.776   2.444  15.524  0.0667 -0.9045 -0.7495
  555TMC3    C6 8288   0.769   2.480  15.655 -0.3257 -0.0902 -0.1634
  555TMC3     C 8289   0.634   2.729  15.365  0.4921  1.1224  0.2377
  555TMC3     O 8290   0.689   2.833  15.399 -0.2469 -0.0229  0.1590
  555TMC3     H 8291   0.607   2.774  15.607  1.0080  0.9527  1.5453
  555TMC3    H1 8292   0.693   2.464  15.330  0.1900  1.5609 -0.4736
  555TMC3    H2 8293   0.808   2.411  15.729  2.1320  2.1012  0.5965
  555TMC3    C7 8294   0.803   2.302  15.507  0.1912 -0.0951 -0.4038
  555TMC3    C8 8295   0.743   2.660  15.815  0.4590 -0.0880 -0.7009
  555TMC3    O1 8296   0.808   2.231  15.607  0.2564  0.0981 -0.1489
  555TMC3    O2 8297   0.740   2.781  15.821  0.3212 -0.0438  0.0050
  556MPD2     C 8298   4.137   0.188  10.789 -0.4257  0.2540  0.8492
  556MPD2    C1 8299   4.127   0.053  10.830 -0.8730 -0.2150  0.0118
  556MPD2    C2 8300   4.112   4.694  10.726  0.1504  0.2511 -0.3943
  556MPD2    C3 8301   4.124   4.724  10.593  0.1700 -0.5514  0.5218
  556MPD2    C4 8302   4.154   0.123  10.559 -0.4304 -0.3839  0.3275
  556MPD2    C5 8303   4.162   0.217  10.659 -1.5916  0.2890 -0.4061
  556MPD2     H 8304   4.082   4.598  10.767 -2.0601  0.8657 -0.5393
  556MPD2    H1 8305   4.185   0.153  10.459  3.3197  1.3517  2.0495
  556MPD2    H2 8306   4.142   0.270  10.860  0.8702 -0.3376  1.4464
  556MPD2    H3 8307   4.186   0.318  10.627  0.3786  0.0590  0.3394
  556MPD2     N 8308   4.109   4.632  10.494 -0.0497 -0.7013 -0.1891
  556MPD2    H5 8309   4.117   4.536  10.528 -0.4775 -1.1065 -1.2172
  556MPD2    N1 8310   4.106   0.008  10.958  0.1557 -0.4813  0.3135
  556MPD2    H7 8311   4.080   4.645  10.979 -0.1041 -0.6267 -0.6463
  557TMC3    C1 8312   4.064   4.529  10.280  0.1844  0.0599  0.9551
  557TMC3    C2 8313   3.996   4.555  10.160 -0.7198 -0.4372 -0.1912
  557TMC3    C3 8314   3.948   4.448  10.091 -0.7066 -0.0382  0.8219
  557TMC3    C4 8315   4.079   4.407  10.339 -0.6384  0.6823  0.5085
  557TMC3    C5 8316   4.018   4.302  10.266  0.5595  0.2422 -0.1585
  557TMC3    C6 8317   3.951   4.317  10.147  0.5482  0.4822 -0.1002
  557TMC3     C 8318   4.094   4.649  10.354 -0.3371  0.5105  0.0294
  557TMC3     O 8319   4.083   0.025  10.296 -0.0295  0.1715 -0.1382
  557TMC3     H 8320   3.974   4.655  10.124  0.7998 -0.2084 -0.4660
  557TMC3    H1 8321   4.135   4.381  10.428  0.7220  2.2522  0.1131
  557TMC3    H2 8322   3.903   4.235  10.094  4.4148 -0.6362 -1.8949
  557TMC3    C7 8323   3.986   4.182  10.341 -0.2934  0.0417 -0.0220
  557TMC3    C8 8324   3.871   4.479   9.976  0.3293  0.7332  1.1280
  557TMC3    O1 8325   3.975   4.082  10.278  0.4793  0.1239 -0.3316
  557TMC3    O2 8326   3.886   4.596   9.938 -0.0431  0.5319 -0.4118
  558TMC3    C1 8327   1.760   2.651  10.350  0.0391  0.3677 -0.9764
  558TMC3    C2 8328   1.638   2.676  10.409  0.1077  0.2867  0.7834
  558TMC3    C3 8329   1.563   2.766  10.341 -0.1101  0.8998 -0.0515
  558TMC3    C4 8330   1.809   2.706  10.235  0.1671  0.0039 -0.0402
  558TMC3    C5 8331   1.723   2.782  10.169  0.2777  0.6020 -0.2218
  558TMC3    C6 8332   1.596   2.815  10.211  0.7393 -0.1769 -0.2482
  558TMC3     C 8333   1.848   2.561  10.418 -0.3917 -0.2068  0.4245
  558TMC3     O 8334   1.970   2.571  10.391  0.2997  0.0344  0.4201
  558TMC3     H 8335   1.620   2.633  10.507  1.7172  0.2873  1.0710
  558TMC3    H1 8336   1.906   2.673  10.199  0.0399 -1.1303  0.6273
  558TMC3    H2 8337   1.517   2.864  10.156  1.3021  0.8034 -0.1995
  558TMC3    C7 8338   1.740   2.789  10.025 -0.2631 -0.2599  0.1027
  558TMC3    C8 8339   1.436   2.814  10.400 -0.6904 -0.4179  0.5041
  558TMC3    O1 8340   1.852   2.783   9.975 -0.4657  0.4714  0.2575
  558TMC3    O2 8341   1.375   2.910  10.352  0.2074 -0.3163 -0.2166
  559MPD2     C 8342   1.792   3.211  10.502 -0.4228 -0.4652  0.2750
  559MPD2    C1 8343   1.706   3.159  10.596 -0.6691  0.2016 -0.0820
  559MPD2    C2 8344   1.755   3.134  10.720 -0.5333 -0.6629 -0.3859
  559MPD2    C3 8345   1.884   3.164  10.766 -0.1424 -0.1848  0.1398
  559MPD2    C4 8346   1.961   3.224  10.672 -0.1524 -0.4734 -0.5826
  559MPD2    C5 8347   1.912   3.250  10.545 -0.5614  1.2646 -0.2435
  559MPD2     H 8348   1.689   3.082  10.788 -0.2759  1.4318  1.4714
  559MPD2    H1 8349   2.066   3.249  10.686 -0.2371  0.0038 -0.8130
  559MPD2    H2 8350   1.767   3.230  10.398 -2.0212  2.2074  1.1535
  559MPD2    H3 8351   1.983   3.284  10.471 -0.6303  1.4817 -0.2109
  559MPD2     N 8352   1.932   3.108  10.888 -0.1876  0.0818 -0.9738
  559MPD2    H5 8353   1.863   3.054  10.939  0.9633 -0.6676 -0.2105
  559MPD2    N1 8354   1.569   3.149  10.568  0.4235 -0.4532 -0.1079
  559MPD2    H7 8355   1.526   3.229  10.522 -3.0664 -2.3336 -0.0706
  560TMC3    C1 8356   2.066   3.088  11.074  0.4032  0.3290  0.1696
  560TMC3    C2 8357   1.994   2.980  11.104  0.6093  0.7770  0.2782
  560TMC3    C3 8358   2.010   2.927  11.230  0.4635 -1.0073 -0.6051
  560TMC3    C4 8359   2.162   3.143  11.157  0.3219 -0.7654  0.5846
  560TMC3    C5 8360   2.166   3.091  11.287 -0.2217 -0.8416 -0.3346
  560TMC3    C6 8361   2.086   2.989  11.327 -0.6641 -0.2167 -0.0824
  560TMC3     C 8362   2.053   3.144  10.945 -0.1262 -0.3247 -0.1789
  560TMC3     O 8363   2.148   3.214  10.901  0.0113  0.2950  0.0100
  560TMC3     H 8364   1.960   2.920  11.020  0.3833  2.6681 -0.9610
  560TMC3    H1 8365   2.218   3.233  11.135 -2.1864  0.6628  0.0486
  560TMC3    H2 8366   2.090   2.956  11.431  2.6953  0.5540  0.0122
  560TMC3    C7 8367   2.256   3.147  11.389  0.1315 -0.1036 -0.3000
  560TMC3    C8 8368   1.908   2.836  11.270 -0.8056  0.0593 -0.0096
  560TMC3    O1 8369   2.242   3.127  11.508 -0.5811 -0.4155 -0.5401
  560TMC3    O2 8370   1.826   2.827  11.183 -0.5590  0.1511  0.0626
  561TMC3    C1 8371   4.394   2.290  11.553  0.1857  0.1042 -0.1070
  561TMC3    C2 8372   4.314   2.202  11.613  0.2600 -0.2575  0.4220
  561TMC3    C3 8373   4.211   2.242  11.688 -0.2570 -0.2200  0.0198
  561TMC3    C4 8374   4.397   2.421  11.592  0.0771 -0.4801 -0.7594
  561TMC3    C5 8375   4.309   2.453  11.701 -0.1466 -0.2951 -0.6396
  561TMC3    C6 8376   4.212   2.366  11.744  0.7368  0.0591 -0.3886
  561TMC3     C 8377   4.479   2.253  11.438  0.0298  0.2989 -0.0946
  561TMC3     O 8378   4.489   2.133  11.417 -0.0490  0.5037 -0.1490
  561TMC3     H 8379   4.326   2.096  11.590 -1.3314 -0.5134  0.7746
  561TMC3    H1 8380   4.472   2.487  11.550  0.2111 -0.9918 -1.3312
  561TMC3    H2 8381   4.139   2.394  11.819  1.4423 -2.1483  1.1340
  561TMC3    C7 8382   4.345   2.570  11.782  0.5893  0.0557  0.2143
  561TMC3    C8 8383   4.136   2.132  11.751  0.3346 -1.2394 -0.5300
  561TMC3    O1 8384   4.326   2.564  11.901  0.9731 -0.1160  0.0718
  561TMC3    O2 8385   4.203   2.032  11.770  0.3605  0.2296  0.1918
  562TMC3    C1 8386   0.470   2.635  16.539  0.5764  0.5570  0.1732
  562TMC3    C2 8387   0.491   2.767  16.507  0.3904  1.2237 -0.2400
  562TMC3    C3 8388   0.437   2.809  16.385 -0.0763  0.4478 -0.4620
  562TMC3    C4 8389   0.385   2.546  16.475  0.1500 -0.4214  0.1263
  562TMC3    C5 8390   0.334   2.601  16.358 -0.6691  0.4502 -0.1677
  562TMC3    C6 8391   0.370   2.722  16.310  0.1642  0.6852 -0.0827
  562TMC3     C 8392   0.499   2.594  16.675  0.4942  0.5195 -0.6148
  562TMC3     O 8393   0.527   2.677  16.759  0.1626 -0.1084 -0.2862
  562TMC3     H 8394   0.529   2.834  16.584  2.1358 -1.0922  0.9412
  562TMC3    H1 8395   0.353   2.450  16.513 -1.1430 -0.3796 -0.8615
  562TMC3    H2 8396   0.330   2.749  16.213 -1.3144 -2.0239 -0.2387
  562TMC3    C7 8397   0.266   2.517  16.266 -0.1412  0.2100 -0.1820
  562TMC3    C8 8398   0.503   2.920  16.325 -0.2200 -0.1483  0.3323
  562TMC3    O1 8399   0.161   2.561  16.215 -0.0623 -0.6079  0.3567
  562TMC3    O2 8400   0.587   2.974  16.396 -0.1099  0.5296  0.2214
  563MPD2     C 8401   2.871   4.069  15.541 -0.2264 -0.2090  0.2434
  563MPD2    C1 8402   2.891   4.016  15.667 -0.0528  0.7048  0.6407
  563MPD2    C2 8403   3.010   3.945  15.694 -0.6918  0.3872  0.0331
  563MPD2    C3 8404   3.124   3.957  15.613 -0.0280  0.1792 -0.2924
  563MPD2    C4 8405   3.104   4.019  15.494  0.4163  0.1125  1.4735
  563MPD2    C5 8406   2.981   4.063  15.458 -0.3062 -0.1287  0.3648
  563MPD2     H 8407   3.010   3.878  15.779  1.2280 -1.4259 -1.3851
  563MPD2    H1 8408   3.181   4.012  15.419 -0.0843  0.5326  0.9173
  563MPD2    H2 8409   2.783   4.125  15.511 -0.3721 -1.4833 -1.7085
  563MPD2    H3 8410   2.981   4.110  15.360 -0.4164 -0.6573  0.1147
  563MPD2     N 8411   3.240   3.903  15.661  0.0901  0.6719  0.1466
  563MPD2    H5 8412   3.234   3.865  15.755  1.1404 -0.7715 -0.3767
  563MPD2    N1 8413   2.792   4.020  15.766 -0.7797 -0.1009 -0.3015
  563MPD2    H7 8414   2.703   4.061  15.741 -1.5330 -0.7623  1.3002
  564TMC3    C1 8415   2.715   3.952  15.980 -0.2817  0.6461  0.2420
  564TMC3    C2 8416   2.596   3.912  15.930  0.4014 -0.0369  0.1460
  564TMC3    C3 8417   2.502   3.877  16.024  0.0588 -0.2733 -0.4668
  564TMC3    C4 8418   2.735   3.980  16.112  0.1331 -0.7795 -0.1232
  564TMC3    C5 8419   2.641   3.939  16.199  0.4111 -0.1075  0.0219
  564TMC3    C6 8420   2.518   3.903  16.157  0.2460  0.1936  0.5168
  564TMC3     C 8421   2.824   3.992  15.898  0.9238 -0.0102 -0.4881
  564TMC3     O 8422   2.932   4.000  15.952  0.3393  0.2631  0.1372
  564TMC3     H 8423   2.583   3.879  15.827  0.1419 -1.2727  0.5860
  564TMC3    H1 8424   2.833   4.013  16.144  0.7590 -0.5381 -2.3162
  564TMC3    H2 8425   2.440   3.879  16.228  2.2212  0.6336  2.8224
  564TMC3    C7 8426   2.702   3.832  16.275 -0.0153  1.1707 -0.0645
  564TMC3    C8 8427   2.408   3.764  15.998 -0.6392 -0.1887  0.1436
  564TMC3    O1 8428   2.826   3.833  16.278 -0.1084 -0.0182  0.2500
  564TMC3    O2 8429   2.343   3.730  16.095 -0.4864  0.1908  0.4183
  565TMC3    C1 8430   3.187   1.219  10.407  0.3429  0.3434  0.0211
  565TMC3    C2 8431   3.290   1.150  10.475  0.0289  0.7554 -0.1332
  565TMC3    C3 8432   3.284   1.013  10.481  0.2596  0.5305 -0.8985
  565TMC3    C4 8433   3.068   1.165  10.360 -0.7086 -0.4282  0.3385
  565TMC3    C5 8434   3.072   1.027  10.377 -0.4117 -0.5097 -0.0458
  565TMC3    C6 8435   3.176   0.953  10.427 -0.9335  0.4301 -0.0078
  565TMC3     C 8436   3.220   1.354  10.371  0.5413  0.1558 -0.2442
  565TMC3     O 8437   3.305   1.414  10.426  0.5598 -0.9130  0.0554
  565TMC3     H 8438   3.368   1.199  10.532 -2.0595  2.8500  0.9347
  565TMC3    H1 8439   2.979   1.215  10.325 -0.0580  0.8159  0.4898
  565TMC3    H2 8440   3.161   0.853  10.465 -2.1850  0.5693 -0.1383
  565TMC3    C7 8441   2.953   0.942  10.348 -0.2984  0.2388  0.1432
  565TMC3    C8 8442   3.381   0.941  10.568 -0.3328 -0.7857 -0.1525
  565TMC3    O1 8443   2.961   0.828  10.393 -0.7099  0.5667  0.0909
  565TMC3    O2 8444   3.425   0.998  10.667 -0.1606 -0.0258  0.0215
  566MPD2     C 8445   4.698   2.405  14.215 -0.3328  0.3169  0.1535
  566MPD2    C1 8446   0.020   2.485  14.111  0.1320  0.8569 -0.0276
  566MPD2    C2 8447   4.667   2.550  14.028  0.2094  0.1508  0.0930
  566MPD2    C3 8448   4.528   2.524  14.039  0.5517  0.7120  0.5474
  566MPD2    C4 8449   4.487   2.463  14.152 -0.0636  0.4430 -0.0820
  566MPD2    C5 8450   4.569   2.403  14.247 -0.0126  0.0337 -0.0924
  566MPD2     H 8451   4.701   2.620  13.952  2.6943  0.2591  1.3083
  566MPD2    H1 8452   4.379   2.451  14.155  0.1204 -0.8004  1.9489
  566MPD2    H2 8453   0.029   2.340  14.274 -1.8063 -2.1855 -1.0593
  566MPD2    H3 8454   4.525   2.328  14.313 -2.1516  0.5937 -0.8866
  566MPD2     N 8455   4.429   2.574  13.952  0.0502 -0.0730 -0.6643
  566MPD2    H5 8456   4.333   2.573  13.983  0.6400  2.2326  1.2800
  566MPD2    N1 8457   0.162   2.476  14.079  0.4818 -0.0887 -0.0550
  566MPD2    H7 8458   0.220   2.438  14.154 -0.3584 -0.1939  0.5416
  567TMC3    C1 8459   0.362   2.508  13.969  0.1806  0.7429 -0.7310
  567TMC3    C2 8460   0.429   2.524  13.847 -0.6218 -0.2615  0.0496
  567TMC3    C3 8461   0.566   2.514  13.840 -0.4404 -0.3286 -0.0537
  567TMC3    C4 8462   0.434   2.492  14.088 -0.4383 -0.1001 -0.0676
  567TMC3    C5 8463   0.571   2.503  14.073 -0.0923 -0.0158 -0.1591
  567TMC3    C6 8464   0.643   2.495  13.950 -0.4172  0.6415  0.3333
  567TMC3     C 8465   0.221   2.530  13.963 -0.4728 -0.6285  0.1186
  567TMC3     O 8466   0.169   2.569  13.857  0.3443 -0.7040  0.1135
  567TMC3     H 8467   0.368   2.531  13.758 -0.7697 -0.5450  0.1277
  567TMC3    H1 8468   0.378   2.503  14.180 -0.5500 -1.0075 -0.0263
  567TMC3    H2 8469   0.751   2.482  13.951 -0.3579  1.2479  1.9618
  567TMC3    C7 8470   0.657   2.464  14.183  0.0618 -0.0640  0.1393
  567TMC3    C8 8471   0.622   2.531  13.703 -0.4409  0.6009 -0.4844
  567TMC3    O1 8472   0.768   2.419  14.162 -0.2211  0.7180  0.4064
  567TMC3    O2 8473   0.538   2.566  13.620 -0.1313 -0.3042 -0.2388
  568MPD2     C 8474   2.591   2.397  16.394  0.8580  0.0971  0.4212
  568MPD2    C1 8475   2.583   2.483  16.499 -0.4083 -0.0860 -0.2303
  568MPD2    C2 8476   2.532   2.611  16.486  0.0541  0.7287 -0.2846
  568MPD2    C3 8477   2.482   2.653  16.364  0.0697 -0.3992  0.1410
  568MPD2    C4 8478   2.470   2.564  16.259 -0.4227 -0.2349 -0.4333
  568MPD2    C5 8479   2.530   2.440  16.274  0.5726 -0.3289  0.1454
  568MPD2     H 8480   2.558   2.680  16.566 -0.0215  0.8350 -0.3513
  568MPD2    H1 8481   2.428   2.577  16.160  0.0028  0.4143 -0.5325
  568MPD2    H2 8482   2.635   2.298  16.401  1.1756  0.4017  2.6355
  568MPD2    H3 8483   2.541   2.374  16.188  0.8672 -1.2696  0.9014
  568MPD2     N 8484   2.447   2.786  16.345 -0.0634  0.5701 -0.4096
  568MPD2    H5 8485   2.429   2.822  16.252 -0.2577 -1.6887 -1.2472
  568MPD2    N1 8486   2.646   2.451  16.621  0.4979 -0.4252 -0.1253
  568MPD2    H7 8487   2.720   2.382  16.629  0.5079 -0.5820 -1.5039
  569TMC3    C1 8488   2.391   3.008  16.393 -0.8746 -0.4129  0.4876
  569TMC3    C2 8489   2.390   3.112  16.483  0.0860 -0.6836 -0.3868
  569TMC3    C3 8490   2.332   3.226  16.436 -0.5014  0.2597  0.2951
  569TMC3    C4 8491   2.310   3.009  16.281 -0.9212  0.5731 -0.3270
  569TMC3    C5 8492   2.252   3.125  16.245 -0.4743  0.0866 -0.2311
  569TMC3    C6 8493   2.257   3.231  16.325 -0.5634 -0.3306  0.3557
  569TMC3     C 8494   2.436   2.879  16.444  0.1741 -0.0560 -1.2357
  569TMC3     O 8495   2.469   2.874  16.565  0.0092 -0.1331  0.1111
  569TMC3     H 8496   2.442   3.107  16.578 -1.0340 -1.1764  0.2105
  569TMC3    H1 8497   2.305   2.923  16.215  0.3211  0.6507 -0.5167
  569TMC3    H2 8498   2.200   3.322  16.312  1.0068  0.2800 -2.1553
  569TMC3    C7 8499   2.283   3.158  16.106 -0.7728 -0.0943 -0.4752
  569TMC3    C8 8500   2.318   3.342  16.524  0.4454 -0.4274 -0.2111
  569TMC3    O1 8501   2.336   3.069  16.043 -0.3497 -0.5222  0.0710
  569TMC3    O2 8502   2.204   3.384  16.533 -0.2104 -0.2762  0.4726
  570TMC3    C1 8503   1.860   1.738  15.965 -0.0887  0.2612  0.6844
  570TMC3    C2 8504   1.916   1.738  15.834 -0.0954  0.1949  0.3468
  570TMC3    C3 8505   1.982   1.857  15.800  0.3851  0.3360 -0.5641
  570TMC3    C4 8506   1.847   1.853  16.032 -0.3546  0.3265 -0.1066
  570TMC3    C5 8507   1.900   1.967  15.986  0.3939  0.1049 -0.0465
  570TMC3    C6 8508   1.976   1.971  15.871  0.5343  0.0871  0.2738
  570TMC3     C 8509   1.773   1.636  16.014 -0.0257 -0.1616 -0.0680
  570TMC3     O 8510   1.703   1.570  15.930  0.1151  0.1872  0.5349
  570TMC3     H 8511   1.914   1.648  15.774 -0.4197  1.1571 -1.0923
  570TMC3    H1 8512   1.790   1.868  16.124  1.2142  0.9867  0.7733
  570TMC3    H2 8513   2.016   2.059  15.820  1.3212 -0.0566  0.6538
  570TMC3    C7 8514   1.938   2.060  16.089  0.5070 -0.4038 -0.7523
  570TMC3    C8 8515   2.087   1.865  15.710 -0.7957  0.1670  0.0115
  570TMC3    O1 8516   1.927   2.034  16.211  0.0245  0.0108 -0.2435
  570TMC3    O2 8517   2.185   1.923  15.752 -0.5341 -0.1369 -0.4556
  571MPD2     C 8518   0.056   2.567   0.383  0.1092 -0.0125  0.1520
  571MPD2    C1 8519   0.074   2.566   0.518 -0.0824  0.4378 -0.2887
  571MPD2    C2 8520   0.065   2.685   0.589 -0.5259 -0.4687  0.3328
  571MPD2    C3 8521   0.021   2.803   0.528  0.0923  0.3429  0.5950
  571MPD2    C4 8522   4.723   2.797   0.393 -0.1735  0.4903  0.2798
  571MPD2    C5 8523   0.012   2.680   0.324  0.1407 -1.0576 -0.1364
  571MPD2     H 8524   0.081   2.686   0.696  0.3765 -1.0093  0.2116
  571MPD2    H1 8525   4.694   2.888   0.341 -1.0068 -0.6410 -1.2485
  571MPD2    H2 8526   0.079   2.482   0.319 -0.8731  0.5278 -0.9255
  571MPD2    H3 8527   4.722   2.671   0.219  0.2664 -1.8236 -0.1006
  571MPD2     N 8528   0.016   2.937   0.589 -0.3551 -0.0775  0.1545
  571MPD2    H5 8529   4.699   3.003   0.531 -0.4204  0.5574  0.9253
  571MPD2    N1 8530   0.092   2.450   0.579  0.7431 -0.1528 -0.4406
  571MPD2    H7 8531   0.107   2.373   0.515  1.1493 -0.1565 -0.3406
  572TMC3    C1 8532   0.048   3.104   0.752 -0.2779  0.3878  0.2871
  572TMC3    C2 8533   0.071   3.130   0.881  0.2096  0.2713 -0.0290
  572TMC3    C3 8534   0.031   3.258   0.925  0.2136 -0.1521  0.0561
  572TMC3    C4 8535   4.729   3.195   0.661  0.2449 -0.0517 -0.2263
  572TMC3    C5 8536   4.717   3.334   0.702  0.4344 -0.7636  0.2921
  572TMC3    C6 8537   4.731   3.365   0.835 -0.1382  0.5822 -0.4626
  572TMC3     C 8538   0.076   2.970   0.710 -0.6940  0.0230  0.5349
  572TMC3     O 8539   0.126   2.894   0.795  0.1250  0.0276 -0.1750
  572TMC3     H 8540   0.094   3.056   0.957 -0.5859 -0.3323 -0.3766
  572TMC3    H1 8541   4.728   3.181   0.554 -0.6866 -0.3953 -0.1762
  572TMC3    H2 8542   4.702   3.461   0.878  2.6476  0.9346  0.6538
  572TMC3    C7 8543   4.702   3.430   0.597  0.3346  0.4157  0.2891
  572TMC3    C8 8544   0.054   3.274   1.069  0.1377  0.0730  0.5452
  572TMC3    O1 8545   0.039   3.422   0.498 -0.3133 -0.4081  0.5959
  572TMC3    O2 8546   0.021   3.182   1.144  0.1166  0.0088  0.1710
  573MPD2     C 8547   2.392   4.628   1.564 -1.4195 -0.8249  0.4480
  573MPD2    C1 8548   2.312   4.731   1.521  1.1751 -0.9761 -0.5879
  573MPD2    C2 8549   2.232   4.717   1.414  0.4627  0.2836 -0.9268
  573MPD2    C3 8550   2.216   4.593   1.353  0.2458 -0.5301 -0.2250
  573MPD2    C4 8551   2.288   4.489   1.397 -0.1932  0.5068 -0.1351
  573MPD2    C5 8552   2.374   4.505   1.504  0.2520 -0.3125  0.1777
  573MPD2     H 8553   2.164   0.066   1.393 -0.8186 -0.0505  1.9154
  573MPD2    H1 8554   2.268   4.391   1.354 -3.2302  0.3504  1.7091
  573MPD2    H2 8555   2.464   4.636   1.645  0.1827 -0.1281 -1.0520
  573MPD2    H3 8556   2.434   4.422   1.538 -0.7079 -1.1759 -0.2439
  573MPD2     N 8557   2.116   4.569   1.249  0.0992 -0.0112 -0.7906
  573MPD2    H5 8558   2.113   4.478   1.205  2.5104  0.1566 -1.3178
  573MPD2    N1 8559   2.328   0.136   1.580 -0.3780  0.2845  1.1126
  573MPD2    H7 8560   2.363   0.151   1.674  0.9403  1.3403  0.4584
  574TMC3    C1 8561   1.903   4.611   1.124 -0.9760 -0.2033  0.2701
  574TMC3    C2 8562   1.834   4.693   1.038  0.5634 -0.1478  0.3431
  574TMC3    C3 8563   1.740   4.634   0.960 -0.0379  1.0862  0.0180
  574TMC3    C4 8564   1.871   4.479   1.129  0.1307 -0.0246  0.2860
  574TMC3    C5 8565   1.774   4.427   1.043 -0.0161  0.1667  0.0274
  574TMC3    C6 8566   1.711   4.500   0.951  0.9481  0.1422  0.1391
  574TMC3     C 8567   2.019   4.662   1.201  0.0135  0.2824  0.2080
  574TMC3     O 8568   2.016   0.051   1.215 -0.3951  0.6224 -0.4349
  574TMC3     H 8569   1.837   0.068   1.045 -0.5818 -0.0885 -0.1751
  574TMC3    H1 8570   1.921   4.421   1.206 -2.2226 -3.4201 -0.7362
  574TMC3    H2 8571   1.633   4.462   0.887  0.9442 -0.2976  0.3990
  574TMC3    C7 8572   1.737   4.288   1.053 -0.1272 -0.2049 -0.3862
  574TMC3    C8 8573   1.644   4.717   0.893 -0.5535  0.1106  0.4875
  574TMC3    O1 8574   1.657   4.248   0.969  0.3958 -0.0117  0.5076
  574TMC3    O2 8575   1.539   4.661   0.870  0.3614 -0.1970  0.3099
  575TMC3    C1 8576   3.694   0.649  11.328 -0.5292  0.1029 -0.5261
  575TMC3    C2 8577   3.646   0.525  11.361  0.1432  0.0451 -0.8475
  575TMC3    C3 8578   3.569   0.463  11.270  0.5310  0.0413  0.2195
  575TMC3    C4 8579   3.664   0.707  11.208 -0.8452 -0.7469 -0.0926
  575TMC3    C5 8580   3.618   0.621  11.110 -0.3434 -0.4959  0.0270
  575TMC3    C6 8581   3.553   0.507  11.142  0.3363  0.0773  0.3710
  575TMC3     C 8582   3.726   0.740  11.435  0.0835 -0.3581  0.0291
  575TMC3     O 8583   3.696   0.712  11.552 -0.0011  0.0281  0.0139
  575TMC3     H 8584   3.665   0.484  11.460 -2.5472 -0.7738 -0.6788
  575TMC3    H1 8585   3.711   0.802  11.188  2.2692 -1.9833  1.2218
  575TMC3    H2 8586   3.495   0.454  11.066  0.9345  2.7457 -1.9212
  575TMC3    C7 8587   3.591   0.672  10.980 -0.9394  0.3608 -0.1695
  575TMC3    C8 8588   3.495   0.354  11.315 -0.9189  0.3951  0.4137
  575TMC3    O1 8589   3.573   0.794  10.973  0.4494 -0.2975 -0.3708
  575TMC3    O2 8590   3.541   0.279  11.403 -0.5298 -0.0214 -0.2307
  576MPD2     C 8591   3.114   1.969  12.824 -0.3307 -0.0606  0.5217
  576MPD2    C1 8592   3.124   2.095  12.767 -0.3478  1.2021 -0.1142
  576MPD2    C2 8593   3.052   2.201  12.823 -0.3315 -0.6791  0.5858
  576MPD2    C3 8594   2.962   2.180  12.927 -0.1291  0.0985 -0.5205
  576MPD2    C4 8595   2.952   2.046  12.974 -0.3587 -0.0775 -0.2578
  576MPD2    C5 8596   3.032   1.945  12.932 -0.4515  1.1507 -0.2907
  576MPD2     H 8597   3.068   2.306  12.798  2.4401 -0.8689  1.5027
  576MPD2    H1 8598   2.878   2.020  13.049 -0.2931  0.2124 -0.0952
  576MPD2    H2 8599   3.194   1.906  12.787  0.6914  0.5996  1.6126
  576MPD2    H3 8600   3.035   1.849  12.984 -0.0536  0.4739 -1.5553
  576MPD2     N 8601   2.877   2.287  12.965  0.4914  0.3727  0.1480
  576MPD2    H5 8602   2.888   2.372  12.910 -1.1192 -0.1566 -0.9811
  576MPD2    N1 8603   3.208   2.128  12.651 -0.0758  0.1265 -0.4270
  576MPD2    H7 8604   3.211   2.226  12.628 -0.8566 -0.1627 -1.7522
  577TMC3    C1 8605   3.363   2.105  12.475  0.1840 -0.7243  0.2882
  577TMC3    C2 8606   3.452   2.032  12.402 -0.3274 -0.2973  0.5551
  577TMC3    C3 8607   3.503   2.092  12.288 -0.2169 -0.0843 -0.3158
  577TMC3    C4 8608   3.354   2.239  12.451 -0.5580 -0.0069 -0.5624
  577TMC3    C5 8609   3.413   2.294  12.348  0.0969 -0.4674 -0.0980
  577TMC3    C6 8610   3.493   2.230  12.265 -0.2197  0.4599  0.9248
  577TMC3     C 8611   3.287   2.040  12.578 -0.0537  0.2535 -0.2605
  577TMC3     O 8612   3.297   1.920  12.571  0.2296 -0.3731  0.1359
  577TMC3     H 8613   3.472   1.929  12.427 -1.2807 -0.8342 -0.8649
  577TMC3    H1 8614   3.288   2.308  12.501  0.1955  0.1876  0.1583
  577TMC3    H2 8615   3.516   2.275  12.169  2.2435  0.2750  1.4284
  577TMC3    C7 8616   3.424   2.434  12.339  0.3403  0.3870 -0.2578
  577TMC3    C8 8617   3.591   2.009  12.210 -0.1889 -0.4334 -0.5569
  577TMC3    O1 8618   3.411   2.493  12.446 -0.6606 -0.4508  1.5239
  577TMC3    O2 8619   3.586   1.890  12.223  0.3645  0.1992  0.2198
  578MPD2     C 8620   1.195   2.516   1.012  0.2233 -0.1228 -0.6714
  578MPD2    C1 8621   1.234   2.411   0.941  0.0393  0.0098  0.4348
  578MPD2    C2 8622   1.368   2.392   0.918 -0.2990 -0.7230  0.0577
  578MPD2    C3 8623   1.467   2.484   0.949 -0.5149  0.7532  0.0895
  578MPD2    C4 8624   1.426   2.586   1.023  0.5339  0.3003  0.1316
  578MPD2    C5 8625   1.295   2.602   1.057 -0.0818  0.2094 -1.0055
  578MPD2     H 8626   1.405   2.305   0.864  0.3643  0.5175 -1.4776
  578MPD2    H1 8627   1.497   2.644   1.081 -0.0293  0.0777  1.0612
  578MPD2    H2 8628   1.092   2.520   1.045  0.9555 -1.8318  1.8241
  578MPD2    H3 8629   1.264   2.696   1.102  1.5917 -0.7349  2.1140
  578MPD2     N 8630   1.604   2.451   0.900 -0.5716 -0.2105  0.0771
  578MPD2    H5 8631   1.620   2.366   0.847 -2.1856 -0.9332  0.7423
  578MPD2    N1 8632   1.124   2.321   0.906 -0.1209  0.4306  0.0875
  578MPD2    H7 8633   1.034   2.366   0.907 -1.0440 -1.3724 -1.6975
  579TMC3    C1 8634   1.844   2.505   0.887 -0.1404 -0.1047  0.4988
  579TMC3    C2 8635   1.927   2.607   0.881 -0.2374 -0.2020  0.1071
  579TMC3    C3 8636   2.044   2.588   0.817  0.3560  0.3776  0.6840
  579TMC3    C4 8637   1.865   2.383   0.813 -0.1551 -0.0488  0.2673
  579TMC3    C5 8638   1.978   2.380   0.743  0.1327 -0.6793 -0.4004
  579TMC3    C6 8639   2.076   2.475   0.748 -1.0883  0.7243 -0.5365
  579TMC3     C 8640   1.708   2.540   0.930  0.2618  0.2027 -0.3380
  579TMC3     O 8641   1.692   2.652   0.970 -0.1470  0.0689  0.1660
  579TMC3     H 8642   1.904   2.701   0.930  0.5781 -0.1875  0.4588
  579TMC3    H1 8643   1.802   2.295   0.823 -2.4952  1.6193  0.1290
  579TMC3    H2 8644   2.172   2.458   0.700 -0.4276 -0.0575  1.0462
  579TMC3    C7 8645   2.032   2.253   0.689 -0.1486  0.2814  0.2449
  579TMC3    C8 8646   2.161   2.652   0.870  0.0488  0.0519  0.2425
  579TMC3    O1 8647   2.152   2.235   0.673  0.0140 -0.1711  0.7537
  579TMC3    O2 8648   2.139   2.755   0.929 -0.1225  0.1916  0.4287
  580TMC3    C1 8649   1.436   0.960  12.255  0.3207  0.6199  0.2403
  580TMC3    C2 8650   1.540   0.966  12.159 -0.1983 -0.6521  0.2252
  580TMC3    C3 8651   1.668   0.923  12.197 -0.0368 -0.1529  0.2305
  580TMC3    C4 8652   1.455   0.917  12.383  0.1213 -0.0040 -0.1600
  580TMC3    C5 8653   1.578   0.880  12.421 -0.3779 -0.1506  0.0484
  580TMC3    C6 8654   1.679   0.881  12.329 -0.1663 -0.3590 -0.2357
  580TMC3     C 8655   1.338   1.064  12.234 -0.5237 -0.0011  0.2143
  580TMC3     O 8656   1.340   1.122  12.128 -0.4538  0.0811 -0.2786
  580TMC3     H 8657   1.535   1.022  12.067  2.8702  0.7138  0.9041
  580TMC3    H1 8658   1.373   0.893  12.450  0.0408 -0.3792 -0.3905
  580TMC3    H2 8659   1.782   0.875  12.359  0.0103  1.7419 -0.3660
  580TMC3    C7 8660   1.583   0.803  12.550  1.1583  0.0972  0.0657
  580TMC3    C8 8661   1.764   1.025  12.158  0.6512  0.2649 -0.3084
  580TMC3    O1 8662   1.481   0.787  12.615  0.2495 -0.0454  0.2028
  580TMC3    O2 8663   1.811   1.094  12.251  0.1116 -0.3947 -0.3909
  581MPD2     C 8664   3.673   0.431  15.154 -0.7307  0.4274 -0.6264
  581MPD2    C1 8665   3.800   0.485  15.136 -0.7255  0.8786 -0.1478
  581MPD2    C2 8666   3.828   0.563  15.024 -0.6775  0.6367 -0.0236
  581MPD2    C3 8667   3.728   0.591  14.935  0.3337 -0.3839 -0.0769
  581MPD2    C4 8668   3.600   0.546  14.968 -0.0696  0.2639 -0.5785
  581MPD2    C5 8669   3.571   0.470  15.079  0.9197 -0.2196  0.3564
  581MPD2     H 8670   3.930   0.591  15.001 -0.1166 -2.7787 -1.7214
  581MPD2    H1 8671   3.516   0.575  14.906 -2.6986 -0.3194  2.7043
  581MPD2    H2 8672   3.649   0.372  15.241 -1.1921 -0.7419 -1.5556
  581MPD2    H3 8673   3.474   0.432  15.107  0.2913  1.9471  1.0954
  581MPD2     N 8674   3.765   0.673  14.825  0.4876 -0.0325 -0.2946
  581MPD2    H5 8675   3.857   0.714  14.821  0.6925 -0.8540 -3.8257
  581MPD2    N1 8676   3.903   0.449  15.226 -0.0835 -0.0583  0.3646
  581MPD2    H7 8677   3.869   0.379  15.291  0.6172 -0.6735  0.0561
  582TMC3    C1 8678   4.096   0.424  15.339 -0.3766 -0.0881  0.2139
  582TMC3    C2 8679   4.129   0.501  15.451  0.2976 -0.2565  0.5005
  582TMC3    C3 8680   4.109   0.445  15.575  0.5526 -0.0704 -0.1647
  582TMC3    C4 8681   4.037   0.295  15.354  0.8903  0.0785 -0.3086
  582TMC3    C5 8682   4.009   0.252  15.482  0.3433  0.0291  0.1665
  582TMC3    C6 8683   4.041   0.332  15.589  0.5738  0.0007  0.1570
  582TMC3     C 8684   4.031   0.498  15.239  0.4476 -0.0447  0.0732
  582TMC3     O 8685   4.094   0.595  15.199  0.2531  0.6327 -0.2889
  582TMC3     H 8686   4.152   0.606  15.437  0.7467 -0.6604 -1.7507
  582TMC3    H1 8687   4.005   0.235  15.270  0.5635  1.3687 -1.1205
  582TMC3    H2 8688   4.010   0.306  15.689  2.0159 -0.7106  0.4137
  582TMC3    C7 8689   3.869   0.212  15.480 -0.0944  0.3948  0.3698
  582TMC3    C8 8690   4.141   0.518  15.695  0.5396 -0.4975 -0.0190
  582TMC3    O1 8691   3.822   0.120  15.412 -0.1859  0.3827  0.0102
  582TMC3    O2 8692   4.100   0.478  15.803 -0.5785 -0.1472 -0.3258
  583MPD2     C 8693   4.078   2.279  16.903 -0.5430 -0.1363  0.8323
  583MPD2    C1 8694   3.992   2.346  16.824 -0.0158 -0.2973 -0.3501
  583MPD2    C2 8695   3.899   2.435  16.877  0.2058 -0.2099  0.0268
  583MPD2    C3 8696   3.898   2.453  17.018  0.3545  0.2573 -1.0670
  583MPD2    C4 8697   3.992   2.388  17.095  0.9525 -0.5320  0.6181
  583MPD2    C5 8698   4.078   2.303  17.033  0.8549 -0.1233 -0.2881
  583MPD2     H 8699   3.827   2.481  16.810  0.2810  0.8184  0.6395
  583MPD2    H1 8700   3.990   2.398  17.203 -2.5420 -0.0856  0.5255
  583MPD2    H2 8701   4.155   2.213  16.865  0.4781  0.8432  1.2101
  583MPD2    H3 8702   4.155   2.261  17.096  0.6269  1.0229  0.7618
  583MPD2     N 8703   3.815   2.535  17.098 -0.5240 -0.1284 -0.1789
  583MPD2    H5 8704   3.843   2.548  17.195 -0.2658  1.0873 -0.4076
  583MPD2    N1 8705   3.999   2.352  16.685 -0.4643 -0.6300  0.4131
  583MPD2    H7 8706   3.944   2.424  16.641 -1.4573 -0.7069  1.5142
  584TMC3    C1 8707   3.641   2.687  17.146 -0.1249  0.0061 -0.5850
  584TMC3    C2 8708   3.598   2.807  17.110  0.2335 -0.7873 -0.4912
  584TMC3    C3 8709   3.556   2.893  17.206  0.0743  0.2540 -0.4890
  584TMC3    C4 8710   3.637   2.643  17.283 -0.0468  0.0282 -0.0118
  584TMC3    C5 8711   3.586   2.733  17.376  0.4318 -0.4842 -0.4689
  584TMC3    C6 8712   3.545   2.859  17.336 -0.2795  0.0028 -0.3146
  584TMC3     C 8713   3.712   2.610  17.049  0.0610  0.2289  0.1764
  584TMC3     O 8714   3.691   2.635  16.931  0.1373  0.0603 -0.3122
  584TMC3     H 8715   3.615   2.839  17.008  0.8598  0.1092 -0.1036
  584TMC3    H1 8716   3.648   2.537  17.304 -2.3718 -0.1355  0.3793
  584TMC3    H2 8717   3.501   2.931  17.403  0.8411 -0.3885  0.8412
  584TMC3    C7 8718   3.533   2.670  17.488 -0.0926 -0.3121  0.6424
  584TMC3    C8 8719   3.561   3.034  17.169 -0.5898  0.2007  0.1511
  584TMC3    O1 8720   3.594   2.577  17.540 -0.1440 -0.2488 -0.6512
  584TMC3    O2 8721   3.513   3.068  17.062  0.2586 -0.2396  0.3378
  585MPD2     C 8722   3.477   1.473   0.362 -0.1843  0.4354  0.0377
  585MPD2    C1 8723   3.512   1.540   0.245 -1.2142  0.3786 -0.7573
  585MPD2    C2 8724   3.502   1.472   0.124  0.4113 -0.6884 -0.2334
  585MPD2    C3 8725   3.445   1.344   0.117  1.2654 -0.6023  0.9671
  585MPD2    C4 8726   3.406   1.282   0.235 -0.1532 -0.1931 -0.1706
  585MPD2    C5 8727   3.420   1.347   0.354 -0.2970  0.2307 -0.2196
  585MPD2     H 8728   3.520   1.527   0.033  1.0902 -0.5466 -0.0088
  585MPD2    H1 8729   3.353   1.187   0.239  0.4285 -0.4604  1.3492
  585MPD2    H2 8730   3.487   1.536   0.449 -4.3943  1.1724 -0.0390
  585MPD2    H3 8731   3.378   1.307   0.445  0.2350  3.1780  1.3061
  585MPD2     N 8732   3.430   1.264   0.000  0.4149  0.4543 -0.3351
  585MPD2    H5 8733   3.404   1.168   0.017 -0.7019  0.3904 -2.4207
  585MPD2    N1 8734   3.532   1.680   0.251 -0.5832 -0.1385  0.3332
  585MPD2    H7 8735   3.508   1.719   0.341 -1.3427 -1.0149  0.5090
  586TMC3    C1 8736   3.423   1.197  17.515 -0.1201  0.1496  0.3799
  586TMC3    C2 8737   3.526   1.171  17.423  0.8679  0.1817  0.2049
  586TMC3    C3 8738   3.526   1.052  17.356 -0.0344 -0.5821  0.1677
  586TMC3    C4 8739   3.328   1.101  17.541 -0.6674  0.2135  0.3891
  586TMC3    C5 8740   3.338   0.982  17.476 -0.0639 -0.5367 -0.4895
  586TMC3    C6 8741   3.426   0.956  17.379  0.4698 -0.1126 -0.8164
  586TMC3     C 8742   3.440   1.309  17.603 -0.1295 -0.1079  0.0962
  586TMC3     O 8743   3.489   1.413  17.557 -0.0047  0.8955 -0.4599
  586TMC3     H 8744   3.584   1.254  17.384  0.4650 -0.1889 -1.1959
  586TMC3    H1 8745   3.258   1.119  17.622 -1.5790 -0.4715 -0.2408
  586TMC3    H2 8746   3.427   0.857  17.335 -0.4875  0.2264 -1.5883
  586TMC3    C7 8747   3.217   0.913  17.462  0.6454  0.0794  0.1365
  586TMC3    C8 8748   3.643   0.987  17.292 -0.0974  0.6701 -0.2504
  586TMC3    O1 8749   3.216   0.788  17.462 -0.2280 -0.0580 -0.1577
  586TMC3    O2 8750   3.624   0.874  17.252  0.1627  0.2441  0.0772
  587TMC3    C1 8751   0.542   4.590  16.142  0.1194  0.0706  0.1732
  587TMC3    C2 8752   0.518   4.700  16.226  0.5235  0.3054  0.3063
  587TMC3    C3 8753   0.631   0.014  16.296 -0.5183  0.2583 -0.0250
  587TMC3    C4 8754   0.666   4.539  16.112  0.5352  0.2462 -0.2645
  587TMC3    C5 8755   0.772   4.598  16.174  0.3576 -0.3503  0.0265
  587TMC3    C6 8756   0.753   4.692  16.272 -0.0163 -0.0773 -0.1846
  587TMC3     C 8757   0.427   4.523  16.084 -0.9618  0.0089 -0.2899
  587TMC3     O 8758   0.451   4.460  15.979  0.1736 -0.6366 -0.0235
  587TMC3     H 8759   0.418   0.008  16.240  0.0397 -1.4908  2.1521
  587TMC3    H1 8760   0.670   4.462  16.036  0.8948 -0.2504  0.2492
  587TMC3    H2 8761   0.833   4.705  16.345 -0.9219 -0.6158  0.9078
  587TMC3    C7 8762   0.899   4.536  16.160  0.5949 -0.4578 -0.0945
  587TMC3    C8 8763   0.623   0.122  16.390  0.2217  0.7222  0.9934
  587TMC3    O1 8764   0.906   4.418  16.126  0.1670  0.3196 -0.4488
  587TMC3    O2 8765   0.728   0.145  16.448  0.1658  0.0299 -0.0593
  588TMC3    C1 8766   2.989   3.468  10.059  0.1937  0.2240  0.2339
  588TMC3    C2 8767   2.924   3.352  10.084 -0.3330 -0.4897 -0.2712
  588TMC3    C3 8768   2.995   3.234  10.066  0.0340 -0.8154 -0.0704
  588TMC3    C4 8769   3.117   3.475  10.006 -0.0527  0.2942 -0.7350
  588TMC3    C5 8770   3.190   3.357   9.986  0.2702  0.4167  0.0592
  588TMC3    C6 8771   3.125   3.239  10.013 -0.3963  0.7157  0.2054
  588TMC3     C 8772   2.912   3.588  10.098  0.1579  0.1885 -0.1207
  588TMC3     O 8773   2.791   3.584  10.086 -0.8771  0.6765  1.0529
  588TMC3     H 8774   2.827   3.350  10.131 -1.0593  0.9884 -1.7180
  588TMC3    H1 8775   3.158   3.569   9.972  1.2763 -0.2522 -0.6444
  588TMC3    H2 8776   3.178   3.149   9.982 -0.5243  0.7810 -0.1981
  588TMC3    C7 8777   3.332   3.371   9.967  0.0353 -0.0595 -0.0265
  588TMC3    C8 8778   2.914   3.114  10.072  0.5995  0.1245 -0.5492
  588TMC3    O1 8779   3.398   3.276   9.923 -0.3563 -0.4407  0.2541
  588TMC3    O2 8780   2.796   3.123  10.045 -0.4169 -0.5312  0.0291
  589TMC3    C1 8781   2.632   0.937   1.203 -0.3169 -0.2635 -0.1231
  589TMC3    C2 8782   2.730   0.940   1.294 -0.9076  0.8898 -0.1910
  589TMC3    C3 8783   2.826   0.848   1.285  0.0087 -0.5545 -0.3357
  589TMC3    C4 8784   2.610   0.832   1.120  0.7193 -0.3835  0.6458
  589TMC3    C5 8785   2.706   0.730   1.119  0.3960 -0.8796  0.2123
  589TMC3    C6 8786   2.810   0.736   1.204 -0.7685  0.8534  0.1120
  589TMC3     C 8787   2.522   1.028   1.228  0.3783  0.4006 -0.3729
  589TMC3     O 8788   2.414   0.985   1.178  0.5421 -0.5213  0.2960
  589TMC3     H 8789   2.743   1.023   1.362 -0.1492  0.6962 -0.1056
  589TMC3    H1 8790   2.538   0.833   1.039  0.6877  0.8895  0.6915
  589TMC3    H2 8791   2.865   0.644   1.218 -2.0034  0.2663  1.0178
  589TMC3    C7 8792   2.677   0.614   1.028  0.6936  0.0574 -0.0552
  589TMC3    C8 8793   2.951   0.856   1.364 -0.1983 -0.4337  0.2491
  589TMC3    O1 8794   2.566   0.570   1.006 -0.5301 -0.9554  0.0683
  589TMC3    O2 8795   2.948   0.951   1.438  0.3173  0.3747  0.2185
  590MPD2     C 8796   1.622   3.064  16.610 -0.5875 -0.0614 -0.9370
  590MPD2    C1 8797   1.625   3.091  16.472 -0.5869 -0.9209 -0.4703
  590MPD2    C2 8798   1.723   3.190  16.438 -0.3014  0.5208 -0.1874
  590MPD2    C3 8799   1.798   3.262  16.534 -0.2868  0.0315 -0.4549
  590MPD2    C4 8800   1.780   3.238  16.662 -0.2926  0.4906  0.5780
  590MPD2    C5 8801   1.694   3.136  16.699 -0.8507  0.9822 -0.4812
  590MPD2     H 8802   1.726   3.218  16.333  1.3912 -0.3022 -0.3562
  590MPD2    H1 8803   1.847   3.284  16.734 -0.5369 -1.0958  1.8030
  590MPD2    H2 8804   1.555   2.987  16.646 -2.1052  3.4930  3.8486
  590MPD2    H3 8805   1.678   3.104  16.801  0.4205  0.7865 -0.3485
  590MPD2     N 8806   1.872   3.377  16.483 -0.2700 -0.8192 -0.3470
  590MPD2    H5 8807   1.894   3.372  16.384 -0.2441 -0.5736 -0.3548
  590MPD2    N1 8808   1.536   3.026  16.380  0.0261 -0.0107 -0.1066
  590MPD2    H7 8809   1.457   2.975  16.419 -0.1849 -1.2330 -2.1158
  591TMC3    C1 8810   1.950   3.599  16.471  0.0004 -0.0443 -0.1481
  591TMC3    C2 8811   2.014   3.576  16.352  0.9421  0.1468 -0.0872
  591TMC3    C3 8812   2.048   3.682  16.270  0.1136  0.2735  0.3346
  591TMC3    C4 8813   1.920   3.726  16.515  0.1275  0.4858  0.2772
  591TMC3    C5 8814   1.948   3.824  16.425 -0.1001 -0.0857 -0.1845
  591TMC3    C6 8815   2.022   3.813  16.310 -0.0832 -0.1410 -0.5973
  591TMC3     C 8816   1.894   3.494  16.557 -0.1705 -0.2825 -0.4554
  591TMC3     O 8817   1.876   3.512  16.676 -0.0084 -0.1639  0.4757
  591TMC3     H 8818   2.053   3.476  16.338 -0.3609 -0.4363  0.3815
  591TMC3    H1 8819   1.857   3.738  16.602  1.4909  1.5409  1.1224
  591TMC3    H2 8820   2.033   3.899  16.245  0.0982 -0.1869 -0.6257
  591TMC3    C7 8821   1.851   3.933  16.435 -0.5132 -0.3794  0.0574
  591TMC3    C8 8822   2.035   3.644  16.127 -0.2024  0.5783  0.3797
  591TMC3    O1 8823   1.746   3.907  16.496 -0.0743 -0.4133 -0.4662
  591TMC3    O2 8824   2.023   3.523  16.106  0.1389 -0.2903 -0.2318
  592MPD2     C 8825   2.275   0.999  11.178  0.3412  0.4770 -0.2913
  592MPD2    C1 8826   2.240   1.002  11.308 -0.6470  0.4225  0.6993
  592MPD2    C2 8827   2.164   0.896  11.358 -0.5346 -0.6626  0.0733
  592MPD2    C3 8828   2.130   0.794  11.276  0.6364 -0.5415  0.6773
  592MPD2    C4 8829   2.156   0.807  11.142  0.3498  0.5633 -0.0241
  592MPD2    C5 8830   2.225   0.907  11.091  0.0330  0.3863  0.6960
  592MPD2     H 8831   2.155   0.887  11.466  1.7000  0.4753  0.3668
  592MPD2    H1 8832   2.114   0.734  11.073  0.0874  0.3779  0.3308
  592MPD2    H2 8833   2.342   1.075  11.139  0.3409  1.6504  2.0283
  592MPD2    H3 8834   2.237   0.921  10.984  2.1154 -0.8030  0.7641
  592MPD2     N 8835   2.063   0.684  11.336  0.1572 -0.2081  0.0863
  592MPD2    H5 8836   2.035   0.683  11.434 -2.3005 -1.1231 -0.6086
  592MPD2    N1 8837   2.300   1.095  11.391  0.6001 -0.3148  0.3652
  592MPD2    H7 8838   2.373   1.148  11.345  1.3491  0.6062  2.5813
  593TMC3    C1 8839   2.362   1.204  11.590  0.1282  0.7240 -0.1659
  593TMC3    C2 8840   2.315   1.299  11.679  0.2604  0.5615  0.0936
  593TMC3    C3 8841   2.385   1.401  11.720  0.6551  0.0268 -0.3505
  593TMC3    C4 8842   2.491   1.200  11.557  0.1411 -0.3378 -0.0952
  593TMC3    C5 8843   2.569   1.294  11.613 -0.1143 -0.4592  0.2050
  593TMC3    C6 8844   2.524   1.399  11.692  0.1340  0.1740 -0.2475
  593TMC3     C 8845   2.279   1.110  11.528  0.7783  0.1095  0.1334
  593TMC3     O 8846   2.200   1.063  11.598 -0.3828  0.3467  0.1399
  593TMC3     H 8847   2.211   1.284  11.706  0.6381 -1.6525  0.3759
  593TMC3    H1 8848   2.530   1.125  11.489  1.4981  1.2234 -1.0745
  593TMC3    H2 8849   2.582   1.480  11.735  0.3409 -1.1671  1.9690
  593TMC3    C7 8850   2.699   1.330  11.565  0.3238  0.3185  0.1051
  593TMC3    C8 8851   2.325   1.508  11.805  0.3758 -0.2082 -0.3248
  593TMC3    O1 8852   2.721   1.450  11.559  0.1109 -0.1850  0.3057
  593TMC3    O2 8853   2.203   1.519  11.807  1.0015  0.1651 -0.1883
  594MPD2     C 8854   0.607   4.317  14.436  0.5346  0.2563  0.4509
  594MPD2    C1 8855   0.662   4.233  14.530  0.0489  0.3314 -0.2882
  594MPD2    C2 8856   0.779   4.273  14.591 -0.5173  0.2926  0.0103
  594MPD2    C3 8857   0.853   4.379  14.541  0.4828  0.4265  0.6150
  594MPD2    C4 8858   0.801   4.447  14.435  0.2453  0.2555  0.3272
  594MPD2    C5 8859   0.680   4.424  14.385 -0.3836 -0.3082  0.0049
  594MPD2     H 8860   0.823   4.214  14.671  0.1726  0.0154 -0.5785
  594MPD2    H1 8861   0.854   4.528  14.386 -2.3583  0.4280 -2.2242
  594MPD2    H2 8862   0.517   4.290  14.381 -0.9908 -0.5299  3.3371
  594MPD2    H3 8863   0.639   4.483  14.304 -0.2367  1.4918  1.2492
  594MPD2     N 8864   0.981   4.418  14.596  0.8444 -0.0706 -0.2977
  594MPD2    H5 8865   1.007   4.371  14.682  1.2135  0.3853 -0.1560
  594MPD2    N1 8866   0.575   4.135  14.579  0.3401 -0.0538 -0.2557
  594MPD2    H7 8867   0.487   4.116  14.532  0.1007 -0.1096  0.2115
  595TMC3    C1 8868   1.365   4.654  14.707  0.1277 -0.1652 -0.3953
  595TMC3    C2 8869   1.275   4.624  14.608 -0.3312 -0.5695  0.1590
  595TMC3    C3 8870   1.169   4.547  14.646  0.6262  0.1752 -0.3973
  595TMC3    C4 8871   1.351   4.601  14.835 -0.5028 -0.5669  0.7199
  595TMC3    C5 8872   1.232   4.546  14.872 -0.5984  0.1753 -0.1248
  595TMC3    C6 8873   1.139   4.513  14.775 -0.5491  0.2876 -0.5197
  595TMC3     C 8874   1.479   0.008  14.682  0.0796 -0.0408  0.3043
  595TMC3     O 8875   1.575   4.724  14.754 -0.2427  0.4964 -0.5334
  595TMC3     H 8876   1.285   4.655  14.504  0.8672 -0.0960  0.4183
  595TMC3    H1 8877   1.421   4.635  14.910 -2.3745  2.0692  1.2917
  595TMC3    H2 8878   1.047   4.473  14.818 -1.0133  0.5174 -1.2942
  595TMC3    C7 8879   1.177   4.590  15.000  0.7377  0.0017 -0.2445
  595TMC3    C8 8880   1.063   4.525  14.551  0.2697 -0.3459 -0.3270
  595TMC3    O1 8881   1.058   4.614  15.015  0.0415  0.3062  0.0020
  595TMC3    O2 8882   1.059   4.592  14.450 -0.2222  0.0853 -0.4890
  596MPD2     C 8883   0.222   2.315  16.744  0.3378 -0.5021  0.5838
  596MPD2    C1 8884   0.124   2.412  16.721 -0.1967  0.5970 -0.8208
  596MPD2    C2 8885   0.061   2.419  16.602  1.0549 -0.8467 -0.1866
  596MPD2    C3 8886   0.088   2.332  16.498 -0.0891 -0.8204  0.4012
  596MPD2    C4 8887   0.181   2.231  16.525  0.4616  0.3038 -0.0016
  596MPD2    C5 8888   0.243   2.222  16.647  0.4470 -0.0879 -1.0847
  596MPD2     H 8889   4.715   2.493  16.590  1.9428  0.1183 -0.0786
  596MPD2    H1 8890   0.203   2.153  16.452 -1.9716 -0.1183 -0.2793
  596MPD2    H2 8891   0.267   2.296  16.841 -0.0524 -1.4098  0.5900
  596MPD2    H3 8892   0.313   2.143  16.668 -0.1838  0.1527  2.0357
  596MPD2     N 8893   0.017   2.313  16.374  0.2841 -0.3693 -0.4827
  596MPD2    H5 8894   0.054   2.237  16.318 -0.2692 -0.5540 -0.5946
  596MPD2    N1 8895   0.098   2.519  16.812  0.1620  0.1347  0.3358
  596MPD2    H7 8896   0.052   2.598  16.768 -0.8530 -1.5245 -1.6148
  597TMC3    C1 8897   0.110   2.635  17.031  0.1910 -0.5274 -0.0730
  597TMC3    C2 8898   0.188   2.637  17.143  0.5592  0.6821 -0.3600
  597TMC3    C3 8899   0.157   2.731  17.236 -0.8502 -0.0442  1.0779
  597TMC3    C4 8900   0.006   2.723  17.001  0.6527 -0.0975 -0.5763
  597TMC3    C5 8901   4.712   2.804  17.108 -0.6217  0.1335 -0.0074
  597TMC3    C6 8902   0.054   2.817  17.221 -0.0813 -0.6864 -0.1098
  597TMC3     C 8903   0.138   2.520  16.940  0.5923  0.3307 -1.4209
  597TMC3     O 8904   0.169   2.418  17.002  0.2021  0.2268  0.5518
  597TMC3     H 8905   0.252   2.553  17.165  0.0518  0.1690 -0.8300
  597TMC3    H1 8906   4.681   2.728  16.909  0.8970  2.6713 -0.5966
  597TMC3    H2 8907   0.024   2.886  17.298  0.1539  0.0815 -0.7066
  597TMC3    C7 8908   4.588   2.871  17.101  0.1178 -0.0871  0.4123
  597TMC3    C8 8909   0.215   2.718  17.366  0.7105 -0.2997 -0.5855
  597TMC3    O1 8910   4.525   2.864  16.994 -0.0949  0.1882  0.3978
  597TMC3    O2 8911   0.154   2.778  17.451 -0.0337  0.0728 -0.6860
  598TMC3    C1 8912   2.606   3.804  15.409 -0.3837 -1.1285 -0.2093
  598TMC3    C2 8913   2.482   3.860  15.400  0.0794  0.4520  0.3591
  598TMC3    C3 8914   2.456   3.986  15.349  0.4959  0.1248 -0.6451
  598TMC3    C4 8915   2.708   3.872  15.345 -0.1868  0.2802 -0.3465
  598TMC3    C5 8916   2.680   3.997  15.287 -0.0011 -0.2666  0.3101
  598TMC3    C6 8917   2.557   4.054  15.288  0.0210  0.3598  0.3087
  598TMC3     C 8918   2.640   3.739  15.535  0.2889  0.7480  0.6094
  598TMC3     O 8919   2.557   3.761  15.621  0.0223 -0.1363 -0.3820
  598TMC3     H 8920   2.402   3.807  15.449 -1.5961 -0.6283 -3.5380
  598TMC3    H1 8921   2.806   3.827  15.335  0.1100  0.9172 -0.2959
  598TMC3    H2 8922   2.543   4.145  15.230 -2.7077 -0.7572 -0.8002
  598TMC3    C7 8923   2.764   4.020  15.163  0.3649  0.1961 -0.1143
  598TMC3    C8 8924   2.316   4.019  15.321  0.3741 -0.0334 -0.6069
  598TMC3    O1 8925   2.808   3.923  15.103 -0.3527  0.5982  0.1078
  598TMC3    O2 8926   2.312   4.136  15.299  0.2488 -0.0692 -1.2991
  599MPD2     C 8927   3.368   1.198  16.026  0.5399 -0.2792  0.5532
  599MPD2    C1 8928   3.294   1.084  16.023 -0.7606 -0.3818  0.3740
  599MPD2    C2 8929   3.162   1.091  16.069 -0.1739 -0.0202  0.6943
  599MPD2    C3 8930   3.110   1.211  16.104  0.5159  0.3152 -0.5439
  599MPD2    C4 8931   3.186   1.324  16.106 -0.2842 -0.1031  0.2222
  599MPD2    C5 8932   3.314   1.321  16.063 -0.2587  0.0005 -1.3538
  599MPD2     H 8933   3.096   1.010  16.098  1.3814 -0.6460  2.4903
  599MPD2    H1 8934   3.147   1.416  16.147  1.3102  1.9403 -2.8442
  599MPD2    H2 8935   3.475   1.195  16.007  0.2706 -1.3521 -0.7568
  599MPD2    H3 8936   3.374   1.411  16.061  0.0053 -0.1498 -0.2268
  599MPD2     N 8937   2.972   1.229  16.148  0.3104  0.0383  0.2197
  599MPD2    H5 8938   2.948   1.320  16.187 -2.9688  0.1043 -1.9434
  599MPD2    N1 8939   3.360   0.972  15.973  0.2154 -0.5038  0.5235
  599MPD2    H7 8940   3.461   0.969  15.965 -0.0635 -0.2653 -2.8654
  600TMC3    C1 8941   2.747   1.195  16.201 -0.4193  0.2035  0.0417
  600TMC3    C2 8942   2.635   1.129  16.183  0.5533  0.3011 -0.4476
  600TMC3    C3 8943   2.507   1.181  16.196 -0.4873  0.3138  0.3239
  600TMC3    C4 8944   2.738   1.329  16.240  0.2810 -0.0190 -0.9255
  600TMC3    C5 8945   2.613   1.379  16.257  0.9515 -1.0328  0.5021
  600TMC3    C6 8946   2.496   1.314  16.233 -0.2009  0.0584  0.1510
  600TMC3     C 8947   2.875   1.138  16.154  0.5727  0.1057 -0.7184
  600TMC3     O 8948   2.878   1.019  16.120 -0.3869 -0.2744 -1.0800
  600TMC3     H 8949   2.646   1.024  16.159 -1.0480 -0.1817  0.9028
  600TMC3    H1 8950   2.823   1.394  16.252 -0.6423  0.6412  1.9321
  600TMC3    H2 8951   2.402   1.366  16.253 -0.1869 -0.2297  0.9720
  600TMC3    C7 8952   2.603   1.504  16.324 -0.5994 -1.2517  0.1586
  600TMC3    C8 8953   2.407   1.079  16.246 -0.2226  0.3047 -0.6731
  600TMC3    O1 8954   2.525   1.599  16.297 -0.0699  0.2464 -0.2769
  600TMC3    O2 8955   2.449   0.963  16.260  0.6388 -0.1429 -0.3171
  601MPD2     C 8956   4.540   3.899   0.446  0.5301  0.7125  0.0285
  601MPD2    C1 8957   4.644   3.825   0.394 -0.5772 -0.2403  0.2486
  601MPD2    C2 8958   4.663   3.700   0.452  0.3078  0.2712 -0.2780
  601MPD2    C3 8959   4.586   3.653   0.558 -0.3264 -0.1898  0.0077
  601MPD2    C4 8960   4.486   3.732   0.606 -0.3057  0.5525  0.0163
  601MPD2    C5 8961   4.461   3.853   0.545  0.6666 -0.6316 -0.2680
  601MPD2     H 8962   0.007   3.638   0.406 -3.2472 -3.7145 -0.8045
  601MPD2    H1 8963   4.427   3.710   0.695  1.3430 -1.1158  0.7029
  601MPD2    H2 8964   4.504   3.993   0.403 -2.0038 -0.8136 -1.1931
  601MPD2    H3 8965   4.388   3.923   0.584 -1.1653 -1.0287 -2.9829
  601MPD2     N 8966   4.616   3.533   0.631 -0.4869  0.2155 -0.1095
  601MPD2    H5 8967   4.562   3.517   0.715  1.3836 -0.9787  0.8501
  601MPD2    N1 8968   4.727   3.867   0.285 -0.2332 -0.4239 -0.3305
  601MPD2    H7 8969   0.057   3.799   0.244  0.7414  0.6438 -0.6228
  602TMC3    C1 8970   0.069   3.999   0.100 -0.4909  0.7302 -0.1832
  602TMC3    C2 8971   0.113   4.126   0.075  0.2116 -0.2067 -0.2325
  602TMC3    C3 8972   0.087   4.173  17.681  0.1487 -0.0518  0.0843
  602TMC3    C4 8973   0.009   3.925   0.001 -0.4619 -0.6349 -0.3172
  602TMC3    C5 8974   4.716   3.981  17.608  0.7488 -0.3122  0.1789
  602TMC3    C6 8975   0.020   4.111  17.577 -0.4674  0.2205 -0.2106
  602TMC3     C 8976   4.730   3.992   0.230  0.3424  0.4449  0.2903
  602TMC3     O 8977   4.691   4.094   0.281  0.4123 -0.5491  0.5378
  602TMC3     H 8978   0.145   4.195   0.152  0.2471  0.2720 -0.6740
  602TMC3    H1 8979   4.671   3.849   0.031 -0.9583  0.8993  2.4246
  602TMC3    H2 8980   0.015   4.159  17.480  1.4441  0.6908 -0.0624
  602TMC3    C7 8981   4.605   3.920  17.529 -0.0243  0.2889  0.0572
  602TMC3    C8 8982   0.100   4.318  17.656 -0.1797 -0.1846  0.7720
  602TMC3    O1 8983   4.594   3.798  17.517  0.1914  0.3729 -0.1998
  602TMC3    O2 8984   0.178   4.383  17.728  0.2223 -0.4073 -0.7506
  603TMC3    C1 8985   3.052   0.589  10.716  0.0163  0.5371  0.3211
  603TMC3    C2 8986   3.146   0.570  10.810  0.8046 -0.8512  0.1575
  603TMC3    C3 8987   3.197   0.674  10.880 -0.2005 -0.0129  0.2083
  603TMC3    C4 8988   2.993   0.712  10.692  0.5270  0.2845  0.0995
  603TMC3    C5 8989   3.039   0.815  10.772  0.0583  0.2748 -0.5549
  603TMC3    C6 8990   3.148   0.806  10.854  0.0887 -0.2531  0.2470
  603TMC3     C 8991   3.007   0.468  10.637 -0.2499  0.4972 -0.5123
  603TMC3     O 8992   3.067   0.365  10.651 -0.1459 -0.2996 -0.0867
  603TMC3     H 8993   3.180   0.467  10.819  1.8614 -0.4602  0.6620
  603TMC3    H1 8994   2.924   0.721  10.609  1.1093  0.3125 -0.3846
  603TMC3    H2 8995   3.152   0.892  10.920 -0.5393  1.5033 -2.0414
  603TMC3    C7 8996   2.986   0.949  10.747 -0.3156  1.0217  0.3361
  603TMC3    C8 8997   3.238   0.634  11.014  0.1643 -0.6937 -0.7825
  603TMC3    O1 8998   3.063   1.043  10.743  0.3707 -0.2630  0.2739
  603TMC3    O2 8999   3.252   0.511  11.032  0.1442  0.6227 -0.6428
  604MPD2     C 9000   3.433   3.140  15.700  0.9444 -0.4795  0.4583
  604MPD2    C1 9001   3.492   3.233  15.790 -0.1976 -0.3088 -0.3252
  604MPD2    C2 9002   3.605   3.303  15.749  0.0300 -0.0383  0.5858
  604MPD2    C3 9003   3.661   3.277  15.624  0.5242 -0.0426 -0.2385
  604MPD2    C4 9004   3.598   3.190  15.537  0.0415  0.2105 -0.3687
  604MPD2    C5 9005   3.489   3.115  15.573  0.3940  0.3583 -0.8684
  604MPD2     H 9006   3.654   3.368  15.821 -2.3298  1.0942  1.1611
  604MPD2    H1 9007   3.641   3.179  15.438  1.9600  2.5816  0.1762
  604MPD2    H2 9008   3.345   3.079  15.720  0.8997  0.4281  3.0682
  604MPD2    H3 9009   3.438   3.048  15.505  0.5035 -1.3967  0.7952
  604MPD2     N 9010   3.790   3.322  15.593  0.2023  0.4431 -0.0126
  604MPD2    H5 9011   3.837   3.393  15.647 -0.8808  2.2138 -1.4037
  604MPD2    N1 9012   3.443   3.250  15.921  0.5779  0.3053 -0.1216
  604MPD2    H7 9013   3.485   3.316  15.986  0.5710  0.8009 -0.6202
  605TMC3    C1 9014   3.298   3.242  16.096 -0.2658 -0.1017 -0.2976
  605TMC3    C2 9015   3.412   3.246  16.184 -0.3071  0.0801  0.0649
  605TMC3    C3 9016   3.403   3.302  16.313 -0.5321 -0.3931  0.1003
  605TMC3    C4 9017   3.179   3.286  16.143  0.0234  0.5483  0.1240
  605TMC3    C5 9018   3.180   3.352  16.255 -0.1765  0.2327 -0.2352
  605TMC3    C6 9019   3.286   3.366  16.344  0.3665  0.0840  0.5445
  605TMC3     C 9020   3.322   3.197  15.967 -0.3757 -0.6680 -0.3631
  605TMC3     O 9021   3.224   3.152  15.910  0.5088 -0.1619  0.2677
  605TMC3     H 9022   3.506   3.200  16.156  0.1320  1.3401 -0.5181
  605TMC3    H1 9023   3.092   3.301  16.079  1.5326  0.6463 -1.8797
  605TMC3    H2 9024   3.270   3.427  16.432 -0.4238  0.2139  0.3089
  605TMC3    C7 9025   3.068   3.437  16.290  0.3180  0.6086  0.2086
  605TMC3    C8 9026   3.527   3.322  16.385  0.0801  0.1557 -0.0073
  605TMC3    O1 9027   3.086   3.542  16.353  0.2971  0.2982 -0.0807
  605TMC3    O2 9028   3.628   3.323  16.318 -0.2249 -0.3441  0.2656
  606TMC3    C1 9029   4.512   2.783   0.826 -0.6787  0.5468  0.5573
  606TMC3    C2 9030   4.593   2.810   0.933 -0.5228 -0.0429 -0.0225
  606TMC3    C3 9031   4.645   2.705   0.995  0.3488 -0.0745  0.5384
  606TMC3    C4 9032   4.474   2.654   0.794  0.0917 -0.2660 -0.1897
  606TMC3    C5 9033   4.515   2.557   0.882  0.1626  0.1692  0.7036
  606TMC3    C6 9034   4.610   2.578   0.974 -0.4091  0.5986  0.0770
  606TMC3     C 9035   4.445   2.888   0.754 -0.2365  0.5128  0.6792
  606TMC3     O 9036   4.393   2.855   0.650 -0.2956 -0.2679 -0.0717
  606TMC3     H 9037   4.640   2.906   0.953  0.5224 -0.7198  0.7911
  606TMC3    H1 9038   4.408   2.629   0.712  1.6583 -1.8823 -0.9529
  606TMC3    H2 9039   4.639   2.501   1.044 -2.2359 -1.3152 -1.2688
  606TMC3    C7 9040   4.497   2.418   0.860 -0.5226  0.3150 -0.6035
  606TMC3    C8 9041   0.034   2.726   1.063  0.1123  0.2967  0.4059
  606TMC3    O1 9042   4.472   2.352   0.963 -0.4416  0.6480 -0.7639
  606TMC3    O2 9043   0.052   2.827   1.128  0.4940  0.4333 -0.5760
  607MPD2     C 9044   2.191   0.342  11.617 -0.0557 -1.0929 -0.1094
  607MPD2    C1 9045   2.237   0.463  11.670  0.2480 -0.0297 -0.0777
  607MPD2    C2 9046   2.242   0.477  11.803  0.0536 -0.0315 -0.4661
  607MPD2    C3 9047   2.204   0.374  11.894  0.9523 -0.0236 -0.6074
  607MPD2    C4 9048   2.150   0.257  11.844  0.0647  0.0330 -0.0152
  607MPD2    C5 9049   2.153   0.242  11.703  0.0404 -0.8631 -0.8249
  607MPD2     H 9050   2.290   0.566  11.839 -0.9165 -0.7858  2.7057
  607MPD2    H1 9051   2.112   0.179  11.908 -1.0607  1.4747  1.0824
  607MPD2    H2 9052   2.194   0.324  11.510 -1.9303  1.7373 -0.6604
  607MPD2    H3 9053   2.130   0.145  11.659  0.2476 -2.3621  2.4038
  607MPD2     N 9054   2.200   0.405  12.034  0.1248  0.0622  0.2528
  607MPD2    H5 9055   2.230   0.501  12.051  2.2994 -0.6288  0.3080
  607MPD2    N1 9056   2.308   0.557  11.595  0.1004  0.1954  0.4082
  607MPD2    H7 9057   2.345   0.636  11.647  0.8786 -1.0252  1.7121
  608TMC3    C1 9058   2.460   0.645  11.438  0.0556  1.0425  0.1428
  608TMC3    C2 9059   2.520   0.688  11.556  0.5866 -0.5306  0.3682
  608TMC3    C3 9060   2.607   0.797  11.546 -0.2297 -0.0267  0.6331
  608TMC3    C4 9061   2.479   0.702  11.317 -0.5181 -0.0239 -0.5566
  608TMC3    C5 9062   2.561   0.811  11.316 -0.1668 -1.0117 -0.0010
  608TMC3    C6 9063   2.620   0.863  11.431  0.6979  0.0843  0.6097
  608TMC3     C 9064   2.353   0.543  11.463 -0.8767 -0.8747 -0.1706
  608TMC3     O 9065   2.328   0.455  11.381  0.3993  0.0374  0.0786
  608TMC3     H 9066   2.521   0.620  11.640 -0.4613 -1.2952 -0.2324
  608TMC3    H1 9067   2.431   0.665  11.227  0.7922  1.2672 -1.8012
  608TMC3    H2 9068   2.683   0.950  11.416  0.6370 -0.4365 -2.8943
  608TMC3    C7 9069   2.610   0.867  11.187 -0.7864  0.0251  0.4904
  608TMC3    C8 9070   2.650   0.867  11.672  0.4759  0.3669 -0.0406
  608TMC3    O1 9071   2.540   0.870  11.089 -0.4601 -0.1287  0.0190
  608TMC3    O2 9072   2.712   0.971  11.659  0.1801  0.5141 -0.3740
  609TMC3    C1 9073   0.933   4.413   9.264  0.1419 -0.7920 -0.1220
  609TMC3    C2 9074   0.914   4.297   9.193 -0.5994 -0.3881 -0.2959
  609TMC3    C3 9075   1.028   4.226   9.155  0.1642 -0.4883  0.2402
  609TMC3    C4 9076   1.058   4.457   9.293  0.6030  0.3322  0.4421
  609TMC3    C5 9077   1.165   4.389   9.250 -0.0345  0.2479  0.5951
  609TMC3    C6 9078   1.154   4.269   9.190 -0.2836 -0.1961  0.3095
  609TMC3     C 9079   0.818   4.489   9.322 -0.2749  0.5985  0.7274
  609TMC3     O 9080   0.836   4.605   9.362 -0.4523 -0.6583  0.0854
  609TMC3     H 9081   0.814   4.263   9.170 -1.1863  0.5999  0.7968
  609TMC3    H1 9082   1.059   4.547   9.354 -1.7666  2.2213 -2.3004
  609TMC3    H2 9083   1.245   4.223   9.152 -0.1921  1.8136 -1.8760
  609TMC3    C7 9084   1.298   4.442   9.264  0.0883  0.1935  0.0255
  609TMC3    C8 9085   0.988   4.102   9.094  0.8506 -0.2125 -0.4299
  609TMC3    O1 9086   1.388   4.361   9.277  0.0024  0.2295 -0.4549
  609TMC3    O2 9087   0.876   4.085   9.046  0.0951 -0.0491 -0.4972
  610TMC3    C1 9088   2.837   0.640  12.439  0.1193  0.1071 -0.6434
  610TMC3    C2 9089   2.940   0.634  12.356 -0.2227 -0.4947  0.3788
  610TMC3    C3 9090   2.999   0.511  12.335  1.0735  0.5833  0.2074
  610TMC3    C4 9091   2.799   0.538  12.514  0.0499  0.0316  0.7196
  610TMC3    C5 9092   2.866   0.422  12.502  0.0471 -0.4814 -0.0111
  610TMC3    C6 9093   2.967   0.399  12.409  0.1055 -0.5605  0.2626
  610TMC3     C 9094   2.764   0.761  12.474 -0.2747  0.5687  0.0329
  610TMC3     O 9095   2.654   0.746  12.527 -0.3692 -0.2628 -0.4726
  610TMC3     H 9096   2.958   0.719  12.291  0.7146 -0.0636  1.2047
  610TMC3    H1 9097   2.751   0.555  12.609  0.7962 -1.3940  1.3567
  610TMC3    H2 9098   3.019   0.303  12.405  0.2939 -0.4069 -0.9339
  610TMC3    C7 9099   2.843   0.313  12.593  0.5030  0.3819 -0.1774
  610TMC3    C8 9100   3.130   0.530  12.272  0.5418 -0.5007  0.6099
  610TMC3    O1 9101   2.936   0.234  12.602  0.3336 -0.4553  0.1014
  610TMC3    O2 9102   3.192   0.635  12.287  0.8579  0.4628  0.0654
  611MPD2     C 9103   1.577   0.901  10.638 -0.0474 -0.2834 -0.2421
  611MPD2    C1 9104   1.596   0.851  10.513  0.8260 -0.1274  0.4498
  611MPD2    C2 9105   1.718   0.876  10.447  0.4578  0.9508  0.1469
  611MPD2    C3 9106   1.817   0.949  10.510 -0.5733  0.4000  0.3002
  611MPD2    C4 9107   1.789   0.988  10.639  0.0897 -0.3415  0.2168
  611MPD2    C5 9108   1.673   0.971  10.701 -1.1560 -0.1703 -0.7693
  611MPD2     H 9109   1.739   0.848  10.345 -0.6489 -0.3763  0.2857
  611MPD2    H1 9110   1.867   1.041  10.694 -0.4419 -1.7396  2.3287
  611MPD2    H2 9111   1.491   0.884  10.702 -0.9139  2.2830 -0.7391
  611MPD2    H3 9112   1.669   1.002  10.805  0.3359 -0.8590 -0.4926
  611MPD2     N 9113   1.944   0.982  10.448 -0.2603  0.6612  0.1933
  611MPD2    H5 9114   1.997   1.054  10.496 -1.7032  1.5057  0.4867
  611MPD2    N1 9115   1.493   0.776  10.455  0.1474  0.1786  0.1381
  611MPD2    H7 9116   1.407   0.760  10.505 -0.6812  2.6498 -0.4965
  612TMC3    C1 9117   2.101   1.027  10.286 -0.6534 -0.3723 -0.0275
  612TMC3    C2 9118   2.203   1.063  10.376  0.4314  0.0441  0.6868
  612TMC3    C3 9119   2.297   1.157  10.327 -0.0037 -0.2176 -0.3663
  612TMC3    C4 9120   2.100   1.072  10.158  0.7695  0.4649 -0.2148
  612TMC3    C5 9121   2.192   1.159  10.111 -0.5583 -0.2076  0.1269
  612TMC3    C6 9122   2.286   1.210  10.200  0.0389 -0.2129 -0.3806
  612TMC3     C 9123   1.988   0.944  10.326 -0.1487 -0.2098  0.2819
  612TMC3     O 9124   1.933   0.876  10.241 -0.1911  0.2534 -0.0982
  612TMC3     H 9125   2.213   1.009  10.469 -0.9720  0.9924  1.3824
  612TMC3    H1 9126   2.013   1.050  10.097  0.3193 -0.2156  0.6695
  612TMC3    H2 9127   2.362   1.280  10.169  1.0388 -1.4423 -0.7087
  612TMC3    C7 9128   2.136   1.256  10.023  0.5992  0.0079 -0.0435
  612TMC3    C8 9129   2.391   1.211  10.416  1.2264  0.0102 -0.5550
  612TMC3    O1 9130   2.011   1.255  10.006  1.0164  0.4338 -0.1035
  612TMC3    O2 9131   2.410   1.333  10.411  0.3830  1.0935 -0.1761
  613MPD2     C 9132   0.870   1.583  16.679  0.4244  0.0550 -0.4600
  613MPD2    C1 9133   0.809   1.693  16.622 -0.5714 -0.2611 -0.1035
  613MPD2    C2 9134   0.709   1.673  16.536  0.7428 -0.7225  0.1097
  613MPD2    C3 9135   0.664   1.547  16.497  0.4118  0.2205  0.3823
  613MPD2    C4 9136   0.730   1.436  16.550 -0.3514  0.0391 -0.2407
  613MPD2    C5 9137   0.828   1.457  16.644 -0.1301  0.2344 -0.1198
  613MPD2     H 9138   0.652   1.753  16.489  0.3520 -0.9305  0.2259
  613MPD2    H1 9139   0.712   1.340  16.503  0.0276  0.4822 -1.3015
  613MPD2    H2 9140   0.956   1.600  16.743  0.1696  1.0457 -0.3906
  613MPD2    H3 9141   0.871   1.375  16.701 -1.3037 -0.1582  0.2112
  613MPD2     N 9142   0.576   1.524  16.381  0.1996 -0.0973  0.1926
  613MPD2    H5 9143   0.567   1.429  16.347 -1.6685  0.1592 -0.0248
  613MPD2    N1 9144   0.865   1.814  16.663 -0.1117 -0.1603 -0.2480
  613MPD2    H7 9145   0.941   1.807  16.730  0.1268 -0.9720 -0.6026
  614TMC3    C1 9146   0.926   2.031  16.633  0.2999  0.0426 -0.3009
  614TMC3    C2 9147   1.046   1.988  16.584  0.2963 -0.2442 -0.0905
  614TMC3    C3 9148   1.114   2.052  16.486 -0.3427  0.3935 -0.7957
  614TMC3    C4 9149   0.873   2.152  16.598 -0.0035  1.4661 -0.6404
  614TMC3    C5 9150   0.944   2.222  16.501 -0.5290  0.1841  0.1867
  614TMC3    C6 9151   1.069   2.181  16.451 -0.7040  0.4225 -0.1079
  614TMC3     C 9152   0.822   1.937  16.622  1.0577  0.3709  0.0814
  614TMC3     O 9153   0.721   1.960  16.556  0.2498  0.5982  0.3203
  614TMC3     H 9154   1.095   1.899  16.620 -0.8898 -0.5537  0.7236
  614TMC3    H1 9155   0.769   2.176  16.616 -0.4437  0.1675 -1.4548
  614TMC3    H2 9156   1.124   2.242  16.381 -0.2221  0.1106  0.0019
  614TMC3    C7 9157   0.905   2.361  16.471 -0.0232  0.3278 -0.9203
  614TMC3    C8 9158   1.107   1.972  16.365  0.3337  0.6450  0.1081
  614TMC3    O1 9159   0.889   2.436  16.565 -0.6767 -0.3344 -0.0832
  614TMC3    O2 9160   1.107   1.853  16.384  0.3262 -0.3174 -0.4434
  615MPD2     C 9161   0.805   3.561  15.932  0.1588  0.6171  0.4370
  615MPD2    C1 9162   0.717   3.669  15.951 -0.5022  0.1261 -0.3817
  615MPD2    C2 9163   0.638   3.709  15.837 -0.4435  0.0259 -0.7101
  615MPD2    C3 9164   0.644   3.638  15.720  0.1940  0.2509  0.9793
  615MPD2    C4 9165   0.739   3.538  15.702 -0.6273 -0.0179 -0.3771
  615MPD2    C5 9166   0.823   3.502  15.809  0.0287 -0.7924 -0.0592
  615MPD2     H 9167   0.579   3.799  15.839 -2.2908 -1.2467  1.5278
  615MPD2    H1 9168   0.744   3.480  15.610  4.8237  0.2459 -0.2706
  615MPD2    H2 9169   0.870   3.528  16.012 -0.0102 -1.6648 -0.3780
  615MPD2    H3 9170   0.885   3.415  15.796  0.9991 -0.0486 -0.4462
  615MPD2     N 9171   0.558   3.673  15.613  0.2448 -0.0563 -0.5074
  615MPD2    H5 9172   0.599   3.651  15.523 -1.1762 -0.5989 -1.0298
  615MPD2    N1 9173   0.707   3.737  16.081 -0.8957 -0.6974 -0.3217
  615MPD2    H7 9174   0.647   3.819  16.088 -1.2787 -1.1123  1.1410
  616TMC3    C1 9175   0.775   3.818  16.283 -0.7436  0.1050 -0.7700
  616TMC3    C2 9176   0.883   3.890  16.333  0.3112 -0.9663 -0.8917
  616TMC3    C3 9177   0.856   3.982  16.436  0.1925 -0.2587  0.2519
  616TMC3    C4 9178   0.650   3.845  16.326 -0.7159  0.1357 -0.0404
  616TMC3    C5 9179   0.633   3.951  16.414  0.0232 -0.0626  0.1042
  616TMC3    C6 9180   0.733   4.025  16.470  0.5410  0.6224  0.1198
  616TMC3     C 9181   0.798   3.718  16.186  0.1137  0.4975 -0.5558
  616TMC3     O 9182   0.908   3.667  16.194  0.0548 -0.6973  0.0994
  616TMC3     H 9183   0.986   3.871  16.305  0.3369 -0.5121 -1.1059
  616TMC3    H1 9184   0.563   3.781  16.313 -0.3224  0.0621 -2.2763
  616TMC3    H2 9185   0.711   4.111  16.531 -0.5816  1.3964 -1.3660
  616TMC3    C7 9186   0.504   3.939  16.485 -0.3284 -0.0314 -0.1251
  616TMC3    C8 9187   0.968   4.066  16.469  0.6015  0.7926 -0.0120
  616TMC3    O1 9188   0.406   3.921  16.417 -0.1163  0.1683 -0.0008
  616TMC3    O2 9189   1.078   4.005  16.472 -0.2704 -0.2943 -0.4515
  617MPD2     C 9190   3.587   2.011  13.836 -0.3000  0.2948  0.3472
  617MPD2    C1 9191   3.600   1.937  13.952  0.2119 -0.0813 -0.2271
  617MPD2    C2 9192   3.490   1.855  13.985  0.3145 -0.3175 -0.3034
  617MPD2    C3 9193   3.380   1.845  13.902 -0.7589 -0.4661  0.1015
  617MPD2    C4 9194   3.374   1.918  13.787 -0.0203  0.2652  0.3815
  617MPD2    C5 9195   3.480   2.003  13.754  0.2739 -0.0401  0.0753
  617MPD2     H 9196   3.498   1.792  14.073  1.3761 -2.9369 -2.2782
  617MPD2    H1 9197   3.282   1.917  13.730  0.5411 -1.7704 -0.4835
  617MPD2    H2 9198   3.664   2.080  13.804 -0.3490  0.2399  0.1089
  617MPD2    H3 9199   3.466   2.061  13.664  0.1114  0.0703  0.1704
  617MPD2     N 9200   3.260   1.770  13.937 -0.9601  0.0181 -0.1265
  617MPD2    H5 9201   3.178   1.768  13.876 -1.9740  2.1173  1.1623
  617MPD2    N1 9202   3.713   1.955  14.032 -0.3361  0.1763 -0.5474
  617MPD2    H7 9203   3.777   2.028  14.005  2.8064 -2.2487  0.4215
  618TMC3    C1 9204   3.882   1.927  14.203  0.3077  0.0864  0.0799
  618TMC3    C2 9205   3.966   1.839  14.259 -0.5185 -0.4306 -0.5196
  618TMC3    C3 9206   4.081   1.880  14.324  0.0164  0.4136  0.5266
  618TMC3    C4 9207   3.903   2.061  14.213 -0.0366 -0.6457 -0.0377
  618TMC3    C5 9208   4.026   2.106  14.259  0.0232  0.6574  0.3086
  618TMC3    C6 9209   4.096   2.016  14.335  0.1305 -0.1174  0.0711
  618TMC3     C 9210   3.763   1.875  14.135  0.1824  0.1668  0.1090
  618TMC3     O 9211   3.729   1.759  14.160 -0.1571  0.3502  0.2077
  618TMC3     H 9212   3.964   1.735  14.231 -0.5171 -1.3608  3.0609
  618TMC3    H1 9213   3.848   2.141  14.166  2.2487  1.2834  0.5401
  618TMC3    H2 9214   4.184   2.058  14.381 -0.3653  0.5280  0.4257
  618TMC3    C7 9215   4.101   2.175  14.152  0.2222  0.4296 -0.0533
  618TMC3    C8 9216   4.190   1.800  14.305 -0.1669 -0.3355  0.0430
  618TMC3    O1 9217   4.036   2.242  14.071 -0.1075 -0.0198  0.1077
  618TMC3    O2 9218   4.263   1.776  14.400  0.0277 -0.0367 -0.1268
  619MPD2     C 9219   4.521   3.174  13.357 -0.1544  0.4097 -0.5006
  619MPD2    C1 9220   4.430   3.256  13.291 -0.0838  0.0704 -0.6956
  619MPD2    C2 9221   4.303   3.270  13.348 -0.0365 -0.5458  0.2808
  619MPD2    C3 9222   4.278   3.219  13.478 -0.3501  0.5545  0.6252
  619MPD2    C4 9223   4.373   3.134  13.535 -0.3257 -0.2943  0.0591
  619MPD2    C5 9224   4.488   3.110  13.474 -0.1295 -0.8669 -0.3560
  619MPD2     H 9225   4.232   3.330  13.292  0.9559 -0.1215 -0.5234
  619MPD2    H1 9226   4.366   3.099  13.638 -0.9978  1.1298  0.4981
  619MPD2    H2 9227   4.618   3.151  13.314  1.1331  0.8447  2.1638
  619MPD2    H3 9228   4.560   3.042  13.518  0.8087  0.3186 -0.0752
  619MPD2     N 9229   4.157   3.251  13.551 -0.0677  0.2544 -0.4191
  619MPD2    H5 9230   4.143   3.191  13.632 -2.5523  0.1527 -0.9206
  619MPD2    N1 9231   4.457   3.310  13.163 -0.0258  0.6764 -0.3982
  619MPD2    H7 9232   4.383   3.353  13.108  0.1674 -0.9055 -1.8955
  620TMC3    C1 9233   4.572   3.438  13.016 -0.5398 -0.0266 -0.3050
  620TMC3    C2 9234   4.439   3.443  12.966 -0.1783  0.4512  0.2285
  620TMC3    C3 9235   4.377   3.561  12.939  0.0047  0.0551 -0.4446
  620TMC3    C4 9236   4.628   3.554  13.051  0.0737 -0.3492  0.5825
  620TMC3    C5 9237   4.558   3.671  13.032  0.6734  0.0856 -0.3464
  620TMC3    C6 9238   4.447   3.675  12.959 -0.1196 -0.2143 -0.1578
  620TMC3     C 9239   4.580   3.336  13.118 -0.7536  0.1952 -0.2122
  620TMC3     O 9240   4.686   3.315  13.175  0.2344 -0.4830 -0.0905
  620TMC3     H 9241   4.398   3.353  12.923  0.1675 -0.7148  2.3308
  620TMC3    H1 9242   4.724   3.563  13.102 -2.2409 -2.6073  5.3634
  620TMC3    H2 9243   4.399   3.765  12.920 -0.4670 -0.0227  0.7177
  620TMC3    C7 9244   4.576   3.782  13.124 -0.0046 -0.2189  0.1352
  620TMC3    C8 9245   4.264   3.561  13.017  0.2826  0.0683  0.5713
  620TMC3    O1 9246   4.532   3.892  13.089  0.3019 -0.4728 -0.2555
  620TMC3    O2 9247   4.245   3.473  13.097 -0.0931 -0.0671  0.0058
  621MPD2     C 9248   0.227   4.178   9.688 -0.0104  0.0195 -0.2387
  621MPD2    C1 9249   0.361   4.148   9.676 -0.2649  0.2330  0.1306
  621MPD2    C2 9250   0.457   4.248   9.699 -0.1777 -0.3730 -0.9590
  621MPD2    C3 9251   0.430   4.382   9.722 -0.3892  0.3035 -0.4951
  621MPD2    C4 9252   0.301   4.416   9.727  0.2636  0.1061 -0.1719
  621MPD2    C5 9253   0.207   4.315   9.705 -0.3050  0.2061  0.3531
  621MPD2     H 9254   0.559   4.214   9.694 -0.4779 -1.3249 -0.6244
  621MPD2    H1 9255   0.273   4.520   9.738  0.4081  0.3424 -2.0054
  621MPD2    H2 9256   0.147   4.110   9.661 -0.0801  0.3876 -0.9489
  621MPD2    H3 9257   0.107   4.355   9.692 -0.7449 -1.1907 -0.6111
  621MPD2     N 9258   0.539   4.471   9.748 -0.4925  0.1392  0.3137
  621MPD2    H5 9259   0.631   4.429   9.739 -0.0591  0.8852  1.1855
  621MPD2    N1 9260   0.416   4.020   9.653  0.1465  0.6867  0.1930
  621MPD2    H7 9261   0.516   4.004   9.655  0.2224  1.2002  0.4133
  622TMC3    C1 9262   0.420   3.801   9.597 -0.7775 -0.0307  0.0844
  622TMC3    C2 9263   0.464   3.756   9.720 -0.1403 -0.5113 -0.4306
  622TMC3    C3 9264   0.465   3.620   9.744 -1.0643  0.0578 -0.5417
  622TMC3    C4 9265   0.357   3.710   9.518 -0.7538  0.0189 -0.5022
  622TMC3    C5 9266   0.346   3.578   9.553  0.5826  0.6439  0.0660
  622TMC3    C6 9267   0.397   3.528   9.668 -0.3040 -0.7754 -0.1232
  622TMC3     C 9268   0.338   3.919   9.610 -0.0939 -0.6323 -0.2197
  622TMC3     O 9269   0.221   3.914   9.575  0.3583 -0.6511 -0.8892
  622TMC3     H 9270   0.529   3.817   9.783 -1.8257 -0.5054  1.2826
  622TMC3    H1 9271   0.319   3.753   9.425  0.9011 -1.0579 -1.6818
  622TMC3    H2 9272   0.397   3.423   9.694  1.6184 -0.9193 -0.6494
  622TMC3    C7 9273   0.299   3.486   9.452 -0.8471 -1.4539  0.5511
  622TMC3    C8 9274   0.494   3.576   9.877 -0.2266 -0.4179 -0.5870
  622TMC3    O1 9275   0.342   3.373   9.455 -0.0191  0.3140  0.2597
  622TMC3    O2 9276   0.487   3.457   9.892  0.5954  0.0615  0.1374
  623MPD2     C 9277   3.980   4.079  15.743 -0.1852  0.4556  0.3722
  623MPD2    C1 9278   3.954   3.948  15.758  0.0319  0.4280 -1.1375
  623MPD2    C2 9279   4.003   3.872  15.857 -0.3237  0.1289  0.0520
  623MPD2    C3 9280   4.096   3.935  15.941 -0.1277  0.1820 -0.0996
  623MPD2    C4 9281   4.141   4.065  15.914 -0.1043 -0.9027  0.5944
  623MPD2    C5 9282   4.079   4.137  15.816  0.5479  0.6658 -0.3609
  623MPD2     H 9283   3.974   3.769  15.874  2.5124 -0.8762 -1.3259
  623MPD2    H1 9284   4.207   4.113  15.986  0.2783  0.1802 -0.4825
  623MPD2    H2 9285   3.929   4.134  15.665  1.0731  3.3305  1.5903
  623MPD2    H3 9286   4.112   4.236  15.787 -2.1895  0.9588 -2.5017
  623MPD2     N 9287   4.135   3.858  16.053  0.9802  0.3168  0.0631
  623MPD2    H5 9288   4.092   3.767  16.070 -0.2945  0.9937  0.4715
  623MPD2    N1 9289   3.843   3.896  15.688 -0.1439  0.0879  0.2532
  623MPD2    H7 9290   3.795   3.968  15.635 -1.4510 -0.8530  0.1357
  624TMC3    C1 9291   4.333   3.697  16.438 -0.6007 -1.3559 -0.6400
  624TMC3    C2 9292   4.208   3.642  16.476  0.0219 -0.3988  0.4771
  624TMC3    C3 9293   4.101   3.664  16.399 -0.8021  0.0821 -0.4297
  624TMC3    C4 9294   4.347   3.781  16.326  0.7232 -0.9548 -0.5725
  624TMC3    C5 9295   4.233   3.791  16.245  0.3814 -0.3740  0.6075
  624TMC3    C6 9296   4.107   3.734  16.285 -0.2898  0.3593  0.2789
  624TMC3     C 9297   4.447   3.619  16.471  0.4373 -0.6849 -0.5409
  624TMC3     O 9298   4.548   3.670  16.519  0.2845 -0.0922  0.4660
  624TMC3     H 9299   4.211   3.586  16.569 -1.2933 -0.2455  0.6192
  624TMC3    H1 9300   4.441   3.821  16.291  1.5182 -2.8098 -0.5738
  624TMC3    H2 9301   4.014   3.739  16.230 -0.7549  0.8125  1.1055
  624TMC3    C7 9302   4.225   3.892  16.147 -0.0779  0.2800  0.2772
  624TMC3    C8 9303   3.985   3.594  16.428  0.3353 -0.4332 -0.0432
  624TMC3    O1 9304   4.293   3.995  16.158  0.4531  0.2659  0.3704
  624TMC3    O2 9305   3.938   3.537  16.336 -0.4769  0.0571  0.0104
  625MPD2     C 9306   0.262   0.544   0.809 -0.6461  0.2310 -0.0900
  625MPD2    C1 9307   0.319   0.668   0.836 -0.3683  0.7000 -0.7764
  625MPD2    C2 9308   0.428   0.676   0.921 -0.3479 -0.0426 -0.1660
  625MPD2    C3 9309   0.482   0.561   0.976 -0.4297  0.6383  0.1557
  625MPD2    C4 9310   0.437   0.432   0.940 -0.1221  0.0055  0.5588
  625MPD2    C5 9311   0.324   0.432   0.861 -0.2440  0.0646 -0.2117
  625MPD2     H 9312   0.470   0.774   0.941 -1.8224  1.0681 -2.5315
  625MPD2    H1 9313   0.487   0.343   0.974 -3.0437 -1.9270 -0.1635
  625MPD2    H2 9314   0.176   0.532   0.745 -0.5177  1.0707 -0.4235
  625MPD2    H3 9315   0.281   0.336   0.834  0.9497 -0.3458 -0.6513
  625MPD2     N 9316   0.590   0.577   1.067  0.2008  0.1418  0.1469
  625MPD2    H5 9317   0.638   0.665   1.078  0.2478 -0.0089  1.1135
  625MPD2    N1 9318   0.271   0.793   0.772 -0.0050 -0.1082  0.0528
  625MPD2    H7 9319   0.321   0.868   0.819 -0.3616 -0.5013  1.0578
  626TMC3    C1 9320   0.143   0.940   0.647 -0.5169  1.3836  0.4736
  626TMC3    C2 9321   0.043   0.941   0.556  0.7164 -0.0809 -0.2548
  626TMC3    C3 9322   4.703   1.053   0.549 -0.1394 -0.1962 -0.5972
  626TMC3    C4 9323   0.179   1.049   0.730  0.8227 -0.0876 -0.3427
  626TMC3    C5 9324   0.101   1.160   0.713 -0.4331  0.7884 -0.0290
  626TMC3    C6 9325   4.730   1.170   0.625 -0.3003  0.3869 -0.5392
  626TMC3     C 9326   0.158   0.806   0.699  0.4286 -0.2880 -0.2600
  626TMC3     O 9327   0.072   0.720   0.667  0.5916  0.0383  0.5888
  626TMC3     H 9328   0.037   0.870   0.474 -1.2592 -0.1259 -0.0714
  626TMC3    H1 9329   0.239   1.035   0.819  2.3750 -1.8018 -1.6561
  626TMC3    H2 9330   4.700   1.269   0.593  1.3502  1.1133  0.1755
  626TMC3    C7 9331   0.110   1.257   0.821 -0.0334  0.3479 -0.2161
  626TMC3    C8 9332   4.616   1.062   0.438  0.1946  0.1517 -0.0816
  626TMC3    O1 9333   0.210   1.252   0.901 -0.4974  0.7293  0.3286
  626TMC3    O2 9334   4.638   0.996   0.338  0.4966  0.3294  0.3654
  627MPD2     C 9335   3.526   0.636  14.116 -0.7765  0.0655  0.1038
  627MPD2    C1 9336   3.451   0.688  14.215 -0.8293 -1.4004 -1.1833
  627MPD2    C2 9337   3.320   0.652  14.217  0.2794  0.1864  0.7425
  627MPD2    C3 9338   3.268   0.552  14.148  0.6225 -0.0152  0.2973
  627MPD2    C4 9339   3.344   0.487  14.052 -0.4378  0.1683  0.3788
  627MPD2    C5 9340   3.471   0.541  14.035 -0.6634  0.4452  0.0904
  627MPD2     H 9341   3.251   0.698  14.287  0.8538  1.0928  0.7148
  627MPD2    H1 9342   3.311   0.423  13.970 -1.0390 -0.5525  1.1792
  627MPD2    H2 9343   3.628   0.664  14.093  0.5557 -4.0709  0.9443
  627MPD2    H3 9344   3.535   0.500  13.957  1.2025 -0.7270  2.2658
  627MPD2     N 9345   3.142   0.504  14.187  0.1948  0.2631  0.0352
  627MPD2    H5 9346   3.097   0.549  14.266 -0.6041 -2.8059  1.3367
  627MPD2    N1 9347   3.501   0.788  14.311  0.1751  0.3993 -0.0170
  627MPD2    H7 9348   3.432   0.809  14.383  2.5176  1.1121  2.0163
  628TMC3    C1 9349   3.662   0.885  14.442 -0.3402  0.4222  0.0027
  628TMC3    C2 9350   3.739   0.810  14.524  0.8620  0.7159  0.2627
  628TMC3    C3 9351   3.718   0.826  14.660 -0.5333 -0.3296  0.0020
  628TMC3    C4 9352   3.570   0.973  14.487  0.9442  0.3154  0.2928
  628TMC3    C5 9353   3.563   0.990  14.621  0.6416 -0.0282  0.7695
  628TMC3    C6 9354   3.649   0.932  14.712  0.6488  0.3572 -0.3264
  628TMC3     C 9355   3.634   0.813  14.324  0.5908  0.0930 -0.4665
  628TMC3     O 9356   3.734   0.771  14.265  0.4344  0.0295  0.1141
  628TMC3     H 9357   3.807   0.732  14.494  1.1382  0.6353  1.1091
  628TMC3    H1 9358   3.501   1.026  14.421 -0.7558  0.3009  2.0562
  628TMC3    H2 9359   3.622   0.916  14.815  2.3003 -0.8752 -0.0886
  628TMC3    C7 9360   3.489   1.109  14.680  0.4856  0.4238  0.1459
  628TMC3    C8 9361   3.676   0.712  14.733 -0.6482  0.2947  0.2863
  628TMC3    O1 9362   3.519   1.143  14.791  0.1680  0.6233  0.6173
  628TMC3    O2 9363   3.561   0.679  14.714  0.3794 -0.1752  0.4204
  629MPD2     C 9364   1.187   4.522  16.548  0.3743  0.2678  0.0414
  629MPD2    C1 9365   1.249   4.397  16.545 -0.4244  0.0662 -0.6430
  629MPD2    C2 9366   1.166   4.285  16.509  0.4806  0.0477 -1.0433
  629MPD2    C3 9367   1.032   4.304  16.490  0.1887 -0.1354 -0.1565
  629MPD2    C4 9368   0.977   4.426  16.488 -0.0809 -0.5078  0.2323
  629MPD2    C5 9369   1.056   4.535  16.522  0.1450  0.3568 -0.0645
  629MPD2     H 9370   1.221   4.192  16.509 -0.2113 -0.3593 -0.6047
  629MPD2    H1 9371   0.877   4.449  16.455 -0.2559 -0.9242  0.4804
  629MPD2    H2 9372   1.244   4.614  16.554 -3.6551  2.6849  1.1898
  629MPD2    H3 9373   1.022   4.638  16.521 -1.0379 -0.0089  1.5743
  629MPD2     N 9374   0.942   4.199  16.454 -0.6292 -0.8599  0.4622
  629MPD2    H5 9375   0.846   4.222  16.432 -0.9112 -0.7965  1.7628
  629MPD2    N1 9376   1.390   4.387  16.563 -0.1919 -0.2683  0.3373
  629MPD2    H7 9377   1.442   4.474  16.569 -0.1059 -0.2839 -0.1282
  630TMC3    C1 9378   1.607   4.306  16.616  0.0445  0.2334 -0.1520
  630TMC3    C2 9379   1.678   4.415  16.567  0.0644  0.1672 -0.0173
  630TMC3    C3 9380   1.808   4.436  16.611 -0.2189  0.0292 -0.4406
  630TMC3    C4 9381   1.672   4.214  16.692  1.0423  0.0874  0.6234
  630TMC3    C5 9382   1.806   4.240  16.731  0.6588  0.0735 -1.3076
  630TMC3    C6 9383   1.876   4.350  16.688  0.3936 -0.2036  0.0872
  630TMC3     C 9384   1.463   4.273  16.575  0.3365 -0.4202  0.5619
  630TMC3     O 9385   1.430   4.158  16.579 -0.2429  0.3017  0.2525
  630TMC3     H 9386   1.635   4.479  16.490  0.8336  0.1278 -0.4795
  630TMC3    H1 9387   1.615   4.150  16.758 -1.5867  1.4847 -0.3056
  630TMC3    H2 9388   1.975   4.374  16.725  0.9013 -1.3600 -0.5308
  630TMC3    C7 9389   1.838   4.203  16.872  0.3367  0.0961 -0.1812
  630TMC3    C8 9390   1.888   4.541  16.545 -0.5357 -0.0272 -0.5036
  630TMC3    O1 9391   1.894   4.278  16.956 -0.0060 -0.2709  0.1131
  630TMC3    O2 9392   2.007   4.538  16.558  0.5515 -0.7171  0.3901
  631MPD2     C 9393   4.324   4.078  15.435 -0.1954  0.2777  0.1682
  631MPD2    C1 9394   4.430   4.156  15.420  0.1474 -0.0375  0.3741
  631MPD2    C2 9395   4.554   4.107  15.389  0.4097 -0.0374  0.1492
  631MPD2    C3 9396   4.572   3.970  15.380  0.6298 -0.7043  0.3162
  631MPD2    C4 9397   4.461   3.888  15.413 -0.3835  0.4412  0.6904
  631MPD2    C5 9398   4.335   3.943  15.438 -0.3223  0.2953 -0.2497
  631MPD2     H 9399   4.646   4.165  15.381  0.8775 -0.6247  1.2437
  631MPD2    H1 9400   4.455   3.780  15.422  0.4519  0.2984 -0.4887
  631MPD2    H2 9401   4.227   4.121  15.456 -0.8782 -0.7234 -0.9499
  631MPD2    H3 9402   4.249   3.878  15.453  0.3149 -0.7778 -1.2266
  631MPD2     N 9403   4.709   3.919  15.354 -0.0440 -0.6525  0.2481
  631MPD2    H5 9404   0.048   3.981  15.317 -1.1971  1.0838  0.9836
  631MPD2    N1 9405   4.408   4.294  15.455 -0.2305 -0.2173  0.0960
  631MPD2    H7 9406   4.313   4.325  15.472 -0.9944 -2.5375  0.0288
  632TMC3    C1 9407   4.438   4.525  15.494 -0.2743  0.5764  0.3320
  632TMC3    C2 9408   4.320   4.533  15.561  0.0768 -0.1391 -0.8114
  632TMC3    C3 9409   4.263   4.659  15.577  0.6402 -0.6125  0.3138
  632TMC3    C4 9410   4.486   4.632  15.426 -0.1226 -0.5683  0.4265
  632TMC3    C5 9411   4.422   0.019  15.450 -0.1083 -0.3377 -0.1289
  632TMC3    C6 9412   4.317   0.040  15.525 -0.8752  0.1731 -0.0460
  632TMC3     C 9413   4.498   4.398  15.456 -0.3868 -0.3251 -0.0584
  632TMC3     O 9414   4.616   4.395  15.425 -0.2062  0.2740 -0.4633
  632TMC3     H 9415   4.267   4.447  15.599  1.0121  0.1478  1.1385
  632TMC3    H1 9416   4.591   4.632  15.398 -0.5982  2.2614 -1.3846
  632TMC3    H2 9417   4.267   0.134  15.543 -0.1888  0.6507 -0.6400
  632TMC3    C7 9418   4.434   0.102  15.332 -0.2072  0.3881 -0.2393
  632TMC3    C8 9419   4.138   4.669  15.651 -0.1293 -0.1785  0.3446
  632TMC3    O1 9420   4.374   0.208  15.336 -0.2412 -0.2891 -0.5000
  632TMC3    O2 9421   4.050   4.583  15.638  0.3020  0.3594  0.2692
  633MPD2     C 9422   4.252   2.673  17.502 -0.3827  0.1674  0.2410
  633MPD2    C1 9423   4.234   2.563  17.425 -0.1013  0.6259  0.3684
  633MPD2    C2 9424   4.246   2.443  17.496  0.8970  0.1368  0.4618
  633MPD2    C3 9425   4.257   2.435  17.634 -0.1437  0.3086  0.4575
  633MPD2    C4 9426   4.261   2.556  17.701  0.0300 -0.2317 -0.0616
  633MPD2    C5 9427   4.266   2.673  17.637 -0.1778  0.5932 -0.1571
  633MPD2     H 9428   4.249   2.356  17.432  1.9034  1.4599 -1.2945
  633MPD2    H1 9429   4.263   2.565   0.080 -1.6137 -0.0226 -0.0566
  633MPD2    H2 9430   4.246   2.767  17.447  2.5449 -0.8303 -1.7938
  633MPD2    H3 9431   4.279   2.772  17.679  0.4474 -0.9811  3.3230
  633MPD2     N 9432   4.257   2.313  17.701 -0.2635  0.2569 -0.2935
  633MPD2    H5 9433   4.272   2.318   0.071  0.4772 -0.0140 -0.3932
  633MPD2    N1 9434   4.237   2.554  17.288 -0.0670  0.3826 -0.5869
  633MPD2    H7 9435   4.263   2.467  17.242 -1.5710 -0.5450  0.3390
  634TMC3    C1 9436   4.251   2.657  17.079  0.1861  0.2956  0.1452
  634TMC3    C2 9437   4.345   2.569  17.034  0.3874  0.3034 -0.0467
  634TMC3    C3 9438   4.356   2.545  16.899  0.9543  0.1052  0.5841
  634TMC3    C4 9439   4.172   2.728  16.993  0.2881 -1.1419  0.4747
  634TMC3    C5 9440   4.167   2.683  16.862  0.2050  0.5694  0.3117
  634TMC3    C6 9441   4.261   2.597  16.811 -0.4559  0.1274 -0.3234
  634TMC3     C 9442   4.226   2.671  17.215 -0.1938 -0.3369 -0.2763
  634TMC3     O 9443   4.174   2.772  17.251  0.3815  0.6114 -0.4935
  634TMC3     H 9444   4.410   2.515  17.102  0.0313 -1.1810 -0.8777
  634TMC3    H1 9445   4.094   2.794  17.031 -1.5377 -1.5264 -2.6196
  634TMC3    H2 9446   4.253   2.576  16.705 -0.7618  0.8286 -0.4401
  634TMC3    C7 9447   4.076   2.748  16.761  0.0966  0.7234  1.2267
  634TMC3    C8 9448   4.414   2.410  16.865  0.0725 -0.0617 -0.2230
  634TMC3    O1 9449   4.118   2.746  16.648  0.1689 -0.1867  0.5847
  634TMC3    O2 9450   4.459   2.332  16.951 -0.4457  0.3481 -0.4397
  635TMC3    C1 9451   0.127   2.280   0.725 -0.0703  0.1665  0.3525
  635TMC3    C2 9452   0.166   2.237   0.853  0.4727  0.1342  0.2838
  635TMC3    C3 9453   0.191   2.106   0.875  0.0814  0.2392 -0.2535
  635TMC3    C4 9454   0.109   2.180   0.625  0.0760  0.4189  0.0126
  635TMC3    C5 9455   0.144   2.055   0.653 -0.1281  0.1367  0.0517
  635TMC3    C6 9456   0.190   2.009   0.778  0.1986 -0.2503  0.7339
  635TMC3     C 9457   0.094   2.420   0.711  0.1016 -0.2629  0.0082
  635TMC3     O 9458   0.088   2.492   0.806  1.0755 -0.2884  0.1618
  635TMC3     H 9459   0.184   2.310   0.931  2.6831 -0.0670 -0.0556
  635TMC3    H1 9460   0.053   2.204   0.535 -1.4184  2.4299  1.4616
  635TMC3    H2 9461   0.209   1.904   0.798  2.0772 -0.2416 -1.0450
  635TMC3    C7 9462   0.121   1.952   0.553  0.0151  0.3389 -0.7972
  635TMC3    C8 9463   0.272   2.070   0.991  0.9582  0.3404 -0.2227
  635TMC3    O1 9464   0.102   1.839   0.592  0.1516  0.4997  0.0515
  635TMC3    O2 9465   0.343   1.972   0.979  0.3977  0.0160  0.0857
  636MPD2     C 9466   0.207   2.330  16.049 -0.4372  0.3955 -1.2990
  636MPD2    C1 9467   0.280   2.298  16.163 -0.8179  0.7055 -0.9402
  636MPD2    C2 9468   0.336   2.168  16.160 -0.0945  0.0598 -0.3893
  636MPD2    C3 9469   0.316   2.068  16.059 -0.8905  0.6769 -0.0834
  636MPD2    C4 9470   0.229   2.112  15.953 -0.1163  0.6172  0.5984
  636MPD2    C5 9471   0.175   2.236  15.953  0.3765 -1.1332 -0.1225
  636MPD2     H 9472   0.376   2.139  16.256 -3.2464  1.5254  1.3747
  636MPD2    H1 9473   0.215   2.049  15.866 -0.3415 -1.9412  2.4929
  636MPD2    H2 9474   0.174   2.432  16.031 -0.5666  0.8371  1.4369
  636MPD2    H3 9475   0.118   2.254  15.862 -1.0681 -1.0709  0.7834
  636MPD2     N 9476   0.372   1.939  16.070 -0.6647  0.0188 -0.9027
  636MPD2    H5 9477   0.415   1.912  16.157 -1.9375 -1.5269 -0.7584
  636MPD2    N1 9478   0.327   2.395  16.258  0.6120 -0.1693  0.4601
  636MPD2    H7 9479   0.404   2.366  16.318  0.8249  0.5923  0.5593
  637TMC3    C1 9480   0.465   1.746  16.002 -0.0909  0.9758  0.3227
  637TMC3    C2 9481   0.416   1.697  16.117 -0.1643  0.0793  0.1422
  637TMC3    C3 9482   0.496   1.601  16.171  0.0240  0.1873 -0.5397
  637TMC3    C4 9483   0.588   1.723  15.943  0.4583  0.1670  0.8847
  637TMC3    C5 9484   0.666   1.630  16.003 -0.1056  0.6083 -0.0465
  637TMC3    C6 9485   0.616   1.561  16.113 -0.1794 -0.8814 -0.6106
  637TMC3     C 9486   0.404   1.871  15.958  0.6198  0.1356  0.1408
  637TMC3     O 9487   0.399   1.900  15.837  0.4165  0.0104 -0.3488
  637TMC3     H 9488   0.318   1.718  16.160  0.0815  0.6171  0.4275
  637TMC3    H1 9489   0.612   1.779  15.853 -1.5450  0.4876  0.5535
  637TMC3    H2 9490   0.670   1.481  16.163 -2.9286 -1.5663  1.2560
  637TMC3    C7 9491   0.796   1.688  16.036 -0.3282  0.1068  1.6530
  637TMC3    C8 9492   0.517   1.629  16.310  0.0773  0.4145  0.5037
  637TMC3    O1 9493   0.837   1.654  16.147 -0.2984  0.2582 -0.2960
  637TMC3    O2 9494   0.475   1.739  16.342 -0.5181  0.3361  0.8372
  638MPD2     C 9495   0.566   1.468  14.955  0.1544 -0.2379  0.3790
  638MPD2    C1 9496   0.643   1.353  14.947  0.6133  0.1642 -0.7093
  638MPD2    C2 9497   0.623   1.249  15.036 -0.4630  0.4148  0.1363
  638MPD2    C3 9498   0.550   1.274  15.148  0.7616 -0.0205  0.1902
  638MPD2    C4 9499   0.481   1.392  15.160  0.5262 -0.3280 -0.9661
  638MPD2    C5 9500   0.481   1.491  15.055 -0.4574 -0.6171 -0.2086
  638MPD2     H 9501   0.669   1.153  15.021  1.5616  1.0498  2.2269
  638MPD2    H1 9502   0.420   1.412  15.247  2.5955 -0.0260  0.4061
  638MPD2    H2 9503   0.568   1.543  14.878  2.8838 -0.8886 -0.1657
  638MPD2    H3 9504   0.428   1.586  15.051  2.5498  1.0889  0.3244
  638MPD2     N 9505   0.538   1.169  15.241  0.3162  0.0523  1.1084
  638MPD2    H5 9506   0.599   1.089  15.229 -0.4827 -0.1568 -1.4077
  638MPD2    N1 9507   0.739   1.343  14.841  0.0590 -0.2029 -0.0384
  638MPD2    H7 9508   0.756   1.424  14.783  0.3015  1.5403  2.4829
  639TMC3    C1 9509   0.465   1.036  15.406 -0.2795 -0.1917 -0.4042
  639TMC3    C2 9510   0.355   0.959  15.390  0.0348 -0.2715 -0.1084
  639TMC3    C3 9511   0.377   0.829  15.390 -0.1507 -0.3916 -0.0136
  639TMC3    C4 9512   0.588   0.996  15.431  1.0952  0.0854 -0.4259
  639TMC3    C5 9513   0.608   0.858  15.450  0.1690 -0.3403  0.2651
  639TMC3    C6 9514   0.502   0.778  15.428  0.1492 -0.4133  0.1757
  639TMC3     C 9515   0.452   1.164  15.351 -0.6665 -0.4654  0.0092
  639TMC3     O 9516   0.350   1.227  15.380 -0.5519  0.6497 -0.0913
  639TMC3     H 9517   0.269   1.003  15.341 -1.5563  0.4720  3.3585
  639TMC3    H1 9518   0.667   1.069  15.446  1.8921 -1.4231  2.6334
  639TMC3    H2 9519   0.514   0.671  15.443  0.0007 -0.4102  0.3217
  639TMC3    C7 9520   0.742   0.799  15.458  0.3880 -0.6172  0.4320
  639TMC3    C8 9521   0.325   0.747  15.285 -0.3452 -0.1330  0.3626
  639TMC3    O1 9522   0.746   0.687  15.515  0.1298 -0.2325  0.1546
  639TMC3    O2 9523   0.389   0.675  15.217 -0.9224  0.4773  0.1334
  640MPD2     C 9524   1.662   0.957  10.011 -0.7566  0.1138 -0.4915
  640MPD2    C1 9525   1.541   0.903   9.971  0.1065 -0.4361 -0.2077
  640MPD2    C2 9526   1.430   0.940  10.044 -0.0977 -0.1832  0.1089
  640MPD2    C3 9527   1.443   1.013  10.163  0.2433 -1.0582 -0.4286
  640MPD2    C4 9528   1.565   1.062  10.205  0.7337 -0.1627  0.4908
  640MPD2    C5 9529   1.671   1.027  10.129  0.0592  0.6538  0.0279
  640MPD2     H 9530   1.331   0.914  10.010  0.0768  1.2863 -1.4742
  640MPD2    H1 9531   1.586   1.109  10.300 -1.0726  1.4377  0.1127
  640MPD2    H2 9532   1.758   0.946   9.962  0.6348  0.7088  2.0847
  640MPD2    H3 9533   1.766   1.064  10.165 -0.0070  1.4905 -0.6740
  640MPD2     N 9534   1.330   1.046  10.240  0.1460 -0.0430 -0.0158
  640MPD2    H5 9535   1.353   1.097  10.324 -0.5984  1.3692 -0.6771
  640MPD2    N1 9536   1.540   0.828   9.854  0.7361  0.2114 -0.0922
  640MPD2    H7 9537   1.630   0.809   9.811  1.2847  2.2458  0.1423
  641TMC3    C1 9538   1.470   0.741   9.657 -0.4661  0.3135 -0.2153
  641TMC3    C2 9539   1.562   0.645   9.664 -0.3076 -0.3607  0.4327
  641TMC3    C3 9540   1.606   0.591   9.547 -0.2144  0.6214  0.0526
  641TMC3    C4 9541   1.411   0.777   9.534  0.1634 -0.5714  0.1142
  641TMC3    C5 9542   1.442   0.710   9.426 -0.7819 -0.4123 -0.0936
  641TMC3    C6 9543   1.549   0.621   9.424 -0.3023 -0.2794  0.7024
  641TMC3     C 9544   1.429   0.803   9.780 -0.1984 -0.1336  0.1367
  641TMC3     O 9545   1.318   0.849   9.799 -0.2382 -0.2114 -0.1007
  641TMC3     H 9546   1.614   0.628   9.758  1.3462 -0.5992 -0.5309
  641TMC3    H1 9547   1.332   0.851   9.540 -0.8863 -1.7712  1.2832
  641TMC3    H2 9548   1.600   0.596   9.332 -1.7560 -0.5837 -0.0234
  641TMC3    C7 9549   1.426   0.777   9.296 -0.3779  0.1525  0.2988
  641TMC3    C8 9550   1.710   0.495   9.548 -0.0683 -0.1484 -0.1935
  641TMC3    O1 9551   1.387   0.891   9.305  0.4055 -0.1400 -0.2652
  641TMC3    O2 9552   1.722   0.420   9.450 -0.1127  0.2387 -0.0654
  642TMC3    C1 9553   2.165   1.114  12.313 -0.4087 -0.0402 -0.9715
  642TMC3    C2 9554   2.290   1.154  12.275 -0.1293  0.5023  0.4359
  642TMC3    C3 9555   2.340   1.128  12.147 -0.2206 -0.5007  0.2614
  642TMC3    C4 9556   2.103   1.022  12.234 -0.5664  0.2825 -1.4166
  642TMC3    C5 9557   2.152   0.991  12.110  0.7929  0.1192 -0.4645
  642TMC3    C6 9558   2.266   1.051  12.059  0.0396  0.1239  0.0450
  642TMC3     C 9559   2.125   1.104  12.458  0.5190 -0.1433 -0.2366
  642TMC3     O 9560   2.212   1.095  12.543  0.0439  0.1618 -0.2306
  642TMC3     H 9561   2.341   1.208  12.354  0.1598  2.6942 -1.2302
  642TMC3    H1 9562   2.011   0.981  12.272  0.0615  0.2387  0.0568
  642TMC3    H2 9563   2.298   1.027  11.958  1.8504 -1.8082  1.0715
  642TMC3    C7 9564   2.082   0.889  12.025  0.4503  0.7657 -0.2080
  642TMC3    C8 9565   2.445   1.204  12.088 -0.1962 -0.2027  0.1563
  642TMC3    O1 9566   2.112   0.886  11.909 -0.0100 -0.4453  0.7193
  642TMC3    O2 9567   2.447   1.196  11.964  0.5608  0.7440 -0.1165
  643TMC3    C1 9568   1.964   0.177   0.453 -0.1166  0.1787  0.5950
  643TMC3    C2 9569   1.872   0.114   0.536 -0.9391 -1.3542 -0.3020
  643TMC3    C3 9570   1.801   0.010   0.476 -0.1282  0.4568  0.0219
  643TMC3    C4 9571   1.977   0.145   0.319  0.2732 -0.5130  0.1055
  643TMC3    C5 9572   1.887   0.056   0.261  0.3416 -0.1824  0.5453
  643TMC3    C6 9573   1.816   4.709   0.344 -0.2170  0.7457 -0.1343
  643TMC3     C 9574   2.007   0.309   0.505 -0.4308  0.4434 -0.2805
  643TMC3     O 9575   1.935   0.368   0.589  0.0915 -0.0050  0.3120
  643TMC3     H 9576   1.844   0.154   0.632  2.0106 -0.0163  0.0221
  643TMC3    H1 9577   2.014   0.227   0.259  0.2383  1.3831  2.6722
  643TMC3    H2 9578   1.746   4.638   0.301 -1.5922  0.8784  1.8628
  643TMC3    C7 9579   1.809   0.109   0.149  0.4288  0.2366  0.0414
  643TMC3    C8 9580   1.658   0.011   0.505  0.3151  0.5839  0.6536
  643TMC3    O1 9581   1.862   0.202   0.088  0.3840  0.3078 -0.5299
  643TMC3    O2 9582   1.607   4.631   0.510 -0.3635  0.2500  0.0452
  644MPD2     C 9583   1.492   1.143   9.495 -0.0777 -0.8512 -0.2793
  644MPD2    C1 9584   1.589   1.240   9.526 -0.0313  0.1371  0.3990
  644MPD2    C2 9585   1.546   1.366   9.551 -0.3117 -0.1755 -0.1817
  644MPD2    C3 9586   1.407   1.386   9.571  0.1375 -0.1014 -0.3458
  644MPD2    C4 9587   1.313   1.298   9.520 -0.1026 -0.2454  0.7651
  644MPD2    C5 9588   1.360   1.175   9.499 -0.0751  0.3044  0.7854
  644MPD2     H 9589   1.616   1.444   9.579 -1.0027 -0.5436  2.5317
  644MPD2    H1 9590   1.206   1.303   9.540 -0.0688  1.5574  0.5134
  644MPD2    H2 9591   1.519   1.040   9.475 -0.0183 -0.8542 -0.1827
  644MPD2    H3 9592   1.287   1.097   9.479  2.4187 -1.5436 -1.1935
  644MPD2     N 9593   1.376   1.508   9.634  0.9606 -0.1432  0.2818
  644MPD2    H5 9594   1.455   1.570   9.648 -0.0521  0.5668  2.8766
  644MPD2    N1 9595   1.721   1.208   9.523  0.9288  0.1432  0.1592
  644MPD2    H7 9596   1.758   1.114   9.508  1.4013  0.4122 -0.3483
  645TMC3    C1 9597   1.259   1.667   9.765  0.3352  0.0570  0.0398
  645TMC3    C2 9598   1.368   1.743   9.759 -0.5298  0.3401 -0.4734
  645TMC3    C3 9599   1.363   1.869   9.813 -0.3169 -0.3348  0.0753
  645TMC3    C4 9600   1.146   1.703   9.834 -0.4454 -0.2068  0.5095
  645TMC3    C5 9601   1.151   1.823   9.894  0.0549  0.1245  0.0580
  645TMC3    C6 9602   1.256   1.905   9.891 -0.1986 -0.2268 -0.5231
  645TMC3     C 9603   1.258   1.536   9.696 -0.5098 -0.0844 -0.2627
  645TMC3     O 9604   1.160   1.463   9.707  0.6866  0.5638 -0.0748
  645TMC3     H 9605   1.459   1.721   9.704 -0.3445  0.6236 -0.2827
  645TMC3    H1 9606   1.054   1.646   9.829 -1.0506  0.7460  0.6423
  645TMC3    H2 9607   1.250   2.005   9.933 -3.8148 -0.1700 -1.2116
  645TMC3    C7 9608   1.033   1.873   9.964  0.7985 -0.3185  0.2540
  645TMC3    C8 9609   1.462   1.964   9.771 -0.1746 -0.9623  0.4650
  645TMC3    O1 9610   1.036   1.990   9.991 -0.0875  0.1603 -0.1529
  645TMC3    O2 9611   1.513   1.956   9.656 -0.5717  0.1492  0.4971
  646MPD2     C 9612   0.879   0.085  14.834  0.1639 -0.0499 -0.0713
  646MPD2    C1 9613   0.778   0.096  14.922 -0.5430  0.3318 -0.3724
  646MPD2    C2 9614   0.661   0.161  14.874 -0.2572 -0.0586  0.4074
  646MPD2    C3 9615   0.645   0.206  14.741 -0.1903 -0.1435  0.4057
  646MPD2    C4 9616   0.752   0.178  14.659  0.1363 -1.0628 -0.6845
  646MPD2    C5 9617   0.862   0.111  14.707  0.9933  0.1161 -0.0358
  646MPD2     H 9618   0.568   0.174  14.928 -0.5667 -0.4412 -0.0275
  646MPD2    H1 9619   0.759   0.191  14.552 -0.7910  0.6237 -0.5365
  646MPD2    H2 9620   0.971   0.040  14.870  1.0732  2.2369  0.4402
  646MPD2    H3 9621   0.947   0.089  14.644  0.7448  2.2610 -1.0909
  646MPD2     N 9622   0.522   0.252  14.695  0.3200 -0.0416  1.1101
  646MPD2    H5 9623   0.444   0.247  14.760 -1.4056 -1.2460 -1.0193
  646MPD2    N1 9624   0.792   0.034  15.048  0.4148 -0.3497  0.5166
  646MPD2    H7 9625   0.870   4.701  15.055 -0.1373 -0.6755  3.2513
  647TMC3    C1 9626   0.745   4.704  15.275 -0.2194  0.1790 -0.2080
  647TMC3    C2 9627   0.656   4.681  15.382 -0.0653 -0.0439 -0.6218
  647TMC3    C3 9628   0.697   4.608  15.491 -0.1808  0.1814  0.0450
  647TMC3    C4 9629   0.875   4.669  15.287  0.0285  0.0100  0.3209
  647TMC3    C5 9630   0.916   4.623  15.412  0.2914  0.3064  0.0550
  647TMC3    C6 9631   0.831   4.602  15.513 -0.2965 -0.2358 -0.4147
  647TMC3     C 9632   0.707   0.046  15.158 -0.3028  0.5601 -0.5879
  647TMC3     O 9633   0.598   0.100  15.161  0.3087  0.0769  0.9670
  647TMC3     H 9634   0.558   4.724  15.364  0.4554  0.2720 -2.6686
  647TMC3    H1 9635   0.949   4.685  15.210  1.1731  0.9427  1.6292
  647TMC3    H2 9636   0.872   4.547  15.598  2.2029  2.4181  0.1108
  647TMC3    C7 9637   1.026   4.532  15.407 -0.6324 -0.3143  0.2851
  647TMC3    C8 9638   0.634   4.475  15.491 -0.1724 -0.0472 -0.4001
  647TMC3    O1 9639   1.081   4.500  15.511  0.0694 -0.0940 -0.6400
  647TMC3    O2 9640   0.668   4.397  15.577  0.2309  0.3101 -0.0492
  648TMC3    C1 9641   4.617   2.346  16.188 -0.8207 -0.8739 -0.5165
  648TMC3    C2 9642   4.630   2.219  16.164  0.4728  0.5695 -0.3527
  648TMC3    C3 9643   4.579   2.164  16.046 -0.1769  0.1703  0.4218
  648TMC3    C4 9644   4.555   2.429  16.097 -0.9230  0.5894  0.1332
  648TMC3    C5 9645   4.520   2.371  15.974 -0.8558  0.1470 -0.4910
  648TMC3    C6 9646   4.536   2.241  15.945  0.5140 -0.2842 -0.0460
  648TMC3     C 9647   4.658   2.400  16.316  0.3298  0.7125  0.2174
  648TMC3     O 9648   4.614   2.505  16.362  0.6032  0.1246  0.3598
  648TMC3     H 9649   4.650   2.143  16.239  1.7377 -0.2835 -1.5451
  648TMC3    H1 9650   4.551   2.537  16.110  1.7342  0.6901  0.1366
  648TMC3    H2 9651   4.504   2.202  15.849 -1.0362  1.0955 -0.0798
  648TMC3    C7 9652   4.473   2.453  15.869 -0.2623 -0.1446  0.1956
  648TMC3    C8 9653   4.575   2.022  16.034  0.3125  0.7219 -0.0616
  648TMC3    O1 9654   4.488   2.419  15.752 -0.1864  0.7119  0.6148
  648TMC3    O2 9655   4.541   1.963  16.137 -0.2652  0.0332  0.7307
  649TMC3    C1 9656   3.096   3.357  12.908 -0.1928  0.8081  0.4084
  649TMC3    C2 9657   3.201   3.419  12.964  1.1496 -0.1707  0.0293
  649TMC3    C3 9658   3.247   3.379  13.083  0.6782 -0.4408 -1.1860
  649TMC3    C4 9659   3.027   3.254  12.974 -0.0521  0.2537 -0.3844
  649TMC3    C5 9660   3.063   3.232  13.106 -0.4586 -0.7000  0.3844
  649TMC3    C6 9661   3.168   3.297  13.159 -0.2214  0.8023 -0.1191
  649TMC3     C 9662   3.030   3.420  12.798  0.2990  0.1362 -0.3969
  649TMC3     O 9663   3.036   3.542  12.789  0.8112  0.8487  0.3043
  649TMC3     H 9664   3.253   3.504  12.919  2.2684 -1.4165 -1.0260
  649TMC3    H1 9665   2.932   3.218  12.937  1.3295 -0.6416 -3.1163
  649TMC3    H2 9666   3.194   3.286  13.264 -0.6454 -0.4220 -0.1382
  649TMC3    C7 9667   2.978   3.163  13.199 -0.9109 -0.7115  0.5459
  649TMC3    C8 9668   3.347   3.463  13.157  0.4450  0.1840  0.4007
  649TMC3    O1 9669   2.999   3.182  13.316 -0.6364  0.7047 -0.0605
  649TMC3    O2 9670   3.325   3.483  13.274  0.0772  0.5812  0.2604
  650TMC3    C1 9671   1.230   0.121  13.027 -0.2710 -0.4783 -0.5067
  650TMC3    C2 9672   1.136   0.212  12.986 -0.1461 -0.2825  0.0510
  650TMC3    C3 9673   1.178   0.334  12.963  0.7504 -0.2230 -0.2596
  650TMC3    C4 9674   1.361   0.151  13.049 -0.1744 -0.0312  0.1170
  650TMC3    C5 9675   1.405   0.270  12.996  0.0765 -0.2191  0.6565
  650TMC3    C6 9676   1.311   0.367  12.982  0.1536 -0.1542  0.2009
  650TMC3     C 9677   1.185   0.021  13.121  0.1563 -0.3702 -0.1508
  650TMC3     O 9678   1.083   0.039  13.188  0.9364 -0.1259 -0.0835
  650TMC3     H 9679   1.033   0.189  12.963 -1.0526  2.1127  1.7162
  650TMC3    H1 9680   1.439   0.086  13.086 -2.4660 -3.4128 -0.9636
  650TMC3    H2 9681   1.345   0.469  12.975  1.5022 -0.4378  2.6121
  650TMC3    C7 9682   1.543   0.306  12.976  0.1330 -0.0201  0.0839
  650TMC3    C8 9683   1.063   0.425  12.949  0.6366 -0.7714 -0.6503
  650TMC3    O1 9684   1.633   0.256  13.039 -0.8248 -0.8316  0.7744
  650TMC3    O2 9685   0.948   0.385  12.973 -0.2407  0.2810 -0.1701
  651MPD2     C 9686   0.818   2.945  11.332  0.9480  0.2547 -0.1136
  651MPD2    C1 9687   0.742   2.990  11.228  0.4529  0.2258 -0.0032
  651MPD2    C2 9688   0.799   3.025  11.108 -0.3430  0.8070 -0.1716
  651MPD2    C3 9689   0.935   3.036  11.106 -0.8442  0.1844  0.0300
  651MPD2    C4 9690   1.008   3.011  11.219 -0.2071  0.5448 -0.1349
  651MPD2    C5 9691   0.952   2.954  11.326  0.8353 -0.1992  0.6329
  651MPD2     H 9692   0.737   3.054  11.024 -1.6110 -2.1342 -0.2317
  651MPD2    H1 9693   1.117   3.007  11.224 -0.2537 -0.2336  0.2814
  651MPD2    H2 9694   0.767   2.928  11.426  1.0362 -1.2516 -0.3372
  651MPD2    H3 9695   1.016   2.924  11.407 -0.7598  2.6253  2.9503
  651MPD2     N 9696   1.011   3.082  10.989 -0.0616 -0.4031  0.0040
  651MPD2    H5 9697   0.955   3.100  10.906  2.1683  1.1190 -1.1759
  651MPD2    N1 9698   0.601   3.009  11.247 -0.1067 -0.0780  0.3970
  651MPD2    H7 9699   0.557   3.040  11.161  1.1575 -1.3284 -0.7102
  652TMC3    C1 9700   1.367   3.111  10.680  0.5583 -0.0269  0.1917
  652TMC3    C2 9701   1.319   3.068  10.802 -0.0091 -0.4598  0.2464
  652TMC3    C3 9702   1.187   3.103  10.833 -0.6074 -0.1284  0.3086
  652TMC3    C4 9703   1.287   3.161  10.577  0.5101 -0.3644  1.0616
  652TMC3    C5 9704   1.157   3.194  10.610 -0.3414  0.0434  0.0476
  652TMC3    C6 9705   1.113   3.168  10.739 -0.2985 -0.2766 -0.1205
  652TMC3     C 9706   1.497   3.064  10.646  0.2221 -1.3777 -0.4592
  652TMC3     O 9707   1.533   2.954  10.676  0.0938 -0.0928 -0.4407
  652TMC3     H 9708   1.385   3.029  10.879 -1.1972  0.3798  1.6748
  652TMC3    H1 9709   1.338   3.179  10.483 -0.9201  0.1515  0.3959
  652TMC3    H2 9710   1.013   3.203  10.765  0.7879  0.4735  2.9735
  652TMC3    C7 9711   1.068   3.236  10.514 -0.6399  0.1408  0.2124
  652TMC3    C8 9712   1.146   3.081  10.970 -0.0223 -0.6288 -0.8691
  652TMC3    O1 9713   0.946   3.222  10.539  0.5602 -0.1477  0.1164
  652TMC3    O2 9714   1.235   3.052  11.047  0.2622 -0.4785  0.2408
  653MPD2     C 9715   3.998   2.519   0.195  0.2158  0.6096  0.5781
  653MPD2    C1 9716   3.959   2.590   0.077 -0.1988 -0.1523 -0.7456
  653MPD2    C2 9717   3.902   2.510  17.710 -0.1672 -0.4939 -0.1751
  653MPD2    C3 9718   3.890   2.372  17.707  0.2393 -0.4498 -0.2458
  653MPD2    C4 9719   3.916   2.314   0.101  0.3506  0.0005  0.4660
  653MPD2    C5 9720   3.973   2.389   0.202  0.5689 -0.2748  0.4638
  653MPD2     H 9721   3.858   2.564  17.627  3.3126  1.1243 -0.9744
  653MPD2    H1 9722   3.911   2.207   0.122 -0.7885  0.3769  2.0384
  653MPD2    H2 9723   4.047   2.568   0.278 -0.4773  1.1201  0.6866
  653MPD2    H3 9724   3.999   2.339   0.295  0.4457  0.2384  0.7728
  653MPD2     N 9725   3.843   2.308  17.595  0.2243  0.2492  0.5841
  653MPD2    H5 9726   3.796   2.366  17.527  2.9126  0.6976 -0.8997
  653MPD2    N1 9727   3.966   2.729   0.060  0.3806 -0.2136  0.4391
  653MPD2    H7 9728   3.942   2.763  17.697  0.3384  1.7718  1.1742
  654TMC3    C1 9729   3.812   2.131  17.445  0.5134 -0.5006  0.0338
  654TMC3    C2 9730   3.714   2.205  17.383  0.1256  1.0636 -0.6714
  654TMC3    C3 9731   3.726   2.210  17.246 -0.0556 -0.5090  0.4381
  654TMC3    C4 9732   3.898   2.047  17.381 -1.1286 -0.4835 -0.5198
  654TMC3    C5 9733   3.900   2.054  17.248  0.4036  0.1238 -0.1523
  654TMC3    C6 9734   3.818   2.135  17.171 -0.1786 -0.5950  0.2832
  654TMC3     C 9735   3.845   2.173  17.580 -0.5968 -0.9332 -0.0228
  654TMC3     O 9736   3.889   2.086  17.652  0.7152  0.6382  0.4157
  654TMC3     H 9737   3.637   2.256  17.441  0.1649 -1.1124  1.2984
  654TMC3    H1 9738   3.973   2.008  17.448  2.2396  0.7205 -3.6134
  654TMC3    H2 9739   3.823   2.152  17.064  0.2489 -2.8890 -0.0564
  654TMC3    C7 9740   3.965   1.944  17.177  0.5612  0.5800 -0.1711
  654TMC3    C8 9741   3.600   2.244  17.181  0.0650 -0.5859  0.3966
  654TMC3    O1 9742   3.959   1.942  17.054  0.1555  0.2324 -0.0162
  654TMC3    O2 9743   3.533   2.332  17.235 -0.2199  0.7968  0.8162
  655MPD2     C 9744   0.412   2.404  15.779 -0.1628  0.0817  0.0892
  655MPD2    C1 9745   0.361   2.498  15.693  0.9825 -0.9065 -0.3870
  655MPD2    C2 9746   0.349   2.468  15.555  0.3540 -0.2197  0.5269
  655MPD2    C3 9747   0.396   2.347  15.510 -0.1894 -0.5246 -0.0074
  655MPD2    C4 9748   0.449   2.256  15.603  0.0725  0.2224  0.5621
  655MPD2    C5 9749   0.460   2.278  15.734  0.0769 -0.0482  0.0485
  655MPD2     H 9750   0.321   2.548  15.488  2.0213  1.8519  2.2916
  655MPD2    H1 9751   0.481   2.164  15.554  1.4366  0.4211  1.0783
  655MPD2    H2 9752   0.402   2.420  15.885  0.3571 -4.5450  0.8108
  655MPD2    H3 9753   0.493   2.205  15.807  0.7623  1.7078  1.5159
  655MPD2     N 9754   0.369   2.295  15.379  0.3367 -0.2548 -0.0125
  655MPD2    H5 9755   0.366   2.195  15.363  2.3083 -0.2803 -0.3203
  655MPD2    N1 9756   0.308   2.624  15.734  0.3058  0.3249 -0.0922
  655MPD2    H7 9757   0.245   2.664  15.665  1.3122 -0.3754 -1.4287
  656TMC3    C1 9758   0.235   2.799  15.862  0.2421  0.2783  0.1195
  656TMC3    C2 9759   0.150   2.817  15.968 -0.3078  0.1959  0.0985
  656TMC3    C3 9760   0.039   2.897  15.954  0.2034 -1.0386 -0.4498
  656TMC3    C4 9761   0.214   2.862  15.741  0.4631 -0.1580  0.2605
  656TMC3    C5 9762   0.100   2.944  15.733  0.9792  0.2629 -0.2185
  656TMC3    C6 9763   0.014   2.962  15.834  0.5040  0.6421 -0.4938
  656TMC3     C 9764   0.315   2.679  15.858  0.1386 -0.3558  0.3280
  656TMC3     O 9765   0.370   2.632  15.960 -0.1879 -0.6838 -0.2289
  656TMC3     H 9766   0.170   2.775  16.065 -0.2417  0.9613  0.4172
  656TMC3    H1 9767   0.290   2.861  15.664  1.8446  0.0161  1.6324
  656TMC3    H2 9768   4.663   3.029  15.817 -0.8840 -0.9627  0.0204
  656TMC3    C7 9769   0.094   3.027  15.610  0.2248  0.4407 -0.2882
  656TMC3    C8 9770   4.657   2.854  16.026 -0.0689 -0.1056  0.6001
  656TMC3    O1 9771   0.203   3.039  15.553  0.1251  0.0442 -0.3367
  656TMC3    O2 9772   4.661   2.742  16.072  0.5442  0.1548 -0.7149
  657TMC3    C1 9773   3.792   1.864  15.040 -0.1762 -1.0698 -0.9633
  657TMC3    C2 9774   3.804   1.977  15.118  0.4831 -0.1538  0.1908
  657TMC3    C3 9775   3.721   2.075  15.094 -0.6298  0.0696 -0.3191
  657TMC3    C4 9776   3.679   1.842  14.958 -0.5794 -0.3658  0.1122
  657TMC3    C5 9777   3.598   1.943  14.939 -0.0570  0.0128  0.5090
  657TMC3    C6 9778   3.616   2.063  15.008  1.1214  0.2766  0.1285
  657TMC3     C 9779   3.859   1.740  15.073 -0.0327 -0.0716  0.2855
  657TMC3     O 9780   3.809   1.643  15.023 -0.1917  0.4110  0.0092
  657TMC3     H 9781   3.884   1.987  15.190 -0.4110  0.9897  1.0129
  657TMC3    H1 9782   3.680   1.750  14.901  0.5404  0.8025 -1.7385
  657TMC3    H2 9783   3.561   2.153  14.986  2.3361  0.6869 -1.2003
  657TMC3    C7 9784   3.504   1.934  14.830  0.1766  0.4451  0.0432
  657TMC3    C8 9785   3.748   2.214  15.140 -0.3209 -0.3516  0.4813
  657TMC3    O1 9786   3.533   1.841  14.756  0.3528 -0.2750  0.8744
  657TMC3    O2 9787   3.708   2.308  15.072  0.3718 -0.5700  0.2142
  658MPD2     C 9788   0.764   2.373  14.670 -0.9212 -0.1405  0.5264
  658MPD2    C1 9789   0.627   2.378  14.661  0.0581  0.2480 -0.1159
  658MPD2    C2 9790   0.571   2.407  14.535 -0.0531  0.1632 -0.1576
  658MPD2    C3 9791   0.652   2.426  14.424  0.4665 -0.2803  0.2884
  658MPD2    C4 9792   0.788   2.438  14.441 -0.6886 -0.1919  0.0800
  658MPD2    C5 9793   0.842   2.405  14.561  0.3274  0.4509 -0.2744
  658MPD2     H 9794   0.463   2.413  14.531 -0.0194 -0.0791 -1.4780
  658MPD2    H1 9795   0.856   2.468  14.362 -1.0166  0.7050  0.1400
  658MPD2    H2 9796   0.813   2.353  14.764  1.4115  0.5689 -0.5352
  658MPD2    H3 9797   0.950   2.399  14.572  0.1492  1.0196  1.6451
  658MPD2     N 9798   0.588   2.460  14.303  0.0062 -0.6865 -0.8240
  658MPD2    H5 9799   0.488   2.478  14.303  0.4743  1.8243  0.0737
  658MPD2    N1 9800   0.550   2.346  14.774  0.1241  0.7300 -0.1678
  658MPD2    H7 9801   0.597   2.335  14.864 -0.1477  0.7928 -0.0171
  659TMC3    C1 9802   0.354   2.281  14.913  1.1554 -0.4763 -0.0442
  659TMC3    C2 9803   0.398   2.336  15.031 -0.0018 -0.1988  0.4713
  659TMC3    C3 9804   0.340   2.293  15.146  0.2696 -0.2717  0.1369
  659TMC3    C4 9805   0.247   2.189  14.909 -0.6833  0.5480 -0.2941
  659TMC3    C5 9806   0.206   2.142  15.029  0.7691 -0.2291  1.4386
  659TMC3    C6 9807   0.249   2.193  15.145  0.0441 -0.7017  0.0255
  659TMC3     C 9808   0.409   2.321  14.780 -0.6887  0.7112  0.0258
  659TMC3     O 9809   0.324   2.305  14.697  0.5483  0.1576 -0.2599
  659TMC3     H 9810   0.475   2.413  15.036  0.7715 -1.0642  1.7163
  659TMC3    H1 9811   0.229   2.134  14.818  3.2945 -0.6941 -0.3291
  659TMC3    H2 9812   0.202   2.162  15.238 -0.9901 -0.3160 -0.3562
  659TMC3    C7 9813   0.082   2.067  15.037 -0.0245 -0.3819  0.0757
  659TMC3    C8 9814   0.378   2.372  15.267 -0.1791 -0.0249 -0.8748
  659TMC3    O1 9815   0.047   2.026  15.147  0.1699  0.3915 -0.1061
  659TMC3    O2 9816   0.409   2.487  15.251  0.6235  0.2546  0.5443
  660MPD2     C 9817   3.260   1.609  12.654  0.5056  0.0413  0.0430
  660MPD2    C1 9818   3.129   1.640  12.657 -0.5080 -1.1373 -0.2042
  660MPD2    C2 9819   3.046   1.568  12.739  0.0864  0.3756 -0.1605
  660MPD2    C3 9820   3.087   1.468  12.824 -0.1618 -0.9494 -0.3101
  660MPD2    C4 9821   3.217   1.433  12.820 -0.4003  0.1947  0.2316
  660MPD2    C5 9822   3.301   1.508  12.739 -0.0643 -0.3832  0.1417
  660MPD2     H 9823   2.945   1.603  12.755 -0.1991 -0.4030 -0.2448
  660MPD2    H1 9824   3.250   1.354  12.887  0.5060 -1.4608 -2.1592
  660MPD2    H2 9825   3.331   1.667  12.596  1.7641 -1.9760 -0.4438
  660MPD2    H3 9826   3.406   1.484  12.752  0.2023 -0.3888 -1.9072
  660MPD2     N 9827   2.994   1.386  12.891 -0.7656 -0.7311 -0.1918
  660MPD2    H5 9828   3.040   1.317  12.948  1.7682  0.8589 -0.3209
  660MPD2    N1 9829   3.082   1.747  12.581 -0.1798 -0.4007  0.1414
  660MPD2    H7 9830   3.142   1.820  12.546  0.4696 -0.2668  1.5429
  661TMC3    C1 9831   2.908   1.878  12.470  0.1215  0.2596 -0.2649
  661TMC3    C2 9832   3.003   1.957  12.409  0.1627  0.5701 -0.6370
  661TMC3    C3 9833   2.961   2.044  12.317 -0.2349  0.0489  0.2322
  661TMC3    C4 9834   2.773   1.884  12.446  0.0784 -0.3509 -0.0823
  661TMC3    C5 9835   2.735   1.979  12.353  0.0189 -0.3791  0.9513
  661TMC3    C6 9836   2.827   2.055  12.289 -0.0574  0.5679  0.1853
  661TMC3     C 9837   2.946   1.759  12.541 -0.2418 -0.0548  0.3793
  661TMC3     O 9838   2.848   1.691  12.569 -0.2427 -0.1271 -0.1531
  661TMC3     H 9839   3.109   1.939  12.427  0.1340  1.5851  0.5490
  661TMC3    H1 9840   2.691   1.827  12.487 -0.7272  1.3646  0.6884
  661TMC3    H2 9841   2.797   2.119  12.207 -0.4542  1.6088  1.1388
  661TMC3    C7 9842   2.602   1.970  12.296  0.3327  0.7009  0.5571
  661TMC3    C8 9843   3.060   2.064  12.208 -0.7351 -0.2251  0.2282
  661TMC3    O1 9844   2.509   2.008  12.357  0.2326  0.3256  0.1645
  661TMC3    O2 9845   3.064   2.170  12.148 -0.5027  0.2372  0.2107
  662MPD2     C 9846   4.131   0.926  17.147 -0.9354 -0.0753 -0.0237
  662MPD2    C1 9847   4.025   0.836  17.141  0.9694  0.0910  0.2921
  662MPD2    C2 9848   3.904   0.885  17.189  0.7782 -0.0456  0.5428
  662MPD2    C3 9849   3.884   1.009  17.246 -0.4665 -0.4351 -0.4077
  662MPD2    C4 9850   3.990   1.089  17.244 -0.2729  0.5488  0.3724
  662MPD2    C5 9851   4.111   1.050  17.203  0.7959  0.7841 -0.5753
  662MPD2     H 9852   3.812   0.828  17.178 -0.3649  1.9889 -0.3604
  662MPD2    H1 9853   3.975   1.189  17.283 -0.7759  1.0448 -1.1104
  662MPD2    H2 9854   4.233   0.907  17.116  0.0805  0.7100  2.8010
  662MPD2    H3 9855   4.190   1.124  17.212  0.6068  0.9745 -0.4958
  662MPD2     N 9856   3.764   1.052  17.303 -0.7135  0.4355 -0.0541
  662MPD2    H5 9857   3.773   1.144  17.346  0.6214  0.4493 -0.3612
  662MPD2    N1 9858   4.034   0.708  17.091  0.3817  0.0180  0.2396
  662MPD2    H7 9859   3.949   0.651  17.090  0.8642 -0.7059  0.2462
  663TMC3    C1 9860   4.133   0.510  17.023 -0.6060  1.3067  0.2337
  663TMC3    C2 9861   4.132   0.451  17.148 -0.0400 -0.3370  0.6144
  663TMC3    C3 9862   4.192   0.327  17.140 -0.1379  0.7525 -0.1541
  663TMC3    C4 9863   4.143   0.450  16.901  0.5289  0.4971 -0.7160
  663TMC3    C5 9864   4.149   0.312  16.902  0.0863 -0.5506 -0.4723
  663TMC3    C6 9865   4.170   0.249  17.028  0.1858 -0.2761 -0.3439
  663TMC3     C 9866   4.142   0.653  17.031 -0.5791 -0.2848 -0.5038
  663TMC3     O 9867   4.244   0.710  16.983  0.4999 -0.1729  0.5713
  663TMC3     H 9868   4.150   0.521  17.228 -0.3840 -0.5510  0.8792
  663TMC3    H1 9869   4.119   0.505  16.811 -1.4423 -0.3567 -0.7009
  663TMC3    H2 9870   4.218   0.153  17.042  1.0508  0.2926  0.5963
  663TMC3    C7 9871   4.076   0.241  16.800  0.4440 -0.3481  0.7193
  663TMC3    C8 9872   4.215   0.251  17.263 -0.5187  0.5507  0.5980
  663TMC3    O1 9873   4.079   0.296  16.690 -0.0462 -0.1509 -0.4706
  663TMC3    O2 9874   4.282   0.148  17.263  0.1524  0.0051 -0.1657
  664MPD2     C 9875   1.450   4.255   0.407 -0.0945  0.4237  0.1642
  664MPD2    C1 9876   1.566   4.290   0.344 -0.6044  0.2024  0.0076
  664MPD2    C2 9877   1.687   4.271   0.406 -0.4891  0.5445 -0.6434
  664MPD2    C3 9878   1.698   4.220   0.532 -0.0812 -0.3323  1.0305
  664MPD2    C4 9879   1.582   4.190   0.599 -0.6644 -0.1563  0.1022
  664MPD2    C5 9880   1.461   4.197   0.530 -0.0373  0.5376  0.5585
  664MPD2     H 9881   1.783   4.311   0.374 -0.2760  0.9206  0.4682
  664MPD2    H1 9882   1.580   4.157   0.702 -2.4795 -0.2431  0.0431
  664MPD2    H2 9883   1.354   4.272   0.358 -0.0367 -1.6030 -0.6294
  664MPD2    H3 9884   1.376   4.157   0.584  0.7293 -0.7204  0.8117
  664MPD2     N 9885   1.828   4.205   0.584  0.2417  0.4696  0.6986
  664MPD2    H5 9886   1.904   4.258   0.543 -1.6405  1.3102 -1.7197
  664MPD2    N1 9887   1.582   4.344   0.211 -0.0320  0.2744 -0.3161
  664MPD2    H7 9888   1.676   4.374   0.186 -0.3964  0.8670 -0.9416
  665TMC3    C1 9889   1.971   4.210   0.767  0.0613 -0.1538 -0.3826
  665TMC3    C2 9890   2.044   4.144   0.863 -0.2235  0.5307  0.1723
  665TMC3    C3 9891   2.141   4.208   0.928  0.0818 -0.4452 -0.6300
  665TMC3    C4 9892   2.006   4.340   0.739  0.1651  0.0667  0.5575
  665TMC3    C5 9893   2.109   4.396   0.807  0.2412  0.3138 -0.1796
  665TMC3    C6 9894   2.180   4.331   0.902  0.5318  0.7495  0.3310
  665TMC3     C 9895   1.865   4.140   0.698  0.1678  0.1845 -0.4571
  665TMC3     O 9896   1.802   4.061   0.767 -0.1363  0.4641  0.5681
  665TMC3     H 9897   2.016   4.041   0.885 -2.6789  1.0092 -0.6777
  665TMC3    H1 9898   1.953   4.395   0.663 -0.8801 -0.8622  0.6133
  665TMC3    H2 9899   2.271   4.361   0.953  0.6874  3.2389 -1.4295
  665TMC3    C7 9900   2.141   4.527   0.764 -0.1280 -0.2826 -0.3604
  665TMC3    C8 9901   2.126   4.204   1.072  0.3341 -0.1623 -0.2907
  665TMC3    O1 9902   2.098   4.575   0.662 -0.1419  0.1903  0.2538
  665TMC3    O2 9903   2.126   4.312   1.125  0.0041 -0.3625 -0.1018
  666TMC3    C1 9904   0.643   4.668   9.777 -0.3856 -0.8728  0.5479
  666TMC3    C2 9905   0.737   4.633   9.679 -0.2028  0.1277  0.3234
  666TMC3    C3 9906   0.854   4.696   9.668 -0.2474 -0.4804 -0.2554
  666TMC3    C4 9907   0.664   0.044   9.853  0.3254 -0.4504 -0.3959
  666TMC3    C5 9908   0.787   0.111   9.847 -0.4861  0.1399 -0.1133
  666TMC3    C6 9909   0.884   0.064   9.757 -0.4053  0.4779  0.3499
  666TMC3     C 9910   0.527   4.591   9.800  0.5891  0.5205 -0.5288
  666TMC3     O 9911   0.444   4.630   9.876  0.5248 -0.0967  0.6373
  666TMC3     H 9912   0.711   4.558   9.606 -0.1744 -1.0677  1.5305
  666TMC3    H1 9913   0.583   0.081   9.915  0.1176 -1.8404  0.1638
  666TMC3    H2 9914   0.979   0.115   9.763 -0.0060 -0.4724  2.1054
  666TMC3    C7 9915   0.812   0.201   9.955 -0.4336  0.8254  0.1941
  666TMC3    C8 9916   0.955   4.599   9.637  0.1483 -0.1419  0.1912
  666TMC3    O1 9917   0.742   0.179  10.052  0.3891  0.2753 -0.1976
  666TMC3    O2 9918   0.918   4.483   9.644 -0.4191  0.5583 -0.8857
  667MPD2     C 9919   2.483   3.989  14.902  0.5243  0.8294 -0.5576
  667MPD2    C1 9920   2.358   4.034  14.937  0.2588  0.0953  0.0455
  667MPD2    C2 9921   2.261   3.941  14.951  0.0475 -0.2467  0.2933
  667MPD2    C3 9922   2.278   3.810  14.922 -0.1717 -0.7763 -0.3754
  667MPD2    C4 9923   2.408   3.770  14.890 -0.1782 -0.1886 -0.2198
  667MPD2    C5 9924   2.514   3.858  14.886 -0.2331 -0.4363 -0.1655
  667MPD2     H 9925   2.163   3.968  14.988  0.4653  0.9345  0.5272
  667MPD2    H1 9926   2.439   3.668  14.867  0.5298 -0.1465  0.5625
  667MPD2    H2 9927   2.567   4.057  14.900  1.3593 -0.0062  4.4175
  667MPD2    H3 9928   2.609   3.824  14.847  0.4882  1.1815  0.1994
  667MPD2     N 9929   2.174   3.714  14.925  0.5455  0.1452  0.4177
  667MPD2    H5 9930   2.206   3.619  14.946 -1.5087 -0.5924  0.1807
  667MPD2    N1 9931   2.321   4.166  14.963  0.2616  1.0905  0.2075
  667MPD2    H7 9932   2.231   4.189  15.005 -0.3643  1.0112 -1.0880
  668TMC3    C1 9933   2.356   4.403  14.970 -1.0766  0.1380 -0.0026
  668TMC3    C2 9934   2.406   4.505  14.889  0.5106 -0.0168 -0.2173
  668TMC3    C3 9935   2.447   4.621  14.949  0.2374 -0.0435 -0.1977
  668TMC3    C4 9936   2.345   4.412  15.104 -0.5150 -0.8301 -0.1280
  668TMC3    C5 9937   2.389   4.527  15.162  0.0458 -0.5573  0.1716
  668TMC3    C6 9938   2.429   4.633  15.086  0.3568 -0.9071 -0.4349
  668TMC3     C 9939   2.398   4.277  14.922  0.1482 -0.4196  0.4149
  668TMC3     O 9940   2.485   4.283  14.841 -0.4699 -0.4028 -0.6388
  668TMC3     H 9941   2.414   4.487  14.782 -0.6379  0.3870 -0.3757
  668TMC3    H1 9942   2.307   4.332  15.167  0.4879 -1.0029  0.2577
  668TMC3    H2 9943   2.460   4.725  15.135  2.2415 -1.9467  0.3178
  668TMC3    C7 9944   2.445   4.541  15.294  0.4748  0.6248  0.0499
  668TMC3    C8 9945   2.525   4.726  14.876  0.5792 -0.6600  0.6294
  668TMC3    O1 9946   2.532   4.631  15.311 -0.1123 -0.4882  0.4790
  668TMC3    O2 9947   2.534   0.097  14.938 -0.4608 -0.4660 -0.5398
  669TMC3    C1 9948   0.416   3.731  14.758  0.1290  0.0726 -0.9104
  669TMC3    C2 9949   0.323   3.725  14.656 -0.1347  0.3485  0.2537
  669TMC3    C3 9950   0.338   3.812  14.547 -0.2951  0.2532  0.6223
  669TMC3    C4 9951   0.517   3.826  14.760 -0.0597 -0.1846 -0.8751
  669TMC3    C5 9952   0.520   3.921  14.658 -0.6460 -1.1389  0.1919
  669TMC3    C6 9953   0.438   3.905  14.545  0.6142 -0.1755  0.3229
  669TMC3     C 9954   0.390   3.649  14.879 -0.3934  0.2792 -0.2683
  669TMC3     O 9955   0.272   3.624  14.909  0.2270  0.6324 -0.4603
  669TMC3     H 9956   0.241   3.656  14.668 -0.3932  0.8133  1.1714
  669TMC3    H1 9957   0.590   3.835  14.839 -2.2101 -1.4579  1.2498
  669TMC3    H2 9958   0.453   3.977  14.466  0.5963 -2.5920 -1.8530
  669TMC3    C7 9959   0.601   4.040  14.682 -0.1900 -0.7840  0.4753
  669TMC3    C8 9960   0.268   3.787  14.422 -0.0374 -0.2876  0.3018
  669TMC3    O1 9961   0.684   4.032  14.774 -0.8139 -0.1112 -0.1650
  669TMC3    O2 9962   0.162   3.730  14.432 -0.4917  0.3301  0.1613
  670MPD2     C 9963   3.603   1.771  13.351 -0.1784  0.0086  0.2124
  670MPD2    C1 9964   3.695   1.775  13.455 -0.0056 -0.0858  0.6321
  670MPD2    C2 9965   3.677   1.715  13.580  0.2216 -0.3427 -0.8872
  670MPD2    C3 9966   3.556   1.650  13.597  0.1329  0.1291 -0.6258
  670MPD2    C4 9967   3.451   1.664  13.500  0.7846 -0.5214 -0.2277
  670MPD2    C5 9968   3.481   1.714  13.379 -0.1976  0.2289  0.5206
  670MPD2     H 9969   3.755   1.700  13.653  0.8413  5.4939 -0.3448
  670MPD2    H1 9970   3.349   1.627  13.496  0.3565  0.4607  1.8082
  670MPD2    H2 9971   3.627   1.796  13.248  1.7580  3.7097  1.5801
  670MPD2    H3 9972   3.413   1.708  13.295 -0.5985  0.4385  0.8265
  670MPD2     N 9973   3.535   1.585  13.719 -0.1758  0.5099 -0.5684
  670MPD2    H5 9974   3.612   1.595  13.784 -0.9382  5.7088 -0.4109
  670MPD2    N1 9975   3.822   1.827  13.436  0.0972  0.5462  0.7327
  670MPD2    H7 9976   3.885   1.824  13.516 -1.1409 -0.8356  1.6663
  671TMC3    C1 9977   3.439   1.448  13.875  0.3448 -0.3668  0.4134
  671TMC3    C2 9978   3.523   1.494  13.974  0.1272  0.1260  0.2409
  671TMC3    C3 9979   3.504   1.447  14.105 -0.2570  0.4544  0.5094
  671TMC3    C4 9980   3.358   1.345  13.892  0.4509  0.1796 -0.1518
  671TMC3    C5 9981   3.346   1.298  14.019  0.0702 -0.2075 -0.4758
  671TMC3    C6 9982   3.419   1.340  14.125 -0.5450  0.1571  0.3368
  671TMC3     C 9983   3.422   1.512  13.748  0.5199  0.4991  0.0570
  671TMC3     O 9984   3.319   1.493  13.687  0.0177  0.2374 -0.2767
  671TMC3     H 9985   3.581   1.585  13.963  0.2811 -0.1307 -1.0338
  671TMC3    H1 9986   3.290   1.306  13.817  0.1165 -0.0764  0.2789
  671TMC3    H2 9987   3.409   1.287  14.219  0.3936  0.3766  0.5540
  671TMC3    C7 9988   3.293   1.162  14.036  0.3088  0.1658  0.3718
  671TMC3    C8 9989   3.625   1.428  14.180  0.3078 -0.0779 -0.1571
  671TMC3    O1 9990   3.261   1.135  14.153 -0.6297 -0.1445  0.0804
  671TMC3    O2 9991   3.729   1.442  14.114 -0.0876  0.2652  0.4272
  672MPD2     C 9992   4.121   2.642   1.012  0.1245  0.3675  0.0140
  672MPD2    C1 9993   4.205   2.565   1.094 -0.4222 -0.4519  0.5204
  672MPD2    C2 9994   4.301   2.625   1.170 -0.0349  0.1410  0.2372
  672MPD2    C3 9995   4.308   2.763   1.170  0.1517 -0.5276 -0.0414
  672MPD2    C4 9996   4.234   2.842   1.082  0.4081  0.4988 -0.5341
  672MPD2    C5 9997   4.156   2.773   0.993 -0.2041 -0.1492  0.1873
  672MPD2     H 9998   4.356   2.566   1.243  1.2605  1.1696  0.0938
  672MPD2    H1 9999   4.236   2.950   1.083  4.0996  0.4355 -1.3735
  672MPD2    H210000   4.049   2.596   0.946  0.4719  0.5944 -0.5308
  672MPD2    H310001   4.086   2.827   0.930 -0.1364 -1.0679 -0.6920
  672MPD2     N10002   4.394   2.831   1.253  1.3508  0.4029  0.1744
  672MPD2    H510003   4.413   2.930   1.243  1.3879  0.3857  0.0768
  672MPD2    N110004   4.188   2.426   1.106  0.1855 -0.0333  0.1179
  672MPD2    H710005   4.259   2.381   1.163  1.1191  0.3464 -0.7439
  673TMC3    C110006   4.090   2.204   1.074  0.0554 -0.0662 -0.0634
  673TMC3    C210007   4.214   2.143   1.072 -0.8829  0.6179  0.2481
  673TMC3    C310008   4.218   2.005   1.072  0.2177  0.3344  0.4005
  673TMC3    C410009   3.981   2.129   1.063 -0.2168 -0.7652 -0.3620
  673TMC3    C510010   3.992   1.990   1.061  0.2037 -0.3801 -0.1508
  673TMC3    C610011   4.106   1.924   1.050 -0.4143 -0.4125 -0.2250
  673TMC3     C10012   4.079   2.347   1.056 -0.2857 -0.0051 -0.2515
  673TMC3     O10013   3.967   2.383   1.015  0.8904 -0.2971 -0.4014
  673TMC3     H10014   4.306   2.200   1.060 -0.0691 -0.8013 -0.3115
  673TMC3    H110015   3.881   2.171   1.071  0.5532  0.9443  0.2741
  673TMC3    H210016   4.118   1.816   1.058 -0.6149 -0.3837  0.5080
  673TMC3    C710017   3.872   1.909   1.042  0.2898  0.0490  0.3680
  673TMC3    C810018   4.340   1.934   1.075 -0.6175  0.0190  0.0265
  673TMC3    O110019   3.869   1.799   1.099  0.0399  0.7384  0.2156
  673TMC3    O210020   4.340   1.837   1.002 -0.1498  0.1362 -0.1409
  674MPD2     C10021   3.729   1.608  17.228  0.2324 -0.1381 -1.0660
  674MPD2    C110022   3.735   1.562  17.354 -0.7120  0.0767 -0.5139
  674MPD2    C210023   3.680   1.641  17.449  1.4610  0.6434 -0.6938
  674MPD2    C310024   3.634   1.768  17.416 -0.5198  0.8688  0.4570
  674MPD2    C410025   3.622   1.809  17.289  0.0767  0.5469 -0.0893
  674MPD2    C510026   3.682   1.729  17.187 -0.2715 -0.0279 -0.4951
  674MPD2     H10027   3.677   1.610  17.553  0.8616  2.3922 -0.1929
  674MPD2    H110028   3.570   1.897  17.253 -1.1906  0.4420  1.4870
  674MPD2    H210029   3.776   1.550  17.149 -0.7281  0.9681 -2.4542
  674MPD2    H310030   3.682   1.764  17.084  2.3062  1.0785 -0.1151
  674MPD2     N10031   3.599   1.851  17.526 -0.1625  0.3553  0.4908
  674MPD2    H510032   3.603   1.814  17.620 -1.7924  0.5867  0.6577
  674MPD2    N110033   3.801   1.436  17.371  0.3963  0.4025  0.0786
  674MPD2    H710034   3.814   1.390  17.281  2.5056  0.4228  0.3851
  675TMC3    C110035   3.829   1.437  17.618 -0.0322  0.5713  0.6236
  675TMC3    C210036   3.793   1.372  17.728  0.2683 -1.0974  0.3484
  675TMC3    C310037   3.852   1.399   0.120 -0.4686  0.1361  0.0254
  675TMC3    C410038   3.932   1.527  17.626  0.2369  0.7283 -0.1329
  675TMC3    C510039   3.995   1.543   0.011 -0.6440 -0.0850 -0.8352
  675TMC3    C610040   3.949   1.492   0.133 -0.6050 -0.5815  0.4526
  675TMC3     C10041   3.822   1.362  17.487  0.0635 -0.3842  0.1751
  675TMC3     O10042   3.837   1.239  17.494 -0.2782  0.2030 -0.0118
  675TMC3     H10043   3.729   1.285  17.720 -1.9641  0.6504 -0.9428
  675TMC3    H110044   3.974   1.558  17.531 -0.0250 -0.4762 -0.6497
  675TMC3    H210045   3.998   1.496   0.229 -0.7701 -2.2055  0.6001
  675TMC3    C710046   4.142   1.528  17.728  0.1027 -0.1090 -0.0174
  675TMC3    C810047   3.808   1.323   0.238  0.9785  0.3062  0.9472
  675TMC3    O110048   4.188   1.486  17.622  0.0260  0.3433 -0.3277
  675TMC3    O210049   3.772   1.207   0.213 -0.3644  0.5361 -0.4235
  676MPD2     C10050   2.153   0.320  10.249 -0.3490  0.5001 -0.0025
  676MPD2    C110051   2.046   0.244  10.282  0.2485  0.1837  0.2103
  676MPD2    C210052   2.024   0.123  10.228 -0.1841  0.1200  0.2515
  676MPD2    C310053   2.117   0.066  10.137  0.6564 -0.1416 -0.2055
  676MPD2    C410054   2.221   0.154  10.093  0.0236  0.9074  0.3477
  676MPD2    C510055   2.244   0.271  10.158 -0.3721 -0.6751  0.3084
  676MPD2     H10056   1.939   0.071  10.271 -1.2396  1.7124  0.0946
  676MPD2    H110057   2.293   0.114  10.023 -2.1461 -0.4073 -1.1631
  676MPD2    H210058   2.179   0.419  10.285 -0.8370  0.7557 -0.3461
  676MPD2    H310059   2.335   0.325  10.135  0.7328 -2.3719  0.7143
  676MPD2     N10060   2.114   4.663  10.080  0.0170 -0.1125  0.1049
  676MPD2    H510061   2.177   4.640  10.005 -1.2974 -2.7066 -0.2097
  676MPD2    N110062   1.956   0.283  10.381  0.1899 -0.2347 -0.1231
  676MPD2    H710063   1.887   0.213  10.405 -0.0568  0.1974  0.4438
  677TMC3    C110064   1.871   0.379  10.568  0.2171 -0.6375  0.0318
  677TMC3    C210065   1.831   0.245  10.586  0.1699  0.6723 -0.6661
  677TMC3    C310066   1.710   0.234  10.636 -0.4908  0.5424  0.8490
  677TMC3    C410067   1.796   0.484  10.603  0.3848 -0.2525  0.1415
  677TMC3    C510068   1.669   0.462  10.646  0.0757 -0.4658  0.3119
  677TMC3    C610069   1.621   0.331  10.654  1.1948  0.0583 -0.8261
  677TMC3     C10070   1.965   0.394  10.459 -0.8281  0.2958  0.2184
  677TMC3     O10071   2.005   0.511  10.442 -0.4614 -0.2495 -0.0544
  677TMC3     H10072   1.893   0.156  10.582  0.6129  1.0406 -1.8558
  677TMC3    H110073   1.828   0.588  10.605 -3.1148  0.8256  0.6448
  677TMC3    H210074   1.523   0.301  10.689  1.2158 -0.1553 -0.9531
  677TMC3    C710075   1.604   0.554  10.738 -0.0327 -0.7553  0.6283
  677TMC3    C810076   1.657   0.105  10.601 -0.5358  0.5190  0.5468
  677TMC3    O110077   1.487   0.541  10.734 -0.8137 -0.5439  0.0517
  677TMC3    O210078   1.687   0.070  10.488  0.1097 -0.5738 -0.2488
  678MPD2     C10079   3.422   0.717   1.529  0.2478  0.3283 -0.2491
  678MPD2    C110080   3.410   0.673   1.404 -0.1056  0.7262 -0.6036
  678MPD2    C210081   3.288   0.682   1.338 -0.5556 -0.2078 -0.0688
  678MPD2    C310082   3.180   0.751   1.398  0.2186 -0.5223 -0.2157
  678MPD2    C410083   3.191   0.789   1.532  0.5075 -0.4275 -1.3001
  678MPD2    C510084   3.314   0.784   1.594  0.2526 -0.0418  0.8728
  678MPD2     H10085   3.268   0.646   1.238 -1.1355  0.5647 -0.2333
  678MPD2    H110086   3.110   0.835   1.588  0.3479 -1.1765 -0.9135
  678MPD2    H210087   3.505   0.699   1.596  0.0232 -1.0868 -0.3648
  678MPD2    H310088   3.324   0.808   1.699 -0.0907 -2.2707  1.4109
  678MPD2     N10089   3.049   0.767   1.336  0.0611  0.4310 -0.0087
  678MPD2    H510090   3.041   0.721   1.246 -1.7210  3.2000 -1.2522
  678MPD2    N110091   3.516   0.614   1.333  0.3478 -0.1542 -0.3557
  678MPD2    H710092   3.499   0.600   1.234  0.9405  2.4431 -0.8302
  679TMC3    C110093   3.936   0.409   1.288 -0.1637 -0.2094 -0.5566
  679TMC3    C210094   3.829   0.443   1.366 -0.4985 -0.3655 -0.6507
  679TMC3    C310095   3.741   0.541   1.319 -0.3739  0.4300 -0.1987
  679TMC3    C410096   3.965   0.474   1.170 -0.1636 -0.1619 -0.0191
  679TMC3    C510097   3.876   0.571   1.133  0.4495  0.2780  0.2553
  679TMC3    C610098   3.766   0.614   1.206  0.4845  1.3127 -0.5339
  679TMC3     C10099   3.996   0.284   1.308 -0.4475 -0.3173  0.2151
  679TMC3     O10100   3.935   0.197   1.371 -0.0249  0.1666 -0.4518
  679TMC3     H10101   3.805   0.392   1.458 -0.4848  0.6936 -0.0574
  679TMC3    H110102   4.023   0.410   1.104 -0.4824 -1.0413  0.5511
  679TMC3    H210103   3.694   0.685   1.166 -0.4802  0.0361 -1.0502
  679TMC3    C710104   3.898   0.627   1.004 -0.1111  0.5877  0.9329
  679TMC3    C810105   3.635   0.575   1.398 -0.5200 -0.3127  0.1424
  679TMC3    O110106   3.809   0.696   0.962  0.3330 -0.1685 -0.4481
  679TMC3    O210107   3.660   0.556   1.512 -0.0079  0.4366 -0.4501
  680MPD2     C10108   2.586   3.812  13.704  0.0646  0.1296 -0.1235
  680MPD2    C110109   2.668   3.709  13.742  0.7788 -0.3913  0.4444
  680MPD2    C210110   2.797   3.745  13.792 -0.2545  0.9016 -0.8743
  680MPD2    C310111   2.845   3.876  13.797  1.3501  0.1718  0.5167
  680MPD2    C410112   2.760   3.972  13.765  0.0161  0.0089  0.0640
  680MPD2    C510113   2.634   3.939  13.715 -0.0297 -0.3082  0.3031
  680MPD2     H10114   2.845   3.660  13.839 -1.0982  0.8194 -0.1742
  680MPD2    H110115   2.783   4.077  13.777  1.5656 -0.2842 -0.3287
  680MPD2    H210116   2.483   3.790  13.678  0.4000 -2.4923  0.7230
  680MPD2    H310117   2.567   4.021  13.691  1.2859  0.5602 -0.4350
  680MPD2     N10118   2.968   3.919  13.848 -0.1529 -0.8595 -0.1446
  680MPD2    H510119   2.985   4.018  13.861 -2.2782 -0.4228 -0.7578
  680MPD2    N110120   2.624   3.575  13.751  0.1308  0.7185  0.3908
  680MPD2    H710121   2.688   3.522  13.810  1.0395  0.9246 -0.4041
  681TMC3    C110122   2.480   3.399  13.754 -0.3492  0.0200 -0.1782
  681TMC3    C210123   2.526   3.372  13.881 -0.9759  0.0058 -0.2252
  681TMC3    C310124   2.547   3.239  13.908 -0.4372 -0.9871 -0.0626
  681TMC3    C410125   2.448   3.305  13.661 -0.0860  0.3943  0.1720
  681TMC3    C510126   2.458   3.181  13.705  0.2546  0.2586 -0.8912
  681TMC3    C610127   2.503   3.142  13.827  0.1522 -0.2141 -0.3707
  681TMC3     C10128   2.504   3.530  13.712  0.3017 -0.1287  0.0970
  681TMC3     O10129   2.420   3.582  13.642 -1.3533  0.4039  0.5291
  681TMC3     H10130   2.551   3.452  13.950  1.1256 -0.1386 -0.7994
  681TMC3    H110131   2.430   3.330  13.557  0.1258  1.3425  0.3636
  681TMC3    H210132   2.533   3.041  13.852  1.4090  0.1645 -0.3444
  681TMC3    C710133   2.487   3.083  13.604 -0.3359 -0.0271 -0.0697
  681TMC3    C810134   2.652   3.209  14.003  0.3691  0.0981 -0.3305
  681TMC3    O110135   2.442   2.973  13.635  0.9477 -0.0970  0.0578
  681TMC3    O210136   2.719   3.109  13.985  0.5017  0.5068 -0.2292
  682MPD2     C10137   0.885   0.682  11.251  0.8660  0.6491 -0.3771
  682MPD2    C110138   0.848   0.554  11.221 -0.1180 -0.2526  0.2731
  682MPD2    C210139   0.804   0.473  11.329 -0.1376  0.5687  0.4715
  682MPD2    C310140   0.790   0.519  11.461 -0.0953  0.2468  0.0362
  682MPD2    C410141   0.826   0.655  11.482 -0.7265 -0.0326  0.4299
  682MPD2    C510142   0.874   0.730  11.382  0.0788 -0.2091  0.2001
  682MPD2     H10143   0.789   0.368  11.308 -3.2341  0.6411  2.3936
  682MPD2    H110144   0.808   0.703  11.578  1.0758  0.2025  0.6558
  682MPD2    H210145   0.919   0.753  11.177 -0.3760  1.1234 -0.4798
  682MPD2    H310146   0.921   0.825  11.406 -0.8069 -0.3328  2.4171
  682MPD2     N10147   0.747   0.441  11.575 -0.1109 -0.5190  0.2357
  682MPD2    H510148   0.732   0.490  11.663 -1.0665 -2.0787  0.9595
  682MPD2    N110149   0.843   0.500  11.093  0.4577 -0.2657  0.6099
  682MPD2    H710150   0.809   0.405  11.085 -0.2441  0.0128  0.3253
  683TMC3    C110151   0.470   0.283  11.847  0.0273  0.0765 -0.3230
  683TMC3    C210152   0.432   0.156  11.840  1.3851  0.6459  0.0660
  683TMC3    C310153   0.501   0.076  11.748 -0.4962 -0.2314  0.0569
  683TMC3    C410154   0.576   0.328  11.769 -0.5242  0.5096  0.4670
  683TMC3    C510155   0.635   0.246  11.668  0.0852 -0.3228 -0.0782
  683TMC3    C610156   0.601   0.115  11.661  0.1099 -0.5779  0.4372
  683TMC3     C10157   0.439   0.349  11.975 -0.8643 -0.1371  0.4636
  683TMC3     O10158   0.507   0.443  11.999 -0.3217 -0.2494 -0.4544
  683TMC3     H10159   0.345   0.113  11.888  1.2551 -0.6733 -1.3462
  683TMC3    H110160   0.598   0.434  11.783  0.6289  0.0398  2.1534
  683TMC3    H210161   0.640   0.055  11.580  0.7188 -0.1734  0.4278
  683TMC3    C710162   0.715   0.305  11.562 -0.0012  0.2610 -0.3436
  683TMC3    C810163   0.420   4.699  11.703 -0.0546  0.1108  0.1339
  683TMC3    O110164   0.757   0.225  11.480 -0.1213 -0.2112 -0.0742
  683TMC3    O210165   0.300   4.685  11.732 -0.8516 -0.1838  0.3126
  684MPD2     C10166   3.483   3.665  16.279 -0.2482  0.2027  0.3137
  684MPD2    C110167   3.441   3.751  16.176  0.8182  0.0221 -0.0018
  684MPD2    C210168   3.396   3.876  16.211  1.2722 -0.1234 -1.2170
  684MPD2    C310169   3.410   3.926  16.334 -0.2120  0.0071  0.4665
  684MPD2    C410170   3.453   3.842  16.429  0.1225  0.5408  0.0887
  684MPD2    C510171   3.471   3.712  16.407  0.2644 -0.2095  0.5886
  684MPD2     H10172   3.381   3.943  16.128 -0.5622 -0.2677 -0.9874
  684MPD2    H110173   3.460   3.881  16.530  0.7456 -0.7302  0.5312
  684MPD2    H210174   3.519   3.566  16.255 -0.2762  0.1513  0.4887
  684MPD2    H310175   3.496   3.657  16.497 -2.0052  0.7336  1.7834
  684MPD2     N10176   3.415   4.068  16.351  0.2300  0.2315 -0.7020
  684MPD2    H510177   3.452   4.097  16.441 -0.3796 -0.1188 -0.3401
  684MPD2    N110178   3.430   3.722  16.038 -0.6503 -0.5036 -0.4932
  684MPD2    H710179   3.405   3.800  15.978 -0.6090 -1.1041 -1.2981
  685TMC3    C110180   3.500   3.650  15.832 -0.0975  0.2761 -0.3994
  685TMC3    C210181   3.410   3.740  15.784  0.4049  0.5344  0.2924
  685TMC3    C310182   3.456   3.840  15.704  0.6957 -0.6545  0.1445
  685TMC3    C410183   3.627   3.642  15.786 -0.6404 -0.2798  0.2068
  685TMC3    C510184   3.663   3.743  15.698 -0.7515 -1.3042  0.4117
  685TMC3    C610185   3.581   3.840  15.659  0.4204  0.3675 -0.7762
  685TMC3     C10186   3.483   3.613  15.974  0.3161  0.5095  0.8838
  685TMC3     O10187   3.539   3.513  16.025 -0.3237  0.1723 -0.0569
  685TMC3     H10188   3.305   3.723  15.803  0.3293  1.6585  0.8619
  685TMC3    H110189   3.702   3.585  15.838 -0.5180 -1.9408 -1.7891
  685TMC3    H210190   3.610   3.926  15.599  0.0022 -0.2178 -1.8009
  685TMC3    C710191   3.805   3.760  15.680  0.6407 -0.3553 -0.3309
  685TMC3    C810192   3.362   3.906  15.612  0.2370  0.5738 -0.0236
  685TMC3    O110193   3.872   3.655  15.691  0.5610  0.1432  0.6298
  685TMC3    O210194   3.404   3.962  15.513  0.9883 -0.0949  0.1140
  686MPD2     C10195   0.149   4.354  15.324 -0.4046 -0.6069 -0.4657
  686MPD2    C110196   0.196   4.246  15.397 -0.4521  0.6364 -0.3331
  686MPD2    C210197   0.280   4.152  15.346  0.0070 -0.1145 -0.3923
  686MPD2    C310198   0.314   4.149  15.212  0.6164  1.0876  0.2195
  686MPD2    C410199   0.269   4.260  15.139 -0.7048  0.4102  0.1902
  686MPD2    C510200   0.188   4.356  15.195  0.1655  0.1009 -0.2258
  686MPD2     H10201   0.322   4.078  15.413 -0.8448 -2.0812 -2.0351
  686MPD2    H110202   0.297   4.266  15.035 -0.4985 -0.8428  0.1765
  686MPD2    H210203   0.085   4.434  15.360  0.7597 -0.1408  0.5679
  686MPD2    H310204   0.148   4.435  15.133  0.1921  0.5534  0.3391
  686MPD2     N10205   0.395   4.048  15.148  0.4359 -0.3205 -0.4045
  686MPD2    H510206   0.414   4.069  15.050  1.2423  0.8914  0.0186
  686MPD2    N110207   0.130   4.238  15.527  0.0643  0.2838  0.2071
  686MPD2    H710208   0.052   4.299  15.550 -2.2907 -1.8773 -2.1173
  687TMC3    C110209   0.371   3.865  15.300  0.1989  0.7271  0.1672
  687TMC3    C210210   0.237   3.852  15.280 -0.3404  0.0424  0.3581
  687TMC3    C310211   0.167   3.801  15.385 -0.2202  0.1234  0.1510
  687TMC3    C410212   0.441   3.817  15.401 -0.4234  0.2112 -0.8004
  687TMC3    C510213   0.366   3.763  15.503  0.6847 -0.6213 -0.4134
  687TMC3    C610214   0.231   3.752  15.501  0.4959 -0.0257 -0.6147
  687TMC3     C10215   0.454   3.937  15.208 -0.8384  0.3000 -0.3708
  687TMC3     O10216   0.554   3.873  15.176 -0.1150 -0.5521  0.0812
  687TMC3     H10217   0.183   3.887  15.192 -0.9536  2.8316  1.8372
  687TMC3    H110218   0.544   3.846  15.419 -1.0640  1.3604  0.9608
  687TMC3    H210219   0.179   3.697  15.578  3.0860 -1.1303  0.3642
  687TMC3    C710220   0.431   3.719  15.623 -0.4085 -0.4186 -0.1711
  687TMC3    C810221   0.024   3.794  15.387  0.2658  0.2334  0.8996
  687TMC3    O110222   0.367   3.720  15.725  0.0291 -0.0668  0.0578
  687TMC3    O210223   4.702   3.705  15.448 -0.2717  0.4308  0.1866
  688MPD2     C10224   4.219   3.170  17.278 -0.1160 -0.1947 -0.0988
  688MPD2    C110225   4.259   3.085  17.382  0.3944 -0.1382 -0.4026
  688MPD2    C210226   4.367   3.008  17.364  0.0615 -0.2184 -0.4253
  688MPD2    C310227   4.426   2.999  17.242  0.4657  0.0614 -0.2146
  688MPD2    C410228   4.376   3.071  17.137 -0.0577 -1.0699 -0.2328
  688MPD2    C510229   4.273   3.156  17.156 -0.4444 -0.1520 -0.5258
  688MPD2     H10230   4.418   2.953  17.442  0.2503  1.7765  0.8501
  688MPD2    H110231   4.421   3.061  17.040 -1.0080 -2.6719 -0.5173
  688MPD2    H210232   4.139   3.244  17.285 -0.1832 -0.1467 -1.4786
  688MPD2    H310233   4.248   3.213  17.067  2.0019 -0.5504 -1.4640
  688MPD2     N10234   4.539   2.917  17.222  0.5426 -0.0631  0.5467
  688MPD2    H510235   4.583   2.881  17.306  2.2755  0.3725 -0.1713
  688MPD2    N110236   4.204   3.071  17.509 -0.6367 -0.4308 -0.5954
  688MPD2    H710237   4.261   3.023  17.578 -0.2631 -0.3875 -0.8757
  689TMC3    C110238   4.060   3.111  17.696 -0.1388  0.7249  0.1848
  689TMC3    C210239   4.014   3.206   0.050 -0.4143  0.0933 -0.5079
  689TMC3    C310240   3.972   3.175   0.173 -0.5672 -0.0629  0.4509
  689TMC3    C410241   4.051   2.979  17.729  0.0677 -0.5519 -0.2824
  689TMC3    C510242   3.994   2.953   0.118  0.5726 -0.1864 -0.2394
  689TMC3    C610243   3.967   3.042   0.212 -0.0288  0.4042  0.6151
  689TMC3     C10244   4.099   3.143  17.561  0.4426 -0.4940 -0.7102
  689TMC3     O10245   4.030   3.226  17.500 -0.5747  0.0643 -0.3447
  689TMC3     H10246   3.993   3.305   0.012  0.3449  0.4889  0.0999
  689TMC3    H110247   4.065   2.899  17.658  2.6855  0.9720 -1.4787
  689TMC3    H210248   3.934   3.021   0.313  0.4851  1.8022  1.0801
  689TMC3    C710249   4.002   2.814   0.160  0.4732  0.4749  0.0912
  689TMC3    C810250   3.956   3.280   0.277 -0.1915 -0.2371 -0.5082
  689TMC3    O110251   4.016   2.800   0.278  0.6314  0.7369  0.4651
  689TMC3    O210252   3.912   3.244   0.383  0.0233 -0.0423  0.3445
  690MPD2     C10253   1.568   0.415  16.046  0.2013  0.2644  0.0808
  690MPD2    C110254   1.529   0.410  15.917  0.5713  0.4752  0.3518
  690MPD2    C210255   1.608   0.462  15.815 -0.4552  0.2020 -0.0915
  690MPD2    C310256   1.734   0.511  15.843 -0.8425  0.6959 -0.3833
  690MPD2    C410257   1.780   0.515  15.975  0.0188  0.4682 -0.8900
  690MPD2    C510258   1.692   0.469  16.069 -0.6545 -0.1160 -0.0643
  690MPD2     H10259   1.568   0.463  15.715  0.1962  0.9704 -0.3438
  690MPD2    H110260   1.875   0.549  16.014  0.2997 -1.3212 -0.0618
  690MPD2    H210261   1.513   0.374  16.130  2.7853  0.8791  2.0626
  690MPD2    H310262   1.728   0.496  16.167  1.4888  1.7096 -1.3508
  690MPD2     N10263   1.812   0.558  15.733  0.3097 -0.2291  0.3535
  690MPD2    H510264   1.777   0.542  15.640  0.2795  1.3703  0.0945
  690MPD2    N110265   1.406   0.341  15.886 -0.3211  0.3716  0.6614
  690MPD2    H710266   1.375   0.343  15.789 -0.8494 -1.0707  0.7990
  691TMC3    C110267   1.231   0.183  15.891  1.2190 -0.3757  0.6238
  691TMC3    C210268   1.095   0.164  15.912  0.0738  0.3898 -0.4926
  691TMC3    C310269   1.048   0.039  15.880 -0.1320  0.2796  0.2397
  691TMC3    C410270   1.309   0.085  15.839 -0.5555  0.5256  0.4569
  691TMC3    C510271   1.253   4.695  15.814 -0.7942  0.0706  0.0538
  691TMC3    C610272   1.125   4.675  15.829  0.5649 -0.3429 -0.4869
  691TMC3     C10273   1.304   0.292  15.962 -0.3087 -0.2314 -0.3939
  691TMC3     O10274   1.268   0.302  16.079 -0.0890  0.4285  0.4194
  691TMC3     H10275   1.034   0.242  15.955 -1.1681 -0.6983 -0.2946
  691TMC3    H110276   1.415   0.099  15.825 -0.6595  0.6070 -0.2901
  691TMC3    H210277   1.075   4.584  15.798 -1.0254  0.7775 -1.1861
  691TMC3    C710278   1.347   4.586  15.798  0.0978 -0.2849  0.2926
  691TMC3    C810279   0.913   0.011  15.875 -0.3328  0.4634 -0.0508
  691TMC3    O110280   1.465   4.609  15.794  0.6906 -0.1979  0.1495
  691TMC3    O210281   0.875   4.640  15.831  0.4540 -0.8524  0.0734
  692TMC3    C110282   3.374   0.758  15.882  0.1420 -0.1834 -0.6914
  692TMC3    C210283   3.504   0.747  15.926  0.7580  0.0956  0.2761
  692TMC3    C310284   3.562   0.618  15.919 -0.4442 -0.1565  1.1406
  692TMC3    C410285   3.307   0.656  15.813 -0.3282  0.4113  0.4183
  692TMC3    C510286   3.377   0.534  15.803 -0.5508 -1.2440 -0.4428
  692TMC3    C610287   3.509   0.523  15.833  0.1971 -0.4778 -0.3028
  692TMC3     C10288   3.291   0.868  15.920 -0.5476  0.1205  0.0903
  692TMC3     O10289   3.176   0.874  15.877  0.3112  0.2855 -0.2717
  692TMC3     H10290   3.529   0.816  16.005  1.6827 -1.3430  1.2509
  692TMC3    H110291   3.199   0.658  15.802 -0.2160  0.4381 -0.6243
  692TMC3    H210292   3.548   0.422  15.825  0.0986 -0.6877  1.8949
  692TMC3    C710293   3.297   0.414  15.791  0.1428 -0.0366  0.5977
  692TMC3    C810294   3.582   0.561  16.040 -0.4489  0.0995  0.3027
  692TMC3    O110295   3.181   0.421  15.747  0.1601  0.2698  0.3529
  692TMC3    O210296   3.542   0.445  16.051  0.2728  0.3046  0.0899
  693MPD2     C10297   2.872   4.644  10.759 -0.0114  0.4734 -0.6775
  693MPD2    C110298   2.857   4.516  10.815 -0.0368 -0.1370  0.8350
  693MPD2    C210299   2.968   4.435  10.834 -0.2623  0.0927 -0.0572
  693MPD2    C310300   3.096   4.479  10.807 -0.3425  0.4925 -0.4094
  693MPD2    C410301   3.106   4.603  10.748  0.0606  0.8882 -0.0804
  693MPD2    C510302   2.998   4.685  10.732  0.5233 -0.3807 -0.5824
  693MPD2     H10303   2.953   4.344  10.891 -0.7193  0.4882  0.4648
  693MPD2    H110304   3.205   4.637  10.718 -0.6647  0.6908 -2.6615
  693MPD2    H210305   2.787   4.709  10.739  0.0530 -0.2740 -3.3802
  693MPD2    H310306   3.016   0.044  10.677  0.5634 -1.0059 -1.5913
  693MPD2     N10307   3.214   4.406  10.826 -0.6506 -0.0497 -0.0675
  693MPD2    H510308   3.306   4.446  10.807 -1.2717  0.9167 -1.0151
  693MPD2    N110309   2.727   4.471  10.852  0.0242 -0.1029  0.1124
  693MPD2    H710310   2.662   4.539  10.891  0.7746  0.9922 -0.5238
  694TMC3    C110311   2.570   4.309  10.913 -0.1681  0.0108 -0.2285
  694TMC3    C210312   2.494   4.225  10.832  0.4111  0.1258  0.4742
  694TMC3    C310313   2.408   4.136  10.891 -0.3409 -0.7613  0.3727
  694TMC3    C410314   2.547   4.316  11.046  0.0949  0.0100 -0.3960
  694TMC3    C510315   2.463   4.224  11.103  0.5834  0.2003 -0.2476
  694TMC3    C610316   2.396   4.136  11.030 -0.6360  0.8062  0.4966
  694TMC3     C10317   2.704   4.339  10.866  0.3142 -0.0812  0.0184
  694TMC3     O10318   2.754   4.245  10.807  0.1993  0.5383 -0.2487
  694TMC3     H10319   2.530   4.208  10.731  2.4958  0.6376  1.1252
  694TMC3    H110320   2.616   4.371  11.109  0.3160 -1.4694  0.6670
  694TMC3    H210321   2.322   4.070  11.075 -0.0871  1.3703  2.2238
  694TMC3    C710322   2.418   4.259  11.241 -0.6375 -0.4928  0.4994
  694TMC3    C810323   2.321   4.048  10.815  0.1105 -0.1480  0.8348
  694TMC3    O110324   2.428   4.375  11.284  0.0984  0.2055 -0.4708
  694TMC3    O210325   2.274   3.950  10.872  0.0220  1.2599  0.1140
  695MPD2     C10326   4.094   1.021  13.453 -0.2858  0.1959  0.0916
  695MPD2    C110327   4.030   0.975  13.568  0.1495 -0.3530 -0.9974
  695MPD2    C210328   3.898   0.937  13.561  0.3280 -0.0876 -0.0928
  695MPD2    C310329   3.840   0.929  13.434 -0.4348 -0.3915 -0.4526
  695MPD2    C410330   3.911   0.959  13.318  0.2213 -0.0799  0.0947
  695MPD2    C510331   4.034   1.012  13.330 -0.2647 -0.8805  0.0351
  695MPD2     H10332   3.855   0.892  13.649  0.2144  2.8276  1.3371
  695MPD2    H110333   3.872   0.938  13.219  0.8145  1.6092 -0.4957
  695MPD2    H210334   4.197   1.052  13.452 -0.3852  0.5185 -0.1098
  695MPD2    H310335   4.093   1.036  13.243 -0.2217 -3.5996 -0.7099
  695MPD2     N10336   3.704   0.873  13.424  0.0798 -0.9377 -0.0618
  695MPD2    H510337   3.658   0.851  13.511  0.5380  0.7171  0.6046
  695MPD2    N110338   4.090   0.970  13.697 -0.3970 -0.1267 -0.1128
  695MPD2    H710339   4.040   0.917  13.768 -0.6362 -0.4380 -0.5171
  696TMC3    C110340   3.499   0.794  13.346  0.1572  0.8773 -0.1345
  696TMC3    C210341   3.490   0.733  13.473  0.1343 -0.9346 -0.3523
  696TMC3    C310342   3.366   0.750  13.536 -0.0821  0.0316  0.1491
  696TMC3    C410343   3.400   0.866  13.288 -0.1206 -0.4938 -0.1464
  696TMC3    C510344   3.285   0.885  13.368  0.2810  0.3680  0.0296
  696TMC3    C610345   3.264   0.822  13.487  0.0104 -0.9978  0.3449
  696TMC3     C10346   3.626   0.852  13.309 -0.4224  0.1807 -0.2245
  696TMC3     O10347   3.651   0.881  13.194 -0.4576 -0.5602  0.1202
  696TMC3     H10348   3.564   0.665  13.514 -0.7795 -0.9769  1.2475
  696TMC3    H110349   3.426   0.930  13.205  1.4852 -1.1398 -0.1404
  696TMC3    H210350   3.167   0.823  13.536 -0.6285  3.5080 -0.9412
  696TMC3    C710351   3.217   1.009  13.354  0.3009 -0.9592  0.0988
  696TMC3    C810352   3.328   0.632  13.613  0.4329 -0.1591  0.5256
  696TMC3    O110353   3.219   1.057  13.241  0.3205  0.4261 -0.4314
  696TMC3    O210354   3.380   0.527  13.577 -0.7874  0.0427  0.2878
  697MPD2     C10355   2.575   2.778  15.649 -0.2039 -0.5667 -0.3848
  697MPD2    C110356   2.612   2.746  15.526  0.1213 -0.1299  0.2150
  697MPD2    C210357   2.634   2.850  15.436 -0.0113 -0.5206  0.3379
  697MPD2    C310358   2.648   2.978  15.475 -0.0672 -0.1518  0.9411
  697MPD2    C410359   2.615   3.010  15.609  0.7932 -0.0243  0.4314
  697MPD2    C510360   2.572   2.907  15.689  0.9509  0.8386 -0.1197
  697MPD2     H10361   2.642   2.827  15.331 -2.3051 -1.9347  0.4741
  697MPD2    H110362   2.619   3.107  15.657 -1.0764 -1.0962  2.7449
  697MPD2    H210363   2.548   2.701  15.721  2.4180 -0.2174  0.9550
  697MPD2    H310364   2.549   2.932  15.792 -1.2656 -0.6435 -0.2361
  697MPD2     N10365   2.674   3.079  15.372  0.0952  0.6785 -0.2078
  697MPD2    H510366   2.685   3.048  15.276  1.3609  0.6107 -0.0428
  697MPD2    N110367   2.622   2.615  15.474  0.2321  0.3938 -0.1589
  697MPD2    H710368   2.626   2.610  15.372  3.4623 -1.0473  0.0507
  698TMC3    C110369   2.702   3.293  15.275  0.3568 -0.2755 -0.3902
  698TMC3    C210370   2.782   3.399  15.294 -0.0435  0.6260 -0.5217
  698TMC3    C310371   2.851   3.435  15.185  1.1285 -0.4210 -0.3993
  698TMC3    C410372   2.677   3.241  15.148 -0.7661 -0.3434 -0.0853
  698TMC3    C510373   2.729   3.295  15.040  0.2128  0.2234  0.1061
  698TMC3    C610374   2.817   3.401  15.052 -0.2528 -0.1339 -0.5059
  698TMC3     C10375   2.688   3.209  15.398  0.2992 -0.1637 -0.0079
  698TMC3     O10376   2.682   3.272  15.504 -0.0167 -1.1827  0.0993
  698TMC3     H10377   2.796   3.433  15.396 -1.5207 -2.4748  0.6939
  698TMC3    H110378   2.606   3.159  15.136 -1.2934 -0.2930  2.7434
  698TMC3    H210379   2.884   3.425  14.971 -0.6511 -0.1319 -0.8393
  698TMC3    C710380   2.696   3.239  14.914  0.1037  0.0991 -0.2839
  698TMC3    C810381   2.945   3.542  15.198  0.2655 -0.0070  0.0374
  698TMC3    O110382   2.580   3.192  14.909  0.2519 -0.0591 -0.0218
  698TMC3    O210383   2.925   3.610  15.293 -0.4945 -0.3634 -0.1900
  699TMC3    C110384   2.801   1.320  13.006 -1.0210 -0.2570  0.6392
  699TMC3    C210385   2.839   1.188  13.021 -0.9309 -0.2615  0.2451
  699TMC3    C310386   2.798   1.116  13.137  0.2736  0.1499  0.3590
  699TMC3    C410387   2.733   1.374  13.106  0.4005 -0.8017  0.3802
  699TMC3    C510388   2.687   1.304  13.221  0.3712 -0.4978  0.2758
  699TMC3    C610389   2.712   1.169  13.231 -0.3736 -0.0790 -0.1133
  699TMC3     C10390   2.855   1.407  12.905 -0.7573  0.7290  0.5380
  699TMC3     O10391   2.777   1.495  12.863 -0.4429 -0.9523 -0.0986
  699TMC3     H10392   2.920   1.150  12.959  0.6911  1.0552  1.5971
  699TMC3    H110393   2.705   1.478  13.093  1.4360 -0.3052  2.1309
  699TMC3    H210394   2.687   1.127  13.328  0.8685 -1.5947 -0.4485
  699TMC3    C710395   2.587   1.364  13.305  0.2265  0.0369 -0.3181
  699TMC3    C810396   2.851   0.989  13.179  0.0450 -0.1170 -0.1859
  699TMC3    O110397   2.573   1.318  13.417  0.3118  0.6071 -0.4585
  699TMC3    O210398   2.794   0.935  13.274 -0.0279 -0.3926 -0.3658
  700TMC3    C110399   2.388   3.512  17.172  0.0503  0.0903 -0.6394
  700TMC3    C210400   2.463   3.427  17.098 -0.1387 -0.3320 -0.2065
  700TMC3    C310401   2.603   3.435  17.106  0.0130  0.5014  0.6054
  700TMC3    C410402   2.449   3.606  17.253  0.2112 -0.1872 -0.2093
  700TMC3    C510403   2.585   3.612  17.257  0.1675  0.7689  0.6980
  700TMC3    C610404   2.659   3.530  17.178  0.4634 -0.5144 -0.0346
  700TMC3     C10405   2.259   3.550  17.116 -0.2936 -0.0714 -0.0833
  700TMC3     O10406   2.190   3.461  17.072  0.2328  0.1932  0.3426
  700TMC3     H10407   2.421   3.363  17.021 -1.3671 -1.0790  1.0703
  700TMC3    H110408   2.381   3.650  17.325 -2.4859 -4.2912 -0.2458
  700TMC3    H210409   2.766   3.550  17.179  0.1213  1.2585  0.2362
  700TMC3    C710410   2.655   3.726  17.304 -0.0608  0.1790 -0.3695
  700TMC3    C810411   2.668   3.324  17.037  0.2546  0.4142 -0.1704
  700TMC3    O110412   2.773   3.712  17.328  0.6815  0.1913  0.1763
  700TMC3    O210413   2.603   3.245  16.964 -0.1668 -0.4446 -0.4534
  701TMC3    C110414   2.065   2.150  15.387 -0.0340 -0.1250  0.8670
  701TMC3    C210415   2.106   2.119  15.264  0.4605  0.2555  0.1093
  701TMC3    C310416   2.212   2.192  15.219 -0.1539 -0.4847 -0.0132
  701TMC3    C410417   2.126   2.241  15.469 -0.4625  0.0387 -0.0878
  701TMC3    C510418   2.236   2.305  15.421 -0.4175 -0.1975  0.4504
  701TMC3    C610419   2.276   2.287  15.292 -0.7001  0.7476  0.4987
  701TMC3     C10420   1.955   2.071  15.453  0.0679  0.1087 -0.3479
  701TMC3     O10421   1.924   2.092  15.569  0.1536 -0.2267 -0.1057
  701TMC3     H10422   2.067   2.040  15.201  1.6728 -0.2980  0.0456
  701TMC3    H110423   2.099   2.256  15.573 -1.2167 -0.6933 -0.1755
  701TMC3    H210424   2.350   2.350  15.245 -1.7194  0.3176 -1.6719
  701TMC3    C710425   2.274   2.424  15.483 -0.2355 -0.2743  0.7598
  701TMC3    C810426   2.214   2.217  15.077 -0.0490 -0.4080  0.0543
  701TMC3    O110427   2.306   2.512  15.403  0.1315  0.7001 -0.1842
  701TMC3    O210428   2.318   2.259  15.030  1.0519 -0.5846 -0.6753
  702MPD2     C10429   1.607   0.106   9.664 -0.5787  0.3665 -0.2939
  702MPD2    C110430   1.638   0.074   9.793  0.0778 -0.9735  0.5934
  702MPD2    C210431   1.593   0.148   9.893 -0.5638 -0.1860 -0.1373
  702MPD2    C310432   1.515   0.263   9.874  0.1203  0.2549 -0.0715
  702MPD2    C410433   1.483   0.293   9.742  0.6168 -0.1113 -0.5109
  702MPD2    C510434   1.520   0.212   9.637  0.8586 -0.1364  0.5002
  702MPD2     H10435   1.620   0.122   9.995  0.2408  0.5572 -0.1620
  702MPD2    H110436   1.418   0.378   9.723 -1.7933 -1.5786  1.1530
  702MPD2    H210437   1.645   0.053   9.577 -0.6531  0.3878 -0.3396
  702MPD2    H310438   1.500   0.245   9.536 -0.4215 -0.3371  0.6941
  702MPD2     N10439   1.470   0.334   9.983 -0.2920  0.2964 -0.2042
  702MPD2    H510440   1.502   0.307  10.076 -2.2099 -0.1964  0.3320
  702MPD2    N110441   1.708   4.686   9.832  0.4572 -0.6215  0.9151
  702MPD2    H710442   1.721   4.675   9.932 -2.4922  0.5174  1.4319
  703TMC3    C110443   1.355   0.474  10.126 -0.3349  0.2088  0.2731
  703TMC3    C210444   1.340   0.367  10.214  0.4352  0.3397 -0.3596
  703TMC3    C310445   1.349   0.394  10.350 -0.7957  0.8973  0.1437
  703TMC3    C410446   1.367   0.603  10.170  0.0816  0.0329  0.0474
  703TMC3    C510447   1.382   0.626  10.303  0.0710  0.2376 -0.7619
  703TMC3    C610448   1.373   0.521  10.393 -0.0574  0.6340 -0.0183
  703TMC3     C10449   1.387   0.443   9.989 -0.4161 -0.2971  0.2940
  703TMC3     O10450   1.354   0.518   9.899 -0.2246  0.0130  0.3869
  703TMC3     H10451   1.348   0.264  10.182 -0.3384  0.4567 -0.9026
  703TMC3    H110452   1.392   0.679  10.097  0.2492 -0.8440 -0.7998
  703TMC3    H210453   1.387   0.539  10.499  1.0301  0.7021 -0.1771
  703TMC3    C710454   1.499   0.717  10.326 -0.4130  0.5264 -0.2104
  703TMC3    C810455   1.294   0.289  10.438 -0.1070  0.4395 -0.3622
  703TMC3    O110456   1.587   0.712  10.235 -0.0933 -0.1279  0.1240
  703TMC3    O210457   1.240   0.197  10.378 -0.4380  0.7195  0.0618
  704TMC3    C110458   4.004   2.629  12.234  0.1978 -0.1201 -0.7712
  704TMC3    C210459   4.094   2.568  12.158 -0.3164  0.2689  0.0513
  704TMC3    C310460   4.175   2.484  12.220 -0.1364  0.2366  0.5840
  704TMC3    C410461   3.977   2.586  12.366  0.2518 -0.0612 -0.3982
  704TMC3    C510462   4.060   2.485  12.421  0.1854  0.1417 -0.2310
  704TMC3    C610463   4.166   2.447  12.350  0.4535 -0.0813  0.3298
  704TMC3     C10464   3.923   2.740  12.172  0.3345  0.6802 -0.4273
  704TMC3     O10465   3.816   2.766  12.227  0.0369  0.2997  0.4200
  704TMC3     H10466   4.102   2.571  12.050  1.8216  1.4421  0.2462
  704TMC3    H110467   3.886   2.617  12.417 -0.3013 -1.4943 -0.5010
  704TMC3    H210468   4.224   2.359  12.375  1.3903  0.4205 -0.0753
  704TMC3    C710469   3.995   2.371  12.483 -0.0877 -1.0353  0.2401
  704TMC3    C810470   4.245   2.398  12.124 -0.1384  0.0059  0.4748
  704TMC3    O110471   4.066   2.273  12.496 -0.2193  0.5265 -0.6033
  704TMC3    O210472   4.181   2.328  12.046 -0.4346  0.1724 -0.3498
  705MPD2     C10473   3.835   0.496  16.805  0.2937 -0.5341 -0.4021
  705MPD2    C110474   3.828   0.634  16.808 -0.2969 -0.9382  0.7067
  705MPD2    C210475   3.733   0.696  16.888 -0.2355  0.5518  0.4007
  705MPD2    C310476   3.646   0.625  16.972 -0.5442  0.2883  1.2969
  705MPD2    C410477   3.682   0.496  16.989  0.4468  0.4824 -1.1082
  705MPD2    C510478   3.763   0.431  16.897  0.5964  0.0336  0.3881
  705MPD2     H10479   3.732   0.803  16.874 -0.5804  0.6362  1.0923
  705MPD2    H110480   3.636   0.439  17.069 -0.3496  1.1139 -1.1109
  705MPD2    H210481   3.893   0.438  16.734  0.1718 -0.2214 -0.7599
  705MPD2    H310482   3.779   0.325  16.912 -1.7083 -0.0355  2.3046
  705MPD2     N10483   3.528   0.676  17.034 -0.1474 -0.7901  0.1691
  705MPD2    H510484   3.472   0.616  17.094  0.1927  0.7887  2.0667
  705MPD2    N110485   3.899   0.724  16.714 -0.3894 -0.4423 -0.1049
  705MPD2    H710486   3.874   0.822  16.713  1.9883  0.1919  1.1094
  706TMC3    C110487   4.108   0.825  16.306 -0.7810 -0.5409 -0.9083
  706TMC3    C210488   4.061   0.954  16.300 -0.9793  0.3164 -0.2514
  706TMC3    C310489   3.998   0.997  16.421 -0.5054  1.1259 -0.0259
  706TMC3    C410490   4.081   0.743  16.407  0.3469  0.0474 -0.5807
  706TMC3    C510491   4.012   0.782  16.511  0.3050 -0.0597 -0.6997
  706TMC3    C610492   3.959   0.911  16.525  0.3217  0.0389  0.5476
  706TMC3     C10493   4.148   0.762  16.181  0.0480 -0.4491 -0.0772
  706TMC3     O10494   4.088   0.660  16.154  0.0921  0.2780  0.1265
  706TMC3     H10495   4.089   1.018  16.217 -0.5313 -0.6071 -0.8304
  706TMC3    H110496   4.116   0.640  16.399  1.4609  0.4714 -1.1961
  706TMC3    H210497   3.896   0.947  16.605  1.5075  0.4835  1.2835
  706TMC3    C710498   3.981   0.678  16.612  0.4120 -0.7938  0.0653
  706TMC3    C810499   3.919   1.124  16.403 -0.1734 -0.1875  0.3141
  706TMC3    O110500   4.019   0.564  16.597  0.2721  0.1225  0.6700
  706TMC3    O210501   3.897   1.148  16.288  0.1087  0.8515  0.1866
  707TMC3    C110502   1.421   0.714   1.752 -0.0543  0.1962  0.1416
  707TMC3    C210503   1.402   0.614   1.661  0.0463 -0.4361  0.8033
  707TMC3    C310504   1.277   0.565   1.646  0.0599 -0.2608  0.3864
  707TMC3    C410505   1.322   0.778   1.822 -0.4678  0.8207  0.2062
  707TMC3    C510506   1.198   0.723   1.806 -0.2533  0.7212 -1.0609
  707TMC3    C610507   1.172   0.620   1.721  0.4040 -0.7810  0.4738
  707TMC3     C10508   1.535   0.796   1.735  0.8668  0.0616 -0.3062
  707TMC3     O10509   1.613   0.810   1.830 -0.3160 -0.3271  0.7934
  707TMC3     H10510   1.493   0.579   1.614  0.0536  0.9404 -0.2234
  707TMC3    H110511   1.346   0.859   1.889  0.6059  0.8267 -0.1906
  707TMC3    H210512   1.069   0.586   1.723 -0.4046  1.7079  1.4152
  707TMC3    C710513   1.084   0.796   1.861  0.4015  0.6042 -0.0187
  707TMC3    C810514   1.264   0.423   1.615 -0.7645 -0.4790 -0.0970
  707TMC3    O110515   0.981   0.783   1.794 -0.6405  0.0208 -0.0110
  707TMC3    O210516   1.149   0.381   1.606 -0.6765 -0.9064  0.1365
  708MPD2     C10517   1.373   4.491  13.834 -0.2501  0.1634 -0.2226
  708MPD2    C110518   1.336   4.399  13.933  0.6528  0.0112 -0.2707
  708MPD2    C210519   1.433   4.367  14.031  0.4168  0.3056  0.0019
  708MPD2    C310520   1.567   4.411  14.018 -0.4256 -0.3786  0.3493
  708MPD2    C410521   1.597   4.496  13.914 -0.2423 -0.3111 -0.5407
  708MPD2    C510522   1.502   4.535  13.824 -0.1322  0.0889  0.4484
  708MPD2     H10523   1.411   4.295  14.109  0.3251  1.7744  1.3272
  708MPD2    H110524   1.700   4.529  13.913 -0.3738  0.1171  0.1788
  708MPD2    H210525   1.307   4.508  13.750  0.7629  0.1217 -1.0141
  708MPD2    H310526   1.530   4.592  13.735 -2.6407  1.2175  0.3847
  708MPD2     N10527   1.672   4.362  14.104 -1.2332 -0.1685  0.1076
  708MPD2    H510528   1.644   4.284  14.163  0.5315 -1.4770 -0.7905
  708MPD2    N110529   1.212   4.337  13.940 -0.3654  0.4455 -0.0018
  708MPD2    H710530   1.154   4.328  13.857 -0.1490 -3.3197  0.2213
  709TMC3    C110531   1.038   4.212  14.048 -0.0927  0.7301  0.4064
  709TMC3    C210532   1.056   4.095  13.989  0.2125  0.0150 -0.0046
  709TMC3    C310533   1.021   3.975  14.048 -0.9869 -0.5198 -0.0717
  709TMC3    C410534   0.985   4.206  14.178  0.1714 -0.4001  0.2701
  709TMC3    C510535   0.952   4.092  14.235  0.5583  0.2724 -0.4964
  709TMC3    C610536   0.954   3.975  14.166  0.8504  0.2049  0.0374
  709TMC3     C10537   1.158   4.298  14.058 -0.9566 -0.6560  0.3123
  709TMC3     O10538   1.196   4.326  14.169  0.2431 -0.0842 -0.2046
  709TMC3     H10539   1.113   4.107  13.898  0.2542 -5.2142 -0.6491
  709TMC3    H110540   0.984   4.297  14.238  1.8674 -0.8550  0.9898
  709TMC3    H210541   0.939   3.880  14.217  0.2550  0.5602  0.5177
  709TMC3    C710542   1.006   4.081  14.374  0.0282  0.2546  1.2941
  709TMC3    C810543   1.098   3.857  14.017  0.5890 -0.2311 -0.0912
  709TMC3    O110544   0.972   3.977  14.434  0.4326 -0.7877  0.0924
  709TMC3    O210545   1.136   3.783  14.102 -0.1639  0.3634  0.3686
  710TMC3    C110546   3.559   0.580   0.217 -0.0307  0.7391 -0.1214
  710TMC3    C210547   3.630   0.534   0.110  0.3159 -0.7297 -0.0285
  710TMC3    C310548   3.747   0.472   0.134 -0.0360  0.0499  0.2312
  710TMC3    C410549   3.598   0.567   0.348 -0.2293  0.5849  0.0676
  710TMC3    C510550   3.720   0.507   0.363 -0.0924  0.4412 -0.0455
  710TMC3    C610551   3.797   0.456   0.261 -0.2248 -0.4977 -0.1542
  710TMC3     C10552   3.436   0.643   0.186 -0.4245 -0.8497  0.6562
  710TMC3     O10553   3.380   0.632   0.079  0.0664  0.3188  0.4765
  710TMC3     H10554   3.606   0.546   0.005  0.6039 -2.0181 -0.2482
  710TMC3    H110555   3.530   0.594   0.428  0.0683  1.2172  0.1019
  710TMC3    H210556   3.899   0.425   0.281  0.0924 -0.0382 -1.0483
  710TMC3    C710557   3.780   0.509   0.499  0.0230 -0.4409 -0.6021
  710TMC3    C810558   3.830   0.440   0.025  0.3417  0.0439 -0.4921
  710TMC3    O110559   3.708   0.523   0.597  0.1426 -0.3225  0.8167
  710TMC3    O210560   3.799   0.483  17.643 -0.1176  0.2116 -0.2629
  711TMC3    C110561   2.942   1.882  14.895  1.2838 -0.7655  0.6318
  711TMC3    C210562   2.962   1.953  15.007 -0.1973  1.3521 -0.2319
  711TMC3    C310563   3.059   1.915  15.102 -0.8345 -0.2874 -0.3436
  711TMC3    C410564   3.018   1.769  14.872  0.1214 -0.2635 -0.8251
  711TMC3    C510565   3.111   1.734  14.972 -0.3499  0.1742  1.0463
  711TMC3    C610566   3.140   1.807  15.080 -0.3084  0.2118 -0.1938
  711TMC3     C10567   2.806   1.840  14.879  0.2553 -0.1931 -0.7971
  711TMC3     O10568   2.790   1.773  14.776 -0.4293  0.1827  0.6946
  711TMC3     H10569   2.895   2.036  15.022 -1.7997 -0.0437  0.3194
  711TMC3    H110570   2.997   1.704  14.788 -1.6508  0.7687 -1.1913
  711TMC3    H210571   3.214   1.776  15.153 -0.5604  0.0997  0.0126
  711TMC3    C710572   3.137   1.593  14.992 -0.5279  0.5187  0.0518
  711TMC3    C810573   3.002   1.916  15.235 -0.4948  0.2081 -0.4753
  711TMC3    O110574   3.239   1.563  15.055 -0.2663  0.0897  0.2961
  711TMC3    O210575   2.881   1.911  15.234  0.3668  0.7142  0.0647
  712MPD2     C10576   3.706   2.589  13.847 -0.0192 -0.1703 -0.4702
  712MPD2    C110577   3.602   2.652  13.785  0.1346  0.4566 -0.8564
  712MPD2    C210578   3.622   2.790  13.747  0.4746  0.0870  0.0118
  712MPD2    C310579   3.749   2.852  13.761  0.2878  0.7597  0.0720
  712MPD2    C410580   3.849   2.777  13.814 -0.2225  0.0216  0.0233
  712MPD2    C510581   3.826   2.654  13.865  0.4602 -0.1235  0.1765
  712MPD2     H10582   3.538   2.840  13.699  1.4502  0.5359 -1.2267
  712MPD2    H110583   3.948   2.815  13.838 -0.0379  0.0114 -0.7351
  712MPD2    H210584   3.717   2.485  13.877 -2.9955 -0.2466  0.4348
  712MPD2    H310585   3.908   2.604  13.917 -0.0378  0.1281  1.1961
  712MPD2     N10586   3.784   2.988  13.731  0.6395 -0.0164 -0.2738
  712MPD2    H510587   3.884   2.998  13.725  0.7484 -1.2971 -0.5464
  712MPD2    N110588   3.485   2.586  13.756  0.4413 -0.3808  0.1077
  712MPD2    H710589   3.419   2.635  13.696  0.7130  0.4266  0.4685
  713TMC3    C110590   3.768   3.222  13.700 -0.1135 -0.9921 -0.1519
  713TMC3    C210591   3.891   3.219  13.640  0.1071 -0.1267 -0.0281
  713TMC3    C310592   3.942   3.338  13.599  0.3369 -0.0204 -0.2688
  713TMC3    C410593   3.696   3.333  13.702  0.1025  0.2102  0.5005
  713TMC3    C510594   3.745   3.450  13.655  0.2671  0.7280 -0.7607
  713TMC3    C610595   3.869   3.452  13.605  0.1875 -0.2986  0.4274
  713TMC3     C10596   3.697   3.098  13.726  0.0123  0.2409  0.1376
  713TMC3     O10597   3.576   3.103  13.754  0.5416  0.2985  0.2238
  713TMC3     H10598   3.938   3.127  13.607 -1.7794 -1.4672  1.0531
  713TMC3    H110599   3.603   3.323  13.757 -0.2399  1.4661  0.1437
  713TMC3    H210600   3.909   3.546  13.567 -0.8298  1.8762  4.6834
  713TMC3    C710601   3.688   3.582  13.686 -0.4344  0.7377 -0.1549
  713TMC3    C810602   4.063   3.347  13.522  0.0364  0.7277 -0.5838
  713TMC3    O110603   3.771   3.667  13.690 -0.4219 -0.7575 -0.0907
  713TMC3    O210604   4.063   3.422  13.427  0.1365  0.2200  0.4114
  714MPD2     C10605   1.994   1.817   1.000  0.6955 -0.1677  0.0394
  714MPD2    C110606   2.022   1.680   1.020 -1.0444  0.6285  0.8772
  714MPD2    C210607   1.917   1.594   1.051 -0.2693  1.1247 -0.4152
  714MPD2    C310608   1.791   1.656   1.086  0.5169 -0.1475  0.2090
  714MPD2    C410609   1.770   1.786   1.056  0.3167  0.2426 -0.5179
  714MPD2    C510610   1.866   1.865   1.019 -0.2205  0.1274  0.1624
  714MPD2     H10611   1.929   1.486   1.054  0.6098  1.1881 -1.6231
  714MPD2    H110612   1.669   1.823   1.042  0.5250  0.8893 -0.3445
  714MPD2    H210613   2.071   1.888   0.971  0.6459 -0.9743 -2.0614
  714MPD2    H310614   1.846   1.970   0.999 -0.0983 -0.4120 -2.6900
  714MPD2     N10615   1.689   1.577   1.135  0.2362 -0.0145 -0.2255
  714MPD2    H510616   1.707   1.478   1.153 -0.7279 -0.0924  0.3246
  714MPD2    N110617   2.154   1.639   1.011 -1.0163 -0.1941  0.8373
  714MPD2    H710618   2.231   1.703   0.998 -1.5810  0.4549  0.7113
  715TMC3    C110619   2.337   1.501   1.044  0.1885 -0.4988  0.2067
  715TMC3    C210620   2.385   1.380   0.993 -0.7189 -0.1873 -0.9956
  715TMC3    C310621   2.520   1.369   1.022 -0.1984  0.5315  0.1315
  715TMC3    C410622   2.407   1.599   1.108  0.0482 -0.2357 -0.5426
  715TMC3    C510623   2.542   1.586   1.112 -0.4691  0.4526 -0.1839
  715TMC3    C610624   2.598   1.470   1.068  0.0116 -0.0710  0.1549
  715TMC3     C10625   2.195   1.511   1.020  0.2226  0.2407  0.4655
  715TMC3     O10626   2.125   1.413   0.993 -0.0540 -0.0692 -0.2781
  715TMC3     H10627   2.327   1.320   0.924 -1.2597 -0.9991  0.1776
  715TMC3    H110628   2.353   1.678   1.158 -0.2357 -1.1837  0.6752
  715TMC3    H210629   2.704   1.452   1.054  0.1371  0.8443 -0.0402
  715TMC3    C710630   2.635   1.691   1.156  0.0002 -0.2532  0.1737
  715TMC3    C810631   2.588   1.258   0.965  0.0198 -0.4088 -0.6781
  715TMC3    O110632   2.749   1.662   1.177 -0.3663 -1.1313 -0.0174
  715TMC3    O210633   2.529   1.188   0.886  0.8972  0.0035 -0.0421
  716MPD2     C10634   2.005   0.468   9.762 -0.6617 -0.1441  0.1437
  716MPD2    C110635   1.905   0.421   9.682 -0.3278  0.3210  0.2690
  716MPD2    C210636   1.900   0.290   9.652  0.3582  0.6345  0.1969
  716MPD2    C310637   2.004   0.209   9.682 -1.4425  1.1748 -0.5706
  716MPD2    C410638   2.105   0.254   9.761 -0.8978 -0.5658 -0.3745
  716MPD2    C510639   2.099   0.383   9.811 -0.3220  0.0994 -0.1540
  716MPD2     H10640   1.806   0.254   9.612  0.2111  1.3736 -0.1279
  716MPD2    H110641   2.188   0.193   9.794 -0.9151 -0.7367 -0.6533
  716MPD2    H210642   1.998   0.567   9.807 -1.5785 -1.0409  1.9889
  716MPD2    H310643   2.172   0.416   9.885 -0.2126 -0.3597 -0.0605
  716MPD2     N10644   1.996   0.083   9.621 -0.5680 -0.0910 -0.9968
  716MPD2    H510645   1.912   0.061   9.570  0.0285 -2.5698 -0.9081
  716MPD2    N110646   1.797   0.516   9.652  0.5295  0.8242 -0.2625
  716MPD2    H710647   1.798   0.599   9.710 -0.8252 -0.1377  1.1348
  717TMC3    C110648   2.061   4.622   9.522  0.4038  0.1312 -0.9494
  717TMC3    C210649   1.998   4.656   9.406 -0.4178 -0.4600  0.1147
  717TMC3    C310650   1.962   4.551   9.326 -0.0867 -0.5358  0.3889
  717TMC3    C410651   2.131   4.505   9.528 -0.2584  0.1541  0.4326
  717TMC3    C510652   2.114   4.410   9.434 -0.0710 -1.1159  0.2882
  717TMC3    C610653   2.014   4.424   9.347 -0.1261  0.0873  0.0668
  717TMC3     C10654   2.091   4.721   9.625 -0.4174  0.4484 -0.4778
  717TMC3     O10655   2.179   4.692   9.707  0.0636 -0.1484  0.1718
  717TMC3     H10656   1.960   0.024   9.390 -1.4047 -0.8448 -0.0016
  717TMC3    H110657   2.216   4.496   9.594  1.2038  2.5561 -1.1347
  717TMC3    H210658   1.975   4.342   9.288  0.9903 -1.2548  1.2130
  717TMC3    C710659   2.124   4.272   9.495  0.3458 -0.7862 -0.6701
  717TMC3    C810660   1.827   4.547   9.281  0.3908 -0.4339  0.5621
  717TMC3    O110661   2.120   4.258   9.620  0.3889 -0.4162  0.4175
  717TMC3    O210662   1.781   4.433   9.274  0.2404 -1.0184 -0.1548
  718MPD2     C10663   0.838   2.673  12.764  0.2875 -0.0190  0.3052
  718MPD2    C110664   0.761   2.729  12.664  0.0581 -0.1068 -0.8303
  718MPD2    C210665   0.621   2.718  12.670  0.2939 -0.2718 -0.2892
  718MPD2    C310666   0.555   2.655  12.773  0.1466  0.0575 -0.3797
  718MPD2    C410667   0.636   2.607  12.874  0.4501  0.0927 -0.4027
  718MPD2    C510668   0.769   2.615  12.868 -0.7649  0.3162  0.5817
  718MPD2     H10669   0.553   2.766  12.601 -0.3749  2.6366  2.4166
  718MPD2    H110670   0.597   2.565  12.966  1.6211 -1.9313 -0.8167
  718MPD2    H210671   0.946   2.666  12.766  0.2090 -0.8954  1.1703
  718MPD2    H310672   0.834   2.565  12.939 -0.2318 -0.9112 -0.7799
  718MPD2     N10673   0.419   2.642  12.767  0.3679 -0.1495 -0.6336
  718MPD2    H510674   0.359   2.659  12.687 -0.0778  0.9736 -0.0578
  718MPD2    N110675   0.815   2.817  12.571  0.2194  0.1832 -0.4749
  718MPD2    H710676   0.738   2.869  12.529 -1.8111 -1.2678  1.4938
  719TMC3    C110677   0.948   2.971  12.455  0.3401 -0.1018 -0.4650
  719TMC3    C210678   0.816   3.004  12.427 -0.0627 -0.5568  0.3890
  719TMC3    C310679   0.760   3.126  12.452 -0.0679  0.3031 -0.2627
  719TMC3    C410680   1.020   3.070  12.518 -0.3433  0.7758  0.2933
  719TMC3    C510681   0.960   3.192  12.559  0.0899  0.0289 -0.2254
  719TMC3    C610682   0.831   3.219  12.530  0.6699  0.1441  0.2569
  719TMC3     C10683   0.945   2.857  12.540  0.6749  0.0830 -0.4587
  719TMC3     O10684   1.048   2.814  12.589  0.1555 -0.2156 -0.2015
  719TMC3     H10685   0.757   2.930  12.374  0.0095 -0.5463  0.2937
  719TMC3    H110686   1.127   3.058  12.531 -0.4711 -1.1045 -0.3721
  719TMC3    H210687   0.789   3.306  12.577  1.8653  0.2864  1.0478
  719TMC3    C710688   1.059   3.299  12.573  0.2106 -0.2597 -0.4308
  719TMC3    C810689   0.630   3.111  12.501 -0.8930 -0.1114 -0.6807
  719TMC3    O110690   1.169   3.274  12.529 -0.7111 -0.0150  0.0832
  719TMC3    O210691   0.599   2.996  12.520  0.0021 -0.4497 -0.0687
  720MPD2     C10692   4.148   4.276  14.090 -0.1856  0.0972  0.1191
  720MPD2    C110693   4.182   4.398  14.040  0.4328 -0.0387 -0.0015
  720MPD2    C210694   4.299   4.461  14.074 -0.0982  0.4911 -0.6495
  720MPD2    C310695   4.374   4.406  14.176 -0.3549 -0.2139  0.0606
  720MPD2    C410696   4.335   4.291  14.234  0.3888  0.6657  0.4233
  720MPD2    C510697   4.228   4.218  14.191 -0.0898 -0.7256  0.1167
  720MPD2     H10698   4.334   4.547  14.018 -0.3420  0.7643 -0.3849
  720MPD2    H110699   4.397   4.247  14.311  1.5029  0.6955 -0.4537
  720MPD2    H210700   4.062   4.213  14.068  0.5859 -1.6320  2.0850
  720MPD2    H310701   4.215   4.119  14.232  0.7696 -0.3543  1.2891
  720MPD2     N10702   4.479   4.483  14.234 -0.1685 -0.0600 -0.1980
  720MPD2    H510703   4.518   4.549  14.167 -0.6337 -0.0661 -0.4706
  720MPD2    N110704   4.096   4.463  13.950 -0.1016  0.2945 -0.5947
  720MPD2    H710705   4.117   4.558  13.920  0.2727 -1.3864 -5.6497
  721TMC3    C110706   4.647   4.561  14.388  0.3859  0.1415 -0.2991
  721TMC3    C210707   4.640   4.615  14.512 -0.7529 -0.9538  0.4302
  721TMC3    C310708   0.017   4.683  14.561 -0.3744 -0.3975 -0.3306
  721TMC3    C410709   0.038   4.557  14.319 -0.4186  0.0651 -0.1250
  721TMC3    C510710   0.144   4.627  14.370  0.0008 -0.3516  0.5565
  721TMC3    C610711   0.129   4.702  14.482 -0.8139 -0.5832 -0.6303
  721TMC3     C10712   4.529   4.475  14.357 -0.2197 -1.0017 -0.4521
  721TMC3     O10713   4.487   4.422  14.457 -0.1547 -0.1294  0.2984
  721TMC3     H10714   4.554   4.608  14.577  0.2018 -1.7573  1.6177
  721TMC3    H110715   0.037   4.518  14.218 -1.2833  0.5159 -0.2853
  721TMC3    H210716   0.217   0.011  14.530 -0.2819 -0.8050 -1.4197
  721TMC3    C710717   0.261   4.634  14.289  0.1142 -0.2714 -0.6454
  721TMC3    C810718   4.731   0.054  14.662 -0.8646  0.1184 -0.3796
  721TMC3    O110719   0.330   0.001  14.296 -0.0263 -0.4798  0.2134
  721TMC3    O210720   0.088   0.137  14.670 -0.1272 -0.0734  0.5444
  722MPD2     C10721   2.583   3.383  13.241  0.3549  0.7937  0.0285
  722MPD2    C110722   2.520   3.490  13.302 -0.1156 -0.1638  0.1384
  722MPD2    C210723   2.382   3.488  13.315  0.1760 -0.2104  0.1073
  722MPD2    C310724   2.311   3.374  13.277  0.8188 -0.2723 -0.6486
  722MPD2    C410725   2.377   3.271  13.215  0.1749 -0.4242  0.4113
  722MPD2    C510726   2.512   3.280  13.185  0.6911  0.3164  0.6510
  722MPD2     H10727   2.328   3.577  13.345 -0.1643 -0.0802 -0.8656
  722MPD2    H110728   2.324   3.193  13.162 -1.1435  0.0492  1.0231
  722MPD2    H210729   2.689   3.380  13.220 -0.2655 -3.0176 -2.6098
  722MPD2    H310730   2.559   3.203  13.125  0.5057  0.8721 -0.1940
  722MPD2     N10731   2.173   3.374  13.305  0.5238  0.1819 -0.6258
  722MPD2    H510732   2.128   3.457  13.343 -0.3391  0.0090 -1.2663
  722MPD2    N110733   2.587   3.607  13.349  0.2632  1.2352 -0.6151
  722MPD2    H710734   2.529   3.676  13.396  1.4487  1.3883  0.6448
  723TMC3    C110735   1.957   3.272  13.331 -0.8141  0.2491  0.2220
  723TMC3    C210736   1.876   3.196  13.247 -0.2919 -0.0501  0.0370
  723TMC3    C310737   1.753   3.226  13.219  0.2317 -0.1222  0.3787
  723TMC3    C410738   1.910   3.384  13.391  0.2607  0.8474  0.5559
  723TMC3    C510739   1.777   3.425  13.358  0.1168 -0.1515  0.6232
  723TMC3    C610740   1.702   3.346  13.268 -0.5143  0.1375 -0.5693
  723TMC3     C10741   2.100   3.255  13.307 -0.8250  0.6784 -0.4236
  723TMC3     O10742   2.139   3.144  13.275  0.3491 -0.0448 -0.1153
  723TMC3     H10743   1.926   3.109  13.207 -1.9557 -0.3344 -1.3961
  723TMC3    H110744   1.972   3.428  13.469  1.0160 -1.9571  1.5260
  723TMC3    H210745   1.604   3.385  13.242 -0.1480  2.7495  1.9651
  723TMC3    C710746   1.710   3.541  13.418 -0.8147 -0.5949 -0.1302
  723TMC3    C810747   1.731   3.211  13.077 -0.1994 -0.4146  0.3905
  723TMC3    O110748   1.589   3.554  13.410  0.3014 -0.0222  0.3281
  723TMC3    O210749   1.678   3.300  13.012 -0.1327 -0.3279 -0.0916
  724TMC3    C110750   3.132   1.739  10.483  0.1566 -0.7866 -0.3280
  724TMC3    C210751   3.142   1.859  10.422 -0.2256 -0.1811  0.1341
  724TMC3    C310752   3.252   1.927  10.459  0.0757 -0.1261  0.2936
  724TMC3    C410753   3.233   1.676  10.551  0.3396 -0.0343  0.7891
  724TMC3    C510754   3.352   1.736  10.556 -0.8233 -0.0767  0.2097
  724TMC3    C610755   3.361   1.862  10.512  0.7463 -0.2122 -1.1535
  724TMC3     C10756   3.017   1.654  10.452  0.2339  0.7013 -0.0857
  724TMC3     O10757   3.003   1.557  10.525 -0.1967  0.0378  0.5664
  724TMC3     H10758   3.058   1.912  10.378  1.2977  2.6013  0.5258
  724TMC3    H110759   3.210   1.584  10.604  0.4617 -0.6016 -0.1638
  724TMC3    H210760   3.460   1.900  10.491  0.5446  0.4590 -0.8885
  724TMC3    C710761   3.467   1.685  10.633 -0.4173 -0.2068 -0.3086
  724TMC3    C810762   3.270   2.053  10.397 -0.0990  1.1549  0.3401
  724TMC3    O110763   3.536   1.770  10.680 -0.5079 -0.4517  0.3817
  724TMC3    O210764   3.203   2.065  10.293 -0.0362 -0.0739 -0.0128
  725TMC3    C110765   0.279   0.346  12.987  0.0772  0.4310 -0.0414
  725TMC3    C210766   0.154   0.392  12.944  0.3219 -0.0956 -0.2824
  725TMC3    C310767   0.054   0.299  12.925 -0.2022 -1.0850 -0.0626
  725TMC3    C410768   0.298   0.209  12.996  0.5913  0.8539 -0.1133
  725TMC3    C510769   0.191   0.121  12.978 -0.3024 -0.1789  0.4284
  725TMC3    C610770   0.070   0.167  12.940  0.0257  0.5434  1.0871
  725TMC3     C10771   0.369   0.448  13.029  0.2846  0.4061  0.0971
  725TMC3     O10772   0.330   0.565  13.024 -0.6284  0.8605 -0.3241
  725TMC3     H10773   0.118   0.493  12.951 -0.7518 -0.6400  1.8253
  725TMC3    H110774   0.398   0.169  13.011  0.6267  0.1051 -2.3658
  725TMC3    H210775   4.722   0.103  12.905  1.0657  0.4792 -1.2435
  725TMC3    C710776   0.221   4.705  12.963 -0.9319 -0.4048 -0.3028
  725TMC3    C810777   4.701   0.336  12.809 -0.0148 -0.3160  0.3073
  725TMC3    O110778   0.134   4.635  12.910  1.0582 -0.4074  0.0108
  725TMC3    O210779   4.608   0.263  12.775  0.0632  0.2304 -0.3407
  726MPD2     C10780   2.783   2.555  10.625 -0.0086  0.0404  0.1101
  726MPD2    C110781   2.667   2.591  10.561  0.1717  1.2287 -0.4938
  726MPD2    C210782   2.557   2.505  10.553 -0.3737 -0.4488  0.1315
  726MPD2    C310783   2.571   2.372  10.606  0.1325 -0.0079 -0.3816
  726MPD2    C410784   2.694   2.333  10.659  0.1613  0.1560  0.3890
  726MPD2    C510785   2.800   2.423  10.673  0.7467 -0.1750  0.2075
  726MPD2     H10786   2.461   2.545  10.522 -0.1640 -0.0826 -0.0382
  726MPD2    H110787   2.697   2.231  10.695 -3.8594 -0.7614 -1.9071
  726MPD2    H210788   2.865   2.623  10.649 -1.1721  1.0646  1.1532
  726MPD2    H310789   2.893   2.395  10.721  1.1983  1.6769  0.4029
  726MPD2     N10790   2.460   2.282  10.617  0.1598 -0.4090  0.2935
  726MPD2    H510791   2.475   2.188  10.653 -1.0524 -0.5058  0.5327
  726MPD2    N110792   2.661   2.721  10.507 -0.0189 -0.7163  0.1229
  726MPD2    H710793   2.578   2.732  10.450 -0.9848 -0.3787  1.6046
  727TMC3    C110794   2.696   2.950  10.460 -0.0128  0.4405  0.5935
  727TMC3    C210795   2.783   3.052  10.464 -1.1674 -0.1168  0.9117
  727TMC3    C310796   2.765   3.168  10.399  0.2444 -1.0568 -0.5743
  727TMC3    C410797   2.576   2.968  10.393 -0.1936  0.2257 -0.2067
  727TMC3    C510798   2.559   3.082  10.323  0.8449  0.3805  0.4819
  727TMC3    C610799   2.651   3.185  10.331  0.7169 -0.0575  0.0700
  727TMC3     C10800   2.731   2.832  10.539 -0.1238 -0.8734  0.1076
  727TMC3     O10801   2.808   2.847  10.634 -0.2599 -0.4840  0.4806
  727TMC3     H10802   2.878   3.039  10.514  0.3529  1.6610 -1.5213
  727TMC3    H110803   2.506   2.887  10.380  0.8922 -1.2005  2.6762
  727TMC3    H210804   2.644   3.257  10.251  1.0316 -1.9167 -1.6387
  727TMC3    C710805   2.426   3.114  10.273 -0.2269  0.3705 -0.5896
  727TMC3    C810806   2.861   3.273  10.437 -0.0961 -0.0789 -0.4040
  727TMC3    O110807   2.352   3.025  10.238 -0.3655 -0.0500  0.2270
  727TMC3    O210808   2.973   3.228  10.452  0.3925  0.2339  0.2735
  728TMC3    C110809   1.994   0.636  15.613 -1.0101  0.8281 -0.6538
  728TMC3    C210810   2.121   0.704  15.616  0.1873  0.4136 -0.8347
  728TMC3    C310811   2.182   0.733  15.497 -0.2160 -0.1265  0.1322
  728TMC3    C410812   1.925   0.626  15.494 -0.3741  0.3692  0.4581
  728TMC3    C510813   1.995   0.651  15.375 -1.1025 -0.4754  0.1195
  728TMC3    C610814   2.117   0.705  15.379  0.6363 -0.0657 -0.3054
  728TMC3     C10815   1.933   0.624  15.741 -0.4390 -0.4323 -0.4829
  728TMC3     O10816   1.978   0.669  15.846  0.1738 -0.6505  0.1533
  728TMC3     H10817   2.156   0.730  15.715  1.3469 -1.8331 -0.6510
  728TMC3    H110818   1.820   0.602  15.496 -0.6969  1.7676 -0.0141
  728TMC3    H210819   2.170   0.714  15.285  1.1808  0.3368  0.0409
  728TMC3    C710820   1.908   0.673  15.258 -0.2021 -0.4184 -0.6248
  728TMC3    C810821   2.275   0.848  15.486 -0.4983  0.5405  0.2052
  728TMC3    O110822   1.791   0.639  15.267  0.3994  0.2409  0.0067
  728TMC3    O210823   2.296   0.895  15.374  0.0592 -0.2141 -0.3940
  729MPD2     C10824   0.003   1.480  17.350  0.2128  0.0042  0.2820
  729MPD2    C110825   4.631   1.554  17.306  0.5985 -0.5705  0.6560
  729MPD2    C210826   4.543   1.618  17.387  0.2040  0.1706  0.1637
  729MPD2    C310827   4.562   1.617  17.524  0.7302  0.3608 -0.2857
  729MPD2    C410828   4.671   1.551  17.570 -0.3845  0.4688 -0.0255
  729MPD2    C510829   0.024   1.483  17.485  0.3019  0.3666 -0.8229
  729MPD2     H10830   4.458   1.660  17.336  0.3693  1.0962  0.6473
  729MPD2    H110831   4.681   1.549  17.678  0.9640  0.0036 -0.1671
  729MPD2    H210832   0.073   1.426  17.287  1.6488  1.4312  0.6712
  729MPD2    H310833   0.106   1.424  17.522  0.2219  1.3885  0.9835
  729MPD2     N10834   4.484   1.692  17.612  0.2992  0.2358 -0.2386
  729MPD2    H510835   4.495   1.675  17.712 -0.7104 -0.2735 -0.2125
  729MPD2    N110836   4.608   1.550  17.170 -0.0452 -0.3469 -0.0028
  729MPD2    H710837   4.666   1.481  17.122  1.8585  1.6023 -0.5152
  730TMC3    C110838   4.359   1.874  17.674 -0.9509 -0.4664  0.1852
  730TMC3    C210839   4.417   1.875   0.065 -0.9001 -0.4157  0.0083
  730TMC3    C310840   4.397   1.986   0.149 -0.2803 -0.0144 -0.5930
  730TMC3    C410841   4.283   1.971  17.633 -0.1584 -0.6010  0.5385
  730TMC3    C510842   4.265   2.078  17.712  0.5009 -0.0330 -0.2087
  730TMC3    C610843   4.310   2.090   0.115 -0.2766  0.2537  0.5390
  730TMC3     C10844   4.402   1.789  17.568  0.0343 -0.5028 -0.5868
  730TMC3     O10845   4.379   1.832  17.453 -0.7475 -0.4579 -0.3537
  730TMC3     H10846   4.487   1.797   0.095  0.5267  0.4524 -1.1131
  730TMC3    H110847   4.225   1.950  17.543  1.5774 -1.9689 -0.2612
  730TMC3    H210848   4.303   2.180   0.174 -1.7780  0.2344  0.3844
  730TMC3    C710849   4.222   2.195  17.637  0.0620  0.7288  0.9282
  730TMC3    C810850   4.445   1.973   0.281  0.2348  0.3313  0.1071
  730TMC3    O110851   4.181   2.170  17.528  0.1480  0.4263 -0.3772
  730TMC3    O210852   4.462   1.858   0.316 -0.5947  0.1871 -0.4253
  731MPD2     C10853   4.161   0.181  11.964 -0.4361 -1.0879  0.5514
  731MPD2    C110854   4.231   0.070  12.013 -0.6888 -0.5972  0.0338
  731MPD2    C210855   4.220   0.029  12.146 -0.4205 -0.3802  0.1744
  731MPD2    C310856   4.177   0.125  12.239 -0.1149  0.2676  0.0833
  731MPD2    C410857   4.113   0.238  12.185 -0.2555 -0.0568  0.6859
  731MPD2    C510858   4.090   0.254  12.049  0.5622  0.5025 -0.6177
  731MPD2     H10859   4.270   4.670  12.177 -0.9208 -0.3796  0.9550
  731MPD2    H110860   4.063   0.306  12.254  0.2970  0.5008  0.5449
  731MPD2    H210861   4.142   0.194  11.858  2.0828  2.2795  0.5242
  731MPD2    H310862   4.026   0.334  12.015 -1.8161 -1.8997 -1.8674
  731MPD2     N10863   4.190   0.094  12.378  0.0850 -0.2246  0.7915
  731MPD2    H510864   4.223   0.002  12.403  0.7493 -0.8659 -2.5208
  731MPD2    N110865   4.287   4.719  11.917 -0.4963  0.7516 -0.8535
  731MPD2    H710866   4.267   0.003  11.819 -1.5653  0.4957 -0.6699
  732TMC3    C110867   4.407   4.525  11.834 -0.6726  0.6166 -0.4640
  732TMC3    C210868   4.302   4.499  11.748  0.4776 -0.5652 -0.2316
  732TMC3    C310869   4.312   4.389  11.663 -0.0408  0.1055  0.1604
  732TMC3    C410870   4.522   4.445  11.843  1.3727 -0.4031  0.3185
  732TMC3    C510871   4.527   4.351  11.754  0.6974  0.1437 -0.3479
  732TMC3    C610872   4.432   4.329  11.655 -0.2408  0.4673  0.1393
  732TMC3     C10873   4.380   4.615  11.950 -0.5667  0.4697 -0.5002
  732TMC3     O10874   4.455   4.616  12.051 -0.5244 -0.0579  0.1113
  732TMC3     H10875   4.212   4.560  11.750  1.6672  1.2275 -0.5432
  732TMC3    H110876   4.603   4.459  11.914  1.5942 -2.6230  0.5051
  732TMC3    H210877   4.444   4.248  11.583 -0.1355  0.2364  0.4191
  732TMC3    C710878   4.655   4.291  11.737  0.3166  1.1590  0.1410
  732TMC3    C810879   4.214   4.355  11.560 -0.3395 -0.0176  0.0619
  732TMC3    O110880   4.700   4.287  11.621  0.4262  0.4355 -0.1287
  732TMC3    O210881   4.249   4.290  11.463  0.1012  0.3560 -0.2877
  733TMC3    C110882   4.715   2.657  12.906  0.2296 -1.2530 -0.5022
  733TMC3    C210883   0.101   2.594  12.914 -0.5095  0.3630  0.0871
  733TMC3    C310884   0.207   2.635  12.833  0.0222  0.0050  0.2592
  733TMC3    C410885   4.692   2.753  12.809 -0.4924 -0.5855 -0.1379
  733TMC3    C510886   0.064   2.794  12.735 -0.1113  0.3997 -0.5328
  733TMC3    C610887   0.190   2.734  12.739 -0.0480 -0.3356  0.5715
  733TMC3     C10888   4.604   2.614  12.990 -0.0183 -0.4383 -0.4560
  733TMC3     O10889   4.489   2.622  12.943 -0.7410 -0.4702 -0.3522
  733TMC3     H10890   0.124   2.505  12.973 -3.0214  1.1320  2.2623
  733TMC3    H110891   4.596   2.803  12.805 -1.3932 -2.2887  0.2506
  733TMC3    H210892   0.253   2.754  12.653  1.0166  1.7151  1.8252
  733TMC3    C710893   0.064   2.932  12.681  0.3273 -0.0187 -0.1545
  733TMC3    C810894   0.342   2.609  12.872  0.1277 -0.1751  0.4397
  733TMC3    O110895   4.683   2.979  12.661 -0.1851 -0.3308 -0.2223
  733TMC3    O210896   0.362   2.590  12.990 -0.1307  0.7361 -0.5109
  734MPD2     C10897   2.605   0.938  12.182 -0.0344  0.5207  0.0999
  734MPD2    C110898   2.528   0.836  12.128  0.2887 -0.4585 -0.2458
  734MPD2    C210899   2.520   0.805  11.996 -0.1124  0.6071 -0.7414
  734MPD2    C310900   2.602   0.874  11.907 -0.2909  0.7580 -0.0991
  734MPD2    C410901   2.684   0.977  11.944  0.3654  0.4720 -0.6493
  734MPD2    C510902   2.689   1.002  12.085 -0.0121  0.5786  0.2012
  734MPD2     H10903   2.474   0.716  11.957 -0.6783 -0.2243  1.8172
  734MPD2    H110904   2.762   1.022  11.884  0.8613 -2.2720 -2.0503
  734MPD2    H210905   2.605   0.958  12.288 -1.5966 -0.6974  0.3400
  734MPD2    H310906   2.746   1.087  12.119  0.4731  0.9396 -1.5052
  734MPD2     N10907   2.589   0.821  11.780  0.7526 -0.2125 -0.3370
  734MPD2    H510908   2.521   0.746  11.767  1.1094 -0.8291  1.3614
  734MPD2    N110909   2.448   0.766  12.222  0.5654  0.6555 -0.1188
  734MPD2    H710910   2.459   0.774  12.323  1.1599 -1.4382 -0.0223
  735TMC3    C110911   2.308   0.608  12.305 -0.1883 -0.0666 -0.4249
  735TMC3    C210912   2.208   0.523  12.261 -0.1824  0.3704  0.5531
  735TMC3    C310913   2.215   0.391  12.257 -0.5627 -0.3220  0.0896
  735TMC3    C410914   2.420   0.548  12.359  0.6798  0.4870 -0.9306
  735TMC3    C510915   2.420   0.409  12.359  1.0813 -0.4748 -0.1754
  735TMC3    C610916   2.322   0.329  12.312  0.3605 -0.1503  0.3903
  735TMC3     C10917   2.346   0.685  12.187  0.1012 -0.4127 -0.4988
  735TMC3     O10918   2.284   0.652  12.086 -0.6423  0.2644  0.6254
  735TMC3     H10919   2.124   0.582  12.229 -0.8039  0.5806  2.5725
  735TMC3    H110920   2.505   0.612  12.381  0.8099  0.2510 -0.7512
  735TMC3    H210921   2.331   0.221  12.312  2.0708 -0.0299 -2.9324
  735TMC3    C710922   2.556   0.366  12.330 -0.1992  0.1207  0.3126
  735TMC3    C810923   2.162   0.326  12.137  0.0082 -0.0949 -0.7703
  735TMC3    O110924   2.642   0.442  12.278 -0.1161  0.8010 -0.8638
  735TMC3    O210925   2.154   0.204  12.144 -0.3898 -0.0846 -0.0252
  736MPD2     C10926   2.694   0.017  12.352 -0.2903 -0.2681  0.7956
  736MPD2    C110927   2.686   0.151  12.315  0.0212  0.2315  0.3170
  736MPD2    C210928   2.782   0.185  12.216 -0.5265 -0.3518 -0.2083
  736MPD2    C310929   2.879   0.104  12.161  0.0378  1.3430 -0.9000
  736MPD2    C410930   2.887   4.710  12.217  0.2591  0.6694  0.3187
  736MPD2    C510931   2.796   4.667  12.304  0.2737 -0.2089 -0.5157
  736MPD2     H10932   2.772   0.283  12.170  0.8516 -0.7499 -1.3790
  736MPD2    H110933   2.963   4.642  12.182 -0.0604  1.8576 -2.7444
  736MPD2    H210934   2.616   4.697  12.406  0.5095 -0.4338  1.7874
  736MPD2    H310935   2.802   4.565  12.340 -1.1104  0.1469  0.7321
  736MPD2     N10936   2.970   0.135  12.054  0.0159  0.4304  0.3698
  736MPD2    H510937   3.022   0.055  12.020 -0.2028 -0.5458  2.3554
  736MPD2    N110938   2.580   0.233  12.364  0.3936 -0.1430  0.4414
  736MPD2    H710939   2.511   0.194  12.428  1.6770 -0.9267  1.3257
  737TMC3    C110940   3.074   0.248  11.877  0.0509  0.5819 -0.6519
  737TMC3    C210941   3.118   0.363  11.822  0.7951  0.5793  0.3089
  737TMC3    C310942   3.194   0.364  11.713  0.2355  0.4282 -0.1244
  737TMC3    C410943   3.101   0.128  11.821  0.2929 -0.2672  0.0156
  737TMC3    C510944   3.177   0.128  11.711 -0.0974  0.5412 -0.6721
  737TMC3    C610945   3.226   0.240  11.651  0.3929  0.5832  0.8851
  737TMC3     C10946   2.985   0.256  11.988  0.1763 -1.0661 -0.4652
  737TMC3     O10947   2.946   0.365  12.023  0.3681  0.2811  0.3431
  737TMC3     H10948   3.108   0.452  11.884  1.9678  2.7408 -2.6094
  737TMC3    H110949   3.051   0.037  11.851  2.8020 -0.6990  2.9527
  737TMC3    H210950   3.294   0.229  11.567 -0.8378 -2.3878  0.2931
  737TMC3    C710951   3.228   0.002  11.666 -0.7702  0.3295  0.7344
  737TMC3    C810952   3.235   0.489  11.657  0.1363  0.8222 -0.4700
  737TMC3    O110953   3.153   4.640  11.687 -0.0719 -0.5546  0.3366
  737TMC3    O210954   3.245   0.584  11.729  0.1279 -0.2415  0.2689
  738MPD2     C10955   3.147   3.749  15.180  0.2810 -0.0271  0.4046
  738MPD2    C110956   3.154   3.625  15.115  1.0850  0.4897 -0.5491
  738MPD2    C210957   3.272   3.596  15.044 -0.2580 -0.3071  0.2910
  738MPD2    C310958   3.380   3.673  15.067  0.4705  0.5250 -0.2574
  738MPD2    C410959   3.374   3.798  15.134 -0.7750 -0.1340  0.4432
  738MPD2    C510960   3.254   3.832  15.191 -0.3655 -0.4044  0.4430
  738MPD2     H10961   3.273   3.496  15.004  0.7853  0.3117 -1.2384
  738MPD2    H110962   3.460   3.862  15.153 -0.4615 -0.7726  1.2054
  738MPD2    H210963   3.058   3.783  15.231 -0.7266  0.9165 -1.9569
  738MPD2    H310964   3.252   3.929  15.239 -1.7040  0.6620 -1.7793
  738MPD2     N10965   3.502   3.641  15.005 -0.2634  0.8400  0.1546
  738MPD2    H510966   3.582   3.696  15.038 -0.1714 -1.2750  3.5002
  738MPD2    N110967   3.054   3.529  15.117  0.5024 -0.0894 -0.1189
  738MPD2    H710968   3.056   3.448  15.056  2.7761  0.4401 -0.7490
  739TMC3    C110969   3.647   3.589  14.835 -0.9821 -1.5961  0.2809
  739TMC3    C210970   3.641   3.609  14.701  0.1743 -0.7880  0.6289
  739TMC3    C310971   3.748   3.662  14.637 -1.0782  0.0117 -0.7290
  739TMC3    C410972   3.764   3.630  14.906  0.0685 -0.7003  0.7869
  739TMC3    C510973   3.864   3.685  14.836  0.3258 -0.1287 -0.1679
  739TMC3    C610974   3.867   3.699  14.696 -0.3454  0.3578 -0.2356
  739TMC3     C10975   3.522   3.557  14.898 -0.1124  0.7825 -0.2845
  739TMC3     O10976   3.443   3.493  14.828 -0.3966  0.0385  0.2475
  739TMC3     H10977   3.544   3.601  14.653 -0.5390  2.5159  1.5074
  739TMC3    H110978   3.761   3.619  15.014  0.9415 -2.8866  0.5969
  739TMC3    H210979   3.942   3.759  14.648 -0.9760  0.7084 -0.7831
  739TMC3    C710980   3.986   3.705  14.916  0.0329  0.9116  0.1406
  739TMC3    C810981   3.724   3.695  14.503 -0.3120 -0.1269  0.4482
  739TMC3    O110982   4.002   3.650  15.024  0.0257 -0.1290  0.2386
  739TMC3    O210983   3.611   3.681  14.452 -0.0175  0.3075  0.1071
  740TMC3    C110984   4.008   0.420  14.668  0.0301 -0.1400  0.2514
  740TMC3    C210985   3.994   0.377  14.795  0.1360 -0.2124 -0.8948
  740TMC3    C310986   4.100   0.321  14.863  0.2194  1.0147 -0.2132
  740TMC3    C410987   4.126   0.414  14.605  0.6982 -0.6339  0.4578
  740TMC3    C510988   4.231   0.361  14.671  0.2005  0.4952  0.5658
  740TMC3    C610989   4.223   0.309  14.797  0.0854 -0.2495 -0.2153
  740TMC3     C10990   3.887   0.424  14.569 -1.2348  0.2508  0.3710
  740TMC3     O10991   3.918   0.434  14.453 -0.0745 -0.2603 -0.2300
  740TMC3     H10992   3.898   0.371  14.844  0.6384  1.5579  0.2891
  740TMC3    H110993   4.138   0.460  14.507  0.4763 -0.1923  0.6413
  740TMC3    H210994   4.310   0.265  14.845 -0.9622 -2.6615 -0.5221
  740TMC3    C710995   4.343   0.312  14.581  0.3823  0.1307  1.0753
  740TMC3    C810996   4.062   0.223  14.962  0.3892  0.6415  0.4180
  740TMC3    O110997   4.417   0.219  14.621  0.0681 -0.1453  0.2943
  740TMC3    O210998   3.950   0.227  15.008  0.5499 -0.1085 -0.1783
  741TMC3    C110999   3.514   4.320  14.111  0.1694 -0.3388 -0.9114
  741TMC3    C211000   3.381   4.274  14.101  0.2276  0.3035 -0.2338
  741TMC3    C311001   3.346   4.187  14.202  0.5689 -0.2401  0.2052
  741TMC3    C411002   3.604   4.257  14.195  0.0151 -0.1846  0.2538
  741TMC3    C511003   3.564   4.168  14.293 -1.2861  0.3419 -0.1716
  741TMC3    C611004   3.431   4.132  14.304 -0.1229 -0.4183  0.7352
  741TMC3     C11005   3.552   4.448  14.055  0.3484 -0.4536  0.7261
  741TMC3     O11006   3.666   4.492  14.066 -0.6752 -0.2578  0.7838
  741TMC3     H11007   3.305   4.316  14.035  1.1945  1.5113 -0.5764
  741TMC3    H111008   3.709   4.276  14.180 -0.1345  0.5118  0.1153
  741TMC3    H211009   3.386   4.086  14.391 -1.9825  1.9172  0.9981
  741TMC3    C711010   3.653   4.156  14.410  0.3544 -0.2141  0.3753
  741TMC3    C811011   3.212   4.125  14.196  0.5187 -0.2524  0.1175
  741TMC3    O111012   3.763   4.211  14.397  0.0641 -0.4472 -0.3323
  741TMC3    O211013   3.130   4.179  14.131  0.3352 -0.1968 -0.5422
  742TMC3    C111014   3.758   3.159  15.005 -0.5713 -0.0012  0.5189
  742TMC3    C211015   3.669   3.101  14.920  0.1019 -0.7158  0.6293
  742TMC3    C311016   3.703   2.988  14.848 -0.1476 -0.5003 -0.6769
  742TMC3    C411017   3.894   3.118  15.013 -1.1065  0.5526 -0.4690
  742TMC3    C511018   3.925   3.015  14.925  0.8819 -0.2152  0.1595
  742TMC3    C611019   3.832   2.957  14.841  0.7150  0.8821 -0.0001
  742TMC3     C11020   3.704   3.261  15.086  0.9652 -0.6714 -0.3567
  742TMC3     O11021   3.779   3.356  15.100 -0.7706  0.5896  0.0635
  742TMC3     H11022   3.567   3.138  14.919  0.8359  1.3389  0.7739
  742TMC3    H111023   3.959   3.153  15.092 -1.0755  2.1089 -1.1973
  742TMC3    H211024   3.865   2.879  14.774  1.9670 -1.1957  3.0479
  742TMC3    C711025   4.009   2.916  14.990  0.6213  0.1397  1.1110
  742TMC3    C811026   3.604   2.903  14.787  0.0574 -1.6371  0.1169
  742TMC3    O111027   3.971   2.800  14.979 -0.3991 -0.0946  0.9232
  742TMC3    O211028   3.640   2.863  14.675 -0.4254 -0.4977  0.6555
  743MPD2     C11029   2.298   0.212   2.005 -0.2240 -0.5360  0.6237
  743MPD2    C111030   2.306   0.090   1.942 -0.2662  0.6529 -0.0258
  743MPD2    C211031   2.427   0.039   1.908  0.4114  0.9824 -0.0377
  743MPD2    C311032   2.545   0.101   1.936  0.0128  0.0887  0.1265
  743MPD2    C411033   2.541   0.220   2.010  0.5834 -0.4099 -0.2424
  743MPD2    C511034   2.415   0.280   2.033  0.3805 -0.0523 -0.7414
  743MPD2     H11035   2.431   4.678   1.854  0.8804  1.3618 -0.6591
  743MPD2    H111036   2.633   0.275   2.025  0.2939 -0.4114  1.5339
  743MPD2    H211037   2.207   0.268   2.022 -0.9905 -2.8405  3.9659
  743MPD2    H311038   2.404   0.372   2.090  0.8223  0.0595 -0.8413
  743MPD2     N11039   2.668   0.038   1.899  0.1161 -0.1434  0.0644
  743MPD2    H511040   2.673   4.671   1.879 -0.4263 -0.3688  1.1049
  743MPD2    N111041   2.186   0.023   1.900 -0.3288 -0.2264 -0.0462
  743MPD2    H711042   2.105   0.075   1.931  0.1987 -0.4526  1.6966
  744TMC3    C111043   2.050   4.588   1.782  0.2885 -0.8029 -0.0190
  744TMC3    C211044   1.952   4.679   1.769 -0.0587  0.1245  0.5588
  744TMC3    C311045   1.845   4.633   1.691  0.3502  0.4202  0.5519
  744TMC3    C411046   2.040   4.461   1.727  0.1250 -0.0098 -0.1768
  744TMC3    C511047   1.933   4.424   1.647 -0.0319  0.1796  0.3377
  744TMC3    C611048   1.835   4.511   1.626  0.3739  0.7041  0.1374
  744TMC3     C11049   2.178   4.627   1.841 -0.1158  0.1550 -0.2039
  744TMC3     O11050   2.270   4.551   1.822 -0.2450  0.0008  0.3089
  744TMC3     H11051   1.964   0.051   1.796  2.8842  0.3170 -1.5120
  744TMC3    H111052   2.118   4.388   1.749  1.4472  1.5086  0.1483
  744TMC3    H211053   1.754   4.489   1.556 -0.6378 -0.8329  1.8099
  744TMC3    C711054   1.950   4.315   1.546 -0.0714  0.6138 -0.0893
  744TMC3    C811055   1.735   0.000   1.679 -0.3993 -0.8514  0.4460
  744TMC3    O111056   1.893   4.328   1.433  0.0193  0.0060 -0.5410
  744TMC3    O211057   1.770   0.115   1.712  0.8729 -0.2217  0.0859
  745TMC3    C111058   3.338   2.403  13.729  0.2422  0.8172 -0.8718
  745TMC3    C211059   3.247   2.348  13.815  0.1821 -0.4651  0.2281
  745TMC3    C311060   3.120   2.395  13.800  0.4310  0.0950  0.0524
  745TMC3    C411061   3.302   2.467  13.610  0.2166  0.2165 -0.4660
  745TMC3    C511062   3.170   2.495  13.587 -0.6050  0.5316 -0.0368
  745TMC3    C611063   3.080   2.468  13.686 -0.5336  0.1286 -0.5540
  745TMC3     C11064   3.452   2.455  13.793 -0.2989  0.2390 -1.2274
  745TMC3     O11065   3.491   2.391  13.888  0.0124  0.2975  0.3529
  745TMC3     H11066   3.282   2.288  13.898  1.3788 -0.1439 -0.0412
  745TMC3    H111067   3.389   2.492  13.550 -0.8455  1.4513 -1.5036
  745TMC3    H211068   2.981   2.512  13.690 -1.8249 -2.8354  0.7372
  745TMC3    C711069   3.135   2.602  13.493  0.8356  0.3713 -0.3116
  745TMC3    C811070   3.074   2.458  13.922 -0.1717 -0.0977 -0.2495
  745TMC3    O111071   3.029   2.654  13.511  0.3163  0.2641 -0.4220
  745TMC3    O211072   2.957   2.498  13.933 -0.8389 -0.0666 -0.5026
  746TMC3    C111073   1.988   4.487  10.010  0.6386  0.4629  0.4493
  746TMC3    C211074   1.952   4.548   9.892  0.0153 -0.5043  0.4303
  746TMC3    C311075   1.838   4.499   9.833  0.4323 -0.1897 -0.1417
  746TMC3    C411076   1.919   4.380  10.061  0.2862  0.4506  0.2328
  746TMC3    C511077   1.807   4.333   9.997 -0.2467  0.0778  0.4854
  746TMC3    C611078   1.772   4.388   9.879  0.1336 -0.7054  0.7652
  746TMC3     C11079   2.008   4.584  10.114  0.6974  0.1030  0.4049
  746TMC3     O11080   1.934   4.581  10.214 -0.1975  0.2062 -0.0724
  746TMC3     H11081   2.005   4.637   9.859 -1.3337  0.0617 -0.1984
  746TMC3    H111082   1.958   4.324  10.145 -2.4590 -2.9408 -0.7380
  746TMC3    H211083   1.680   4.363   9.829  0.3741  0.1539 -0.0989
  746TMC3    C711084   1.696   4.287  10.075 -0.1289 -0.2393  0.0641
  746TMC3    C811085   1.765   4.591   9.753  0.3601  0.0901  0.6201
  746TMC3    O111086   1.590   4.269  10.018  0.0361 -0.1992 -0.5122
  746TMC3    O211087   1.776   4.599   9.630  0.5537 -0.4198  0.4657
  747TMC3    C111088   4.076   0.017  11.188 -0.7263  0.8238  0.3890
  747TMC3    C211089   3.985   4.646  11.198  0.2656  0.4794 -0.0333
  747TMC3    C311090   3.966   4.599  11.319 -0.0482  0.0972  0.2421
  747TMC3    C411091   4.138   0.076  11.296  0.6320  0.4440 -0.1624
  747TMC3    C511092   4.107   0.025  11.422  0.5024 -0.6837 -0.4081
  747TMC3    C611093   4.021   4.653  11.430 -0.2220  0.1998  0.3702
  747TMC3     C11094   4.117   0.084  11.068  0.4777 -0.4258 -0.0172
  747TMC3     O11095   4.167   0.198  11.075  0.5020 -0.9464 -0.0337
  747TMC3     H11096   3.937   4.599  11.113  0.4302 -1.6492  1.0542
  747TMC3    H111097   4.219   0.146  11.280  1.0525  0.4676  2.0628
  747TMC3    H211098   3.996   4.615  11.529 -0.7095  0.0031  0.1710
  747TMC3    C711099   4.209   0.032  11.525 -0.3345 -0.4902  0.3342
  747TMC3    C811100   3.835   4.544  11.328  0.1225  0.6857 -0.1896
  747TMC3    O111101   4.181   0.071  11.638 -0.2325 -0.4537 -0.3732
  747TMC3    O211102   3.803   4.466  11.239 -0.0056  0.1467  0.4597
  748MPD2     C11103   1.287   1.200   2.010  0.2912  0.0849  0.3811
  748MPD2    C111104   1.283   1.161   1.883 -0.5938  0.7781  0.3331
  748MPD2    C211105   1.395   1.131   1.818  0.0931 -0.2788  0.4472
  748MPD2    C311106   1.519   1.143   1.882  0.7787 -0.0976  0.3342
  748MPD2    C411107   1.519   1.160   2.023 -0.0964 -0.1043  0.4074
  748MPD2    C511108   1.401   1.189   2.084  0.4035 -0.3030  0.0690
  748MPD2     H11109   1.382   1.106   1.713  2.5678  2.0073 -0.4147
  748MPD2    H111110   1.610   1.153   2.081  0.3710  0.5617 -0.2378
  748MPD2    H211111   1.197   1.229   2.065 -0.0396  2.5430 -1.4533
  748MPD2    H311112   1.400   1.206   2.192  0.0334  1.4830 -0.2180
  748MPD2     N11113   1.629   1.120   1.803  0.0774  0.2094  0.0603
  748MPD2    H511114   1.607   1.082   1.712  1.2127 -0.7909  0.2037
  748MPD2    N111115   1.156   1.154   1.817  0.0409  0.0637  0.5617
  748MPD2    H711116   1.075   1.190   1.865  1.2147  1.2962  1.6433
  749TMC3    C111117   1.856   1.083   1.730  0.4141  0.2778  0.2717
  749TMC3    C211118   1.983   1.053   1.771  0.1851 -0.2460  0.2621
  749TMC3    C311119   2.084   1.058   1.673 -0.1834 -0.4510 -0.3681
  749TMC3    C411120   1.820   1.115   1.602 -0.4587  0.2798 -0.7818
  749TMC3    C511121   1.922   1.115   1.507 -0.4905  0.1810 -0.6765
  749TMC3    C611122   2.053   1.089   1.544 -0.3750 -0.5545 -0.4524
  749TMC3     C11123   1.762   1.115   1.842  0.1838 -0.8431  0.1363
  749TMC3     O11124   1.817   1.130   1.951 -0.5222 -0.2674  0.1464
  749TMC3     H11125   1.999   1.019   1.873  1.0911 -1.7850 -0.3966
  749TMC3    H111126   1.719   1.131   1.567  0.7097  1.2668 -3.7352
  749TMC3    H211127   2.141   1.096   1.481 -0.1937 -0.8466 -0.2335
  749TMC3    C711128   1.883   1.142   1.368  0.3550  0.2543  0.5975
  749TMC3    C811129   2.209   1.008   1.718 -0.7567  0.2371  0.0607
  749TMC3    O111130   1.765   1.174   1.354  0.1408 -0.1026 -0.0967
  749TMC3    O211131   2.237   0.996   1.837 -0.1161  0.3126  0.7216
  750MPD2     C11132   1.452   2.071  11.707  0.0386 -0.5334  0.1154
  750MPD2    C111133   1.447   1.948  11.779  0.5423  0.7341 -0.1895
  750MPD2    C211134   1.478   1.831  11.716 -0.2640  0.1176 -0.9122
  750MPD2    C311135   1.525   1.829  11.585 -0.2423  0.9600  0.8717
  750MPD2    C411136   1.514   1.946  11.511  0.9176  0.3663  0.1562
  750MPD2    C511137   1.480   2.066  11.571 -1.0525  0.4825  0.1731
  750MPD2     H11138   1.457   1.735  11.761  0.2877  0.4002 -0.0488
  750MPD2    H111139   1.555   1.952  11.410 -1.7723 -0.6412 -1.0029
  750MPD2    H211140   1.420   2.161  11.757  0.6641  0.3054 -1.0066
  750MPD2    H311141   1.498   2.159  11.518  0.8233  0.4313  0.7220
  750MPD2     N11142   1.576   1.707  11.532 -0.1741  1.0080 -0.2678
  750MPD2    H511143   1.598   1.702  11.433  2.0185  1.2282  0.2136
  750MPD2    N111144   1.400   1.955  11.909  0.2565 -0.0212 -0.4277
  750MPD2    H711145   1.354   2.039  11.940 -0.2424 -0.9388  1.2936
  751TMC3    C111146   1.640   1.475  11.522 -0.3220 -0.8366  0.5014
  751TMC3    C211147   1.612   1.353  11.579  0.5799 -0.6258 -0.8826
  751TMC3    C311148   1.599   1.252  11.496 -0.4136  0.3575  0.0929
  751TMC3    C411149   1.630   1.489  11.385  0.0557  0.5296 -0.6057
  751TMC3    C511150   1.606   1.382  11.302 -0.1988  0.3200  0.2282
  751TMC3    C611151   1.591   1.259  11.363 -0.3599 -0.6343  0.2200
  751TMC3     C11152   1.591   1.590  11.604 -0.4234 -0.4318  0.3062
  751TMC3     O11153   1.569   1.561  11.721 -1.3771 -0.3288  0.6248
  751TMC3     H11154   1.605   1.344  11.687  3.0615 -2.9734 -0.9051
  751TMC3    H111155   1.645   1.581  11.329  0.2319  1.3578  0.7978
  751TMC3    H211156   1.587   1.176  11.294  2.4808 -0.2652 -0.3945
  751TMC3    C711157   1.573   1.391  11.162 -0.7662 -0.9462  0.2575
  751TMC3    C811158   1.575   1.118  11.541  0.6939 -0.2976  0.0445
  751TMC3    O111159   1.603   1.489  11.101 -0.0643 -0.0867  0.3129
  751TMC3    O211160   1.596   1.035  11.455  0.6168 -0.4659  0.0914
  752TMC3    C111161   0.115   0.578  17.071  0.1838  0.5432  0.5117
  752TMC3    C211162   0.118   0.441  17.058 -0.2783  0.0149 -0.1224
  752TMC3    C311163   0.151   0.375  17.172  0.5183  0.0508 -0.3989
  752TMC3    C411164   0.126   0.640  17.193  0.2309  1.2425  0.2204
  752TMC3    C511165   0.164   0.572  17.304  0.3773 -0.6876  0.0956
  752TMC3    C611166   0.169   0.438  17.293 -0.0071 -0.8002 -0.2483
  752TMC3     C11167   0.080   0.650  16.948 -0.3889  0.1678  0.5114
  752TMC3     O11168   0.095   0.588  16.842 -0.2933 -0.8572 -0.1035
  752TMC3     H11169   0.122   0.384  16.966  0.9230 -1.3592  0.7820
  752TMC3    H111170   0.146   0.746  17.180  0.8534  1.0699 -0.2077
  752TMC3    H211171   0.185   0.377  17.381 -0.9291 -1.3041 -0.4251
  752TMC3    C711172   0.175   0.636  17.433 -0.4093 -0.1819  0.2280
  752TMC3    C811173   0.163   0.230  17.170  0.4014  0.1564  0.1922
  752TMC3    O111174   0.217   0.566  17.530  0.5162  0.0061  0.2309
  752TMC3    O211175   0.224   0.180  17.263 -0.2038  0.2727 -0.7077
  753TMC3    C111176   1.868   2.483  13.395  1.0235 -0.1190 -0.8795
  753TMC3    C211177   1.917   2.447  13.517 -0.9042  0.1340  0.2417
  753TMC3    C311178   1.997   2.335  13.518  0.3078  0.4754 -0.7318
  753TMC3    C411179   1.882   2.403  13.284 -0.0032 -0.8916 -0.5743
  753TMC3    C511180   1.954   2.288  13.294  0.3011 -0.5448 -0.8935
  753TMC3    C611181   2.023   2.257  13.407  0.2473 -0.4674  0.1261
  753TMC3     C11182   1.782   2.603  13.370  0.4000 -0.7592 -0.3491
  753TMC3     O11183   1.716   2.601  13.266 -0.4139 -0.5197 -0.0906
  753TMC3     H11184   1.900   2.501  13.609 -0.8906 -0.8213  0.8055
  753TMC3    H111185   1.850   2.441  13.187 -1.1307 -0.9177 -0.2057
  753TMC3    H211186   2.072   2.160  13.413 -1.8100 -1.5294 -0.1428
  753TMC3    C711187   1.950   2.194  13.181 -0.2254  0.1718  0.3331
  753TMC3    C811188   2.069   2.301  13.634 -0.8376  0.0978 -1.1046
  753TMC3    O111189   1.881   2.224  13.082 -0.3716 -0.0823  0.4236
  753TMC3    O211190   2.107   2.186  13.641 -0.0451  0.5610 -0.4152
  754MPD2     C11191   1.294   1.500  13.095 -0.5972 -0.3585  0.1803
  754MPD2    C111192   1.297   1.364  13.118  1.0767  0.3544  0.2201
  754MPD2    C211193   1.169   1.304  13.124  0.5137  0.0534 -0.1991
  754MPD2    C311194   1.052   1.381  13.120 -0.1596 -0.3540  0.3102
  754MPD2    C411195   1.060   1.515  13.103 -0.0206 -0.4329  0.1852
  754MPD2    C511196   1.180   1.571  13.085 -0.1482  0.5832  0.5685
  754MPD2     H11197   1.162   1.196  13.119  0.1108  0.0187  1.2145
  754MPD2    H111198   0.972   1.578  13.100 -1.6918 -2.6420  2.9871
  754MPD2    H211199   1.389   1.552  13.102 -0.6953 -0.4881  2.5298
  754MPD2    H311200   1.193   1.678  13.070 -2.0475  0.3487 -2.6334
  754MPD2     N11201   0.915   1.332  13.142 -0.0624 -0.6446  0.6346
  754MPD2    H511202   0.840   1.398  13.129 -1.4138 -2.1674  0.6969
  754MPD2    N111203   1.423   1.300  13.123 -0.0607  0.3457  0.5183
  754MPD2    H711204   1.497   1.353  13.080 -0.3932 -0.2420 -0.8012
  755MPD2     C11205   0.164   1.750  13.060 -0.1092  0.3464  0.4627
  755MPD2    C111206   0.133   1.669  13.167  0.0226 -0.0055 -0.8264
  755MPD2    C211207   0.221   1.571  13.212 -0.0119 -0.0785  0.0922
  755MPD2    C311208   0.342   1.554  13.140 -0.0861  0.1091  0.8126
  755MPD2    C411209   0.370   1.634  13.032 -0.5519  0.5957  0.8723
  755MPD2    C511210   0.275   1.724  12.983 -0.1343 -1.1258 -0.1456
  755MPD2     H11211   0.201   1.502  13.293 -1.3325  0.9880  0.6789
  755MPD2    H111212   0.463   1.635  12.977 -0.3722 -1.5571  1.1581
  755MPD2    H211213   0.093   1.822  13.021 -0.7713 -0.3592  0.3567
  755MPD2    H311214   0.301   1.784  12.897  0.0706 -1.5028 -0.3452
  755MPD2     N11215   0.440   1.463  13.170 -0.5135  0.0166 -0.1639
  755MPD2    H511216   0.531   1.481  13.129 -0.3709  1.5035  0.7741
  755MPD2    N111217   0.010   1.688  13.228 -0.2899 -0.5354  0.2988
  755MPD2    H711218   4.674   1.752  13.189  1.4170  1.1207  0.0075
  756MPD2     C11219   1.702   2.755   9.722  0.2690 -0.3701  0.2314
  756MPD2    C111220   1.608   2.735   9.823 -0.1541  0.6399 -0.6850
  756MPD2    C211221   1.500   2.654   9.798  0.4856 -0.2244 -0.1670
  756MPD2    C311222   1.484   2.599   9.676 -0.4883  0.2494  0.5608
  756MPD2    C411223   1.578   2.612   9.577  0.3605 -0.2501 -1.0825
  756MPD2    C511224   1.686   2.693   9.599 -0.5184 -0.0027 -0.1802
  756MPD2     H11225   1.422   2.642   9.873 -0.0170  1.2175 -0.4452
  756MPD2    H111226   1.571   2.565   9.480  0.2737 -2.9151  0.2259
  756MPD2    H211227   1.789   2.818   9.736  0.2535 -0.3654  0.3046
  756MPD2    H311228   1.769   2.696   9.530  0.8374 -0.1135  1.4399
  756MPD2     N11229   1.371   2.515   9.669 -0.0608 -0.0359  0.1161
  756MPD2    H511230   1.324   2.497   9.757  0.3362  0.0462  0.3453
  756MPD2    N111231   1.622   2.774   9.960 -0.3469  0.0412 -0.0498
  756MPD2    H711232   1.540   2.756  10.017  0.7583  0.1698  1.5767
  757MPD2     C11233   0.599   2.324  10.196  0.2968  0.2210 -0.4344
  757MPD2    C111234   0.714   2.257  10.234  0.2961 -0.5043 -0.0467
  757MPD2    C211235   0.818   2.253  10.148 -0.7363 -0.4090  0.4080
  757MPD2    C311236   0.812   2.312  10.027 -0.6602 -0.6971  0.2113
  757MPD2    C411237   0.700   2.382   9.992 -0.0961 -0.0742  0.0610
  757MPD2    C511238   0.594   2.387  10.074  0.5437 -0.0434  0.3900
  757MPD2     H11239   0.901   2.185  10.167  0.9206  1.7142  0.7271
  757MPD2    H111240   0.686   2.431   9.896 -0.1502 -0.5924 -0.1934
  757MPD2    H211241   0.505   2.314  10.249  0.7679  0.0224  0.3646
  757MPD2    H311242   0.504   2.419  10.022  1.8131  2.8762 -0.0114
  757MPD2     N11243   0.918   2.285   9.940 -0.2302  0.2218 -0.4888
  757MPD2    H511244   0.983   2.208   9.956 -2.0622 -1.2111  0.0154
  757MPD2    N111245   0.698   2.165  10.341 -0.2247 -0.2851 -0.1349
  757MPD2    H711246   0.605   2.165  10.383  0.0365 -0.0321  0.4588
  758MPD2     C11247   1.055   0.551  15.822  0.2833  0.5028  0.5244
  758MPD2    C111248   1.090   0.634  15.924  0.7736  0.3777 -0.5430
  758MPD2    C211249   1.016   0.638  16.042 -0.2366  0.1409 -0.3320
  758MPD2    C311250   0.901   0.563  16.061  0.0183  0.6790 -0.6365
  758MPD2    C411251   0.863   0.492  15.951  0.2865 -0.2403 -0.4071
  758MPD2    C511252   0.937   0.487  15.833  0.5683  0.4799 -0.1576
  758MPD2     H11253   1.040   0.706  16.123  0.7265 -0.6486  0.0477
  758MPD2    H111254   0.770   0.436  15.952 -0.6503  1.3860  2.6564
  758MPD2    H211255   1.117   0.541  15.733 -1.8569 -0.4522 -0.8789
  758MPD2    H311256   0.907   0.427  15.747 -0.4020 -0.7477  1.0376
  758MPD2     N11257   0.825   0.547  16.187  0.0857 -0.0129  0.6190
  758MPD2    H511258   0.733   0.505  16.180 -0.2897  0.8617  0.2369
  758MPD2    N111259   1.205   0.706  15.900  0.3285 -0.1685 -0.1338
  758MPD2    H711260   1.261   0.691  15.817 -0.3344 -0.9947 -0.4335
  759MPD2     C11261   0.305   0.019  10.457  0.1403 -0.4021  0.0573
  759MPD2    C111262   0.310   4.656  10.351  0.3731  0.1922 -0.3641
  759MPD2    C211263   0.340   4.702  10.223 -0.4811  1.2711  0.7757
  759MPD2    C311264   0.338   0.103  10.186 -0.4831  0.3409 -0.0315
  759MPD2    C411265   0.330   0.190  10.291 -0.0062  0.2241  0.4821
  759MPD2    C511266   0.309   0.149  10.420 -0.0450  0.0162  0.0503
  759MPD2     H11267   0.346   4.628  10.144  0.2507  1.2621  0.8362
  759MPD2    H111268   0.335   0.297  10.275  2.4923  0.3812  2.3415
  759MPD2    H211269   0.301   0.005  10.565  1.1385  0.5230  0.2105
  759MPD2    H311270   0.314   0.225  10.497 -1.4763 -0.0126  0.1696
  759MPD2     N11271   0.346   0.142  10.049 -0.3537 -0.0223 -0.1507
  759MPD2    H511272   0.345   0.067   9.981  0.0074  0.9190 -1.1855
  759MPD2    N111273   0.300   4.519  10.379 -0.6067 -0.2351 -0.1468
  759MPD2    H711274   0.334   4.454  10.309 -1.0515 -0.2972 -0.3113
  760MPD2     C11275   4.692   1.323  11.571 -0.3752 -0.8052  0.5398
  760MPD2    C111276   0.073   1.354  11.639 -0.5634  0.0262 -0.3227
  760MPD2    C211277   0.134   1.262  11.723 -0.6363 -0.5172 -0.3391
  760MPD2    C311278   0.071   1.145  11.758 -0.5446  0.1162  0.4658
  760MPD2    C411279   4.685   1.115  11.691 -0.0497 -0.4884 -0.0875
  760MPD2    C511280   4.631   1.207  11.603  0.3800  0.3929  0.2042
  760MPD2     H11281   0.233   1.295  11.749  0.1279 -1.6532 -1.7871
  760MPD2    H111282   4.624   1.026  11.705 -2.6724  1.3889  0.2718
  760MPD2    H211283   4.630   1.387  11.509  1.0866  1.3089  1.2467
  760MPD2    H311284   4.545   1.176  11.543  0.0750  0.2505  0.7131
  760MPD2     N11285   0.125   1.047  11.839  0.0848 -0.2873 -0.0199
  760MPD2    H511286   0.071   0.963  11.859 -1.4259  0.8950  0.8353
  760MPD2    N111287   0.139   1.472  11.635 -0.5816 -0.1289  0.4628
  760MPD2    H711288   0.220   1.483  11.695 -0.5716  1.3466  0.1813
  761MPD2     C11289   1.295   0.777  11.815 -0.8594 -0.6879  0.1481
  761MPD2    C111290   1.324   0.784  11.679  0.2453 -0.1901 -0.3754
  761MPD2    C211291   1.392   0.898  11.633  0.0963  0.1480 -0.5977
  761MPD2    C311292   1.442   0.998  11.715  0.2325 -0.2502 -0.3862
  761MPD2    C411293   1.409   0.992  11.851  0.1115  0.0312  0.8727
  761MPD2    C511294   1.328   0.885  11.895  0.1018  0.1501  0.8171
  761MPD2     H11295   1.409   0.912  11.527 -1.0675  3.0740 -0.4047
  761MPD2    H111296   1.440   1.076  11.913  0.1364  0.7949 -0.1688
  761MPD2    H211297   1.237   0.696  11.858 -1.4583  0.4732  1.5338
  761MPD2    H311298   1.302   0.878  12.000 -0.0863  0.7262  0.8079
  761MPD2     N11299   1.515   1.102  11.666  0.0445 -0.0718  0.0723
  761MPD2    H511300   1.504   1.181  11.728  1.3588 -1.4167  2.0096
  761MPD2    N111301   1.260   0.695  11.588 -0.0954  0.6268 -0.5584
  761MPD2    H711302   1.195   0.632  11.633 -1.2326  3.1221  1.3345
  762MPD2     C11303   1.113   0.108  10.886 -0.0823  0.2319  0.6937
  762MPD2    C111304   1.175   0.228  10.912 -0.2831  0.2087 -0.2144
  762MPD2    C211305   1.230   0.298  10.802  0.4887 -0.3927 -0.4281
  762MPD2    C311306   1.234   0.242  10.674 -0.0623 -0.6748 -0.8388
  762MPD2    C411307   1.182   0.113  10.655  0.1713  0.4804 -0.3147
  762MPD2    C511308   1.120   0.053  10.758  0.0532  0.0454 -0.3401
  762MPD2     H11309   1.279   0.394  10.813  1.3261 -0.7931 -0.6668
  762MPD2    H111310   1.199   0.060  10.562 -1.0713  0.1117 -0.3326
  762MPD2    H211311   1.058   0.059  10.966 -0.4953  0.5718  0.6214
  762MPD2    H311312   1.081   4.687  10.734 -1.7661  0.9342 -1.0207
  762MPD2     N11313   1.294   0.318  10.574 -0.0843 -0.1080 -0.4338
  762MPD2    H511314   1.331   0.406  10.608  0.2919 -1.0773  1.6325
  762MPD2    N111315   1.178   0.283  11.040  0.3368  0.6009 -0.3904
  762MPD2    H711316   1.134   0.233  11.116  1.2728  3.8560  2.2934
  763MPD2     C11317   3.104   0.587  16.123 -0.1148  0.2292  1.0422
  763MPD2    C111318   3.030   0.695  16.154 -1.3937  0.3181  0.0588
  763MPD2    C211319   3.075   0.783  16.249 -0.2014 -0.3892  0.0791
  763MPD2    C311320   3.196   0.757  16.311 -0.2976  0.4680 -0.6260
  763MPD2    C411321   3.270   0.654  16.277 -0.0918  0.3521  0.8243
  763MPD2    C511322   3.230   0.569  16.175  0.3884  0.0676 -0.2853
  763MPD2     H11323   3.014   0.867  16.280 -0.1799  0.0906 -1.1701
  763MPD2    H111324   3.369   0.644  16.320  1.5496  0.8574 -2.8543
  763MPD2    H211325   3.067   0.517  16.049 -2.9717  3.3244 -0.4382
  763MPD2    H311326   3.289   0.479  16.158 -0.1253 -0.7513  2.4019
  763MPD2     N11327   3.240   0.831  16.424 -0.3707 -0.1238  0.0078
  763MPD2    H511328   3.332   0.800  16.455 -0.5378 -0.1887  0.4323
  763MPD2    N111329   2.909   0.724  16.083 -0.0007  0.0103  0.6492
  763MPD2    H711330   2.876   0.819  16.096  1.1319  0.3628  0.8726
  764MPD2     C11331   0.609   1.773   0.159  0.3917  0.2232  0.1463
  764MPD2    C111332   0.617   1.913   0.174  0.3949 -0.7394  0.3185
  764MPD2    C211333   0.601   1.981   0.298 -0.0499 -0.4591 -0.2506
  764MPD2    C311334   0.564   1.903   0.407  0.2505  0.5814 -0.4503
  764MPD2    C411335   0.556   1.764   0.394 -0.1348 -0.1200  0.1038
  764MPD2    C511336   0.589   1.704   0.278  0.2029  0.1336 -1.0036
  764MPD2     H11337   0.615   2.088   0.308 -3.4843  0.0808 -1.4121
  764MPD2    H111338   0.518   1.709   0.479  0.9199  1.8344  1.8726
  764MPD2    H211339   0.629   1.721   0.066  0.3750 -0.1037  0.3239
  764MPD2    H311340   0.584   1.596   0.274 -2.6500  0.2304  0.4646
  764MPD2     N11341   0.536   1.975   0.528 -0.1682 -0.0319  0.2764
  764MPD2    H511342   0.560   2.073   0.513 -0.5941 -0.3891 -2.8959
  764MPD2    N111343   0.617   1.987   0.049  0.2264  0.5312  0.0344
  764MPD2    H711344   0.620   2.088   0.055  2.2101  0.4888 -0.3502
  765MPD2     C11345   0.426   0.111  15.944  0.6449  0.0951 -0.3930
  765MPD2    C111346   0.500   0.200  16.014 -0.2452  0.3642 -0.1551
  765MPD2    C211347   0.639   0.191  16.007  0.2989  0.9936 -0.4843
  765MPD2    C311348   0.705   0.110  15.917  0.5950 -0.8430 -0.5018
  765MPD2    C411349   0.624   0.033  15.837  0.4901 -0.4216 -0.5879
  765MPD2    C511350   0.489   0.030  15.858  0.2168  0.6379  0.4906
  765MPD2     H11351   0.694   0.256  16.074  2.4098 -1.0035 -0.2794
  765MPD2    H111352   0.657   4.685  15.773 -1.3179 -1.6799  0.0580
  765MPD2    H211353   0.320   0.099  15.967  0.6398 -0.0386 -0.4858
  765MPD2    H311354   0.436   4.682  15.809 -3.1258  1.4322  2.7681
  765MPD2     N11355   0.841   0.109  15.932 -0.5166 -0.5135 -0.3578
  765MPD2    H511356   0.885   0.164  16.005 -2.8409  1.0410 -0.1026
  765MPD2    N111357   0.426   0.292  16.096 -0.1762 -0.6197  0.0060
  765MPD2    H711358   0.328   0.267  16.099 -0.1462 -0.6871  0.4498
  766MPD2     C11359   0.056   0.493  15.530 -0.1460 -0.0018 -0.1937
  766MPD2    C111360   0.164   0.482  15.615 -0.8812 -0.0229 -0.1994
  766MPD2    C211361   0.286   0.446  15.564 -0.0296  0.1852  0.2913
  766MPD2    C311362   0.302   0.425  15.428 -0.4626 -0.6274  0.1805
  766MPD2    C411363   0.192   0.429  15.348  0.7787  0.6177 -0.6355
  766MPD2    C511364   0.064   0.470  15.394  0.6022  0.3382  0.2258
  766MPD2     H11365   0.371   0.443  15.631 -0.5282 -0.1297  0.9103
  766MPD2    H111366   0.200   0.404  15.243  2.4582 -2.0003  0.1258
  766MPD2    H211367   4.696   0.540  15.560  0.4845  0.8741  0.3973
  766MPD2    H311368   4.714   0.476  15.324  0.8968 -0.4862 -0.1889
  766MPD2     N11369   0.425   0.395  15.367  0.6611 -0.9157  0.1440
  766MPD2    H511370   0.422   0.416  15.267  0.2176 -1.0857  0.1213
  766MPD2    N111371   0.148   0.520  15.750 -0.4186 -0.3255  1.6508
  766MPD2    H711372   0.077   0.587  15.778 -1.3982 -0.5480 -0.3049
  767MPD2     C11373   4.703   0.746  15.169 -0.6266  0.2108  0.4660
  767MPD2    C111374   0.104   0.721  15.167 -0.2632  0.3952  0.3662
  767MPD2    C211375   0.157   0.644  15.066  0.2488 -0.4814 -0.1607
  767MPD2    C311376   0.078   0.590  14.964  0.1322 -1.2121  0.1877
  767MPD2    C411377   4.675   0.620  14.969 -0.0256  0.2705  0.4246
  767MPD2    C511378   4.615   0.690  15.073 -0.1216  0.5584 -0.4225
  767MPD2     H11379   0.264   0.627  15.055 -0.0343 -1.9265 -0.7677
  767MPD2    H111380   4.610   0.605  14.884  1.2410 -0.8020 -0.3561
  767MPD2    H211381   4.656   0.800  15.251 -1.0997 -1.5276  1.3384
  767MPD2    H311382   4.510   0.715  15.071  0.0578  1.4500  1.6127
  767MPD2     N11383   0.138   0.522  14.857 -0.5711 -0.4462  0.1692
  767MPD2    H511384   0.238   0.504  14.853 -0.5154  0.8735 -4.3472
  767MPD2    N111385   0.190   0.774  15.271  0.2094 -0.3049 -0.3700
  767MPD2    H711386   0.150   0.825  15.349  1.5182 -3.9987  2.7297
  768MPD2     C11387   1.035   3.817  11.127 -0.3169 -0.3091  0.3565
  768MPD2    C111388   1.131   3.853  11.039 -0.5458  0.4653 -0.1503
  768MPD2    C211389   1.257   3.806  11.059 -0.0753 -0.8908  0.4420
  768MPD2    C311390   1.293   3.732  11.173  0.0026 -0.7135  0.7268
  768MPD2    C411391   1.197   3.681  11.252  0.0875  0.1283 -0.7512
  768MPD2    C511392   1.072   3.734  11.230  0.6111  0.3527  0.2528
  768MPD2     H11393   1.338   3.835  10.993 -1.4395  0.1920 -0.7609
  768MPD2    H111394   1.222   3.612  11.332  0.6381  0.6644 -0.4563
  768MPD2    H211395   0.933   3.854  11.123 -0.2625 -0.2445 -0.5047
  768MPD2    H311396   0.993   3.700  11.296 -0.8974  0.1095 -1.6917
  768MPD2     N11397   1.432   3.703  11.196 -0.3533  0.1620  0.3316
  768MPD2    H511398   1.453   3.658  11.284 -1.0870  1.2104  1.0529
  768MPD2    N111399   1.106   3.937  10.925  0.1255  0.0933  0.2065
  768MPD2    H711400   1.183   3.961  10.863  0.8620  0.4715  1.2666
  769MPD2     C11401   1.928   2.427  14.701  0.1189 -0.1293 -0.0233
  769MPD2    C111402   1.844   2.366  14.797 -0.2525 -0.0786 -0.9045
  769MPD2    C211403   1.902   2.290  14.899 -0.0724  0.0839  0.2295
  769MPD2    C311404   2.033   2.285  14.917  0.3209  0.0805 -0.6957
  769MPD2    C411405   2.113   2.341  14.819  0.7909 -0.5538  0.1858
  769MPD2    C511406   2.067   2.406  14.712  0.2820 -0.1627 -0.3467
  769MPD2     H11407   1.834   2.238  14.967 -0.0290 -0.5407 -0.2013
  769MPD2    H111408   2.221   2.335  14.829  1.1348  2.5585 -1.5140
  769MPD2    H211409   1.896   2.482  14.614  0.0225  0.3183  0.2973
  769MPD2    H311410   2.140   2.455  14.649  0.5115  0.7375  0.6303
  769MPD2     N11411   2.084   2.217  15.028  0.0437  0.0511 -0.0282
  769MPD2    H511412   2.012   2.165  15.078 -0.2739  0.7394  0.2243
  769MPD2    N111413   1.705   2.377  14.774 -0.0484 -0.0823  0.0698
  769MPD2    H711414   1.681   2.402  14.679  0.2036  1.9610  0.5294
  770MPD2     C11415   1.248   1.622  15.243  0.4228 -0.2492 -0.2573
  770MPD2    C111416   1.331   1.599  15.135  0.0248 -0.5764  0.1929
  770MPD2    C211417   1.355   1.689  15.033  0.1379  0.9172 -0.3764
  770MPD2    C311418   1.298   1.820  15.054 -0.6517  0.0316  0.1841
  770MPD2    C411419   1.213   1.843  15.161 -0.0165 -0.2614 -0.6355
  770MPD2    C511420   1.190   1.747  15.255 -0.0748  0.3961 -0.0874
  770MPD2     H11421   1.423   1.666  14.952  0.1572  2.3375 -0.7664
  770MPD2    H111422   1.161   1.935  15.185 -0.4901 -0.6271 -0.2518
  770MPD2    H211423   1.224   1.546  15.316  0.2130  0.6016  0.5458
  770MPD2    H311424   1.129   1.769  15.341  0.3190 -2.9937  1.0291
  770MPD2     N11425   1.325   1.927  14.965 -0.4270  0.1973  0.4464
  770MPD2    H511426   1.373   1.902  14.879  0.2085 -0.7970  1.1036
  770MPD2    N111427   1.390   1.472  15.133  0.1080 -0.9049 -0.3046
  770MPD2    H711428   1.354   1.403  15.199 -0.9037  1.0927  1.2048
  771MPD2     C11429   2.844   4.463  13.619 -0.3471  0.1672  0.8164
  771MPD2    C111430   2.766   4.571  13.661  0.1890 -0.1355  0.4660
  771MPD2    C211431   2.630   4.556  13.673  0.1735  0.1674  0.7377
  771MPD2    C311432   2.573   4.428  13.655  1.0427  0.0218 -0.4163
  771MPD2    C411433   2.657   4.322  13.620  0.4684  0.1301 -0.6782
  771MPD2    C511434   2.789   4.343  13.600  0.1210  0.2471  0.5829
  771MPD2     H11435   2.570   4.644  13.688 -0.9444 -0.0686 -2.5274
  771MPD2    H111436   2.613   4.225  13.597  1.4253 -0.7369  1.0603
  771MPD2    H211437   2.950   4.477  13.600 -0.1420 -0.6468  1.3973
  771MPD2    H311438   2.853   4.263  13.566  1.1703  0.9710  0.8727
  771MPD2     N11439   2.432   4.420  13.676  0.2046 -0.0744  0.8683
  771MPD2    H511440   2.389   4.508  13.699 -0.2693 -0.2308  0.5925
  771MPD2    N111441   2.808   4.707  13.677  0.4003 -0.1301 -0.9829
  771MPD2    H711442   2.728   0.035  13.691  0.6675  0.2441 -1.0933
  772MPD2     C11443   2.622   0.538  13.998  0.1712 -0.3217 -0.1106
  772MPD2    C111444   2.576   0.445  13.908 -0.2197 -0.1494 -0.1072
  772MPD2    C211445   2.451   0.393  13.926  0.7509  0.6655 -0.2858
  772MPD2    C311446   2.383   0.420  14.039 -0.1389  0.3803  0.0926
  772MPD2    C411447   2.432   0.503  14.136  0.6050  0.9749 -0.6617
  772MPD2    C511448   2.550   0.569  14.107 -0.1456 -0.0684  0.5808
  772MPD2     H11449   2.420   0.310  13.864  0.0618  1.4279 -0.9596
  772MPD2    H111450   2.368   0.536  14.217 -0.5250 -0.8534 -0.7887
  772MPD2    H211451   2.715   0.591  13.983  0.7040 -0.9619  0.9079
  772MPD2    H311452   2.586   0.647  14.174  0.0986  0.9419 -0.7259
  772MPD2     N11453   2.251   0.373  14.059 -0.1060 -0.4578 -1.0561
  772MPD2    H511454   2.216   0.383  14.154  2.3169 -0.6797 -0.1338
  772MPD2    N111455   2.646   0.402  13.799 -0.4556 -0.1998 -0.3122
  772MPD2    H711456   2.602   0.320  13.758 -3.1871  2.3256 -2.3916
  773MPD2     C11457   1.709   0.690  17.473 -0.3038  0.7586  0.0034
  773MPD2    C111458   1.663   0.593  17.563  0.3854  0.7673 -0.0148
  773MPD2    C211459   1.757   0.518  17.631  0.5771  0.0360 -0.0699
  773MPD2    C311460   1.890   0.534  17.608  0.5022  0.4068 -0.6236
  773MPD2    C411461   1.936   0.644  17.533 -0.0834 -0.3663 -0.3944
  773MPD2    C511462   1.844   0.718  17.463 -0.0116 -0.1252  0.2334
  773MPD2     H11463   1.715   0.434  17.685  1.7205 -0.7523 -0.4045
  773MPD2    H111464   2.039   0.676  17.528 -0.0533 -0.1571  1.5617
  773MPD2    H211465   1.635   0.748  17.420 -1.9400 -1.2971  0.0343
  773MPD2    H311466   1.893   0.793  17.402  0.2005 -0.4383  0.0197
  773MPD2     N11467   1.972   0.429  17.652 -0.3824  0.5913  0.1261
  773MPD2    H511468   1.930   0.340  17.679  0.5848  0.1199  0.1049
  773MPD2    N111469   1.527   0.577  17.597 -0.2256 -0.5877  0.0037
  773MPD2    H711470   1.513   0.516  17.677  0.9222 -0.4252  0.3220
  774MPD2     C11471   1.123   0.284  13.442 -0.4011  0.0255  0.2782
  774MPD2    C111472   1.065   0.368  13.537 -0.6724 -0.3102 -0.0329
  774MPD2    C211473   1.089   0.503  13.528  0.2668 -0.1017  0.8991
  774MPD2    C311474   1.158   0.554  13.419 -0.2089  0.4531 -0.3910
  774MPD2    C411475   1.213   0.466  13.324 -0.0930 -0.2090  0.1257
  774MPD2    C511476   1.188   0.339  13.338  0.3412  0.0107  0.0948
  774MPD2     H11477   1.058   0.569  13.609 -0.7988  2.0345 -1.2446
  774MPD2    H111478   1.278   0.494  13.242  0.1380  3.4587  1.5282
  774MPD2    H211479   1.120   0.176  13.451  0.2359 -0.1618 -1.6343
  774MPD2    H311480   1.236   0.271  13.268 -0.7982 -0.2678 -0.4108
  774MPD2     N11481   1.191   0.696  13.420 -0.5669  0.2847 -0.0666
  774MPD2    H511482   1.142   0.750  13.491 -1.5194  0.5302 -0.9293
  774MPD2    N111483   1.000   0.322  13.656 -0.1611  0.3457 -0.2953
  774MPD2    H711484   0.980   0.386  13.732 -1.7152 -1.1325  0.5243
  775MPD2     C11485   2.106   1.713  15.385 -0.4380  0.5172  0.2973
  775MPD2    C111486   2.154   1.778  15.488 -0.3961 -0.2663 -0.0915
  775MPD2    C211487   2.262   1.865  15.475 -0.2428  0.3117 -0.1207
  775MPD2    C311488   2.328   1.883  15.354 -0.0288 -0.1793  0.8747
  775MPD2    C411489   2.278   1.808  15.255  0.4540 -0.2086  0.4544
  775MPD2    C511490   2.171   1.727  15.263 -0.1425 -0.0321 -0.0140
  775MPD2     H11491   2.299   1.919  15.562 -0.7853  0.8060 -0.1954
  775MPD2    H111492   2.323   1.807  15.156 -0.9615  0.5418 -0.2081
  775MPD2    H211493   2.031   1.635  15.398  1.1560 -1.4205 -1.9452
  775MPD2    H311494   2.151   1.654  15.185  3.4475 -0.1490 -0.8292
  775MPD2     N11495   2.431   1.982  15.330 -0.1706 -0.2375  0.0274
  775MPD2    H511496   2.472   1.997  15.238  0.8777 -1.5884  0.2827
  775MPD2    N111497   2.070   1.779  15.601 -0.5632  0.7716  0.2011
  775MPD2    H711498   1.994   1.712  15.604  3.5487 -3.9682 -0.6762
  776MPD2     C11499   0.686   1.985  11.863 -0.0847 -0.2422  0.1956
  776MPD2    C111500   0.773   2.072  11.929  0.1838 -0.0099 -0.5379
  776MPD2    C211501   0.768   2.210  11.900  0.1323 -0.1795 -0.1232
  776MPD2    C311502   0.670   2.255  11.808 -0.3378  0.1408  0.5588
  776MPD2    C411503   0.577   2.168  11.747  0.0483  0.7551  0.1512
  776MPD2    C511504   0.592   2.036  11.773  0.1572  0.1471 -0.0126
  776MPD2     H11505   0.837   2.283  11.942  1.3910 -0.9519 -0.8181
  776MPD2    H111506   0.505   2.200  11.672  3.2974  4.0182 -1.5501
  776MPD2    H211507   0.694   1.878  11.882 -0.9683 -0.2167  0.7016
  776MPD2    H311508   0.530   1.966  11.720  1.4726 -1.7981  1.0050
  776MPD2     N11509   0.664   2.391  11.763  0.1777 -0.0585  0.3072
  776MPD2    H511510   0.585   2.420  11.705  0.7642  1.8423  0.4514
  776MPD2    N111511   0.878   2.011  12.005 -0.9374  0.0838 -0.4858
  776MPD2    H711512   0.878   1.910  11.999 -1.0111  0.1114 -0.9826
  777MPD2     C11513   2.332   0.257   0.873 -0.1831 -0.3005  0.4787
  777MPD2    C111514   2.361   0.172   0.977  0.4505 -0.0206  0.0470
  777MPD2    C211515   2.319   0.041   0.972  0.4670  0.1247 -0.3176
  777MPD2    C311516   2.259   4.729   0.858 -0.4884  0.0403  0.4704
  777MPD2    C411517   2.234   0.085   0.748 -0.4518 -0.5607  0.0139
  777MPD2    C511518   2.263   0.217   0.761 -0.8486  0.1795  1.0087
  777MPD2     H11519   2.345   4.705   1.052 -2.6078  0.2725  0.8261
  777MPD2    H111520   2.195   0.049   0.653 -0.2586 -0.0209 -0.2702
  777MPD2    H211521   2.373   0.357   0.864  0.3203 -0.4908  0.6480
  777MPD2    H311522   2.255   0.275   0.669 -0.2868  0.6025  1.2308
  777MPD2     N11523   2.228   4.589   0.852  0.9362  0.6976  0.0007
  777MPD2    H511524   2.249   4.545   0.941 -1.0961 -1.4616 -0.6048
  777MPD2    N111525   2.443   0.231   1.080  0.1726 -0.3215 -0.1106
  777MPD2    H711526   2.452   0.332   1.085 -1.1126 -0.1980 -0.4085
  778MPD2     C11527   2.709   0.176  14.732 -0.2700 -0.7138 -1.2562
  778MPD2    C111528   2.699   0.037  14.707 -0.2302  0.0696 -0.1326
  778MPD2    C211529   2.772   4.719  14.606  0.7708 -0.1725  0.2201
  778MPD2    C311530   2.873   0.058  14.538  0.4042  0.5882  0.8294
  778MPD2    C411531   2.884   0.189  14.561 -0.1879  0.7540 -0.3481
  778MPD2    C511532   2.802   0.248  14.656 -0.1456 -0.3757  0.3589
  778MPD2     H11533   2.761   4.612  14.599  0.4448 -0.0429 -1.2310
  778MPD2    H111534   2.958   0.255  14.517  0.7002 -2.1577 -3.2324
  778MPD2    H211535   2.641   0.234  14.793  2.1736  2.7164 -1.8134
  778MPD2    H311536   2.809   0.355  14.675  1.0129 -0.4621  0.3692
  778MPD2     N11537   2.961   4.711  14.459  0.0852  0.2215 -0.1558
  778MPD2    H511538   2.940   4.614  14.440 -1.8072  0.3638  1.1890
  778MPD2    N111539   2.604   4.685  14.773  0.5970 -0.0089 -0.5072
  778MPD2    H711540   2.585   4.589  14.748  0.7180 -0.0345 -0.5011
  779MPD2     C11541   2.060   3.385  13.862  0.0254  0.2764 -0.8229
  779MPD2    C111542   2.154   3.385  13.970  0.6780 -0.2382  0.2628
  779MPD2    C211543   2.225   3.499  13.992 -1.2337  0.5696  0.1548
  779MPD2    C311544   2.213   3.607  13.914 -0.1001  0.3414 -0.7270
  779MPD2    C411545   2.130   3.608  13.804  0.3255 -0.7177 -0.4734
  779MPD2    C511546   2.053   3.494  13.777 -0.2782 -0.7260  0.5590
  779MPD2     H11547   2.308   3.507  14.062  0.0549  1.5319 -1.4816
  779MPD2    H111548   2.127   3.694  13.738  0.1389 -0.6299 -0.3500
  779MPD2    H211549   1.999   3.299  13.836  0.2948 -0.2876  0.4387
  779MPD2    H311550   1.991   3.477  13.690 -0.8339  1.7587  0.4600
  779MPD2     N11551   2.298   3.717  13.953  0.4851 -0.7150 -0.2155
  779MPD2    H511552   2.348   3.708  14.041  1.9154  0.8195 -0.8735
  779MPD2    N111553   2.173   3.263  14.041  0.2881 -0.1590 -0.4840
  779MPD2    H711554   2.116   3.183  14.015  2.2245 -1.1555 -1.6569
  780MPD2     C11555   1.762   3.190   0.459 -0.8462 -0.1885  0.7526
  780MPD2    C111556   1.803   3.118   0.345 -0.5183 -0.4396 -0.3312
  780MPD2    C211557   1.922   3.140   0.276  0.3102  0.0606 -0.1114
  780MPD2    C311558   2.005   3.255   0.312 -0.3657 -0.3099  0.1949
  780MPD2    C411559   1.963   3.324   0.428  0.2807  0.3872  0.5828
  780MPD2    C511560   1.853   3.286   0.502  0.2027  0.8704 -0.8673
  780MPD2     H11561   1.946   3.095   0.180 -1.0818  0.7075 -0.7729
  780MPD2    H111562   2.022   3.397   0.483 -2.2429  3.3048 -0.5915
  780MPD2    H211563   1.681   3.156   0.523 -2.8836  1.8217 -0.7736
  780MPD2    H311564   1.846   3.326   0.602  0.3408  0.5765 -0.7404
  780MPD2     N11565   2.127   3.282   0.242  0.6368  0.3409  0.2675
  780MPD2    H511566   2.148   3.239   0.152 -1.7115  0.8382 -0.5294
  780MPD2    N111567   1.726   2.999   0.317 -0.1341  0.6123  0.1716
  780MPD2    H711568   1.651   2.976   0.382  0.5583 -0.0898  0.7251
  781MPD2     C11569   4.007   0.711  12.188 -0.4805 -0.5322 -0.3434
  781MPD2    C111570   4.071   0.620  12.261  0.0636  0.1796 -0.3651
  781MPD2    C211571   4.196   0.583  12.228 -0.0904 -0.1091  0.8610
  781MPD2    C311572   4.261   0.636  12.116  0.1235 -0.0610 -0.4197
  781MPD2    C411573   4.187   0.724  12.041 -0.3478 -0.1473  0.1254
  781MPD2    C511574   4.058   0.756  12.069  0.2004  0.4691 -0.1818
  781MPD2     H11575   4.250   0.513  12.290 -0.2950 -0.8284  0.2241
  781MPD2    H111576   4.222   0.776  11.954 -0.7627  3.0014  1.8522
  781MPD2    H211577   3.909   0.754  12.205 -0.0684 -0.4361  1.7299
  781MPD2    H311578   3.998   0.821  12.006  0.0464 -1.9523 -2.5286
  781MPD2     N11579   4.387   0.596  12.075 -0.1315  0.2983 -0.2817
  781MPD2    H511580   4.417   0.651  11.996 -1.2910  1.2379 -0.0580
  781MPD2    N111581   3.998   0.543  12.362  0.2135  0.1903  0.1155
  781MPD2    H711582   4.058   0.474  12.405  0.7465  0.9079  0.5117
  782MPD2     C11583   1.791   1.796   9.968 -0.3705  0.1374 -0.1451
  782MPD2    C111584   1.751   1.752  10.093  1.1876 -0.3947 -0.4912
  782MPD2    C211585   1.802   1.811  10.206 -0.0094  0.8046 -0.2706
  782MPD2    C311586   1.903   1.909  10.196  0.2500 -0.2210 -0.0952
  782MPD2    C411587   1.947   1.947  10.070  1.3801  0.7237 -0.4589
  782MPD2    C511588   1.887   1.893   9.961  0.9782  0.5484 -0.0875
  782MPD2     H11589   1.756   1.789  10.301 -0.1521  0.1383 -0.4969
  782MPD2    H111590   2.018   2.022  10.037  1.4283  0.7824 -0.2265
  782MPD2    H211591   1.744   1.753   9.880  0.9274  0.3350 -0.9314
  782MPD2    H311592   1.928   1.928   9.868  0.3530 -0.0655 -0.5928
  782MPD2     N11593   1.952   1.963  10.317 -0.2423 -0.7148  0.4709
  782MPD2    H511594   1.918   1.923  10.404  2.0418 -0.3917  1.5402
  782MPD2    N111595   1.663   1.642  10.088 -0.4605  0.7932 -0.5906
  782MPD2    H711596   1.652   1.583  10.006  0.6762 -0.1152 -0.0995
  783MPD2     C11597   1.362   1.139  10.979  0.6025 -0.3264  0.3159
  783MPD2    C111598   1.437   1.256  10.999  0.1703  0.0409 -0.2247
  783MPD2    C211599   1.485   1.314  10.884  0.9784 -0.3668  0.2404
  783MPD2    C311600   1.468   1.260  10.753 -0.8178 -0.1062 -0.0133
  783MPD2    C411601   1.379   1.156  10.741  0.4843  0.0989  0.2035
  783MPD2    C511602   1.323   1.103  10.853 -0.7004  0.6385 -0.5851
  783MPD2     H11603   1.555   1.396  10.881  0.8332 -0.3311 -2.1594
  783MPD2    H111604   1.364   1.109  10.644  2.6850  0.7081 -0.4287
  783MPD2    H211605   1.316   1.100  11.069  1.8088  0.2652  1.1952
  783MPD2    H311606   1.244   1.031  10.832  0.3702 -0.4431 -0.8937
  783MPD2     N11607   1.542   1.314  10.651 -0.4462 -0.3123 -0.5879
  783MPD2    H511608   1.608   1.390  10.665 -0.9990  0.0279  0.1801
  783MPD2    N111609   1.479   1.295  11.128  0.0785 -0.3961 -0.4088
  783MPD2    H711610   1.456   1.223  11.197  0.5219  1.3043  1.5271
  784MPD2     C11611   0.097   1.851   1.182 -0.0857 -0.2485 -0.0680
  784MPD2    C111612   0.042   1.937   1.273 -0.1167  0.3409  0.3984
  784MPD2    C211613   4.647   1.987   1.257  0.9666  0.7443 -0.3585
  784MPD2    C311614   4.566   1.942   1.160  0.6574 -0.1776 -0.0970
  784MPD2    C411615   4.619   1.858   1.065  1.1019  0.6994 -0.6645
  784MPD2    C511616   0.021   1.818   1.071 -0.3313 -0.0963 -0.2056
  784MPD2     H11617   4.596   2.056   1.323  0.3543 -0.9773  0.9407
  784MPD2    H111618   4.567   1.834   0.973  0.6802 -1.1264  0.0488
  784MPD2    H211619   0.203   1.828   1.174 -0.3596 -1.3790 -0.4775
  784MPD2    H311620   0.056   1.757   0.987 -0.7795 -0.9347  0.2170
  784MPD2     N11621   4.436   1.992   1.149 -0.1235 -0.9929  0.5636
  784MPD2    H511622   4.399   2.058   1.218  1.7136 -0.4917  1.0749
  784MPD2    N111623   0.106   1.982   1.392  0.3708  0.3037 -0.0598
  784MPD2    H711624   0.058   2.042   1.457  2.9938  2.5549 -0.1907
  785MPD2     C11625   0.414   4.519  11.141  0.6045  0.1245 -0.5182
  785MPD2    C111626   0.321   4.612  11.180 -0.8147  0.3127 -1.4064
  785MPD2    C211627   0.192   4.602  11.130  0.5061 -0.3957 -0.1711
  785MPD2    C311628   0.160   4.503  11.046  0.6507 -0.1794 -0.2716
  785MPD2    C411629   0.253   4.409  11.008 -0.1951  0.2241  0.3544
  785MPD2    C511630   0.380   4.417  11.053  0.8523  0.2867 -0.3678
  785MPD2     H11631   0.114   4.668  11.166 -0.4873 -1.0031 -1.2041
  785MPD2    H111632   0.223   4.334  10.935  0.3532 -0.0882  0.4491
  785MPD2    H211633   0.513   4.518  11.185  0.4931 -1.6987 -0.2982
  785MPD2    H311634   0.445   4.336  11.024 -0.6107 -2.1930  3.3117
  785MPD2     N11635   0.021   4.502  11.004 -0.1090 -0.2807 -0.7642
  785MPD2    H511636   4.699   4.569  11.057  0.6274  0.5096 -0.9954
  785MPD2    N111637   0.353   4.704  11.281  0.3436  0.9805  0.0755
  785MPD2    H711638   0.449   4.711  11.313  0.2314 -1.0777  0.9148
  786MPD2     C11639   3.164   2.675  14.713  0.5583 -0.4594 -0.3465
  786MPD2    C111640   3.290   2.637  14.664  0.6539 -1.1744 -0.0561
  786MPD2    C211641   3.385   2.723  14.706  0.4136  0.5997  0.6069
  786MPD2    C311642   3.371   2.821  14.800 -0.2848 -0.6269 -0.2086
  786MPD2    C411643   3.249   2.835  14.863 -0.0107  0.4493  0.5701
  786MPD2    C511644   3.142   2.767  14.805  0.3540 -0.2924 -0.4505
  786MPD2     H11645   3.486   2.706  14.668  1.1332  1.6023  2.1074
  786MPD2    H111646   3.234   2.916  14.933 -0.4338  0.2245  0.7407
  786MPD2    H211647   3.073   2.626  14.682  1.0403 -1.8580  0.4478
  786MPD2    H311648   3.040   2.786  14.834  0.5442 -1.3526  0.9016
  786MPD2     N11649   3.480   2.895  14.849  0.5818 -0.2167  0.1068
  786MPD2    H511650   3.474   2.935  14.942  2.1518  2.7201 -1.0556
  786MPD2    N111651   3.312   2.541  14.559  0.1540  0.1172 -0.3105
  786MPD2    H711652   3.409   2.522  14.535  0.7556 -0.0098  2.1576
  787MPD2     C11653   3.786   2.234  14.639  1.2885 -0.3939  0.3425
  787MPD2    C111654   3.718   2.137  14.568  0.4101 -0.0440  0.2348
  787MPD2    C211655   3.764   2.005  14.579 -0.2116 -0.8254  0.6915
  787MPD2    C311656   3.876   1.979  14.649 -0.0330  0.2385 -0.3609
  787MPD2    C411657   3.948   2.078  14.717 -0.3825  0.3770 -0.2664
  787MPD2    C511658   3.898   2.203  14.717  0.1192 -0.1700  0.3413
  787MPD2     H11659   3.708   1.923  14.536 -0.1135 -0.6663  0.2616
  787MPD2    H111660   4.032   2.059  14.782  1.0447 -0.1184 -2.2799
  787MPD2    H211661   3.757   2.339  14.638 -1.7013 -1.2334 -1.9229
  787MPD2    H311662   3.956   2.275  14.773 -0.9234  0.3815  0.7119
  787MPD2     N11663   3.911   1.841  14.646  0.1219 -0.5383 -0.0965
  787MPD2    H511664   3.851   1.789  14.582 -0.4520  0.5427 -0.4417
  787MPD2    N111665   3.604   2.178  14.498  0.5884  0.2511  0.0336
  787MPD2    H711666   3.597   2.279  14.502  0.7206  0.3015 -0.9495
  788MPD2     C11667   1.020   1.073   1.283  0.2998 -0.1625  0.2074
  788MPD2    C111668   0.901   1.026   1.223 -0.2471  0.3998 -0.2858
  788MPD2    C211669   0.845   1.096   1.120 -0.0349  0.1694  0.2449
  788MPD2    C311670   0.897   1.219   1.089  0.6013 -0.2184  0.5829
  788MPD2    C411671   1.012   1.269   1.144  0.5324 -0.0086 -0.1683
  788MPD2    C511672   1.074   1.191   1.239  0.4199  0.4524  0.0656
  788MPD2     H11673   0.766   1.048   1.063  0.5233 -2.1456  1.4658
  788MPD2    H111674   1.050   1.365   1.112 -3.5075  2.9398  3.8223
  788MPD2    H211675   1.081   1.017   1.353  1.0352  2.9107  2.0203
  788MPD2    H311676   1.168   1.223   1.283 -0.2642 -1.1374  2.6627
  788MPD2     N11677   0.849   1.294   0.977  0.6281 -0.4291 -0.3218
  788MPD2    H511678   0.907   1.376   0.964  0.4589 -0.3259 -0.4279
  788MPD2    N111679   0.857   0.892   1.269  0.2082  0.1536  0.0889
  788MPD2    H711680   0.762   0.868   1.244  0.7356 -2.3238  0.4294
  789MPD2     C11681   0.526   0.272  16.624 -0.2739 -0.5304 -0.2619
  789MPD2    C111682   0.447   0.256  16.508  0.6021  0.2844 -0.6269
  789MPD2    C211683   0.324   0.317  16.499  0.2475  0.5565 -0.1253
  789MPD2    C311684   0.279   0.391  16.608 -0.7293  0.3667  0.1248
  789MPD2    C411685   0.355   0.400  16.721 -0.0901 -0.1489 -0.4311
  789MPD2    C511686   0.480   0.351  16.724 -0.3852 -0.0246  0.0101
  789MPD2     H11687   0.259   0.295  16.415 -1.1979  2.3759  0.5262
  789MPD2    H111688   0.324   0.451  16.812  2.7103 -0.2464  0.5624
  789MPD2    H211689   0.623   0.227  16.636  0.5269  1.0886 -0.6699
  789MPD2    H311690   0.540   0.368  16.812 -1.1442 -0.5079  0.6245
  789MPD2     N11691   0.148   0.444  16.617 -0.2340  0.5539  0.9994
  789MPD2    H511692   0.124   0.495  16.702 -1.1676  0.6043  0.6972
  789MPD2    N111693   0.493   0.182  16.397 -0.8977 -0.8637 -0.1524
  789MPD2    H711694   0.427   0.151  16.326 -0.0852 -0.0234 -1.2887
  790MPD2     C11695   1.460   2.499  13.534  0.2167  0.1696  0.3220
  790MPD2    C111696   1.508   2.367  13.529  0.4103 -0.2834  0.3357
  790MPD2    C211697   1.468   2.287  13.422 -0.1859  0.3159 -0.3388
  790MPD2    C311698   1.374   2.334  13.329  0.6681  0.1027  0.7962
  790MPD2    C411699   1.323   2.465  13.343 -0.4740  0.4323 -0.1239
  790MPD2    C511700   1.373   2.543  13.444 -0.7898 -0.5133  0.2000
  790MPD2     H11701   1.500   2.184  13.408 -0.7383 -0.1566  1.9132
  790MPD2    H111702   1.253   2.519  13.280 -0.5093  0.1080 -0.3594
  790MPD2    H211703   1.498   2.566  13.611 -2.0860  0.4049  1.2596
  790MPD2    H311704   1.339   2.646  13.448 -0.9970 -0.5512 -0.5591
  790MPD2     N11705   1.332   2.239  13.230  0.5866  0.6340 -0.5818
  790MPD2    H511706   1.366   2.145  13.246  0.1401  0.1222 -2.5936
  790MPD2    N111707   1.596   2.333  13.631  0.5913  0.1829  0.0834
  790MPD2    H711708   1.597   2.400  13.708 -0.2099  1.6394 -1.1595
  791MPD2     C11709   0.733   2.315  12.678  0.7605 -0.1960 -0.0395
  791MPD2    C111710   0.762   2.186  12.713  1.3208  0.1097  0.0539
  791MPD2    C211711   0.666   2.089  12.701  0.0843 -0.0001  0.4501
  791MPD2    C311712   0.544   2.118  12.638 -0.1538  0.3351  0.4434
  791MPD2    C411713   0.522   2.243  12.597 -0.4108  0.4461 -0.6632
  791MPD2    C511714   0.613   2.340  12.622  0.2845  0.2351  0.1500
  791MPD2     H11715   0.682   1.988  12.736 -0.9811  0.1549  1.3979
  791MPD2    H111716   0.428   2.285  12.561  0.5927  0.6619 -2.9897
  791MPD2    H211717   0.802   2.397  12.696 -2.3926  2.6033 -0.6487
  791MPD2    H311718   0.586   2.441  12.596  1.8049  1.0699  1.8330
  791MPD2     N11719   0.448   2.019  12.626  0.1314 -0.4962 -0.0971
  791MPD2    H511720   0.485   1.926  12.643 -1.1802 -1.1419 -0.7449
  791MPD2    N111721   0.884   2.172  12.786  0.4189 -0.1030 -0.0516
  791MPD2    H711722   0.936   2.255  12.811  1.1594 -1.1886  2.0377
  792MPD2     C11723   1.852   2.655  11.576  0.6003 -0.4403 -0.1237
  792MPD2    C111724   1.820   2.719  11.461 -0.5416 -0.1788 -0.4369
  792MPD2    C211725   1.692   2.751  11.431 -0.4524 -0.0117 -0.0736
  792MPD2    C311726   1.581   2.684  11.491 -0.2764 -0.0824  0.6626
  792MPD2    C411727   1.616   2.615  11.604 -0.1502  1.0183 -0.2696
  792MPD2    C511728   1.744   2.610  11.650  0.4612  0.3290  0.3746
  792MPD2     H11729   1.678   2.823  11.351  2.1761  1.2926  0.6343
  792MPD2    H111730   1.546   2.557  11.663  0.6315  2.1545  1.7768
  792MPD2    H211731   1.955   2.634  11.604  0.8044  0.5510 -0.1118
  792MPD2    H311732   1.765   2.554  11.741 -2.2361  0.6401  1.1641
  792MPD2     N11733   1.450   2.696  11.451  0.0193 -0.9929 -0.3822
  792MPD2    H511734   1.379   2.653  11.510 -0.8733  0.5173 -0.3647
  792MPD2    N111735   1.925   2.779  11.389  0.5775  0.5372 -0.5297
  792MPD2    H711736   2.016   2.771  11.433  0.1910  1.0376  0.3577
  793MPD2     C11737   1.161   2.819  10.506 -1.2041 -0.1797 -0.5299
  793MPD2    C111738   1.271   2.767  10.567 -0.8187 -0.0154  0.3263
  793MPD2    C211739   1.274   2.740  10.699 -0.1195 -0.2548 -0.3636
  793MPD2    C311740   1.166   2.761  10.774 -0.0003  0.2069 -0.0603
  793MPD2    C411741   1.055   2.804  10.713  1.0016 -0.4799  0.4892
  793MPD2    C511742   1.047   2.832  10.577  0.4069  0.1431 -0.0035
  793MPD2     H11743   1.362   2.695  10.744  0.2395  1.4131  0.6088
  793MPD2    H111744   0.972   2.835  10.775  1.1129  2.5296 -0.8582
  793MPD2    H211745   1.156   2.848  10.401 -0.0824  0.9742 -0.2516
  793MPD2    H311746   0.958   2.866  10.525 -0.1126 -2.8775 -1.0438
  793MPD2     N11747   1.174   2.735  10.914  0.0027 -0.5836  0.0523
  793MPD2    H511748   1.268   2.709  10.942  0.1456  0.6672  0.6918
  793MPD2    N111749   1.395   2.744  10.505 -0.4269  0.2888  0.0505
  793MPD2    H711750   1.466   2.698  10.561  0.4452  1.3626 -0.1631
  794MPD2     C11751   0.834   1.043  17.652  0.5624  0.4388  0.2184
  794MPD2    C111752   0.867   0.958  17.545  0.0029 -0.5978 -0.9874
  794MPD2    C211753   0.831   0.987  17.415 -0.3712 -0.4382  0.6866
  794MPD2    C311754   0.762   1.113  17.390  0.7880  0.4139  1.0972
  794MPD2    C411755   0.747   1.198  17.504  0.0724  0.4000  0.1236
  794MPD2    C511756   0.766   1.158  17.629  0.2256  0.1789 -0.5319
  794MPD2     H11757   0.862   0.917  17.338  0.2380 -0.5513  1.0358
  794MPD2    H111758   0.722   1.303  17.495  1.3557  0.6620 -0.3893
  794MPD2    H211759   0.870   1.022   0.022 -0.0089  0.9780  0.5378
  794MPD2    H311760   0.755   1.213  17.722  1.5897 -0.2293 -0.1371
  794MPD2     N11761   0.724   1.157  17.258 -0.0374  0.0375  0.1447
  794MPD2    H511762   0.692   1.252  17.270 -0.4194  0.1282 -1.6631
  794MPD2    N111763   0.945   0.843  17.563  0.4756 -0.1122  0.0127
  794MPD2    H711764   0.960   0.784  17.482  0.1413 -0.8443  0.4767
  795MPD2     C11765   3.349   3.944  13.551 -0.6253 -0.7136 -0.3513
  795MPD2    C111766   3.282   3.816  13.557 -0.1265 -0.2298  0.3252
  795MPD2    C211767   3.358   3.706  13.598 -0.6364 -0.3257  0.1048
  795MPD2    C311768   3.491   3.716  13.628  0.2817  0.0451  0.0683
  795MPD2    C411769   3.551   3.837  13.632  0.0025 -0.1885 -0.5920
  795MPD2    C511770   3.483   3.951  13.592 -0.7404  0.6353 -0.4710
  795MPD2     H11771   3.310   3.609  13.594 -1.4537  0.0588  0.6323
  795MPD2    H111772   3.654   3.861  13.656  0.8595 -0.8103 -3.5949
  795MPD2    H211773   3.307   4.037  13.517 -0.3703 -0.6075 -0.3786
  795MPD2    H311774   3.541   4.043  13.593 -0.0708  0.2024  0.7855
  795MPD2     N11775   3.555   3.591  13.662 -0.2823 -0.0889  0.5494
  795MPD2    H511776   3.498   3.507  13.656  1.1501 -0.8486 -2.0145
  795MPD2    N111777   3.143   3.807  13.524  0.3235  0.6138  0.1040
  795MPD2    H711778   3.098   3.717  13.515  2.4113 -0.4385  0.1748
  796MPD2     C11779   3.207   4.663  15.883 -0.2074  0.1211 -0.3004
  796MPD2    C111780   3.307   4.702  15.969 -0.2665 -0.0924 -0.2171
  796MPD2    C211781   3.346   0.097  15.966 -0.1733  0.5250  0.3121
  796MPD2    C311782   3.299   0.179  15.863 -0.8139  0.2986 -0.3568
  796MPD2    C411783   3.193   0.142  15.780 -0.2515 -0.2073 -1.2454
  796MPD2    C511784   3.144   0.018  15.801  0.4570  0.4711 -0.9906
  796MPD2     H11785   3.422   0.133  16.034 -0.1343 -1.2883  1.2267
  796MPD2    H111786   3.165   0.201  15.694 -3.4746  1.1437  0.7533
  796MPD2    H211787   3.167   4.562  15.884 -1.3249  0.5711  0.1313
  796MPD2    H311788   3.059   4.714  15.745 -0.3264 -0.9610  1.1352
  796MPD2     N11789   3.353   0.307  15.862 -0.4514  0.1413  0.1010
  796MPD2    H511790   3.420   0.338  15.932  1.5565 -2.8430 -0.5168
  796MPD2    N111791   3.362   4.601  16.052  1.0002 -0.5864  0.1490
  796MPD2    H711792   3.326   4.507  16.037  0.9729 -0.6016  0.3071
  797MPD2     C11793   4.373   3.887  17.333 -0.0948 -0.1973 -0.5867
  797MPD2    C111794   4.395   3.995  17.415 -0.0478  0.3224 -0.0889
  797MPD2    C211795   4.312   4.102  17.410  0.7429  0.0675 -0.1650
  797MPD2    C311796   4.207   4.115  17.318  0.1672 -0.1551 -0.2059
  797MPD2    C411797   4.183   3.997  17.242 -0.3514 -0.3240  0.1625
  797MPD2    C511798   4.272   3.891  17.247  0.8443 -0.7998 -0.4922
  797MPD2     H11799   4.342   4.194  17.460 -0.6301  1.1802 -1.3682
  797MPD2    H111800   4.106   3.987  17.167  0.5396 -0.4816 -0.7354
  797MPD2    H211801   4.438   3.800  17.343 -0.1296 -0.1812 -0.2039
  797MPD2    H311802   4.247   3.801  17.192 -0.5228 -0.2167 -0.8125
  797MPD2     N11803   4.139   4.234  17.302 -0.4766 -0.5599  0.2423
  797MPD2    H511804   4.189   4.310  17.346  0.6246 -0.0937 -1.7885
  797MPD2    N111805   4.512   4.018  17.493  0.2242 -0.1936 -0.5949
  797MPD2    H711806   4.518   4.105  17.544  0.6075  1.1471 -2.9372
  798MPD2     C11807   4.633   4.716  17.397  0.6117 -0.1185 -0.2978
  798MPD2    C111808   4.542   4.623  17.413 -0.4152 -0.2111 -0.1706
  798MPD2    C211809   4.568   4.507  17.489  0.3717  0.0353  0.5495
  798MPD2    C311810   4.697   4.486  17.536  0.5465 -0.1551  0.3468
  798MPD2    C411811   0.054   4.590  17.531 -0.1465  0.1003 -0.1964
  798MPD2    C511812   0.022   4.701  17.453 -0.2820 -0.1183  1.1373
  798MPD2     H11813   4.492   4.433  17.508  0.0245  0.5823  1.3236
  798MPD2    H111814   0.158   4.587  17.562  0.1971 -0.5027 -1.3760
  798MPD2    H211815   4.614   0.078  17.348 -1.1578  0.7749  2.1175
  798MPD2    H311816   0.088   0.054  17.445  0.1484 -0.3587  2.0836
  798MPD2     N11817   4.727   4.361  17.580  0.0072  0.1369  0.7768
  798MPD2    H511818   4.656   4.289  17.565 -1.4929  1.7784  0.0115
  798MPD2    N111819   4.415   4.637  17.360 -0.1122 -0.5230 -0.4949
  798MPD2    H711820   4.388   4.727  17.321  0.0684 -0.7854 -1.2220
  799MPD2     C11821   3.358   1.371  14.711 -0.0843 -0.3147  0.3367
  799MPD2    C111822   3.319   1.280  14.611 -0.0443  0.6104 -0.1712
  799MPD2    C211823   3.231   1.305  14.513 -0.1005  0.0421  0.0516
  799MPD2    C311824   3.172   1.433  14.514  0.3297 -0.8055 -0.3410
  799MPD2    C411825   3.202   1.523  14.613 -0.4032 -0.0404  0.1849
  799MPD2    C511826   3.296   1.489  14.706 -0.2906  0.7184  0.1448
  799MPD2     H11827   3.205   1.229  14.440  0.5242  0.6565 -0.8256
  799MPD2    H111828   3.169   1.626  14.609  2.0253  0.6968 -1.0063
  799MPD2    H211829   3.429   1.353  14.792  2.1290  0.4354 -1.4382
  799MPD2    H311830   3.328   1.562  14.779  1.0910 -1.4299  1.6641
  799MPD2     N11831   3.073   1.475  14.418  0.6148 -0.0254  0.7805
  799MPD2    H511832   3.048   1.573  14.420  2.0147  0.3536 -1.5165
  799MPD2    N111833   3.385   1.154  14.592 -0.3410  0.0572 -0.8103
  799MPD2    H711834   3.357   1.093  14.515 -1.1893 -2.4982  1.4982
  800MPD2     C11835   3.248   2.740  14.313  0.2794 -0.1731  0.3741
  800MPD2    C111836   3.351   2.702  14.232 -0.1979 -0.4872 -0.2931
  800MPD2    C211837   3.327   2.611  14.124  0.1568 -0.1804  0.5844
  800MPD2    C311838   3.198   2.567  14.103  0.5810  0.2807  0.5369
  800MPD2    C411839   3.092   2.620  14.172 -0.2761  0.1007 -0.3185
  800MPD2    C511840   3.118   2.694  14.289  1.0301  0.1549 -0.2756
  800MPD2     H11841   3.410   2.571  14.068  0.8713  1.2633  0.6056
  800MPD2    H111842   2.991   2.587  14.151 -0.7219  2.4614 -1.9253
  800MPD2    H211843   3.258   2.806  14.398  1.3440 -4.5874  3.6769
  800MPD2    H311844   3.039   2.732  14.353 -1.0382  0.3171 -2.9082
  800MPD2     N11845   3.186   2.488  13.992  0.7875 -0.0435  0.1660
  800MPD2    H511846   3.277   2.463  13.953  1.2111 -0.9095  1.6947
  800MPD2    N111847   3.479   2.751  14.260  0.3598  0.3393 -0.5905
  800MPD2    H711848   3.482   2.836  14.315 -1.1685  0.4711 -0.7207
  801MPD2     C11849   3.899   3.340  14.037 -0.1279  0.0676  0.6189
  801MPD2    C111850   3.784   3.271  14.044 -0.6187 -0.2390 -0.2316
  801MPD2    C211851   3.666   3.339  14.038 -0.4211  0.0744  0.7490
  801MPD2    C311852   3.661   3.481  14.025  0.0162  0.2142  0.1501
  801MPD2    C411853   3.783   3.547  14.005 -0.5540 -0.4716  0.0994
  801MPD2    C511854   3.898   3.477  14.019 -0.1327  0.0210  0.0345
  801MPD2     H11855   3.571   3.287  14.033  0.5262 -1.4697 -1.2724
  801MPD2    H111856   3.790   3.656  14.005 -1.5546 -0.4103 -0.7060
  801MPD2    H211857   4.002   3.313  14.058  0.1041  0.5337  0.0903
  801MPD2    H311858   3.994   3.527  14.010 -0.4595  0.6461  0.0092
  801MPD2     N11859   3.547   3.552  14.018  0.4011 -0.6803  0.3375
  801MPD2    H511860   3.546   3.642  13.972  1.1622  1.3181  4.2518
  801MPD2    N111861   3.776   3.132  14.083  0.2833 -0.0309  1.0790
  801MPD2    H711862   3.681   3.099  14.095  0.7906 -1.3537  1.4063
  802MPD2     C11863   3.625   3.606   0.352  0.2409 -0.4118 -0.0964
  802MPD2    C111864   3.528   3.662   0.277 -0.1738 -0.5241 -0.2739
  802MPD2    C211865   3.508   3.609   0.151  0.3096 -0.2704 -0.3897
  802MPD2    C311866   3.585   3.513   0.086  0.1853  1.1628 -0.2847
  802MPD2    C411867   3.681   3.453   0.166 -1.1189  0.2924 -0.0003
  802MPD2    C511868   3.695   3.505   0.299  0.0418  0.0753 -0.2116
  802MPD2     H11869   3.427   3.652   0.094  0.0519  0.4088  0.4855
  802MPD2    H111870   3.749   3.383   0.118  0.3839  1.7100  0.0376
  802MPD2    H211871   3.648   3.626   0.456 -1.3626  0.2479  0.1348
  802MPD2    H311872   3.759   3.436   0.353  1.3449  0.4756 -1.2367
  802MPD2     N11873   3.550   3.473  17.686  0.3218  0.0915 -0.7828
  802MPD2    H511874   3.477   3.523  17.636 -1.3266 -2.8984 -1.3636
  802MPD2    N111875   3.441   3.764   0.323 -0.2667  0.4125  0.0517
  802MPD2    H711876   3.376   3.799   0.254 -1.3602 -0.3317  0.7017
  803MPD2     C11877   4.027   1.487  11.766 -0.5599  0.5634 -0.2121
  803MPD2    C111878   4.111   1.564  11.849  0.1805  0.3437 -0.8897
  803MPD2    C211879   4.074   1.601  11.979  0.2247  0.7934  0.5529
  803MPD2    C311880   3.969   1.548  12.039  0.7357 -0.2800  0.5150
  803MPD2    C411881   3.888   1.468  11.957 -0.2680  0.2472  0.3882
  803MPD2    C511882   3.911   1.452  11.829  0.0960 -0.0918  0.1931
  803MPD2     H11883   4.134   1.676  12.028  2.0748 -0.6714  0.5236
  803MPD2    H111884   3.795   1.426  11.994  0.7425 -2.4323 -0.1181
  803MPD2    H211885   4.047   1.461  11.663  1.0863  0.9551 -0.0013
  803MPD2    H311886   3.839   1.396  11.771  0.2332 -0.7041  0.6215
  803MPD2     N11887   3.931   1.568  12.171 -0.1206 -0.9351  0.2219
  803MPD2    H511888   3.848   1.524  12.210 -0.0411 -1.2230  0.0708
  803MPD2    N111889   4.219   1.630  11.792 -0.5124 -0.2166 -0.0975
  803MPD2    H711890   4.269   1.687  11.860  2.0640 -0.6914 -1.6051
  804MPD2     C11891   3.660   3.304  17.105  0.0657 -0.4400  0.2493
  804MPD2    C111892   3.700   3.233  17.218 -0.2406  0.5363 -0.1084
  804MPD2    C211893   3.809   3.274  17.294  0.1591  0.6836 -0.0620
  804MPD2    C311894   3.873   3.395  17.260  0.0555 -0.4313  0.5066
  804MPD2    C411895   3.830   3.464  17.151 -0.2699 -0.0171 -0.9127
  804MPD2    C511896   3.728   3.415  17.072 -0.3832  0.0107  0.1629
  804MPD2     H11897   3.839   3.224  17.385  0.6501  3.3023  1.2090
  804MPD2    H111898   3.874   3.558  17.119 -1.1281  0.5026 -0.5549
  804MPD2    H211899   3.573   3.270  17.051  0.3024 -2.0361  0.8707
  804MPD2    H311900   3.686   3.475  16.993  1.2145  0.8419 -0.0341
  804MPD2     N11901   3.986   3.435  17.338  0.1940 -0.5379 -0.3624
  804MPD2    H511902   3.999   3.364  17.409  1.1981  0.4270  0.4093
  804MPD2    N111903   3.650   3.104  17.252 -0.2385  0.1162 -0.3807
  804MPD2    H711904   3.682   3.048  17.330 -2.4161  1.4910  1.4967
  805MPD2     C11905   2.936   1.843  15.517  0.2589 -0.1836 -0.1735
  805MPD2    C111906   3.066   1.863  15.466 -0.0383 -0.2309 -0.5591
  805MPD2    C211907   3.170   1.850  15.558 -0.3262  0.2653  0.1221
  805MPD2    C311908   3.146   1.816  15.688  0.1857  0.0040 -0.8242
  805MPD2    C411909   3.019   1.803  15.736 -0.2120 -0.0707  0.0868
  805MPD2    C511910   2.915   1.827  15.650 -0.0224  0.5062 -1.3420
  805MPD2     H11911   3.268   1.888  15.531  0.8021 -0.1415  3.5624
  805MPD2    H111912   2.982   1.775  15.834 -0.9718  1.5164  0.2604
  805MPD2    H211913   2.851   1.845  15.450  0.5530 -0.3193 -0.5519
  805MPD2    H311914   2.816   1.823  15.695  0.6048 -0.0434 -0.0214
  805MPD2     N11915   3.255   1.812  15.785  0.5494 -0.3690 -0.1109
  805MPD2    H511916   3.347   1.829  15.746  0.0050 -0.7471 -1.5648
  805MPD2    N111917   3.092   1.896  15.337 -1.1106 -0.2809  0.1503
  805MPD2    H711918   3.192   1.892  15.318 -1.1813 -0.6035 -0.1620
  806MPD2     C11919   3.709   1.240   0.737 -0.3779  0.0490  0.3347
  806MPD2    C111920   3.796   1.345   0.731  0.3564 -0.4735 -0.2750
  806MPD2    C211921   3.838   1.395   0.607 -0.5105  0.6717  0.6921
  806MPD2    C311922   3.787   1.337   0.492 -0.7815 -0.6309  0.4126
  806MPD2    C411923   3.707   1.228   0.503  0.4552 -0.5497 -0.8952
  806MPD2    C511924   3.664   1.188   0.624 -0.2876  0.2122 -0.3137
  806MPD2     H11925   3.916   1.468   0.594  0.0138  0.4096  2.4453
  806MPD2    H111926   3.664   1.183   0.414 -2.4435  1.3864 -0.4896
  806MPD2    H211927   3.690   1.199   0.836 -2.8824 -1.2866 -0.7079
  806MPD2    H311928   3.586   1.113   0.632  1.9980 -2.1906 -0.4257
  806MPD2     N11929   3.824   1.387   0.362  0.7488 -0.1994 -0.3460
  806MPD2    H511930   3.864   1.480   0.371  1.2231 -0.5079  0.7147
  806MPD2    N111931   3.845   1.384   0.855 -0.8310 -0.5345 -0.2152
  806MPD2    H711932   3.799   1.343   0.936  1.3247 -0.2836  1.1387
  807MPD2     C11933   3.813   1.057   1.481  0.0309  0.2795 -0.6294
  807MPD2    C111934   3.927   1.067   1.404  1.0891 -0.0588 -0.2793
  807MPD2    C211935   4.022   0.961   1.411 -0.0390  0.9878 -0.0229
  807MPD2    C311936   3.985   0.840   1.470 -0.5156 -0.0501 -0.3614
  807MPD2    C411937   3.856   0.829   1.532  0.5070 -0.1521  0.3354
  807MPD2    C511938   3.771   0.944   1.538  0.0427  0.3114 -0.3480
  807MPD2     H11939   4.116   0.974   1.358  0.5034 -1.9898  0.1987
  807MPD2    H111940   3.819   0.738   1.578  0.7043 -0.6578 -0.5107
  807MPD2    H211941   3.752   1.146   1.487  0.6173  0.6634 -0.2976
  807MPD2    H311942   3.669   0.947   1.574  0.1258  2.5229 -0.3022
  807MPD2     N11943   4.076   0.737   1.476  0.0320  0.5978 -0.5194
  807MPD2    H511944   4.157   0.758   1.418 -0.3354  2.1512 -0.4631
  807MPD2    N111945   3.966   1.188   1.352  0.3091 -0.6381 -0.5290
  807MPD2    H711946   4.065   1.198   1.330  0.6644 -3.1164 -0.0550
  808MPD2     C11947   4.211   2.925  10.245  0.2265  0.7807 -0.0445
  808MPD2    C111948   4.131   2.987  10.340 -0.1286  0.3916 -0.0794
  808MPD2    C211949   4.144   3.130  10.341 -0.1709  0.1958  0.8045
  808MPD2    C311950   4.211   3.201  10.241 -0.5741  0.2970 -0.3086
  808MPD2    C411951   4.289   3.127  10.148 -0.1394  0.5394 -0.4657
  808MPD2    C511952   4.280   2.987  10.151 -0.3145 -0.4482  0.3490
  808MPD2     H11953   4.091   3.185  10.418 -0.1388  0.3638  0.7068
  808MPD2    H111954   4.341   3.184  10.071 -0.5189 -3.3714 -3.6207
  808MPD2    H211955   4.217   2.818  10.258  1.7614  1.0056  1.1527
  808MPD2    H311956   4.340   2.923  10.088  1.7177  1.0788  0.7399
  808MPD2     N11957   4.213   3.340  10.237 -0.4965  0.1818 -0.5099
  808MPD2    H511958   4.265   3.386  10.163  0.2820 -0.0631 -0.1171
  808MPD2    N111959   4.060   2.920  10.442 -0.3636 -0.4945  0.5496
  808MPD2    H711960   4.017   2.979  10.512 -0.0791  2.0494 -1.4316
  809MPD2     C11961   3.998   4.011   9.571 -0.2492  0.0193  0.3191
  809MPD2    C111962   4.038   3.883   9.587 -0.2396  0.0307 -0.0249
  809MPD2    C211963   4.060   3.838   9.716  0.0900  0.4258 -0.7469
  809MPD2    C311964   4.051   3.919   9.827  0.0731  0.4184  0.1647
  809MPD2    C411965   4.019   4.053   9.803 -0.6007  0.7310  0.6027
  809MPD2    C511966   3.998   4.099   9.676 -0.8921 -0.2221  0.0280
  809MPD2     H11967   4.084   3.732   9.722  2.4344  1.0085  0.2344
  809MPD2    H111968   4.003   4.120   9.887 -3.8583 -0.1490  0.6977
  809MPD2    H211969   3.959   4.043   9.476  2.4211  1.4755 -0.2763
  809MPD2    H311970   3.959   4.197   9.651 -1.4392 -0.0406  1.6148
  809MPD2     N11971   4.065   3.869   9.961 -0.4247 -0.2407  0.3969
  809MPD2    H511972   4.060   3.940  10.033 -0.2709 -0.7512  0.9085
  809MPD2    N111973   4.051   3.794   9.475 -0.5633 -0.2434  0.3660
  809MPD2    H711974   4.084   3.700   9.498  0.3810 -0.3202 -1.2545
  810MPD2     C11975   3.535   2.785  10.989 -0.2474  0.1909  0.1904
  810MPD2    C111976   3.522   2.795  10.849 -0.6090  0.2786 -0.4876
  810MPD2    C211977   3.551   2.918  10.797 -0.8763  1.0130  0.0805
  810MPD2    C311978   3.584   3.026  10.876 -0.1421  0.8300  0.9506
  810MPD2    C411979   3.584   3.016  11.015 -0.3609 -0.6358  0.1725
  810MPD2    C511980   3.556   2.892  11.075 -0.2694  0.8331  0.2100
  810MPD2     H11981   3.551   2.931  10.689  1.4209  0.6685  0.0432
  810MPD2    H111982   3.603   3.103  11.077 -0.5884  0.3488 -1.1462
  810MPD2    H211983   3.505   2.692  11.037 -0.7143  0.0745 -0.3360
  810MPD2    H311984   3.571   2.883  11.182 -1.0564 -0.3959  0.2092
  810MPD2     N11985   3.606   3.154  10.817  0.4010 -0.0820  0.3513
  810MPD2    H511986   3.617   3.233  10.881 -2.1837  0.1716  0.4693
  810MPD2    N111987   3.476   2.700  10.754 -0.1967  1.2032  0.4328
  810MPD2    H711988   3.452   2.725  10.659 -1.6829  0.9124  0.7452
  811MPD2     C11989   2.839   2.634  10.234 -0.1114  0.2779  0.8330
  811MPD2    C111990   2.965   2.678  10.272 -0.4930 -0.5475  0.5026
  811MPD2    C211991   3.016   2.798  10.227 -0.2462  0.0542 -0.2447
  811MPD2    C311992   2.933   2.880  10.156 -0.0629  0.3374  0.4502
  811MPD2    C411993   2.806   2.839  10.112 -0.1736  0.0840  0.3022
  811MPD2    C511994   2.764   2.717  10.151 -0.3066 -0.4453  0.2357
  811MPD2     H11995   3.119   2.828  10.239 -0.4885 -0.2661  2.8563
  811MPD2    H111996   2.739   2.909  10.062  2.5529  1.4637 -1.4049
  811MPD2    H211997   2.800   2.538  10.266 -1.0866 -0.1126 -1.5051
  811MPD2    H311998   2.666   2.688  10.114 -0.3822 -0.9985  0.8699
  811MPD2     N11999   2.988   3.009  10.121 -0.3181  0.0077  0.2188
  811MPD2    H512000   3.079   3.032  10.160  0.6216  1.0074 -2.5403
  811MPD2    N112001   3.033   2.599  10.370  0.2691  0.0211 -0.0338
  811MPD2    H712002   2.991   2.514  10.406  0.8293 -0.7470 -1.2123
  812MPD2     C12003   1.695   2.089  12.129 -0.2206  0.2660  0.4205
  812MPD2    C112004   1.765   2.172  12.219  0.0725  0.4640  0.5798
  812MPD2    C212005   1.875   2.125  12.284 -0.0414  0.4255 -0.1351
  812MPD2    C312006   1.922   1.996  12.268 -0.1932 -0.2503  0.2489
  812MPD2    C412007   1.858   1.920  12.166 -0.3520  0.1942 -0.9867
  812MPD2    C512008   1.752   1.972  12.097 -0.1205 -1.0255  0.1707
  812MPD2     H12009   1.929   2.191  12.351  1.6574 -0.0643 -1.0010
  812MPD2    H112010   1.882   1.819  12.136 -2.1394 -0.4204 -0.4041
  812MPD2    H212011   1.617   2.133  12.068 -0.3761  0.4846  0.7843
  812MPD2    H312012   1.711   1.921  12.010 -1.4988  1.5202 -0.6731
  812MPD2     N12013   2.035   1.951  12.343 -0.1662 -0.1557  0.5191
  812MPD2    H512014   2.063   2.016  12.416 -2.2157  0.1678  1.0011
  812MPD2    N112015   1.724   2.305  12.221  0.1327 -0.5174 -0.5155
  812MPD2    H712016   1.649   2.330  12.157 -0.5412 -1.9180 -0.2863
  813MPD2     C12017   0.883   3.557  13.055 -0.3755  0.0029  0.2080
  813MPD2    C112018   0.920   3.684  13.103  0.0453 -0.4376  0.5907
  813MPD2    C212019   0.833   3.744  13.193 -0.2152 -0.7419 -0.2951
  813MPD2    C312020   0.708   3.691  13.225  0.5582  0.3857  0.6475
  813MPD2    C412021   0.676   3.570  13.171 -0.1269 -0.6855 -0.4305
  813MPD2    C512022   0.765   3.499  13.091  0.5551 -0.3641 -0.0596
  813MPD2     H12023   0.855   3.836  13.247  0.0053 -1.7040  1.2676
  813MPD2    H112024   0.583   3.521  13.196 -0.2889 -0.3314 -0.3403
  813MPD2    H212025   0.953   3.502  12.993  0.9387  0.5545  1.1786
  813MPD2    H312026   0.736   3.403  13.051 -1.2086  0.2637 -0.2793
  813MPD2     N12027   0.640   3.753  13.323  0.5035 -0.7150 -0.3537
  813MPD2    H512028   0.693   3.823  13.374  0.4628  0.3364 -1.7635
  813MPD2    N112029   1.049   3.752  13.082  0.1813 -0.1381 -0.0697
  813MPD2    H712030   1.055   3.845  13.121 -1.5054 -0.3250  0.6241
  814MPD2     C12031   1.830   0.450  11.960 -0.2245  0.7261 -0.5716
  814MPD2    C112032   1.878   0.542  11.870  0.6523  0.5823 -0.0265
  814MPD2    C212033   1.931   0.661  11.917  0.1477  0.0047  0.3027
  814MPD2    C312034   1.933   0.691  12.048  0.2923 -0.1794 -1.4346
  814MPD2    C412035   1.882   0.594  12.137 -0.7232  0.0136 -0.1231
  814MPD2    C512036   1.829   0.475  12.095  0.3922  0.3022  0.6038
  814MPD2     H12037   1.969   0.728  11.841  0.4274 -0.6891 -0.1676
  814MPD2    H112038   1.881   0.615  12.243  1.3845  0.3895 -0.1717
  814MPD2    H212039   1.787   0.352  11.942 -1.3350  0.8836  1.2141
  814MPD2    H312040   1.785   0.416  12.175  1.1485  0.6886  1.3112
  814MPD2     N12041   2.001   0.807  12.096 -0.1242  0.3085 -0.0416
  814MPD2    H512042   2.005   0.818  12.197  2.4152 -0.6485 -0.0447
  814MPD2    N112043   1.872   0.528  11.725  0.1093 -0.2041  0.6122
  814MPD2    H712044   1.927   0.592  11.670  1.5231 -1.3403  0.6888
  815MPD2     C12045   2.224   4.223  12.070 -0.3669  0.5843  0.2470
  815MPD2    C112046   2.231   4.090  12.050 -0.3263  0.0934  0.0596
  815MPD2    C212047   2.120   4.015  12.064  0.9082 -0.3804 -0.2202
  815MPD2    C312048   2.000   4.068  12.104 -0.5804  0.1628 -0.5245
  815MPD2    C412049   1.996   4.201  12.113 -0.3335 -0.4023  0.3251
  815MPD2    C512050   2.105   4.281  12.101  0.2907  0.0986 -0.0845
  815MPD2     H12051   2.116   3.907  12.056  3.0073 -0.5954  1.5480
  815MPD2    H112052   1.900   4.240  12.144 -0.4155 -0.7855  0.5421
  815MPD2    H212053   2.313   4.285  12.072 -0.9257  1.4029  0.0277
  815MPD2    H312054   2.112   4.388  12.116 -2.1949  0.1540  0.7108
  815MPD2     N12055   1.897   3.975  12.147 -0.3092  0.1391  0.2402
  815MPD2    H512056   1.910   3.875  12.139  1.6121  0.5379 -1.5201
  815MPD2    N112057   2.352   4.031  12.013 -0.1212 -0.1289 -0.4444
  815MPD2    H712058   2.430   4.096  12.002 -0.2600  0.1256  0.0442
  816MPD2     C12059   3.014   3.229  17.026  0.2413 -0.0591 -0.5177
  816MPD2    C112060   2.883   3.199  17.040 -0.1639 -0.5087 -0.2906
  816MPD2    C212061   2.834   3.067  17.028  0.4735 -0.2118  0.3259
  816MPD2    C312062   2.924   2.967  17.005 -0.2246 -0.1488  0.0289
  816MPD2    C412063   3.059   2.997  17.004 -0.2800 -0.3897  0.3751
  816MPD2    C512064   3.097   3.126  17.004  0.3292 -0.2895 -0.1855
  816MPD2     H12065   2.729   3.040  17.039  0.0260  1.6986  0.7721
  816MPD2    H112066   3.140   2.931  16.977 -0.4635 -0.5736  0.2682
  816MPD2    H212067   3.054   3.327  17.051 -2.4200  0.6720  0.8483
  816MPD2    H312068   3.203   3.147  17.001  0.6534 -1.8346  1.1717
  816MPD2     N12069   2.874   2.835  17.001  0.0487 -0.2783 -0.1005
  816MPD2    H512070   2.774   2.826  17.011 -0.2354 -1.6456 -3.9234
  816MPD2    N112071   2.794   3.310  17.076  0.0203  0.3846 -0.0414
  816MPD2    H712072   2.834   3.390  17.125  0.0396 -0.8928  2.0201
  817MPD2     C12073   2.332   0.609  10.039  0.2415  0.5652  0.8394
  817MPD2    C112074   2.420   0.669   9.950 -0.1478 -0.0311 -0.6946
  817MPD2    C212075   2.377   0.775   9.871 -0.2411  0.1824 -0.2722
  817MPD2    C312076   2.250   0.824   9.882 -0.2439 -0.0424  1.0095
  817MPD2    C412077   2.162   0.765   9.972  0.4608 -0.1424 -0.7936
  817MPD2    C512078   2.212   0.667  10.053  0.2579  0.6113  0.5392
  817MPD2     H12079   2.430   0.822   9.789  3.5024 -0.8676  1.5050
  817MPD2    H112080   2.065   0.807   9.993 -0.3110 -1.8831 -0.9054
  817MPD2    H212081   2.363   0.529  10.104 -2.0165 -0.3426  0.7888
  817MPD2    H312082   2.142   0.629  10.128 -1.3240  0.8062 -0.8283
  817MPD2     N12083   2.214   0.936   9.803  0.3307 -0.0501  0.3475
  817MPD2    H512084   2.280   0.969   9.734  0.8422 -2.2013 -0.1687
  817MPD2    N112085   2.560   0.626   9.941  0.2404 -0.5003  0.3902
  817MPD2    H712086   2.618   0.691   9.890 -0.1305 -2.9534 -3.1375
  818MPD2     C12087   1.028   0.583  10.229  0.0864 -0.3209 -0.3914
  818MPD2    C112088   0.974   0.465  10.271  0.0955 -1.0351 -0.2301
  818MPD2    C212089   0.924   0.368  10.176 -0.3763 -0.0926  0.0438
  818MPD2    C312090   0.943   0.394  10.037 -0.2044  0.1385  0.3286
  818MPD2    C412091   1.003   0.510   9.995  0.0290  0.1266  0.2510
  818MPD2    C512092   1.040   0.606  10.089 -0.0210 -0.0014  0.3070
  818MPD2     H12093   0.890   0.269  10.203 -0.4400 -0.0711  0.0422
  818MPD2    H112094   1.022   0.539   9.893 -0.7149 -1.0792 -0.2245
  818MPD2    H212095   1.061   0.657  10.301 -0.7460 -1.2722  0.9892
  818MPD2    H312096   1.099   0.691  10.056 -1.1899 -0.2095 -2.2277
  818MPD2     N12097   0.904   0.298   9.941 -0.8829  0.0011 -0.1292
  818MPD2    H512098   0.915   0.328   9.844 -2.9736  0.6983 -0.1567
  818MPD2    N112099   0.953   0.422  10.403  0.2022 -0.3495  0.1198
  818MPD2    H712100   0.918   0.326  10.406 -1.0794  0.0547 -1.6908
  819MPD2     C12101   3.556   1.414  15.781 -0.4189  0.6230  0.3269
  819MPD2    C112102   3.588   1.287  15.767 -0.7721  0.0484 -0.1011
  819MPD2    C212103   3.706   1.234  15.823  0.2912 -0.3797 -0.4520
  819MPD2    C312104   3.794   1.319  15.889 -0.0430  0.6833  0.6121
  819MPD2    C412105   3.755   1.452  15.905 -0.2604  0.7954  0.2096
  819MPD2    C512106   3.642   1.493  15.850 -0.4182  0.1944 -0.2918
  819MPD2     H12107   3.738   1.130  15.821  0.0341 -0.5171  2.1707
  819MPD2    H112108   3.824   1.527  15.942  2.0251 -2.2274  2.0563
  819MPD2    H212109   3.456   1.445  15.751 -0.7972  0.2526  1.2132
  819MPD2    H312110   3.611   1.597  15.854 -1.0466  0.0990 -3.1018
  819MPD2     N12111   3.920   1.268  15.940  0.0324  0.1140  0.3346
  819MPD2    H512112   3.948   1.173  15.917 -0.4645  0.5770 -2.2284
  819MPD2    N112113   3.502   1.210  15.691  0.6551 -0.5072 -0.0110
  819MPD2    H712114   3.428   1.257  15.639 -0.3029 -0.0573  1.7667
  820MPD2     C12115   2.897   1.326  14.917  0.5279 -0.3035  0.1239
  820MPD2    C112116   3.010   1.378  14.976 -0.8246  0.0616  0.2395
  820MPD2    C212117   3.083   1.303  15.073 -0.2115  0.4130  0.0532
  820MPD2    C312118   3.036   1.179  15.122 -0.2749  0.6479 -0.4484
  820MPD2    C412119   2.924   1.128  15.056  0.0601  0.3162  0.5200
  820MPD2    C512120   2.859   1.199  14.962 -0.3276 -0.4924 -0.1909
  820MPD2     H12121   3.188   1.324  15.094 -0.1608 -0.0989  0.3337
  820MPD2    H112122   2.899   1.027  15.088 -1.7053  0.1233 -1.4934
  820MPD2    H212123   2.839   1.374  14.838  1.3295 -1.0781 -0.9319
  820MPD2    H312124   2.774   1.153  14.913 -0.9822 -1.3393  1.7451
  820MPD2     N12125   3.107   1.101  15.214 -0.1431 -0.1957 -0.2125
  820MPD2    H512126   3.069   1.010  15.235  1.4817 -0.5216  1.3002
  820MPD2    N112127   3.040   1.513  14.933  0.5900 -0.1319  0.5075
  820MPD2    H712128   2.972   1.563  14.876  1.6358  0.1419 -0.4879
  821MPD2     C12129   3.198   2.888  13.416 -0.1333 -0.3617  0.1564
  821MPD2    C112130   3.289   2.784  13.411 -0.2232 -0.2709 -0.0251
  821MPD2    C212131   3.425   2.797  13.379  0.0647  0.2858  0.0424
  821MPD2    C312132   3.483   2.924  13.370 -0.2476  0.2141  0.2533
  821MPD2    C412133   3.396   3.031  13.391 -0.0800  1.0080 -0.5752
  821MPD2    C512134   3.260   3.015  13.418 -0.4475 -0.2647  0.2086
  821MPD2     H12135   3.482   2.707  13.360 -0.8833 -0.6699  1.7536
  821MPD2    H112136   3.439   3.131  13.385  3.4883 -0.4412  0.5815
  821MPD2    H212137   3.092   2.876  13.438 -0.3132  0.6780 -0.1454
  821MPD2    H312138   3.206   3.107  13.436 -0.6794 -0.4360  0.3871
  821MPD2     N12139   3.623   2.951  13.338  0.4479 -0.1821 -0.4255
  821MPD2    H512140   3.652   3.048  13.332 -1.0549  0.4134  2.2060
  821MPD2    N112141   3.248   2.650  13.430 -0.4628  0.1152  0.1846
  821MPD2    H712142   3.318   2.578  13.416 -0.0407  0.4946  0.3163
  822MPD2     C12143   4.303   2.640  15.708 -0.3984 -0.2423 -0.0037
  822MPD2    C112144   4.313   2.647  15.852 -0.8700 -0.2686  0.3736
  822MPD2    C212145   4.231   2.741  15.920  0.1397 -0.2680  0.9105
  822MPD2    C312146   4.146   2.833  15.854  0.5381 -0.7251  1.1484
  822MPD2    C412147   4.145   2.829  15.719  0.0512 -0.3453 -0.0404
  822MPD2    C512148   4.219   2.735  15.650 -0.6356  0.0335  0.1663
  822MPD2     H12149   4.236   2.745  16.028  0.5270 -1.2386  0.9276
  822MPD2    H112150   4.080   2.886  15.654 -0.6712  0.0010  0.9771
  822MPD2    H212151   4.356   2.575  15.639  0.0745  0.9400 -0.7465
  822MPD2    H312152   4.210   2.720  15.543 -1.7264 -0.7934  0.3725
  822MPD2     N12153   4.085   2.936  15.931  1.1488 -0.4506 -0.1279
  822MPD2    H512154   4.082   2.922  16.031 -2.4229 -2.0695 -0.4647
  822MPD2    N112155   4.401   2.561  15.925 -0.0581 -0.3852  0.5944
  822MPD2    H712156   4.388   2.564  16.026  0.4656 -1.0613  0.6803
  823MPD2     C12157   3.742   3.127  16.665 -0.0429  0.4352 -0.4831
  823MPD2    C112158   3.825   3.059  16.576  0.9983  0.6525  0.4319
  823MPD2    C212159   3.893   2.947  16.614  1.0904 -0.4242  0.4162
  823MPD2    C312160   3.889   2.909  16.749 -0.0191 -0.1960  0.7505
  823MPD2    C412161   3.801   2.976  16.836 -0.3793  0.0071 -0.1176
  823MPD2    C512162   3.733   3.084  16.790  0.1369 -0.2463 -0.9720
  823MPD2     H12163   3.952   2.895  16.541 -0.8882 -0.2557 -1.3053
  823MPD2    H112164   3.792   2.951  16.941  0.7494  1.1872  0.2624
  823MPD2    H212165   3.671   3.202  16.631 -1.0776 -0.2539  0.1726
  823MPD2    H312166   3.657   3.125  16.855  0.0648 -3.4741  1.0018
  823MPD2     N12167   3.972   2.811  16.817 -0.1642 -0.4591 -0.3495
  823MPD2    H512168   3.950   2.787  16.913  0.0113  3.5035  0.6795
  823MPD2    N112169   3.837   3.121  16.448  0.1472 -0.1260  0.1352
  823MPD2    H712170   3.808   3.218  16.437  0.1461  0.0604  1.8271
  824MPD2     C12171   4.596   1.760  15.923 -1.0358 -0.0707  0.1480
  824MPD2    C112172   4.689   1.855  15.896  0.0933 -0.3930 -0.6613
  824MPD2    C212173   0.061   1.823  15.809  0.7183  0.0647  0.2559
  824MPD2    C312174   0.100   1.688  15.788 -0.3393 -0.4840  0.2115
  824MPD2    C412175   0.014   1.594  15.846 -0.7571 -0.0932  1.0251
  824MPD2    C512176   4.627   1.633  15.902 -0.7835  0.2449 -0.9014
  824MPD2     H12177   0.119   1.905  15.767  1.2887 -1.3529 -1.7351
  824MPD2    H112178   0.036   1.488  15.834 -2.5221 -0.6926  3.0579
  824MPD2    H212179   4.504   1.781  15.976 -1.0297 -0.8823  0.4883
  824MPD2    H312180   4.567   1.549  15.936  2.2659 -1.4735  0.1906
  824MPD2     N12181   0.221   1.659  15.717 -0.2660  0.0788  0.1662
  824MPD2    H512182   0.263   1.744  15.681 -0.3451  0.5127  1.1200
  824MPD2    N112183   4.663   1.987  15.931  0.3585 -0.2095 -0.0068
  824MPD2    H712184   4.715   2.059  15.883  0.5078 -0.5176 -0.3111
  825MPD2     C12185   0.866   1.882  15.231  0.0267 -0.3926  0.0222
  825MPD2    C112186   0.817   1.895  15.359 -0.2336 -0.6668 -0.8155
  825MPD2    C212187   0.807   2.026  15.410 -0.4668  0.3634  0.1510
  825MPD2    C312188   0.852   2.134  15.338  0.0420  0.1834 -0.8511
  825MPD2    C412189   0.903   2.107  15.209 -0.9663  0.1843  0.4330
  825MPD2    C512190   0.913   1.985  15.156 -0.6201 -0.0565  0.2397
  825MPD2     H12191   0.761   2.032  15.507 -0.7879 -0.2830  0.0386
  825MPD2    H112192   0.946   2.179  15.142 -1.1599 -0.1997 -0.1027
  825MPD2    H212193   0.862   1.787  15.180  1.7477  0.1159 -1.0698
  825MPD2    H312194   0.948   1.962  15.056 -2.0372  0.6210 -0.4029
  825MPD2     N12195   0.840   2.267  15.384  0.3106 -0.7468 -0.0486
  825MPD2    H512196   0.854   2.335  15.310 -0.7595 -2.1057 -1.4806
  825MPD2    N112197   0.759   1.780  15.421 -0.1445 -0.6333  0.0207
  825MPD2    H712198   0.774   1.690  15.377  0.0691 -1.7339  2.3070
  826MPD2     C12199   0.394   2.003  13.828  0.5168  0.1957  0.0855
  826MPD2    C112200   0.344   2.009  13.694 -0.1530 -0.4763  0.2396
  826MPD2    C212201   0.249   2.103  13.670  0.2360  0.0788  0.0272
  826MPD2    C312202   0.198   2.189  13.770  0.4624 -0.2372  0.4285
  826MPD2    C412203   0.238   2.172  13.899 -0.1611  0.2801 -0.1617
  826MPD2    C512204   0.340   2.080  13.918 -0.6209 -0.5641 -0.2260
  826MPD2     H12205   0.212   2.116  13.569  0.9486 -0.0021 -0.2500
  826MPD2    H112206   0.199   2.239  13.975  0.3202  1.0114 -0.5590
  826MPD2    H212207   0.470   1.933  13.862 -0.1045  0.1718  1.4133
  826MPD2    H312208   0.391   2.082  14.013 -0.8983  2.0941 -0.1302
  826MPD2     N12209   0.103   2.291  13.746  0.0630 -0.7448 -0.3630
  826MPD2    H512210   0.078   2.340  13.831 -0.7357 -1.3976 -0.2267
  826MPD2    N112211   0.415   1.934  13.592 -0.7099  0.6223 -0.1909
  826MPD2    H712212   0.503   1.892  13.621 -0.9420  0.5381  0.3831
  827MPD2     C12213   1.606   3.574  10.093  0.2285 -0.4659 -0.6803
  827MPD2    C112214   1.547   3.502  10.191  0.1466  0.6947  1.2041
  827MPD2    C212215   1.455   3.403  10.159  0.0273 -0.1171 -0.4254
  827MPD2    C312216   1.400   3.394  10.030 -0.4979  0.2954 -0.2353
  827MPD2    C412217   1.458   3.484   9.937  0.3965 -0.0866  0.3668
  827MPD2    C512218   1.560   3.567   9.969  0.2001  0.5090 -0.2636
  827MPD2     H12219   1.407   3.339  10.231 -0.5849  0.1882 -0.5570
  827MPD2    H112220   1.438   3.482   9.831  0.3656 -1.0849  0.3904
  827MPD2    H212221   1.693   3.636  10.112  0.2932 -0.5686 -0.6446
  827MPD2    H312222   1.613   3.624   9.894 -0.9468 -0.1932 -1.6123
  827MPD2     N12223   1.295   3.308   9.998  0.1864 -0.2857  0.4705
  827MPD2    H512224   1.287   3.227  10.058 -1.3902 -1.0629 -0.7693
  827MPD2    N112225   1.579   3.541  10.320 -0.3497 -0.1245 -0.0645
  827MPD2    H712226   1.625   3.631  10.332 -2.0311  0.6467  0.6527
  828MPD2     C12227   4.539   2.629  12.412 -0.7738  0.1408 -0.5152
  828MPD2    C112228   4.512   2.762  12.393 -1.1153 -0.1171  0.3651
  828MPD2    C212229   4.612   2.835  12.321  0.6400  0.3404  0.3401
  828MPD2    C312230   0.007   2.783  12.308 -0.1279 -0.9783 -0.1839
  828MPD2    C412231   0.039   2.654  12.346 -0.4949  0.1621  0.1445
  828MPD2    C512232   4.662   2.580  12.381 -0.0832  0.5199 -0.6934
  828MPD2     H12233   4.589   2.929  12.273  0.1993  0.1226  0.1293
  828MPD2    H112234   0.128   2.605  12.309  0.7503  1.4741  1.4031
  828MPD2    H212235   4.464   2.559  12.446 -0.2932  0.5797  1.4445
  828MPD2    H312236   4.679   2.472  12.383 -0.5911  0.4668  1.2126
  828MPD2     N12237   0.112   2.852  12.242  0.1558  0.0746 -0.4358
  828MPD2    H512238   0.202   2.806  12.236 -0.2779 -1.0246  1.3996
  828MPD2    N112239   4.384   2.821  12.428  0.6474 -0.8664  0.6738
  828MPD2    H712240   4.365   2.914  12.394 -1.9373 -1.4106  0.5715
  829MPD2     C12241   3.991   3.378  11.935  0.1950  0.0721  0.1518
  829MPD2    C112242   3.887   3.335  12.013  0.3218  0.1698 -0.6263
  829MPD2    C212243   3.922   3.254  12.120  0.2344 -0.1966 -0.1362
  829MPD2    C312244   4.051   3.223  12.161 -0.2976 -0.4350  0.2630
  829MPD2    C412245   4.154   3.269  12.086 -0.8383  0.1996  0.4067
  829MPD2    C512246   4.125   3.343  11.969 -0.8079  0.3236  0.1220
  829MPD2     H12247   3.844   3.205  12.177  1.8012 -1.4209  0.9364
  829MPD2    H112248   4.254   3.232  12.107 -0.5689  1.2359  0.9550
  829MPD2    H212249   3.974   3.445  11.852 -2.0624  0.3752  0.8824
  829MPD2    H312250   4.208   3.376  11.908 -0.0327  1.0056  1.5460
  829MPD2     N12251   4.088   3.138  12.268 -0.5496 -0.4445 -0.1516
  829MPD2    H512252   4.187   3.116  12.276 -0.3037  0.9802  0.6039
  829MPD2    N112253   3.755   3.360  11.969  0.4218 -0.7043 -0.2304
  829MPD2    H712254   3.753   3.399  11.875 -0.0204  0.0897  0.1095
  830MPD2     C12255   0.059   1.131  15.868 -0.0358 -0.6542  0.2820
  830MPD2    C112256   4.685   1.199  15.816 -0.0296 -0.2336 -0.2778
  830MPD2    C212257   4.686   1.237  15.682 -0.6725 -0.0427 -0.1287
  830MPD2    C312258   0.071   1.219  15.611  0.3827 -0.6154  0.1900
  830MPD2    C412259   0.178   1.161  15.668  0.5631  0.2598  0.6024
  830MPD2    C512260   0.171   1.114  15.790 -0.2245 -0.2373  0.0291
  830MPD2     H12261   4.601   1.286  15.635 -0.3635  1.1849  0.6209
  830MPD2    H112262   0.270   1.150  15.613 -0.1572 -0.5779 -0.4347
  830MPD2    H212263   0.059   1.094  15.969  0.2123  0.3380  0.6487
  830MPD2    H312264   0.260   1.075  15.837  1.5641  3.1671 -0.5580
  830MPD2     N12265   0.090   1.282  15.486 -0.1743 -0.2508 -0.3776
  830MPD2    H512266   0.184   1.296  15.452  0.5535 -1.2167  1.2420
  830MPD2    N112267   4.574   1.217  15.904  0.1973 -0.5030 -0.6668
  830MPD2    H712268   4.605   1.215  16.001 -1.0881  0.0313 -0.2424
  831MPD2     C12269   4.393   3.057  16.190 -0.3347 -0.0835  0.2892
  831MPD2    C112270   4.462   2.943  16.160 -0.3217 -0.8465  0.1209
  831MPD2    C212271   4.406   2.820  16.198  0.6073  0.1449  0.4286
  831MPD2    C312272   4.287   2.805  16.277 -0.1793  0.5015  0.1487
  831MPD2    C412273   4.231   2.921  16.320 -0.2144  0.8164 -0.2610
  831MPD2    C512274   4.285   3.044  16.278 -0.0293 -0.0138 -0.0377
  831MPD2     H12275   4.461   2.729  16.175 -0.3446 -1.0428  2.8125
  831MPD2    H112276   4.137   2.920  16.374  0.3605 -0.2938  0.7350
  831MPD2    H212277   4.434   3.152  16.159 -2.0134  0.9084  1.0945
  831MPD2    H312278   4.231   3.133  16.306 -0.6642 -1.3507  2.9447
  831MPD2     N12279   4.219   2.685  16.317 -0.7912 -0.1415 -0.4684
  831MPD2    H512280   4.149   2.693  16.391  0.3839  0.7095  0.5589
  831MPD2    N112281   4.579   2.954  16.081  0.2251 -0.7550  0.3744
  831MPD2    H712282   4.607   3.043  16.043 -1.9541 -0.7290 -1.1904
  832MPD2     C12283   3.021   3.987  17.063 -0.5056  0.1097  0.5149
  832MPD2    C112284   3.063   4.113  17.021 -0.7470  0.2361 -0.0107
  832MPD2    C212285   2.967   4.186  16.948  0.3246 -0.2228 -0.5922
  832MPD2    C312286   2.837   4.137  16.939 -0.2138  0.2141  0.7110
  832MPD2    C412287   2.801   4.013  16.985 -0.2809 -0.1030 -0.0035
  832MPD2    C512288   2.894   3.933  17.045  0.2969  0.0789 -0.2029
  832MPD2     H12289   3.003   4.270  16.890  2.1617 -0.3690  0.3292
  832MPD2    H112290   2.703   3.971  16.971 -1.0951  1.1321  2.0203
  832MPD2    H212291   3.095   3.926  17.114  1.5792  1.1837 -1.2296
  832MPD2    H312292   2.868   3.828  17.056  1.4550 -0.1401  0.4081
  832MPD2     N12293   2.737   4.210  16.873 -0.1726  0.0953 -0.2738
  832MPD2    H512294   2.645   4.174  16.897 -0.4340  0.0488 -1.3629
  832MPD2    N112295   3.205   4.154  17.042 -0.0852  0.3505  0.6234
  832MPD2    H712296   3.260   4.092  17.101 -1.2099 -1.8982 -0.6976
  833MPD2     C12297   0.094   1.120  13.143 -0.2942  0.3009  0.2763
  833MPD2    C112298   0.168   1.176  13.038  0.4963 -0.1670 -0.6816
  833MPD2    C212299   0.264   1.101  12.975  0.1856 -0.0921  0.9593
  833MPD2    C312300   0.279   0.963  13.004 -0.4982 -0.3632 -0.0980
  833MPD2    C412301   0.185   0.904  13.098  0.3167  0.0240 -0.3265
  833MPD2    C512302   0.097   0.987  13.164 -0.2992 -0.3951  0.1185
  833MPD2     H12303   0.327   1.139  12.895 -1.6402  1.4301  0.2344
  833MPD2    H112304   0.185   0.797  13.114  2.7809  0.0147 -0.3283
  833MPD2    H212305   0.024   1.191  13.185  0.9728 -0.2456  3.3214
  833MPD2    H312306   0.034   0.945  13.241 -1.8288 -0.1943 -1.0322
  833MPD2     N12307   0.365   0.882  12.933 -0.1805 -0.2484  0.7119
  833MPD2    H512308   0.350   0.782  12.940  2.1912 -0.7251 -1.0644
  833MPD2    N112309   0.134   1.309  13.004  0.5550 -0.1343 -0.2037
  833MPD2    H712310   0.107   1.372  13.079 -0.1072 -0.8770  0.1825
  834MPD2     C12311   0.198   0.246  12.231 -0.4776 -0.6883 -0.3654
  834MPD2    C112312   0.311   0.313  12.179  0.4316 -0.2386  0.3794
  834MPD2    C212313   0.395   0.382  12.261 -0.4322 -0.2412  0.2341
  834MPD2    C312314   0.359   0.408  12.392  0.0468 -0.2979  0.3135
  834MPD2    C412315   0.239   0.349  12.439  0.3536 -0.2268 -0.2500
  834MPD2    C512316   0.160   0.266  12.359 -0.5645  0.2667 -0.0155
  834MPD2     H12317   0.486   0.425  12.218  0.2616 -0.2970  1.6508
  834MPD2    H112318   0.197   0.375  12.536 -0.0654 -2.0905  0.0611
  834MPD2    H212319   0.131   0.194  12.163 -1.4558 -1.0673  0.8940
  834MPD2    H312320   0.064   0.225  12.387 -1.0790  1.8987  0.5953
  834MPD2     N12321   0.441   0.488  12.466  0.1281  0.1631  0.0817
  834MPD2    H512322   0.514   0.534  12.413 -1.1517 -1.9353 -3.4859
  834MPD2    N112323   0.337   0.290  12.047  0.3710  0.2540 -0.6148
  834MPD2    H712324   0.290   0.211  12.005  0.5529 -0.5253  0.6575
  835MPD2     C12325   0.470   3.923  11.224 -0.8014  0.5974  0.2542
  835MPD2    C112326   0.349   3.936  11.274  0.4078 -0.3534  0.2442
  835MPD2    C212327   0.321   3.897  11.406  0.9236 -0.0623  0.1539
  835MPD2    C312328   0.408   3.822  11.480 -0.1096 -0.3630 -0.4104
  835MPD2    C412329   0.531   3.807  11.426  0.0762 -0.1552  0.2001
  835MPD2    C512330   0.560   3.854  11.301  0.6259 -0.7155 -0.0468
  835MPD2     H12331   0.221   3.905  11.446  1.6321 -0.0689  1.9008
  835MPD2    H112332   0.597   3.734  11.471 -0.9398 -1.7967 -0.9597
  835MPD2    H212333   0.500   3.962  11.127  2.8546 -0.1963  1.0961
  835MPD2    H312334   0.656   3.827  11.258  1.1494  0.3383  0.4492
  835MPD2     N12335   0.376   3.750  11.606  0.7352  0.0046 -0.2173
  835MPD2    H512336   0.455   3.727  11.666  2.3022  0.3674 -2.1486
  835MPD2    N112337   0.239   3.982  11.191 -0.0953  1.0223  0.1274
  835MPD2    H712338   0.150   3.978  11.240 -0.1091  0.8231  0.0850
  836MPD2     C12339   4.358   3.621  11.765 -0.4178 -0.2659  0.3505
  836MPD2    C112340   4.434   3.593  11.874 -0.1108  0.4657  0.3001
  836MPD2    C212341   4.371   3.583  11.999 -0.3044 -0.1834  0.0017
  836MPD2    C312342   4.241   3.631  12.015 -0.5405 -0.0855 -0.2350
  836MPD2    C412343   4.171   3.671  11.901 -0.4275  0.3028 -0.6469
  836MPD2    C512344   4.231   3.678  11.777 -0.4974  0.2205  0.6423
  836MPD2     H12345   4.429   3.556  12.087 -0.1648 -0.0622 -0.0508
  836MPD2    H112346   4.068   3.706  11.908 -0.7015 -0.4713 -0.8386
  836MPD2    H212347   4.397   3.607  11.665 -0.5310  0.5855  0.1871
  836MPD2    H312348   4.178   3.720  11.693  3.3281  0.1532 -1.7832
  836MPD2     N12349   4.164   3.629  12.138 -0.1191  0.2549  0.3048
  836MPD2    H512350   4.069   3.664  12.131  0.1481  0.7009 -1.1099
  836MPD2    N112351   4.568   3.566  11.842 -0.7527  0.3548 -0.6355
  836MPD2    H712352   4.600   3.589  11.748  1.2244  0.3568  0.0358
  837MPD2     C12353   3.591   3.527   9.890  0.0180  0.1303  0.1737
  837MPD2    C112354   3.484   3.568   9.975  0.4855 -0.3847  0.1260
  837MPD2    C212355   3.476   3.703  10.013  0.4155  0.6153  0.2403
  837MPD2    C312356   3.584   3.788   9.986  0.7252 -0.3827 -0.2146
  837MPD2    C412357   3.685   3.749   9.902  0.7158  0.3496  0.2350
  837MPD2    C512358   3.693   3.616   9.858 -0.8587  0.1486 -0.6004
  837MPD2     H12359   3.392   3.731  10.076 -0.9041  0.7907 -1.5912
  837MPD2    H112360   3.768   3.816   9.879  1.1167 -0.1661  0.1798
  837MPD2    H212361   3.596   3.426   9.852  3.0277 -0.5068  2.2780
  837MPD2    H312362   3.779   3.580   9.802 -0.3838 -0.8763  0.7920
  837MPD2     N12363   3.556   3.920  10.033 -0.6460  0.3145  0.6889
  837MPD2    H512364   3.471   3.919  10.088 -0.9743  2.7131  0.2297
  837MPD2    N112365   3.375   3.490  10.020 -0.3513  0.0503 -0.3573
  837MPD2    H712366   3.308   3.536  10.080 -0.9706  0.0504 -1.0513
  838MPD2     C12367   1.941   1.325  11.805 -0.1136  0.2527  0.4351
  838MPD2    C112368   1.906   1.214  11.740 -0.5337  0.2195 -0.7395
  838MPD2    C212369   1.853   1.114  11.817  0.0783 -0.4211 -0.4468
  838MPD2    C312370   1.839   1.129  11.952 -0.0150 -0.1596 -0.1408
  838MPD2    C412371   1.893   1.240  12.014  0.8636 -0.3543  0.3761
  838MPD2    C512372   1.946   1.344  11.939 -0.1342  0.5094 -0.2810
  838MPD2     H12373   1.799   1.032  11.771 -0.4723  0.1997 -0.9182
  838MPD2    H112374   1.879   1.260  12.120 -2.3246 -1.1198  0.0869
  838MPD2    H212375   1.974   1.412  11.750  2.2834  1.0017  3.0171
  838MPD2    H312376   1.971   1.440  11.984 -0.6582  0.7312 -0.4613
  838MPD2     N12377   1.772   1.030  12.021 -0.3783 -0.4129 -0.3749
  838MPD2    H512378   1.730   0.957  11.964 -1.8859  0.3113 -0.1914
  838MPD2    N112379   1.925   1.196  11.600  0.0958  0.2183  0.2108
  838MPD2    H712380   1.923   1.102  11.560 -0.8280 -0.2422  1.3420
  839MPD2     C12381   1.560   0.643  11.018  0.0196 -0.4303  0.1919
  839MPD2    C112382   1.665   0.692  10.939 -0.1084 -0.2892  0.2264
  839MPD2    C212383   1.755   0.785  10.989 -0.3300  0.1081  0.6416
  839MPD2    C312384   1.723   0.852  11.105 -0.3623 -1.0361 -0.0655
  839MPD2    C412385   1.627   0.804  11.192  0.4450 -0.3144  0.1243
  839MPD2    C512386   1.551   0.699  11.150  0.1847 -0.1716  0.4185
  839MPD2     H12387   1.854   0.794  10.945 -0.1626  1.5743  1.3269
  839MPD2    H112388   1.611   0.830  11.296 -0.2629  0.4047 -0.1664
  839MPD2    H212389   1.502   0.556  10.992 -1.1338  0.5295 -0.4342
  839MPD2    H312390   1.476   0.658  11.217  0.9216 -3.6672 -0.8691
  839MPD2     N12391   1.792   0.962  11.153 -0.1229 -1.0229  0.7634
  839MPD2    H512392   1.765   0.988  11.248 -0.8398  1.0017  0.0001
  839MPD2    N112393   1.688   0.638  10.810  0.2293  0.7044  0.5082
  839MPD2    H712394   1.781   0.643  10.770 -0.1873  0.0420 -0.5585
  840MPD2     C12395   2.082   3.888  10.405  0.4631 -0.0518  0.6242
  840MPD2    C112396   2.060   3.853  10.535  0.1703  0.3226 -0.5027
  840MPD2    C212397   2.127   3.920  10.637 -0.5183 -0.8057 -0.3288
  840MPD2    C312398   2.218   4.025  10.599 -0.8446 -0.0888 -0.1567
  840MPD2    C412399   2.229   4.059  10.465 -0.2507 -0.2927  0.0581
  840MPD2    C512400   2.158   3.994  10.369 -0.1429 -0.1160 -0.0297
  840MPD2     H12401   2.107   3.896  10.741 -0.2959 -1.1966 -0.3746
  840MPD2    H112402   2.298   4.134  10.429 -0.7884 -1.0708 -2.6148
  840MPD2    H212403   2.021   3.851  10.323 -2.2277 -0.2864  2.7280
  840MPD2    H312404   2.169   4.012  10.262 -0.7658  0.5205  0.0123
  840MPD2     N12405   2.303   4.092  10.691 -0.1402 -0.2376  0.1218
  840MPD2    H512406   2.352   4.172  10.653 -1.8836  0.3465 -0.9370
  840MPD2    N112407   1.948   3.767  10.557 -0.6160 -0.1460 -0.0007
  840MPD2    H712408   1.914   3.723  10.471  0.5109  0.4661 -0.7647
  841MPD2     C12409   1.082   3.474  14.930  0.4892 -0.1708  0.4131
  841MPD2    C112410   1.154   3.356  14.923 -0.0146 -0.6019 -0.2019
  841MPD2    C212411   1.290   3.366  14.923  0.4936  0.2551 -0.8996
  841MPD2    C312412   1.361   3.489  14.945 -0.9087  0.5623  0.4745
  841MPD2    C412413   1.287   3.603  14.956 -0.4204 -0.4584 -0.4298
  841MPD2    C512414   1.151   3.596  14.941  0.3092  0.2411  0.3292
  841MPD2     H12415   1.347   3.275  14.905  0.9939  0.1971  1.0293
  841MPD2    H112416   1.331   3.702  14.954  0.7626 -0.9953 -1.0458
  841MPD2    H212417   0.974   3.474  14.923  0.6074  0.8045 -1.4336
  841MPD2    H312418   1.095   3.686  14.964 -0.6805 -0.3012  0.0265
  841MPD2     N12419   1.498   3.479  14.942  0.1627  0.3207 -0.1691
  841MPD2    H512420   1.530   3.386  14.919  0.4778 -0.5620  3.7716
  841MPD2    N112421   1.095   3.228  14.911 -0.3170  0.0279  0.9085
  841MPD2    H712422   1.164   3.153  14.908  1.6526  1.8578  0.6188
  842MPD2     C12423   1.728   3.908  17.051  0.1631 -0.0141  0.0351
  842MPD2    C112424   1.764   4.035  17.034  0.1930  0.6655  0.6329
  842MPD2    C212425   1.791   4.109  17.147 -0.5132  0.2768  0.3021
  842MPD2    C312426   1.757   4.057  17.268 -0.1352 -0.0447 -0.0743
  842MPD2    C412427   1.719   3.928  17.283 -0.8683 -0.6684 -0.6827
  842MPD2    C512428   1.709   3.851  17.173 -0.1005  0.1076  0.3463
  842MPD2     H12429   1.797   4.217  17.137  1.5638  0.1713  0.5290
  842MPD2    H112430   1.707   3.880  17.379 -1.3264 -0.3649 -0.5889
  842MPD2    H212431   1.714   3.835  16.973  0.8398 -1.5930  1.3996
  842MPD2    H312432   1.682   3.747  17.190 -1.6731  0.4699  0.0716
  842MPD2     N12433   1.766   4.146  17.368 -0.9451 -0.0525  0.3119
  842MPD2    H512434   1.787   4.242  17.344  3.5405 -1.0224  0.2694
  842MPD2    N112435   1.777   4.084  16.903 -0.0445 -0.3266  0.5621
  842MPD2    H712436   1.747   4.032  16.821 -1.7929  1.6817 -0.0751
  843MPD2     C12437   4.643   4.658   0.394  0.4453  0.2723  1.0985
  843MPD2    C112438   0.034   4.613   0.431  0.1114 -0.3262 -0.4188
  843MPD2    C212439   0.134   4.706   0.436  0.1449 -0.7218 -0.4001
  843MPD2    C312440   0.114   0.103   0.415 -0.0826  0.1943 -0.0525
  843MPD2    C412441   4.723   0.148   0.390 -0.7356  0.1927  0.5676
  843MPD2    C512442   4.616   0.057   0.384  0.2143  0.3754 -0.3573
  843MPD2     H12443   0.236   4.673   0.451 -0.1478 -1.0878  0.7650
  843MPD2    H112444   4.711   0.254   0.374  1.5726  0.3773 -0.0424
  843MPD2    H212445   4.555   4.593   0.396  0.3185  0.2650 -3.1362
  843MPD2    H312446   4.517   0.093   0.360  0.8362  1.8407 -0.7192
  843MPD2     N12447   0.212   0.207   0.450 -0.1919 -0.1632  0.6348
  843MPD2    H512448   0.184   0.304   0.456 -1.6387 -0.5039 -0.5480
  843MPD2    N112449   0.048   4.476   0.463 -0.0899 -0.7370 -0.0373
  843MPD2    H712450   4.692   4.427   0.464 -0.8063  0.5377 -0.3219
  844MPD2     C12451   2.359   3.617  16.622  0.2649  0.2492 -0.5761
  844MPD2    C112452   2.469   3.537  16.590  0.9071 -0.1451  0.5196
  844MPD2    C212453   2.601   3.591  16.598  0.0401 -0.8460  0.1629
  844MPD2    C312454   2.621   3.729  16.626  0.2940  0.1947  0.7125
  844MPD2    C412455   2.509   3.805  16.656 -0.3721 -0.3698  0.1160
  844MPD2    C512456   2.381   3.747  16.662 -0.8756  0.0755  0.9146
  844MPD2     H12457   2.690   3.532  16.582  0.4658 -0.2526  0.3408
  844MPD2    H112458   2.517   3.908  16.689 -3.7146 -0.0539 -0.0181
  844MPD2    H212459   2.259   3.577  16.630  0.9460 -1.0792  1.4861
  844MPD2    H312460   2.293   3.803  16.689  0.6374  2.7659  0.2442
  844MPD2     N12461   2.751   3.780  16.626  0.3559  0.1700 -0.3681
  844MPD2    H512462   2.826   3.713  16.617  0.0433 -0.0854 -1.0649
  844MPD2    N112463   2.443   3.409  16.538 -0.0664  0.2952  0.0747
  844MPD2    H712464   2.528   3.356  16.520  0.7300  1.5234  0.2220
  845MPD2     C12465   3.100   4.660  16.246  0.4170  0.0890 -0.8553
  845MPD2    C112466   3.189   4.639  16.354  0.1828  0.3733  0.0453
  845MPD2    C212467   3.184   4.516  16.418 -0.5811  0.6785 -0.0924
  845MPD2    C312468   3.093   4.413  16.377  0.1964  0.1611 -0.4141
  845MPD2    C412469   3.024   4.434  16.263  0.6911  0.6094  0.0612
  845MPD2    C512470   3.023   4.553  16.197 -0.7094  0.1342  0.0364
  845MPD2     H12471   3.225   4.501  16.518  1.4777 -1.4878 -1.2332
  845MPD2    H112472   2.966   4.350  16.227  0.5955  0.2814  0.9922
  845MPD2    H212473   3.083   0.023  16.197  1.7738 -0.5048 -2.4588
  845MPD2    H312474   2.958   4.563  16.111 -0.9435 -1.5471  0.0284
  845MPD2     N12475   3.068   4.288  16.440 -0.1746 -0.2754  0.0227
  845MPD2    H512476   3.011   4.220  16.391 -0.0986 -0.0782 -0.3381
  845MPD2    N112477   3.255   0.021  16.418  0.0356  0.4785  0.0510
  845MPD2    H712478   3.229   0.113  16.386 -0.4539  0.4276  0.2920
  846MPD2     C12479   4.501   0.164  14.109 -0.3650 -0.2066  0.0198
  846MPD2    C112480   4.410   0.270  14.099  0.2264  1.0512  0.1114
  846MPD2    C212481   4.366   0.336  14.216  0.3138  0.1167 -0.1715
  846MPD2    C312482   4.411   0.291  14.339  0.2081  0.1497  0.5486
  846MPD2    C412483   4.508   0.193  14.349 -1.1358 -0.0619 -0.2829
  846MPD2    C512484   4.549   0.130  14.234 -0.0745 -0.0196  0.2354
  846MPD2     H12485   4.281   0.401  14.199 -0.2870 -0.5733  0.1713
  846MPD2    H112486   4.555   0.154  14.439 -0.7573  1.5006  0.2094
  846MPD2    H212487   4.545   0.122  14.020  0.1049 -0.6659  0.4712
  846MPD2    H312488   4.621   0.049  14.242  0.2372  0.3484  1.1082
  846MPD2     N12489   4.343   0.351  14.449 -1.0478 -0.1030  0.5035
  846MPD2    H512490   4.287   0.426  14.411  0.0446  0.0128 -0.8971
  846MPD2    N112491   4.357   0.308  13.973 -0.4194 -0.0340 -0.2248
  846MPD2    H712492   4.315   0.400  13.966 -1.7600 -0.6699 -0.6485
  847MPD2     C12493   0.297   0.694  13.943  0.0611 -0.2763  0.5833
  847MPD2    C112494   0.241   0.764  14.048 -0.1580  0.0775 -0.2704
  847MPD2    C212495   0.285   0.733  14.174  0.6049  0.0151  0.7202
  847MPD2    C312496   0.375   0.640  14.205  0.3724 -0.4606 -0.1113
  847MPD2    C412497   0.438   0.567  14.101  0.0493 -0.8035  0.3176
  847MPD2    C512498   0.388   0.584  13.970 -0.4357 -0.2609  0.3114
  847MPD2     H12499   0.240   0.801  14.246 -0.3637  0.8566 -0.6605
  847MPD2    H112500   0.521   0.500  14.122  2.1923  0.9250 -2.7872
  847MPD2    H212501   0.273   0.723  13.841 -3.2396  0.1689  1.4777
  847MPD2    H312502   0.434   0.520  13.896  1.6457  2.1247 -0.4599
  847MPD2     N12503   0.406   0.615  14.341  0.3866 -0.3473 -0.7826
  847MPD2    H512504   0.492   0.563  14.357  1.2103  1.0709 -0.5631
  847MPD2    N112505   0.154   0.872  14.030 -1.3790  0.2374 -0.2812
  847MPD2    H712506   0.123   0.923  14.112 -1.1565  0.1500 -0.1422
  848MPD2     C12507   2.490   4.291  16.120 -0.4115  0.2142 -0.3304
  848MPD2    C112508   2.560   4.362  16.208  0.5840  0.3269  0.8972
  848MPD2    C212509   2.593   4.496  16.168 -0.3819  0.1867  0.5982
  848MPD2    C312510   2.538   4.551  16.049  0.7136 -0.1500 -0.4443
  848MPD2    C412511   2.481   4.465  15.965 -0.3559  0.1709  1.3090
  848MPD2    C512512   2.449   4.338  15.998 -0.3030  0.0468  0.2821
  848MPD2     H12513   2.644   4.562  16.238  0.3497  0.2980 -0.0355
  848MPD2    H112514   2.449   4.503  15.869 -0.0036 -0.1222  1.0768
  848MPD2    H212515   2.444   4.195  16.142 -1.3532  0.3684 -1.5667
  848MPD2    H312516   2.384   4.279  15.935 -0.8960 -0.4723  1.3787
  848MPD2     N12517   2.533   4.689  16.015 -0.6491 -0.3314 -0.0270
  848MPD2    H512518   2.472   4.715  15.938 -0.6990  1.6719  0.7086
  848MPD2    N112519   2.586   4.326  16.341 -0.0717 -0.1896  0.2245
  848MPD2    H712520   2.633   4.399  16.393 -0.8169  1.0658 -0.8614
  849MPD2     C12521   1.173   4.117  14.610  0.2025 -0.5338 -0.4945
  849MPD2    C112522   1.212   4.159  14.482 -0.1687 -0.5369  0.1272
  849MPD2    C212523   1.330   4.216  14.457 -0.0513 -0.4494  0.4450
  849MPD2    C312524   1.429   4.210  14.558 -0.3693  0.6654  0.6439
  849MPD2    C412525   1.389   4.176  14.688 -0.2503 -0.3003  0.0518
  849MPD2    C512526   1.260   4.143  14.719 -0.3433 -0.6861 -0.2451
  849MPD2     H12527   1.347   4.263  14.361 -1.6833 -2.3352 -0.7658
  849MPD2    H112528   1.461   4.188  14.768  0.1239 -0.3177 -0.2821
  849MPD2    H212529   1.078   4.071  14.632  0.3703 -0.6792 -0.0885
  849MPD2    H312530   1.231   4.105  14.816  0.3462  0.5657  0.4456
  849MPD2     N12531   1.569   4.234  14.539  0.3229 -0.4935 -0.0821
  849MPD2    H512532   1.635   4.229  14.617 -1.6072  0.0058  1.5875
  849MPD2    N112533   1.124   4.152  14.371 -0.9043 -0.4019  0.2642
  849MPD2    H712534   1.140   4.210  14.290 -1.1070 -0.8005 -0.0575
  850MPD2     C12535   4.320   2.062  14.914 -0.5835  0.3800 -0.4914
  850MPD2    C112536   4.383   2.069  15.037 -0.2053 -0.5402  0.5455
  850MPD2    C212537   4.517   2.071  15.044  0.9401 -0.1224 -0.2900
  850MPD2    C312538   4.596   2.073  14.927  0.2445 -0.4121 -0.0014
  850MPD2    C412539   4.535   2.059  14.807  0.3644 -0.0022  0.7710
  850MPD2    C512540   4.396   2.058  14.805 -0.0675  0.0717 -0.7676
  850MPD2     H12541   4.559   2.079  15.144  2.4840  0.1349 -0.9584
  850MPD2    H112542   4.595   2.055  14.717 -0.5368  0.4523  0.1433
  850MPD2    H212543   4.212   2.071  14.911 -0.5066  1.3015 -0.5284
  850MPD2    H312544   4.345   2.050  14.710  1.8228  0.5631 -1.8332
  850MPD2     N12545   0.007   2.083  14.921 -0.3202  0.4461  0.2489
  850MPD2    H512546   0.043   2.101  14.828 -1.1085  0.8673  0.0215
  850MPD2    N112547   4.323   2.089  15.165  0.4603 -0.5270 -0.0356
  850MPD2    H712548   4.372   2.109  15.252 -0.5612  0.8956  0.2087
  851MPD2     C12549   4.706   2.168  15.642 -0.5911 -0.4266 -0.0330
  851MPD2    C112550   4.603   2.098  15.585  0.6020 -0.5345  0.3036
  851MPD2    C212551   4.621   1.984  15.506  0.0756  0.8558  0.6234
  851MPD2    C312552   0.018   1.947  15.484 -0.7615 -0.2362 -0.0816
  851MPD2    C412553   0.127   2.011  15.542  0.0024 -0.3531 -0.1488
  851MPD2    C512554   0.097   2.122  15.620  0.7402 -0.7155  0.2310
  851MPD2     H12555   4.537   1.929  15.465  0.6695  0.6129 -0.2777
  851MPD2    H112556   0.231   1.982  15.535  0.4406  1.5748 -1.7882
  851MPD2    H212557   4.689   2.255  15.705  0.8422 -0.4244  0.3441
  851MPD2    H312558   0.182   2.169  15.669 -0.0464  0.7097  0.2080
  851MPD2     N12559   0.028   1.842  15.395 -0.2618  0.1318  0.2569
  851MPD2    H512560   4.673   1.815  15.353 -0.0814  2.2367 -1.4993
  851MPD2    N112561   4.476   2.157  15.606 -0.4221  0.3552  0.2831
  851MPD2    H712562   4.463   2.255  15.630  1.7338  0.6046  0.4829
  852MPD2     C12563   4.493   0.248  10.477  0.0958  0.5302 -0.0027
  852MPD2    C112564   4.562   0.252  10.598 -0.1819 -0.6525 -0.2426
  852MPD2    C212565   4.623   0.372  10.642 -0.2370  0.6764  0.1566
  852MPD2    C312566   4.618   0.482  10.554  0.7884  0.1292  0.1227
  852MPD2    C412567   4.561   0.474  10.428 -0.0381  0.4442 -0.3743
  852MPD2    C512568   4.504   0.353  10.389  0.0684 -0.3125 -0.1108
  852MPD2     H12569   4.669   0.380  10.740 -0.2658  0.7155  0.1669
  852MPD2    H112570   4.544   0.555  10.358 -1.3453  0.2016 -0.3486
  852MPD2    H212571   4.438   0.160  10.444 -0.5418  0.0648  2.2907
  852MPD2    H312572   4.458   0.348  10.291 -1.0562 -1.2104  0.4576
  852MPD2     N12573   4.678   0.598  10.601 -0.1799  0.7260  0.2539
  852MPD2    H512574   4.722   0.592  10.692 -0.4624  1.2762  0.4272
  852MPD2    N112575   4.566   0.147  10.686 -0.4347 -0.3183 -0.2247
  852MPD2    H712576   4.622   0.175  10.766 -0.9654  0.1612 -0.0239
  853MPD2     C12577   1.474   4.305  12.731  0.9006  0.4664  0.3764
  853MPD2    C112578   1.348   4.312  12.666 -0.7636  0.6475  0.4952
  853MPD2    C212579   1.340   4.295  12.528  0.0584  0.1445  0.0707
  853MPD2    C312580   1.459   4.265  12.457  0.1956 -0.0047 -0.1558
  853MPD2    C412581   1.579   4.248  12.526 -0.0127  0.0217  0.1182
  853MPD2    C512582   1.585   4.274  12.661 -0.3988 -0.0400 -0.1078
  853MPD2     H12583   1.247   4.279  12.475  1.0982 -3.9832 -0.5155
  853MPD2    H112584   1.671   4.213  12.479 -0.5022 -0.1443 -0.7082
  853MPD2    H212585   1.471   4.310  12.839 -0.6891  1.1960  0.2959
  853MPD2    H312586   1.676   4.273  12.720 -1.0156  0.7820  0.8542
  853MPD2     N12587   1.469   4.250  12.316  0.7205 -0.1329 -0.1518
  853MPD2    H512588   1.563   4.239  12.279  0.2383  0.5515 -1.5809
  853MPD2    N112589   1.234   4.337  12.743  0.1762  0.1907 -0.0496
  853MPD2    H712590   1.244   4.347  12.843  1.8812 -1.1799 -0.0631
  854MPD2     C12591   2.584   0.261  12.851 -0.6148  0.2233  0.6019
  854MPD2    C112592   2.681   0.222  12.763  0.4187  0.1693  0.0571
  854MPD2    C212593   2.732   0.098  12.773  0.1776  0.4439 -0.4661
  854MPD2    C312594   2.701   0.011  12.875 -0.6794 -0.0311  0.6379
  854MPD2    C412595   2.613   0.056  12.968  0.2853  0.2433  0.3598
  854MPD2    C512596   2.549   0.177  12.945  0.3261 -0.7862 -0.1498
  854MPD2     H12597   2.802   0.072  12.695 -0.2152 -1.5144 -0.1700
  854MPD2    H112598   2.578   4.728  13.051 -1.0159  0.6442  0.1111
  854MPD2    H212599   2.539   0.359  12.859  1.4166  1.2655 -0.6179
  854MPD2    H312600   2.477   0.212  13.018 -1.4545 -1.5836 -1.5260
  854MPD2     N12601   2.771   4.622  12.892 -0.6289 -0.0420  0.3010
  854MPD2    H512602   2.766   4.575  12.982  0.8271 -0.6051  0.0880
  854MPD2    N112603   2.730   0.321  12.672  0.2346 -0.1371  0.0021
  854MPD2    H712604   2.672   0.404  12.666  1.5931  0.7752 -0.7852
  855MPD2     C12605   3.341   4.451  13.573 -0.6172 -0.2934 -0.3299
  855MPD2    C112606   3.253   4.348  13.570  0.1847  0.2901 -0.3077
  855MPD2    C212607   3.173   4.334  13.462 -0.7659 -0.4071  0.1292
  855MPD2    C312608   3.171   4.424  13.359  0.3753  0.7193  0.2544
  855MPD2    C412609   3.258   4.530  13.367  0.1696 -0.6140  0.2417
  855MPD2    C512610   3.348   4.541  13.473 -0.2670  0.1361 -0.7406
  855MPD2     H12611   3.105   4.250  13.460 -2.2844  0.8735 -1.1592
  855MPD2    H112612   3.272   4.611  13.297  1.0797 -0.1633  0.9423
  855MPD2    H212613   3.410   4.461  13.656 -1.1334 -1.1811  0.2207
  855MPD2    H312614   3.405   4.633  13.473  0.9713 -0.6378  1.3057
  855MPD2     N12615   3.093   4.408  13.239 -0.1626 -0.3236 -0.0829
  855MPD2    H512616   3.101   4.491  13.181  1.8567 -0.3103  0.1861
  855MPD2    N112617   3.247   4.243  13.672 -0.2069 -0.3178  0.2491
  855MPD2    H712618   3.174   4.173  13.668  2.5144 -3.2097  0.8776
  856MPD2     C12619   0.685   0.563  13.710  0.6513  0.1131 -0.1902
  856MPD2    C112620   0.693   0.676  13.795  0.0758 -0.3252  1.2707
  856MPD2    C212621   0.609   0.783  13.774 -0.6369  0.3183  1.1931
  856MPD2    C312622   0.519   0.780  13.664  0.5275  0.8606  0.1616
  856MPD2    C412623   0.515   0.670  13.578 -0.0836  0.1701 -0.4906
  856MPD2    C512624   0.603   0.565  13.600  0.1058  0.5210 -0.3281
  856MPD2     H12625   0.606   0.862  13.849 -2.8497  2.3028 -0.9983
  856MPD2    H112626   0.442   0.674  13.498 -1.2948 -1.5704  0.5442
  856MPD2    H212627   0.738   0.472  13.733 -0.4380  0.0307  1.9823
  856MPD2    H312628   0.608   0.471  13.546 -0.5264  0.4619 -0.2856
  856MPD2     N12629   0.432   0.889  13.640  0.2185  0.3734  0.2531
  856MPD2    H512630   0.365   0.884  13.565  0.6809 -1.1280 -0.0601
  856MPD2    N112631   0.787   0.684  13.908  0.2554  0.1651 -0.0087
  856MPD2    H712632   0.779   0.759  13.976 -0.2325 -1.2059  1.4337
  857MPD2     C12633   1.943   2.997  12.667  0.3377 -0.7814  0.7679
  857MPD2    C112634   1.923   2.905  12.766  0.1853 -0.4193  0.5466
  857MPD2    C212635   1.870   2.934  12.885  0.1215 -0.2134 -0.7183
  857MPD2    C312636   1.831   3.062  12.905 -0.2228  0.1087  0.4378
  857MPD2    C412637   1.837   3.155  12.805 -0.0392  0.3276 -0.0413
  857MPD2    C512638   1.898   3.125  12.688  0.1572 -0.1305 -0.5855
  857MPD2     H12639   1.847   2.848  12.947  1.2875 -0.7015 -0.9782
  857MPD2    H112640   1.796   3.254  12.826  1.5876  0.7433  1.1544
  857MPD2    H212641   1.987   2.967  12.573 -2.4659  0.2631 -0.8734
  857MPD2    H312642   1.923   3.196  12.611 -1.3516 -0.8938 -1.7842
  857MPD2     N12643   1.779   3.087  13.035 -0.4285  0.3011  0.1656
  857MPD2    H512644   1.783   3.008  13.099  0.0022 -0.5373 -0.9001
  857MPD2    N112645   1.968   2.776  12.733  0.2315 -0.0836 -0.1934
  857MPD2    H712646   2.022   2.774  12.647 -0.1960 -2.8272 -0.3956
  858MPD2     C12647   3.221   1.609  16.667 -0.2578 -0.5811 -0.0281
  858MPD2    C112648   3.268   1.511  16.745 -0.5248 -0.1050  0.7421
  858MPD2    C212649   3.279   1.532  16.883 -0.0875 -0.3015 -0.2098
  858MPD2    C312650   3.251   1.652  16.944 -0.4270 -0.2043 -0.0091
  858MPD2    C412651   3.210   1.750  16.857 -0.4683 -1.0103  0.3447
  858MPD2    C512652   3.192   1.727  16.725  1.1119 -0.5015  0.9004
  858MPD2     H12653   3.314   1.455  16.951 -1.3803  1.1708  2.1173
  858MPD2    H112654   3.178   1.850  16.887 -0.1943 -1.0199  0.6657
  858MPD2    H212655   3.211   1.597  16.560 -1.8114  1.2819 -0.0724
  858MPD2    H312656   3.149   1.808  16.667  1.5814 -0.1625  1.0223
  858MPD2     N12657   3.260   1.692  17.077  0.6918  0.5712  0.2438
  858MPD2    H512658   3.251   1.792  17.093  1.0062  0.1483  3.0377
  858MPD2    N112659   3.315   1.390  16.683  0.3776  0.1757  0.1830
  858MPD2    H712660   3.286   1.382  16.586 -0.2488  1.4310  0.2741
  859MPD2     C12661   1.680   3.667  16.014 -0.6588 -0.3189 -0.3190
  859MPD2    C112662   1.707   3.647  15.883 -0.1251  0.5447 -0.4524
  859MPD2    C212663   1.738   3.516  15.846  0.0152 -0.7010 -0.0076
  859MPD2    C312664   1.728   3.409  15.940  0.4197  0.1681 -0.2431
  859MPD2    C412665   1.685   3.433  16.066 -0.3272 -0.6266  0.5140
  859MPD2    C512666   1.668   3.564  16.112  0.3558 -0.5977 -0.1276
  859MPD2     H12667   1.771   3.492  15.746 -0.5639  1.3490 -0.6954
  859MPD2    H112668   1.673   3.354  16.139 -2.8747 -3.7075 -3.2609
  859MPD2    H212669   1.668   3.772  16.037  0.1372  0.2154 -2.3311
  859MPD2    H312670   1.653   3.584  16.218  2.6678 -0.0105  0.0916
  859MPD2     N12671   1.743   3.272  15.895  0.2429  0.0959  0.1772
  859MPD2    H512672   1.715   3.199  15.960 -0.9198 -1.2396 -1.8520
  859MPD2    N112673   1.702   3.758  15.795 -0.1659  0.8254 -0.5076
  859MPD2    H712674   1.700   3.846  15.845  0.7836  1.7016 -2.0161
  860MPD2     C12675   3.953   4.257  11.444  0.1909 -0.5440 -0.4494
  860MPD2    C112676   3.964   4.338  11.564  0.2055  0.0791  0.8217
  860MPD2    C212677   3.855   4.338  11.652 -0.0571 -0.4234 -0.0094
  860MPD2    C312678   3.747   4.257  11.629  0.1004 -0.1671 -0.5246
  860MPD2    C412679   3.737   4.177  11.517 -1.0417 -0.2479 -0.6099
  860MPD2    C512680   3.834   4.188  11.420  0.0144 -0.0068 -1.5150
  860MPD2     H12681   3.872   4.399  11.740  0.9130  0.8128 -1.0537
  860MPD2    H112682   3.649   4.119  11.491 -2.9154  1.9194  0.8607
  860MPD2    H212683   4.035   4.230  11.378 -1.3253 -0.0644 -2.5162
  860MPD2    H312684   3.831   4.121  11.335  3.9488 -1.3337 -0.5857
  860MPD2     N12685   3.645   4.275  11.726 -0.1247 -0.1843  0.0841
  860MPD2    H512686   3.666   4.334  11.807  2.0929 -0.9879  0.0900
  860MPD2    N112687   4.087   4.393  11.605 -0.1079 -0.3520 -0.0890
  860MPD2    H712688   4.087   4.450  11.689 -1.4761 -1.3451  0.5931
  861MPD2     C12689   3.218   2.968  11.097  0.2804 -0.1209 -0.3227
  861MPD2    C112690   3.115   3.030  11.169 -0.2601  0.2026 -0.5924
  861MPD2    C212691   3.039   3.133  11.105  0.4231 -0.5083 -0.0601
  861MPD2    C312692   3.087   3.194  10.992  0.4926 -0.2291  0.2828
  861MPD2    C412693   3.185   3.127  10.925 -0.1450  0.5966 -0.3958
  861MPD2    C512694   3.241   3.015  10.973 -0.7240 -0.1749 -0.3315
  861MPD2     H12695   2.946   3.173  11.144  0.7367 -0.3734  0.5496
  861MPD2    H112696   3.204   3.171  10.828 -1.1441 -0.5198 -1.1071
  861MPD2    H212697   3.275   2.884  11.135  0.1423 -0.4447 -0.8276
  861MPD2    H312698   3.310   2.961  10.909 -0.5071 -0.9500  0.5565
  861MPD2     N12699   3.025   3.305  10.928 -0.2321  0.2172  0.1381
  861MPD2    H512700   3.068   3.328  10.839 -1.4873  0.9378 -0.2720
  861MPD2    N112701   3.072   2.980  11.296  0.1621  0.4128  0.4313
  861MPD2    H712702   2.983   3.019  11.323 -0.1726 -0.5260  0.6723
  862MPD2     C12703   2.371   3.244  10.621 -0.4702 -0.2111 -0.3463
  862MPD2    C112704   2.479   3.201  10.698  0.0037  0.3352  0.1545
  862MPD2    C212705   2.486   3.075  10.749 -0.1460 -0.3732  0.1023
  862MPD2    C312706   2.404   2.971  10.707  0.6108  0.6614 -0.1618
  862MPD2    C412707   2.308   3.013  10.615  0.0254  0.4325  0.0882
  862MPD2    C512708   2.284   3.144  10.570 -1.0554 -0.8934  0.0850
  862MPD2     H12709   2.573   3.055  10.810 -0.2091  1.5191  0.8181
  862MPD2    H112710   2.236   2.938  10.585  0.4295  0.3251 -0.6105
  862MPD2    H212711   2.352   3.346  10.589 -0.3855  0.1811  0.8632
  862MPD2    H312712   2.207   3.176  10.501 -2.5765  0.1531  2.2393
  862MPD2     N12713   2.409   2.842  10.760  0.3266 -0.5042  0.1367
  862MPD2    H512714   2.335   2.777  10.734 -0.8845  1.1730 -0.6226
  862MPD2    N112715   2.575   3.300  10.737 -0.1052 -0.5621  0.0104
  862MPD2    H712716   2.648   3.274  10.802  0.5145  0.3036 -0.3416
  863MPD2     C12717   1.275   0.700  16.550  0.1286  0.2489  0.2162
  863MPD2    C112718   1.203   0.642  16.653  0.1889 -0.0766  0.1166
  863MPD2    C212719   1.274   0.623  16.772  0.0595  0.8068  0.1809
  863MPD2    C312720   1.407   0.655  16.788 -0.5938  0.3549 -0.8094
  863MPD2    C412721   1.472   0.708  16.685 -0.1849 -0.7013 -0.1584
  863MPD2    C512722   1.404   0.732  16.569  0.0744  0.1036  0.6246
  863MPD2     H12723   1.227   0.577  16.858 -0.9808  1.0237 -0.2672
  863MPD2    H112724   1.578   0.733  16.689 -0.0667 -0.9877 -1.5012
  863MPD2    H212725   1.241   0.722  16.450 -2.8442 -1.9137  0.7530
  863MPD2    H312726   1.460   0.774  16.485 -1.6014  0.5857 -0.2425
  863MPD2     N12727   1.479   0.641  16.905  0.2093  0.1020 -0.6265
  863MPD2    H512728   1.578   0.662  16.900 -0.0202  1.0272 -1.3512
  863MPD2    N112729   1.067   0.602  16.630  0.1375 -0.4287 -0.1814
  863MPD2    H712730   1.035   0.612  16.534  0.8456  4.3480  0.0990
  864MPD2     C12731   1.691   2.056  17.046 -0.2133 -0.0611  0.0664
  864MPD2    C112732   1.786   1.968  17.005  0.2253 -0.8381 -0.1417
  864MPD2    C212733   1.907   2.008  16.956  0.4308  0.3782 -0.3718
  864MPD2    C312734   1.939   2.147  16.952  0.3160  0.2419 -0.2617
  864MPD2    C412735   1.837   2.236  16.989  0.3030  0.9160 -0.1331
  864MPD2    C512736   1.718   2.190  17.040 -0.1892  0.1544 -0.2822
  864MPD2     H12737   1.975   1.936  16.911  1.9732 -0.4608  3.3287
  864MPD2    H112738   1.853   2.343  16.991  0.3535  0.9563 -3.7344
  864MPD2    H212739   1.597   2.020  17.087  0.6284 -1.6983  0.5438
  864MPD2    H312740   1.651   2.268  17.074 -0.5382 -0.0237 -0.5742
  864MPD2     N12741   2.055   2.197  16.894  0.2563 -0.1679  0.3678
  864MPD2    H512742   2.053   2.298  16.885  1.1978  0.0411  2.4239
  864MPD2    N112743   1.737   1.835  16.998 -0.0779  0.1588  0.0340
  864MPD2    H712744   1.652   1.813  17.049  1.3870  1.2278  2.9830
  865MPD2     C12745   1.972   2.426  16.087 -0.0044  0.0126  0.7487
  865MPD2    C112746   1.989   2.294  16.124  0.3219  0.4336  0.1417
  865MPD2    C212747   2.075   2.268  16.237  0.1454 -0.1408  0.9405
  865MPD2    C312748   2.117   2.366  16.316 -0.1173 -0.1478 -0.3344
  865MPD2    C412749   2.081   2.495  16.284 -0.0223 -0.1004 -0.1363
  865MPD2    C512750   2.009   2.528  16.172 -0.5643  0.0195  0.1495
  865MPD2     H12751   2.088   2.166  16.272 -0.9806 -0.5850  0.0526
  865MPD2    H112752   2.109   2.578  16.348  0.4228 -0.0317 -0.4224
  865MPD2    H212753   1.913   2.466  16.005 -0.0909 -1.7974 -0.0525
  865MPD2    H312754   1.984   2.630  16.145 -0.5959 -0.1575 -0.4940
  865MPD2     N12755   2.193   2.342  16.431  0.0218  0.0288  0.2101
  865MPD2    H512756   2.204   2.409  16.506  1.2100 -1.0655  1.0101
  865MPD2    N112757   1.945   2.185  16.038 -0.8059  0.4474  0.7664
  865MPD2    H712758   1.933   2.199  15.938 -1.1746 -1.8057  0.4937
  866MPD2     C12759   3.479   3.030  11.629  0.2271  0.2325  0.2256
  866MPD2    C112760   3.539   3.071  11.510  0.2496  0.0375  0.7271
  866MPD2    C212761   3.470   3.151  11.422  0.5359  0.6648  0.3487
  866MPD2    C312762   3.339   3.186  11.456  0.0295  0.3245 -0.4088
  866MPD2    C412763   3.278   3.144  11.572  0.0874  0.2519  1.5977
  866MPD2    C512764   3.348   3.071  11.658 -0.7506 -0.6829 -0.3162
  866MPD2     H12765   3.511   3.182  11.327 -1.0975  2.4753  0.2289
  866MPD2    H112766   3.179   3.172  11.604 -0.4365  1.5636 -1.1247
  866MPD2    H212767   3.527   2.977  11.711  1.6438 -0.4960 -1.0609
  866MPD2    H312768   3.305   3.045  11.754 -0.9417 -1.5650 -0.6452
  866MPD2     N12769   3.261   3.280  11.382 -0.3407  0.4782  0.1360
  866MPD2    H512770   3.170   3.302  11.420 -0.0510  1.2300  0.3960
  866MPD2    N112771   3.666   3.020  11.480  0.2790 -0.0500  0.3314
  866MPD2    H712772   3.686   2.940  11.539 -0.6048 -1.3041 -1.0464
  867MPD2     C12773   0.468   1.757  16.731 -0.0391 -1.0036  0.1793
  867MPD2    C112774   0.519   1.704  16.848 -0.2768 -1.4605  1.0180
  867MPD2    C212775   0.526   1.783  16.963  0.3732  0.5010  0.2509
  867MPD2    C312776   0.461   1.904  16.978 -0.1956 -0.0035  0.1204
  867MPD2    C412777   0.398   1.947  16.865  0.7445  0.2361  0.4312
  867MPD2    C512778   0.403   1.879  16.744  0.0810  0.3064  0.0122
  867MPD2     H12779   0.586   1.745  17.045 -0.9468 -0.8308  0.5892
  867MPD2    H112780   0.341   2.039  16.874 -0.1144 -0.3752  1.2633
  867MPD2    H212781   0.456   1.705  16.636 -2.3288  1.4431 -0.8554
  867MPD2    H312782   0.346   1.921  16.661 -0.1546 -0.8688 -0.4288
  867MPD2     N12783   0.472   1.985  17.093  0.8990  0.0748 -0.0524
  867MPD2    H512784   0.418   2.071  17.105 -0.1379 -0.6019  0.1392
  867MPD2    N112785   0.569   1.573  16.841 -0.1239 -0.4880 -0.4786
  867MPD2    H712786   0.565   1.524  16.752 -0.4683  0.9744 -1.2533
  868MPD2     C12787   2.357   1.632  13.232 -0.0570  0.2837 -0.4714
  868MPD2    C112788   2.414   1.535  13.304 -0.1122 -0.1288  0.3905
  868MPD2    C212789   2.357   1.512  13.427  0.5087 -0.4054  0.6740
  868MPD2    C312790   2.250   1.591  13.474 -0.4029  0.1075 -0.1000
  868MPD2    C412791   2.200   1.685  13.396 -0.7528  0.2385 -0.2031
  868MPD2    C512792   2.258   1.708  13.276 -0.2864 -0.2649 -0.4896
  868MPD2     H12793   2.393   1.431  13.490  2.4521 -1.3403 -1.6668
  868MPD2    H112794   2.125   1.756  13.429 -2.1045 -1.5399  0.5630
  868MPD2    H212795   2.403   1.657  13.137  0.9771  1.0236  0.2265
  868MPD2    H312796   2.219   1.790  13.216  1.1240 -0.2900 -1.4326
  868MPD2     N12797   2.212   1.562  13.604  0.7382 -0.5830 -0.1758
  868MPD2    H512798   2.266   1.495  13.658  0.4316  0.0048  0.8511
  868MPD2    N112799   2.513   1.458  13.240 -0.3302 -0.4032  0.0394
  868MPD2    H712800   2.534   1.471  13.142  0.0052  0.1977  0.1908
  869MPD2     C12801   3.298   3.931   1.076  0.0787 -1.0514 -0.7677
  869MPD2    C112802   3.324   4.064   1.101  0.3803  0.1426  0.3937
  869MPD2    C212803   3.458   4.095   1.124  0.3048  0.5342  0.6270
  869MPD2    C312804   3.547   4.004   1.169 -0.4385 -0.0186 -0.1315
  869MPD2    C412805   3.518   3.872   1.153  0.1463 -0.2051  0.1157
  869MPD2    C512806   3.400   3.839   1.093 -0.3301 -0.2670 -0.0761
  869MPD2     H12807   3.485   4.199   1.140 -1.1213  1.3923 -2.4725
  869MPD2    H112808   3.585   3.791   1.182 -0.7620 -1.0215 -0.0689
  869MPD2    H212809   3.199   3.901   1.042 -0.7335  0.8001 -0.0705
  869MPD2    H312810   3.369   3.736   1.078  1.8720 -1.1978  1.9706
  869MPD2     N12811   3.677   4.036   1.222 -0.7740 -0.3927  0.0617
  869MPD2    H512812   3.743   3.961   1.242 -2.5025 -1.3470  2.1649
  869MPD2    N112813   3.225   4.161   1.082  0.0350 -0.2983 -0.6496
  869MPD2    H712814   3.138   4.124   1.045  0.1089 -0.6367 -0.4875
  870MPD2     C12815   4.068   3.153   1.080  0.0843 -0.4044  0.1872
  870MPD2    C112816   3.951   3.082   1.089 -0.0545  0.1981  0.5058
  870MPD2    C212817   3.843   3.104   1.010 -0.2536 -0.0778 -0.2356
  870MPD2    C312818   3.852   3.196   0.908 -0.3816 -0.4566 -0.0478
  870MPD2    C412819   3.965   3.281   0.901 -0.1926  0.3526 -0.5916
  870MPD2    C512820   4.075   3.251   0.976 -0.1317  0.3830  0.1594
  870MPD2     H12821   3.758   3.036   1.011 -1.2692  1.1902  0.5860
  870MPD2    H112822   3.968   3.362   0.828 -1.0549  2.0363  1.2442
  870MPD2    H212823   4.152   3.130   1.145  1.6762 -1.5201 -2.2686
  870MPD2    H312824   4.166   3.308   0.966 -0.1245  0.1638 -1.0111
  870MPD2     N12825   3.744   3.210   0.820  0.0408  0.4928  0.2379
  870MPD2    H512826   3.662   3.155   0.844  0.3114 -1.3898 -3.2342
  870MPD2    N112827   3.960   2.957   1.175  0.9915  0.3760 -0.0410
  870MPD2    H712828   4.049   2.948   1.224  0.8062 -1.1955  0.0178
  871MPD2     C12829   4.422   2.260  16.530 -0.5071 -0.4934  1.0541
  871MPD2    C112830   4.411   2.257  16.666 -0.0334 -0.5361 -0.4493
  871MPD2    C212831   4.424   2.130  16.724 -0.7041 -0.4481  0.5279
  871MPD2    C312832   4.431   2.016  16.641  0.4851  0.1435  0.3139
  871MPD2    C412833   4.435   2.027  16.500  0.4560  0.4560  0.0480
  871MPD2    C512834   4.429   2.151  16.446  0.0095 -0.6149  0.4842
  871MPD2     H12835   4.426   2.112  16.831  1.0592  1.2320  0.7676
  871MPD2    H112836   4.440   1.947  16.426 -1.8259  1.3778 -1.0841
  871MPD2    H212837   4.427   2.359  16.488 -0.8425 -1.4858 -1.3036
  871MPD2    H312838   4.436   2.159  16.338  3.3322 -0.5940  0.7083
  871MPD2     N12839   4.438   1.884  16.703  0.2641 -0.3182 -0.5855
  871MPD2    H512840   4.425   1.887  16.804 -3.6723  0.8947 -1.1191
  871MPD2    N112841   4.406   2.385  16.732  0.1233 -0.5326  0.5654
  871MPD2    H712842   4.396   2.467  16.672  1.2831  1.9401  3.7828
  872MPD2     C12843   0.609   4.380  14.006  0.3419 -0.4759 -0.5679
  872MPD2    C112844   0.594   4.513  14.032  0.0861  0.5655  0.3530
  872MPD2    C212845   0.479   4.564  14.096 -0.6472  1.2445  0.4129
  872MPD2    C312846   0.384   4.475  14.149 -0.0890  1.3318  0.5049
  872MPD2    C412847   0.401   4.343  14.113 -0.4315  0.7470 -0.2025
  872MPD2    C512848   0.513   4.290  14.056  0.1611 -0.3168  0.1554
  872MPD2     H12849   0.464   4.670  14.113  1.6713  1.7254 -0.4732
  872MPD2    H112850   0.325   4.271  14.142  0.2690 -0.6930 -1.9352
  872MPD2    H212851   0.693   4.339  13.951  0.7098  1.0854 -1.1749
  872MPD2    H312852   0.528   4.184  14.039 -0.4808 -0.0656 -2.0627
  872MPD2     N12853   0.280   4.512  14.228 -0.2606 -0.2213  0.1515
  872MPD2    H512854   0.218   4.439  14.260 -1.3953  0.5906 -0.1617
  872MPD2    N112855   0.684   4.614  13.987 -0.0935  0.8473 -0.1352
  872MPD2    H712856   0.666   4.714  13.998 -1.0743  0.8000 -1.2959
  873MPD2     C12857   2.941   0.431   0.850 -0.2542  0.3582  0.4030
  873MPD2    C112858   2.818   0.450   0.906 -0.0671  0.6102  0.8129
  873MPD2    C212859   2.723   0.350   0.892 -0.2598  0.3012  0.0106
  873MPD2    C312860   2.756   0.232   0.832 -0.0196  0.6145  0.0653
  873MPD2    C412861   2.875   0.215   0.774  0.0953  0.0500  0.6719
  873MPD2    C512862   2.968   0.314   0.780  0.3511  0.1199  0.0025
  873MPD2     H12863   2.620   0.366   0.921 -0.9435  0.4551 -2.5223
  873MPD2    H112864   2.914   0.119   0.742 -1.9682 -0.4045 -0.4972
  873MPD2    H212865   3.017   0.509   0.846  0.2249 -0.0797  0.8778
  873MPD2    H312866   3.068   0.313   0.739 -0.1759  1.6167 -1.3387
  873MPD2     N12867   2.660   0.133   0.819 -0.0989  0.1867  0.1663
  873MPD2    H512868   2.581   0.127   0.882 -1.6352  1.7795 -1.5781
  873MPD2    N112869   2.798   0.570   0.976  0.0992  0.2209 -0.0552
  873MPD2    H712870   2.884   0.618   1.001 -1.5440  2.8291  0.6119
  874MPD2     C12871   1.737   0.106  16.388  0.4613 -0.2020  0.3586
  874MPD2    C112872   1.843   0.016  16.414 -0.4206  0.1391  0.1317
  874MPD2    C212873   1.972   0.049  16.370  0.6025  0.4546 -0.6404
  874MPD2    C312874   2.005   0.163  16.298 -0.5039 -0.2394  0.3623
  874MPD2    C412875   1.897   0.242  16.257  0.3644 -0.2404 -1.0466
  874MPD2    C512876   1.772   0.207  16.303 -0.7615  0.3423  0.0276
  874MPD2     H12877   2.055   4.727  16.412  0.9819  0.8572 -0.8661
  874MPD2    H112878   1.905   0.336  16.204 -0.0539 -0.0214 -0.7217
  874MPD2    H212879   1.637   0.103  16.430  0.2727 -3.2603 -0.3359
  874MPD2    H312880   1.692   0.274  16.272  0.2923  0.9866 -1.2808
  874MPD2     N12881   2.137   0.193  16.278  0.2146  0.5767 -0.7669
  874MPD2    H512882   2.201   0.133  16.329 -3.1180 -3.3036 -1.1369
  874MPD2    N112883   1.807   4.638  16.494  0.4554 -0.4616  0.0125
  874MPD2    H712884   1.711   4.633  16.525 -0.3079  0.0363 -2.2892
  875MPD2     C12885   2.824   2.978  14.482 -0.5440 -0.6798  0.1761
  875MPD2    C112886   2.701   3.025  14.527 -0.5933  0.1492 -0.7197
  875MPD2    C212887   2.694   3.093  14.650  0.1581 -1.1960 -0.8715
  875MPD2    C312888   2.809   3.117  14.728 -0.5258 -0.0073  0.8283
  875MPD2    C412889   2.925   3.075  14.688  0.2042 -1.3387  0.2801
  875MPD2    C512890   2.933   3.001  14.577  0.0721  0.4033  0.3791
  875MPD2     H12891   2.596   3.121  14.687  0.8599 -0.0606  0.1026
  875MPD2    H112892   3.012   3.089  14.750  0.5928 -0.6526 -0.4318
  875MPD2    H212893   2.836   2.935  14.383  2.6871  2.3322 -0.7653
  875MPD2    H312894   3.029   2.982  14.532 -1.0266 -1.9400 -0.9795
  875MPD2     N12895   2.809   3.197  14.849  0.5234 -0.2471  0.2887
  875MPD2    H512896   2.892   3.228  14.898  0.9297 -0.3106 -0.3629
  875MPD2    N112897   2.591   3.034  14.444 -0.3240 -0.0120  0.1836
  875MPD2    H712898   2.516   3.093  14.478  0.8993  1.3833  0.4694
  876MPD2     C12899   1.675   4.338  16.189  0.0973 -0.2678  0.2520
  876MPD2    C112900   1.809   4.362  16.215  0.1291  0.6208  0.6889
  876MPD2    C212901   1.878   4.267  16.290  1.0132 -0.1355 -0.5198
  876MPD2    C312902   1.814   4.147  16.325  0.4946 -0.5641 -0.9633
  876MPD2    C412903   1.681   4.124  16.291  0.4835  1.0395 -0.2628
  876MPD2    C512904   1.604   4.226  16.238  0.3744 -0.2623 -0.6404
  876MPD2     H12905   1.979   4.277  16.327  1.0616  0.1473 -0.7221
  876MPD2    H112906   1.629   4.035  16.325  0.2995  2.1519  2.3698
  876MPD2    H212907   1.618   4.414  16.138  1.0313 -0.7316 -1.4880
  876MPD2    H312908   1.500   4.221  16.210  0.5550  0.7944 -1.5121
  876MPD2     N12909   1.895   4.049  16.383  0.3236  0.2169 -0.5814
  876MPD2    H512910   1.993   4.075  16.383  1.1684 -2.9966 -1.9183
  876MPD2    N112911   1.862   4.473  16.158 -0.0243 -0.1986  0.1613
  876MPD2    H712912   1.801   4.520  16.092 -1.9391 -1.3342  1.1340
  877MPD2     C12913   1.684   0.213  15.622  0.0230 -0.6668 -0.8708
  877MPD2    C112914   1.819   0.232  15.618  0.1971 -0.0656  0.0330
  877MPD2    C212915   1.876   0.268  15.502 -0.1791 -0.6818  0.4884
  877MPD2    C312916   1.802   0.284  15.388  0.1033  0.1675  0.5167
  877MPD2    C412917   1.661   0.294  15.394  0.2257 -0.4995 -0.3296
  877MPD2    C512918   1.606   0.247  15.509  0.5868  0.2091  0.2160
  877MPD2     H12919   1.984   0.260  15.494 -0.1674 -1.9421  1.9635
  877MPD2    H112920   1.606   0.310  15.302 -0.4439 -3.4096 -0.4314
  877MPD2    H212921   1.634   0.164  15.705  2.0234 -0.2764  0.5666
  877MPD2    H312922   1.498   0.236  15.520  0.4100  0.4679 -1.2469
  877MPD2     N12923   1.856   0.297  15.256  0.2968  0.1831  0.5656
  877MPD2    H512924   1.794   0.339  15.187 -1.3509 -1.5999  0.9525
  877MPD2    N112925   1.903   0.198  15.724  0.0449 -0.3646 -0.2163
  877MPD2    H712926   2.001   0.218  15.706 -0.5353  1.4573 -1.3067
  878MPD2     C12927   1.363   3.561  13.687  0.4093 -0.6181 -0.2861
  878MPD2    C112928   1.323   3.677  13.627  0.1542 -0.5727  0.3597
  878MPD2    C212929   1.244   3.766  13.696 -0.0379  0.4121 -0.3505
  878MPD2    C312930   1.205   3.748  13.822 -0.0168 -0.1703 -0.1665
  878MPD2    C412931   1.253   3.632  13.884  0.5373  0.3713  0.6303
  878MPD2    C512932   1.322   3.540  13.815 -0.2293 -0.0009  0.7614
  878MPD2     H12933   1.212   3.852  13.639 -1.7540  0.0656  0.0987
  878MPD2    H112934   1.208   3.589  13.973  0.1127  1.4399  0.9321
  878MPD2    H212935   1.438   3.497  13.643  0.8958 -0.3734  0.1835
  878MPD2    H312936   1.358   3.448  13.860  0.5125 -0.2085 -0.2549
  878MPD2     N12937   1.128   3.851  13.883  0.4974 -0.2658  0.6159
  878MPD2    H512938   1.095   3.927  13.824 -0.1816  0.8731  2.4435
  878MPD2    N112939   1.369   3.695  13.492 -0.2968 -0.5863  0.1310
  878MPD2    H712940   1.423   3.621  13.447 -1.0422 -0.1646 -1.4530
  879MPD2     C12941   2.397   4.588  17.057 -0.1570 -0.1397  0.5565
  879MPD2    C112942   2.404   4.713  17.015  0.1067 -0.2330  0.0291
  879MPD2    C212943   2.307   0.022  16.935  0.9002 -0.1067 -0.2979
  879MPD2    C312944   2.194   4.676  16.913  0.6670 -0.5054  0.0141
  879MPD2    C412945   2.181   4.553  16.970  0.6551 -0.0032 -0.1944
  879MPD2    C512946   2.291   4.506  17.034  0.0030 -0.5886  0.6587
  879MPD2     H12947   2.303   0.126  16.903 -0.0625 -0.3601 -1.0055
  879MPD2    H112948   2.095   4.488  16.957  0.6792 -0.0882  0.0626
  879MPD2    H212949   2.476   4.535  17.109 -0.9299 -1.9516 -0.1150
  879MPD2    H312950   2.298   4.403  17.069  0.3333  0.0614  2.4951
  879MPD2     N12951   2.074   4.717  16.856  0.0866 -0.4379  0.4945
  879MPD2    H512952   1.986   4.671  16.877 -0.0849 -0.3837 -0.0839
  879MPD2    N112953   2.526   0.053  17.046 -1.0253 -0.0392 -1.2237
  879MPD2    H712954   2.597   0.012  17.106 -0.0956  0.0998 -2.2534
  880MPD2     C12955   3.410   1.873   0.824  0.1561 -0.4329  0.0940
  880MPD2    C112956   3.471   1.982   0.769  0.5261 -0.7669 -0.7000
  880MPD2    C212957   3.608   2.002   0.800 -0.4727  0.3024 -0.2618
  880MPD2    C312958   3.671   1.931   0.902  0.5054 -0.4516 -0.8149
  880MPD2    C412959   3.605   1.823   0.953  0.6733  0.4289  0.3970
  880MPD2    C512960   3.482   1.799   0.912 -1.1493 -0.6935 -0.4104
  880MPD2     H12961   3.658   2.089   0.759 -0.4116  0.4988  0.2345
  880MPD2    H112962   3.645   1.747   1.019  0.2603  0.0023  0.1624
  880MPD2    H212963   3.306   1.844   0.812  0.3647 -0.8710 -0.6940
  880MPD2    H312964   3.431   1.711   0.950 -0.0364 -0.2429  2.1396
  880MPD2     N12965   3.795   1.969   0.944 -0.4842 -0.2431 -0.7514
  880MPD2    H512966   3.846   2.034   0.885  0.0168 -0.2753 -0.3626
  880MPD2    N112967   3.396   2.060   0.673  0.3762 -0.0507  0.0698
  880MPD2    H712968   3.295   2.049   0.675 -0.0024  2.9325 -1.4809
  881MPD2     C12969   3.164   2.713  17.549  0.1370  0.4385 -0.6785
  881MPD2    C112970   3.299   2.666  17.573 -0.2480  0.7098 -0.4182
  881MPD2    C212971   3.319   2.569  17.671 -0.0939 -0.5915  0.0983
  881MPD2    C312972   3.209   2.531   0.019 -1.0425 -0.6894 -0.0175
  881MPD2    C412973   3.085   2.573  17.716 -0.0752  0.4416  0.7525
  881MPD2    C512974   3.062   2.661  17.619  0.0104 -0.2062 -0.1461
  881MPD2     H12975   3.419   2.532  17.689  0.6958  1.7438  0.5472
  881MPD2    H112976   3.001   2.546   0.050 -0.0567 -0.5587  0.3468
  881MPD2    H212977   3.152   2.772  17.459 -0.3786 -2.3046 -2.3921
  881MPD2    H312978   2.959   2.670  17.587 -0.2406 -1.0143  0.4262
  881MPD2     N12979   3.213   2.443   0.127 -0.6690 -0.5749 -0.1741
  881MPD2    H512980   3.123   2.416   0.166 -0.6215 -3.3846 -2.0346
  881MPD2    N112981   3.398   2.705  17.486 -0.5224 -0.3290 -0.5730
  881MPD2    H712982   3.366   2.776  17.421  0.9025  3.1054  2.4491
  882MPD2     C12983   1.684   0.465  14.568 -0.8919 -1.1684  0.5328
  882MPD2    C112984   1.702   0.380  14.671  0.6433 -0.0040  0.4943
  882MPD2    C212985   1.620   0.267  14.688  0.0263  0.2029  0.3330
  882MPD2    C312986   1.532   0.229  14.592 -0.0535 -0.2580  0.3140
  882MPD2    C412987   1.517   0.319  14.490  0.1877 -0.2586  0.0158
  882MPD2    C512988   1.579   0.441  14.479  0.4214  0.0013 -0.1000
  882MPD2     H12989   1.636   0.207  14.777  0.3647  0.9210  0.7535
  882MPD2    H112990   1.443   0.308  14.412  0.8872 -0.1163 -0.6699
  882MPD2    H212991   1.734   0.560  14.566 -0.3403 -1.4259  2.7939
  882MPD2    H312992   1.541   0.505  14.400  2.0714 -0.5813 -1.3628
  882MPD2     N12993   1.451   0.115  14.599  0.2610  0.0131 -0.3746
  882MPD2    H512994   1.366   0.116  14.543 -1.6737 -1.9256  2.5319
  882MPD2    N112995   1.794   0.403  14.777  0.0122  0.1693  0.3590
  882MPD2    H712996   1.790   0.329  14.846  1.0935  1.5118  1.8518
  883MPD2     C12997   3.706   4.040  16.099 -0.1488  1.0220 -0.0958
  883MPD2    C112998   3.760   4.158  16.051 -0.4962 -0.7823  0.6519
  883MPD2    C212999   3.883   4.195  16.097 -0.2682 -0.4717  0.2395
  883MPD2    C313000   3.938   4.122  16.205  1.3438  0.1495  0.6613
  883MPD2    C413001   3.880   4.002  16.261 -0.0815 -0.0047  0.8318
  883MPD2    C513002   3.761   3.966  16.205  0.2893 -0.6199  1.1331
  883MPD2     H13003   3.933   4.280  16.053 -0.1509 -0.9336 -0.5078
  883MPD2    H113004   3.912   3.947  16.349  1.7230  1.0931  0.8505
  883MPD2    H213005   3.612   4.013  16.051 -0.1908  0.0146  0.5411
  883MPD2    H313006   3.708   3.876  16.234 -0.3507  0.5958  3.6462
  883MPD2     N13007   4.058   4.165  16.258 -0.0570  0.2015 -0.1687
  883MPD2    H513008   4.112   4.239  16.214  0.2801 -0.3764 -0.7311
  883MPD2    N113009   3.711   4.234  15.946  0.3615 -0.1129 -0.0945
  883MPD2    H713010   3.771   4.311  15.919 -0.2103  0.8742  1.5054
  884MPD2     C13011   1.252   0.810  15.372 -0.0727  0.2119 -0.2786
  884MPD2    C113012   1.189   0.893  15.287  0.0299 -0.2962  0.2680
  884MPD2    C213013   1.048   0.915  15.308  0.1028 -0.6461  0.3154
  884MPD2    C313014   0.973   0.831  15.384 -0.3610 -0.3617  0.3824
  884MPD2    C413015   1.036   0.740  15.464 -0.4495 -0.1743  0.5894
  884MPD2    C513016   1.177   0.732  15.458 -0.2360  0.1465 -0.0358
  884MPD2     H13017   0.997   0.988  15.246  3.2639  1.5225  0.2476
  884MPD2    H113018   0.981   0.681  15.536 -1.6315  0.7778  0.4722
  884MPD2    H213019   1.358   0.809  15.396  0.0123 -1.3267 -0.6949
  884MPD2    H313020   1.220   0.667  15.533 -0.2002  0.0619 -0.1298
  884MPD2     N13021   0.836   0.861  15.383 -0.0699  0.0156 -0.1981
  884MPD2    H513022   0.801   0.934  15.322 -0.7218  0.0983  0.2660
  884MPD2    N113023   1.263   0.975  15.196  0.1072  0.1584 -0.2261
  884MPD2    H713024   1.208   1.038  15.138  0.5652  1.9233  1.2517
  885MPD2     C13025   4.266   1.189   0.468 -0.2890  0.2743  0.3807
  885MPD2    C113026   4.377   1.136   0.404  0.1174  0.3558 -0.0729
  885MPD2    C213027   4.367   1.097   0.267  0.0313 -0.9131  0.3322
  885MPD2    C313028   4.248   1.112   0.201  0.2314  0.3927 -0.1059
  885MPD2    C413029   4.136   1.150   0.269  0.1670 -0.3780 -0.3839
  885MPD2    C513030   4.150   1.190   0.398  0.3574 -0.1433 -0.2710
  885MPD2     H13031   4.458   1.070   0.215  0.7708 -0.6554  1.4703
  885MPD2    H113032   4.040   1.158   0.220 -0.2794 -1.1555  0.3500
  885MPD2    H213033   4.267   1.220   0.572  2.5651  2.9514 -0.4438
  885MPD2    H313034   4.065   1.233   0.449  0.8379  0.9437 -0.3714
  885MPD2     N13035   4.249   1.064   0.069 -0.7385 -0.3551  0.5589
  885MPD2    H513036   4.338   1.033   0.031  0.1938  1.9890  0.8249
  885MPD2    N113037   4.497   1.126   0.477 -0.0048 -0.3277  0.5245
  885MPD2    H713038   4.491   1.160   0.573 -0.3063  1.0154  0.0370
  886MPD2     C13039   0.730   4.124  15.144 -0.2764  0.6288  0.7754
  886MPD2    C113040   0.785   4.139  15.272 -0.2336 -0.6932 -0.9762
  886MPD2    C213041   0.723   4.242  15.340  0.2736 -0.5153 -0.5767
  886MPD2    C313042   0.639   4.336  15.286  0.3626 -0.0164 -0.7009
  886MPD2    C413043   0.601   4.325  15.155  0.6526 -1.2190  0.2803
  886MPD2    C513044   0.657   4.226  15.086  0.2709 -0.4650 -1.0480
  886MPD2     H13045   0.755   4.250  15.444 -3.3077 -0.3176  0.5264
  886MPD2    H113046   0.557   4.406  15.098 -0.0350 -1.0621  1.0333
  886MPD2    H213047   0.771   4.051  15.076 -1.8026 -0.2613  0.8011
  886MPD2    H313048   0.642   4.234  14.979  0.2360  2.0128 -0.8638
  886MPD2     N13049   0.587   4.441  15.368  0.8753 -0.0574  0.0174
  886MPD2    H513050   0.543   4.507  15.306  1.3097  1.0742  0.9018
  886MPD2    N113051   0.886   4.053  15.326 -0.7051 -0.4092  0.3132
  886MPD2    H713052   0.907   4.074  15.423  2.2617  1.3102 -0.7043
  887MPD2     C13053   1.410   4.071  15.799 -0.1020 -0.4761 -0.1204
  887MPD2    C113054   1.302   4.110  15.726  0.4605  0.1262  0.6570
  887MPD2    C213055   1.265   4.243  15.724  0.1596 -0.1093  0.0678
  887MPD2    C313056   1.340   4.342  15.782 -0.2845 -0.2327  0.0037
  887MPD2    C413057   1.460   4.302  15.845  0.6511 -0.0971  0.3404
  887MPD2    C513058   1.487   4.165  15.860  0.5142  0.4534  0.1736
  887MPD2     H13059   1.167   4.266  15.683  0.6260  2.1099  0.2131
  887MPD2    H113060   1.524   4.376  15.891  2.3554 -1.2468 -0.1846
  887MPD2    H213061   1.451   3.971  15.809 -1.1035 -0.8434  0.2731
  887MPD2    H313062   1.576   4.139  15.917 -0.5308  0.0017  1.5915
  887MPD2     N13063   1.280   4.469  15.779 -0.3181  0.3589  0.2697
  887MPD2    H513064   1.181   4.466  15.758 -0.7555 -0.0131  2.4499
  887MPD2    N113065   1.223   4.028  15.641 -0.3172  0.3950  0.5428
  887MPD2    H713066   1.137   4.060  15.595 -1.4191 -2.4486  0.6565
  888MPD2     C13067   2.878   4.140  14.911 -0.3031  0.3244 -0.3490
  888MPD2    C113068   2.836   4.212  15.020  0.3772  0.1868 -0.1960
  888MPD2    C213069   2.845   4.352  15.013 -0.7048 -0.9463 -0.0504
  888MPD2    C313070   2.902   4.414  14.907  0.3135 -0.0157  0.8750
  888MPD2    C413071   2.940   4.339  14.798  0.5093 -0.0324  0.9372
  888MPD2    C513072   2.934   4.205  14.807 -0.4602  0.3787  0.0405
  888MPD2     H13073   2.819   4.411  15.099  1.1701  2.1079 -1.5536
  888MPD2    H113074   2.994   4.368  14.708 -0.0507 -0.5599  0.4312
  888MPD2    H213075   2.881   4.032  14.903 -0.6815  0.4976 -2.6413
  888MPD2    H313076   2.971   4.148  14.723  0.7025 -1.3667  1.7206
  888MPD2     N13077   2.935   4.550  14.921  0.1065 -0.2571 -0.4315
  888MPD2    H513078   2.900   4.602  15.001  0.8423  0.7264 -0.7447
  888MPD2    N113079   2.775   4.157  15.138 -0.9449 -0.3982  0.2904
  888MPD2    H713080   2.739   4.227  15.202  0.3348  1.4390 -0.9957
  889MPD2     C13081   1.682   3.705  13.642 -0.4807  0.0247  0.1298
  889MPD2    C113082   1.778   3.730  13.548  0.3178 -0.6693 -0.0538
  889MPD2    C213083   1.870   3.825  13.585 -0.5465  0.1306  0.0900
  889MPD2    C313084   1.847   3.924  13.683 -0.5623 -0.0512 -0.1046
  889MPD2    C413085   1.730   3.908  13.755  0.4053 -0.1975  0.1134
  889MPD2    C513086   1.647   3.798  13.728  0.8926  0.5108  0.0410
  889MPD2     H13087   1.955   3.840  13.520 -0.7841  1.0980 -0.0034
  889MPD2    H113088   1.708   3.969  13.842  1.0258  0.5446 -0.2416
  889MPD2    H213089   1.611   3.623  13.636  0.7529 -0.9866 -0.7203
  889MPD2    H313090   1.554   3.774  13.778  1.2834 -0.5834  0.2343
  889MPD2     N13091   1.933   4.034  13.696 -1.0032 -0.3054 -0.4392
  889MPD2    H513092   2.020   4.037  13.643  0.1959 -1.3524  1.4546
  889MPD2    N113093   1.806   3.634  13.446 -0.5022 -0.1522 -0.5097
  889MPD2    H713094   1.899   3.625  13.405 -0.2338 -0.3992  0.1527
  890MPD2     C13095   1.820   0.825  14.770 -0.9343 -1.0698  0.4717
  890MPD2    C113096   1.949   0.859  14.812  0.1136 -0.9524 -0.3683
  890MPD2    C213097   1.999   0.809  14.928 -0.3036 -0.6016  0.4123
  890MPD2    C313098   1.914   0.744  15.022 -0.0446 -0.2747 -0.8212
  890MPD2    C413099   1.788   0.717  14.981  0.1962 -0.0176 -0.3953
  890MPD2    C513100   1.741   0.752  14.856 -1.0567 -0.4301  0.7215
  890MPD2     H13101   2.095   0.842  14.966 -0.0747  0.6769 -1.2913
  890MPD2    H113102   1.717   0.670  15.047 -0.3441  0.7237 -0.4489
  890MPD2    H213103   1.780   0.876  14.683 -1.8206  0.1742  1.6072
  890MPD2    H313104   1.637   0.729  14.838 -0.6934 -0.5718 -1.1498
  890MPD2     N13105   1.972   0.726  15.151  0.4457  0.7259 -0.3345
  890MPD2    H513106   2.072   0.742  15.160  0.3869  0.6544  0.4071
  890MPD2    N113107   2.035   0.935  14.725  0.0025  0.0936  0.1019
  890MPD2    H713108   1.990   0.994  14.655  1.0311  2.0823  1.1081
  891MPD2     C13109   4.457   3.245  16.478  0.5326  0.2550  0.8001
  891MPD2    C113110   4.511   3.367  16.492  0.4713  0.4125  0.0238
  891MPD2    C213111   4.647   3.374  16.520 -0.5467  0.5722 -0.1199
  891MPD2    C313112   4.726   3.264  16.532 -0.4052 -0.0615  0.0763
  891MPD2    C413113   4.669   3.139  16.521 -0.2593 -0.3724  0.4763
  891MPD2    C513114   4.535   3.128  16.489 -0.9017 -0.6898 -0.3399
  891MPD2     H13115   4.702   3.467  16.514  0.5237 -0.0167  0.5820
  891MPD2    H113116   4.731   3.050  16.521  2.2653  1.3988  1.0009
  891MPD2    H213117   4.350   3.244  16.456  0.1147 -2.1804  3.0135
  891MPD2    H313118   4.496   3.028  16.478 -1.4351 -0.6146  0.8857
  891MPD2     N13119   0.127   3.284  16.581  0.4335 -0.0408  1.1322
  891MPD2    H513120   0.157   3.374  16.619  2.2117  0.7541 -2.1942
  891MPD2    N113121   4.420   3.475  16.470  0.1511  0.3900 -0.2196
  891MPD2    H713122   4.337   3.443  16.420  0.1436  0.8890 -0.5216
  892MPD2     C13123   1.211   0.131  15.433 -0.0836 -0.4554  0.7248
  892MPD2    C113124   1.137   0.151  15.321  0.4744  0.2690  0.3573
  892MPD2    C213125   1.173   0.077  15.205 -0.1466 -0.2507 -0.4474
  892MPD2    C313126   1.269   4.708  15.203 -0.1642 -0.3555  0.5573
  892MPD2    C413127   1.354   4.704  15.312  0.1532 -0.8246 -0.4590
  892MPD2    C513128   1.323   0.050  15.420 -0.0959 -0.0988 -0.0226
  892MPD2     H13129   1.101   0.096  15.126  1.0719 -1.9909 -1.9669
  892MPD2    H113130   1.432   4.629  15.317  0.2637 -0.6082  1.1714
  892MPD2    H213131   1.194   0.176  15.530  0.5432  0.7338  0.2903
  892MPD2    H313132   1.374   0.043  15.516 -1.0370 -1.0912  0.4108
  892MPD2     N13133   1.281   4.615  15.094  0.1323  0.2570  0.0675
  892MPD2    H513134   1.367   4.560  15.092  0.4643  0.8232 -1.3213
  892MPD2    N113135   1.037   0.252  15.315  0.2958 -0.2533 -0.2890
  892MPD2    H713136   0.986   0.256  15.227  0.8339  2.8078 -0.4552
  893MPD2     C13137   2.638   3.035   0.311 -0.3391  0.5043 -0.2577
  893MPD2    C113138   2.605   3.144   0.394  0.2273  0.8578 -1.0673
  893MPD2    C213139   2.475   3.150   0.446  0.1961  0.6134  0.7498
  893MPD2    C313140   2.384   3.047   0.419  0.3116  0.0137  0.7642
  893MPD2    C413141   2.416   2.947   0.331 -0.3721 -0.2521  0.6744
  893MPD2    C513142   2.543   2.941   0.281 -0.0202 -0.1175  0.0649
  893MPD2     H13143   2.453   3.231   0.515 -4.0965 -0.4321  0.6013
  893MPD2    H113144   2.344   2.871   0.304 -1.6928  1.4756 -0.6406
  893MPD2    H213145   2.734   3.034   0.261  1.3154 -2.4150  3.0375
  893MPD2    H313146   2.558   2.877   0.196  1.3658  0.4105 -0.0969
  893MPD2     N13147   2.250   3.040   0.475 -0.6228  1.0287  0.0825
  893MPD2    H513148   2.185   2.975   0.433  1.6054 -0.2824 -1.3490
  893MPD2    N113149   2.705   3.235   0.428  0.3419  0.1067  0.1151
  893MPD2    H713150   2.798   3.199   0.410 -0.8229 -2.1017 -1.4789
  894MPD2     C13151   1.598   1.533   2.088  0.1662 -0.1342  0.2265
  894MPD2    C113152   1.471   1.533   2.053 -1.1132  0.3304 -0.2528
  894MPD2    C213153   1.443   1.527   1.915  0.7962  0.2773  0.1631
  894MPD2    C313154   1.542   1.522   1.823 -0.0967  0.2203 -0.3630
  894MPD2    C413155   1.674   1.535   1.858 -0.2274  0.7632  0.2042
  894MPD2    C513156   1.705   1.542   1.994  0.6306  0.2042  0.1033
  894MPD2     H13157   1.345   1.529   1.871  0.3095  2.0147  1.3193
  894MPD2    H113158   1.757   1.532   1.788 -0.2944  0.8177  0.1221
  894MPD2    H213159   1.633   1.525   2.190 -0.1222 -2.3119  0.1449
  894MPD2    H313160   1.805   1.556   2.033  0.9944 -0.4794 -0.5943
  894MPD2     N13161   1.498   1.491   1.692  0.2255 -0.2844 -0.5554
  894MPD2    H513162   1.399   1.499   1.673 -0.0495  0.4202  1.1362
  894MPD2    N113163   1.363   1.540   2.144  0.2181  0.9742 -0.1754
  894MPD2    H713164   1.270   1.530   2.103 -0.1205  0.3356  0.7437
  895MPD2     C13165   4.729   3.997  13.560 -0.1377  0.3677 -0.2858
  895MPD2    C113166   4.632   4.041  13.470  0.0842  0.2354 -0.3770
  895MPD2    C213167   4.597   3.960  13.364 -0.5346  0.2450  0.6166
  895MPD2    C313168   4.658   3.833  13.346  1.2591 -0.2967  0.3525
  895MPD2    C413169   0.026   3.793  13.423 -0.3387  0.2896  0.4770
  895MPD2    C513170   0.054   3.872  13.531  0.4565 -0.2584 -0.1267
  895MPD2     H13171   4.499   3.983  13.323  0.0692 -0.9758 -1.5250
  895MPD2    H113172   0.074   3.697  13.411 -0.8906  0.0746 -0.0178
  895MPD2    H213173   0.031   4.050  13.648  1.3217  0.0080 -0.6461
  895MPD2    H313174   0.136   3.832  13.590 -0.1632 -1.8255 -0.3050
  895MPD2     N13175   4.640   3.747  13.238 -0.1541 -0.1891  0.8839
  895MPD2    H513176   4.681   3.656  13.256 -0.6684 -0.4707  0.6165
  895MPD2    N113177   4.550   4.153  13.498  0.3826  0.3513  0.6211
  895MPD2    H713178   4.481   4.174  13.427  2.0602  1.1351 -0.8042
  896MPD2     C13179   2.652   2.715   1.002 -0.8809  0.0891 -0.4460
  896MPD2    C113180   2.636   2.583   0.967 -0.2837 -0.0023  0.0096
  896MPD2    C213181   2.513   2.544   0.920 -0.4119  0.8022  0.0196
  896MPD2    C313182   2.409   2.634   0.910  0.1013  0.1508 -0.5249
  896MPD2    C413183   2.431   2.767   0.938  0.1589 -0.8861  0.0267
  896MPD2    C513184   2.553   2.807   0.978 -0.7868  0.9530 -1.2515
  896MPD2     H13185   2.495   2.440   0.898  0.9205  0.3628  1.0255
  896MPD2    H113186   2.359   2.845   0.918  0.7101 -0.5924 -0.8471
  896MPD2    H213187   2.741   2.754   1.051 -0.8934  0.3979 -0.6745
  896MPD2    H313188   2.579   2.905   1.016 -0.7740  0.0257  1.1834
  896MPD2     N13189   2.280   2.583   0.865 -0.0301  0.1235  0.0128
  896MPD2    H513190   2.275   2.484   0.843 -1.1255  0.0647  0.5206
  896MPD2    N113191   2.745   2.501   0.979  0.6724  0.7231 -0.1136
  896MPD2    H713192   2.826   2.543   1.022  0.0957  1.1476  0.5709
  897MPD2     C13193   3.922   3.996  10.559 -0.5390  0.0097 -0.2357
  897MPD2    C113194   3.895   4.130  10.563 -1.0199 -0.1244 -0.3344
  897MPD2    C213195   3.826   4.178  10.667 -0.2444 -0.3715 -0.0130
  897MPD2    C313196   3.766   4.094  10.760  0.5841  0.4523 -0.0121
  897MPD2    C413197   3.805   3.959  10.757  0.4872 -0.2283 -0.2933
  897MPD2    C513198   3.892   3.911  10.662 -0.7530  0.8964 -0.3249
  897MPD2     H13199   3.796   4.282  10.659  0.8634 -0.1534 -1.2327
  897MPD2    H113200   3.743   3.886  10.808  1.4783 -0.9294 -0.0877
  897MPD2    H213201   3.982   3.954  10.478  2.0500  2.0398  0.6319
  897MPD2    H313202   3.914   3.805  10.653 -1.0162  0.6455  1.8151
  897MPD2     N13203   3.679   4.155  10.853 -0.5119 -0.0455  0.2179
  897MPD2    H513204   3.663   4.254  10.841  2.7152  0.6984  1.9065
  897MPD2    N113205   3.938   4.216  10.466  0.0514 -0.2950 -0.0702
  897MPD2    H713206   3.930   4.317  10.478 -0.1923 -0.2891 -0.2859
  898MPD2     C13207   1.653   0.335   0.812  0.2487 -0.3234  0.2129
  898MPD2    C113208   1.607   0.209   0.804 -0.4352 -0.0532  0.6407
  898MPD2    C213209   1.493   0.187   0.734 -0.3247 -0.1084  0.3429
  898MPD2    C313210   1.406   0.287   0.693 -0.2354 -0.7468 -0.2181
  898MPD2    C413211   1.457   0.418   0.705  0.3320 -0.5974  0.3480
  898MPD2    C513212   1.577   0.434   0.764 -0.7332 -0.0678  0.3191
  898MPD2     H13213   1.447   0.090   0.719 -1.1104  0.1564  1.0684
  898MPD2    H113214   1.402   0.501   0.662 -1.3843 -1.5927  0.6049
  898MPD2    H213215   1.752   0.354   0.852  0.8095 -0.8806 -0.9100
  898MPD2    H313216   1.615   0.535   0.773  0.4854 -0.5509  0.6553
  898MPD2     N13217   1.270   0.256   0.648 -0.5326 -0.3070 -0.8062
  898MPD2    H513218   1.250   0.162   0.616  1.1888 -0.7669 -0.5094
  898MPD2    N113219   1.683   0.119   0.872 -0.0912 -0.9579 -0.8577
  898MPD2    H713220   1.777   0.147   0.898 -0.0947 -0.9787 -0.8221
  899MPD2     C13221   1.404   0.163  17.562  0.1565 -0.8477 -0.4830
  899MPD2    C113222   1.535   0.194  17.527 -0.1994 -0.5501  0.1076
  899MPD2    C213223   1.637   0.170  17.622  0.0255  0.3291 -0.7934
  899MPD2    C313224   1.594   0.109   0.014  0.1792 -0.1818 -0.5944
  899MPD2    C413225   1.468   0.068   0.035 -0.2472  0.1557 -0.1831
  899MPD2    C513226   1.366   0.099  17.678  0.3257  0.3958 -0.0240
  899MPD2     H13227   1.739   0.206  17.619 -0.7498  2.8136  1.8879
  899MPD2    H113228   1.437   4.728   0.110 -0.2452  1.3593  0.9739
  899MPD2    H213229   1.324   0.198  17.498 -1.0446  0.2349  1.6150
  899MPD2    H313230   1.267   0.054  17.677 -0.3285  1.8510  0.0578
  899MPD2     N13231   1.682   0.058   0.122  0.0828  0.4866  0.1115
  899MPD2    H513232   1.635   0.012   0.200  0.4470  0.1201  0.1121
  899MPD2    N113233   1.550   0.276  17.413  0.0049  0.5359  0.5374
  899MPD2    H713234   1.461   0.297  17.368  0.8156  2.2560 -0.2615
  900MPD2     C13235   1.398   1.813  12.484 -0.0373 -0.0788  0.4755
  900MPD2    C113236   1.284   1.770  12.539 -0.4852 -0.1710  0.8757
  900MPD2    C213237   1.172   1.851  12.542  0.0955 -0.0953 -0.3962
  900MPD2    C313238   1.182   1.979  12.485 -0.6711  0.0624  0.1458
  900MPD2    C413239   1.303   2.026  12.432 -0.4611  0.2476  0.3726
  900MPD2    C513240   1.408   1.938  12.425  0.0074 -0.2203  0.1810
  900MPD2     H13241   1.080   1.821  12.591 -0.1962 -0.9460 -1.4500
  900MPD2    H113242   1.324   2.123  12.388 -2.7530  0.3396 -0.5304
  900MPD2    H213243   1.488   1.755  12.468 -0.2985 -0.4842  0.4694
  900MPD2    H313244   1.501   1.972  12.381  0.9731 -2.5741  0.3881
  900MPD2     N13245   1.063   2.051  12.470  0.0294  0.3577  0.5773
  900MPD2    H513246   0.976   2.023  12.513 -0.6963  1.8884  0.0882
  900MPD2    N113247   1.290   1.636  12.584 -0.0518  0.6897  0.0406
  900MPD2    H713248   1.385   1.599  12.586  0.4097  1.9693  1.0374
  901MPD2     C13249   0.908   0.693  12.982  0.6088  0.7498 -0.6538
  901MPD2    C113250   1.030   0.674  12.928 -0.0671 -0.5395  0.4033
  901MPD2    C213251   1.095   0.786  12.879 -0.4362  0.4864 -0.4796
  901MPD2    C313252   1.041   0.909  12.878  0.4110 -0.5203  0.1420
  901MPD2    C413253   0.907   0.926  12.921  0.7472  0.2576  0.6179
  901MPD2    C513254   0.847   0.812  12.973 -0.1390 -0.1313  0.0289
  901MPD2     H13255   1.193   0.775  12.835 -0.6785  0.4208 -1.0103
  901MPD2    H113256   0.861   1.023  12.930 -0.1699 -0.1711  0.5254
  901MPD2    H213257   0.846   0.610  13.013 -0.2756  0.7616 -2.3994
  901MPD2    H313258   0.743   0.810  13.002 -0.4077  0.6121 -0.8853
  901MPD2     N13259   1.112   1.022  12.836  0.3049 -0.4179  0.5719
  901MPD2    H513260   1.209   1.012  12.808  0.0775 -0.6974 -0.1275
  901MPD2    N113261   1.102   0.548  12.917  0.1098 -0.6168 -0.1210
  901MPD2    H713262   1.197   0.561  12.883 -0.2195  0.0473 -0.7901
  902MPD2     C13263   0.528   4.535  13.074 -0.3331 -0.1861 -0.5594
  902MPD2    C113264   0.412   4.546  13.003 -0.1327  0.3990  0.4531
  902MPD2    C213265   0.380   4.447  12.908 -0.1697 -0.0001  0.6613
  902MPD2    C313266   0.476   4.350  12.875 -0.5085 -1.0362  0.0545
  902MPD2    C413267   0.591   4.342  12.949 -0.4050 -0.1285 -0.5000
  902MPD2    C513268   0.611   4.430  13.050  0.7440  0.3820 -0.4986
  902MPD2     H13269   0.287   4.461  12.853 -1.0400 -0.8474  1.9083
  902MPD2    H113270   0.656   4.256  12.938  0.7765  0.5425  1.3248
  902MPD2    H213271   0.557   4.607  13.150 -1.6924  1.4816 -1.6389
  902MPD2    H313272   0.702   4.414  13.106  1.6715  1.9924 -1.5848
  902MPD2     N13273   0.458   4.246  12.780 -0.2194  0.0254 -0.4261
  902MPD2    H513274   0.533   4.178  12.771  1.0091  1.4304 -0.8111
  902MPD2    N113275   0.336   4.664  13.032 -0.6139 -0.2369 -0.4092
  902MPD2    H713276   0.386   0.001  13.087 -1.6298 -0.7002  1.1005
  903MPD2     C13277   0.296   3.984  11.932  0.0369  0.1383  0.5363
  903MPD2    C113278   0.222   4.038  12.039 -0.0460 -0.9731  1.3108
  903MPD2    C213279   0.118   4.125  12.006 -0.0486  0.1059  0.4623
  903MPD2    C313280   0.098   4.169  11.874  0.0846 -0.3601  0.1961
  903MPD2    C413281   0.172   4.114  11.772  0.6809  1.1391  0.2325
  903MPD2    C513282   0.261   4.023  11.802 -0.1656 -0.0358  0.3841
  903MPD2     H13283   0.043   4.163  12.074  0.7631  1.7895  0.4348
  903MPD2    H113284   0.153   4.139  11.668 -1.3881 -0.7910  0.1560
  903MPD2    H213285   0.374   3.911  11.948 -1.8391 -2.0914 -0.5740
  903MPD2    H313286   0.304   3.973  11.716 -2.7783 -1.3798 -0.1472
  903MPD2     N13287   4.713   4.252  11.856 -0.0402 -0.0541  0.1356
  903MPD2    H513288   4.665   4.276  11.942 -1.0743  0.6058 -0.6146
  903MPD2    N113289   0.248   4.001  12.174 -0.1619  0.1781 -0.3380
  903MPD2    H713290   0.333   3.951  12.197 -0.1078 -0.2101 -1.3761
  904MPD2     C13291   4.598   3.044  13.933  0.0918  0.9672  0.2876
  904MPD2    C113292   4.682   3.158  13.939 -0.0523 -0.4162  0.0045
  904MPD2    C213293   0.075   3.146  13.996 -0.1167  0.3160  0.6703
  904MPD2    C313294   0.118   3.029  14.048 -0.1140  0.0737  0.0330
  904MPD2    C413295   0.039   2.914  14.036  0.3019 -1.0057 -0.4272
  904MPD2    C513296   4.644   2.926  13.984 -0.2405  0.5648  0.2333
  904MPD2     H13297   0.143   3.230  14.002  1.9434 -1.2491 -1.0468
  904MPD2    H113298   0.067   2.824  14.090 -1.7884 -1.1357  0.4490
  904MPD2    H213299   4.498   3.050  13.891 -0.1186 -1.7558  0.4174
  904MPD2    H313300   4.578   2.840  13.987 -1.0774  1.2248  0.6722
  904MPD2     N13301   0.240   3.032  14.117  0.3785  0.0334 -0.6460
  904MPD2    H513302   0.290   3.120  14.120 -2.4495  1.6206 -0.1449
  904MPD2    N113303   4.649   3.285  13.896  0.5130 -0.0256 -0.2242
  904MPD2    H713304   4.717   3.360  13.902  0.8661 -0.2763 -1.1046
  905MPD2     C13305   4.201   3.922  13.363  0.7441 -0.5228  0.1940
  905MPD2    C113306   4.263   3.798  13.371 -0.4514 -0.0817 -0.7143
  905MPD2    C213307   4.261   3.718  13.259  0.0002 -0.3296 -0.1777
  905MPD2    C313308   4.198   3.754  13.141  0.6717 -0.6915  0.3209
  905MPD2    C413309   4.146   3.882  13.139 -0.3119  0.3924 -0.6962
  905MPD2    C513310   4.138   3.959  13.248 -0.1077  0.1591  0.3946
  905MPD2     H13311   4.315   3.624  13.259  1.0340  0.2548 -2.3402
  905MPD2    H113312   4.099   3.925  13.052 -0.3425 -0.6158 -1.1750
  905MPD2    H213313   4.201   3.982  13.453  0.7815 -1.1622  0.6214
  905MPD2    H313314   4.090   4.056  13.243 -1.1054 -0.4414 -1.6448
  905MPD2     N13315   4.202   3.683  13.024  0.4444 -0.2661 -0.0567
  905MPD2    H513316   4.188   3.731  12.936  1.4872  2.5329  1.3059
  905MPD2    N113317   4.323   3.759  13.493 -0.1323  0.0254  0.0253
  905MPD2    H713318   4.295   3.817  13.572 -0.1460  0.4957 -0.3231
  906MPD2     C13319   2.243   4.238  11.485  0.3752 -0.4569 -0.2801
  906MPD2    C113320   2.308   4.131  11.421 -0.5259 -0.1450 -0.3184
  906MPD2    C213321   2.312   4.006  11.482  0.9934 -0.1403  0.1596
  906MPD2    C313322   2.239   3.979  11.597  0.0867  0.3444 -0.1489
  906MPD2    C413323   2.173   4.082  11.654  0.1771  0.1847  0.0810
  906MPD2    C513324   2.180   4.206  11.602 -0.5109 -0.2791 -0.1853
  906MPD2     H13325   2.382   3.937  11.436  0.5107 -0.9847  0.6958
  906MPD2    H113326   2.125   4.069  11.750  2.1158 -1.4493  0.8329
  906MPD2    H213327   2.244   4.340  11.449  0.5029 -0.6366 -0.7868
  906MPD2    H313328   2.123   4.280  11.657 -0.9903  0.0350 -1.1063
  906MPD2     N13329   2.224   3.849  11.649 -0.6883 -0.8076  0.0480
  906MPD2    H513330   2.163   3.843  11.730 -2.4766  0.9832 -1.1853
  906MPD2    N113331   2.378   4.143  11.303 -0.1261  0.0737  0.1671
  906MPD2    H713332   2.412   4.061  11.253  0.9929 -1.4770  3.4841
  907MPD2     C13333   0.768   2.707  16.112 -0.3861 -0.1015  0.1846
  907MPD2    C113334   0.782   2.588  16.052  0.2987 -0.1173  0.3894
  907MPD2    C213335   0.827   2.487  16.132  0.0079 -0.0124 -0.6873
  907MPD2    C313336   0.845   2.499  16.264 -0.5001  0.6952  0.1336
  907MPD2    C413337   0.825   2.622  16.320 -0.1582 -0.1629  0.2342
  907MPD2    C513338   0.786   2.725  16.244  0.4193 -0.2765 -0.2239
  907MPD2     H13339   0.839   2.391  16.085  0.6303 -0.1279 -0.2962
  907MPD2    H113340   0.840   2.639  16.426  1.7840  0.8935 -0.2224
  907MPD2    H213341   0.749   2.791  16.047 -2.1111 -0.4093  0.2917
  907MPD2    H313342   0.766   2.821  16.289 -0.4004  0.5335 -2.3448
  907MPD2     N13343   0.879   2.380  16.340 -0.6835 -0.4928 -0.2615
  907MPD2    H513344   0.894   2.298  16.282 -2.1462 -0.8771 -0.1039
  907MPD2    N113345   0.765   2.569  15.914 -0.3412 -0.4506  0.6842
  907MPD2    H713346   0.756   2.472  15.886 -1.1355  0.4001 -2.0037
  908MPD2     C13347   3.651   4.363   9.536 -0.3236  0.0619  0.1234
  908MPD2    C113348   3.639   4.249   9.612 -0.0251  0.4104  0.0680
  908MPD2    C213349   3.679   4.261   9.745  0.4733 -0.0335 -0.0824
  908MPD2    C313350   3.741   4.374   9.793 -0.1112  0.1937 -0.3839
  908MPD2    C413351   3.760   4.479   9.704 -0.3999 -0.6002  0.1197
  908MPD2    C513352   3.714   4.476   9.577  0.1261  0.3593  0.0498
  908MPD2     H13353   3.680   4.175   9.810 -0.5575  0.2444  0.2906
  908MPD2    H113354   3.816   4.570   9.722 -0.8707 -0.6800  2.0351
  908MPD2    H213355   3.606   4.361   9.438 -0.2368  0.9517  0.0681
  908MPD2    H313356   3.742   4.544   9.497 -2.1292  1.8836  0.5587
  908MPD2     N13357   3.801   4.373   9.919  0.6459  0.4193  0.2770
  908MPD2    H513358   3.780   4.295   9.981 -0.9841 -0.9534 -1.9852
  908MPD2    N113359   3.603   4.127   9.559 -0.1504 -0.0480  0.0126
  908MPD2    H713360   3.606   4.103   9.461 -0.0199 -1.0082  0.2481
  909MPD2     C13361   3.935   1.941  11.827  0.1106  0.0729  0.4400
  909MPD2    C113362   3.933   2.070  11.870 -0.0852 -0.4455 -0.1960
  909MPD2    C213363   3.833   2.116  11.957  0.5107  0.0256  0.3042
  909MPD2    C313364   3.753   2.027  12.025  0.0587  0.8204 -0.2098
  909MPD2    C413365   3.758   1.892  11.984  0.2423  0.1553 -0.2900
  909MPD2    C513366   3.846   1.847  11.882  0.4890  0.3328  0.1123
  909MPD2     H13367   3.832   2.220  11.989 -0.6751 -0.6567  2.4338
  909MPD2    H113368   3.688   1.820  12.024  1.0840  0.4804  1.7508
  909MPD2    H213369   3.992   1.910  11.740  0.0225  0.4311  0.2537
  909MPD2    H313370   3.841   1.746  11.843 -0.3675  0.7389 -0.8336
  909MPD2     N13371   3.667   2.084  12.120  1.0948 -0.2504  0.3215
  909MPD2    H513372   3.667   2.186  12.127  0.8529 -0.2322  0.0432
  909MPD2    N113373   4.015   2.165  11.809 -0.1054 -0.2270  0.1237
  909MPD2    H713374   3.990   2.262  11.826 -2.2211 -0.3069 -2.4699
  910MPD2     C13375   0.639   3.088  16.127 -0.2532 -0.1053 -1.4768
  910MPD2    C113376   0.505   3.055  16.118 -0.0141 -0.0575  0.0665
  910MPD2    C213377   0.421   3.104  16.019  0.3935 -0.4053  1.2123
  910MPD2    C313378   0.477   3.199  15.935 -0.2794 -0.0742  0.6284
  910MPD2    C413379   0.614   3.215  15.934  0.3295  0.0764  0.5449
  910MPD2    C513380   0.692   3.166  16.030 -0.8371 -0.9434 -0.1286
  910MPD2     H13381   0.316   3.077  16.016  0.1215  0.5732  1.8934
  910MPD2    H113382   0.670   3.288  15.877 -0.3642 -0.8057 -1.2434
  910MPD2    H213383   0.704   3.049  16.204 -2.6637  2.0224  1.6218
  910MPD2    H313384   0.795   3.200  16.037 -1.0923 -0.4788  1.4261
  910MPD2     N13385   0.406   3.280  15.838  0.5274 -0.4159  0.1656
  910MPD2    H513386   0.456   3.330  15.766  1.0485  0.5868  1.2241
  910MPD2    N113387   0.446   2.970  16.212  0.5629  0.3571  0.3137
  910MPD2    H713388   0.346   2.957  16.201  0.8917 -1.4895 -0.4780
  911MPD2     C13389   2.722   3.322  16.232  0.2813 -0.8449 -0.5809
  911MPD2    C113390   2.826   3.407  16.262 -0.9606 -0.1632 -0.1930
  911MPD2    C213391   2.793   3.545  16.283  0.8442 -0.1974 -0.5792
  911MPD2    C313392   2.660   3.583  16.264  0.5251 -0.1608 -0.1805
  911MPD2    C413393   2.559   3.492  16.250  0.4217  1.0386 -0.9565
  911MPD2    C513394   2.589   3.361  16.235  0.4892  0.1095  0.2385
  911MPD2     H13395   2.874   3.616  16.296 -0.0754  0.9174 -0.9643
  911MPD2    H113396   2.456   3.524  16.260 -0.2781 -1.9745  1.5863
  911MPD2    H213397   2.743   3.220  16.202  2.3684 -0.8009  0.7159
  911MPD2    H313398   2.514   3.284  16.217 -0.3405  1.0714 -0.4039
  911MPD2     N13399   2.620   3.721  16.267 -0.4242  0.2970 -0.3288
  911MPD2    H513400   2.521   3.728  16.245 -0.4630 -0.6197 -0.4405
  911MPD2    N113401   2.955   3.367  16.255  0.1227  0.0196  0.1694
  911MPD2    H713402   2.967   3.268  16.238  2.1507  0.5482 -1.4395
  912MPD2     C13403   2.463   3.481  15.767 -0.5498 -0.0174  0.3547
  912MPD2    C113404   2.404   3.556  15.870  0.4006  0.3240 -0.1119
  912MPD2    C213405   2.331   3.480  15.963  0.6133 -0.5422  0.6151
  912MPD2    C313406   2.318   3.346  15.956  0.8839  0.2542  0.5146
  912MPD2    C413407   2.370   3.273  15.849  0.7058 -0.1190  0.0393
  912MPD2    C513408   2.442   3.342  15.756  0.3512  0.0416  0.0559
  912MPD2     H13409   2.277   3.528  16.044  0.7533  2.7389 -1.2202
  912MPD2    H113410   2.339   3.170  15.836  0.6541 -0.0055 -0.7370
  912MPD2    H213411   2.516   3.543  15.696 -2.0583  0.7282 -0.1314
  912MPD2    H313412   2.493   3.289  15.677  3.0621  1.8819  0.5609
  912MPD2     N13413   2.252   3.285  16.066  0.5086  0.1324  0.2682
  912MPD2    H513414   2.190   3.335  16.129 -0.2117  1.4887 -1.5392
  912MPD2    N113415   2.432   3.694  15.884  0.3950  0.1382  0.0056
  912MPD2    H713416   2.459   3.741  15.798  0.8091  0.0787  0.1052
  913MPD2     C13417   3.604   0.483  10.654  0.4194  0.3830  1.0792
  913MPD2    C113418   3.582   0.592  10.740  0.1768  0.4186  0.0343
  913MPD2    C213419   3.534   0.713  10.686  0.0836 -0.3540  0.1493
  913MPD2    C313420   3.502   0.720  10.553  0.1175 -0.0234 -0.3001
  913MPD2    C413421   3.532   0.614  10.471  0.4773  0.3747  1.1321
  913MPD2    C513422   3.576   0.495  10.521  0.1497  0.6602  0.6538
  913MPD2     H13423   3.508   0.798  10.747 -1.0901 -0.4468 -0.2218
  913MPD2    H113424   3.513   0.623  10.365 -1.9427  0.3047  1.5661
  913MPD2    H213425   3.633   0.384  10.685 -0.6192 -0.9473 -2.2249
  913MPD2    H313426   3.594   0.407  10.460  1.4577  0.0962  1.8557
  913MPD2     N13427   3.422   0.823  10.504  0.4321  0.2684 -0.0366
  913MPD2    H513428   3.388   0.813  10.409  1.1892  0.6716 -0.3460
  913MPD2    N113429   3.597   0.580  10.882  0.2513 -0.8314 -0.1777
  913MPD2    H713430   3.628   0.487  10.908  0.1861 -1.1090 -1.1023
  914MPD2     C13431   1.867   0.650  12.749  0.2360 -0.0699 -0.3516
  914MPD2    C113432   1.730   0.662  12.698 -0.8432  0.4117  0.2351
  914MPD2    C213433   1.636   0.579  12.747 -0.2801  0.9630  0.3314
  914MPD2    C313434   1.662   0.480  12.837  0.1392 -0.0592  0.5808
  914MPD2    C413435   1.790   0.476  12.884  0.6574  0.4363 -0.6268
  914MPD2    C513436   1.886   0.567  12.852  0.4642 -0.2701 -0.3164
  914MPD2     H13437   1.535   0.573  12.708 -0.7122  1.3954  1.3662
  914MPD2    H113438   1.812   0.395  12.953 -1.2243 -0.9043 -1.6184
  914MPD2    H213439   1.938   0.727  12.718 -0.0429  0.5866  0.6216
  914MPD2    H313440   1.983   0.546  12.896  0.4114 -0.0404 -0.0911
  914MPD2     N13441   1.544   0.410  12.889 -0.0238  0.1235  0.2351
  914MPD2    H513442   1.455   0.438  12.848 -0.4072  0.6092  1.3961
  914MPD2    N113443   1.704   0.763  12.594 -0.2645  0.4663  0.3300
  914MPD2    H713444   1.787   0.808  12.556  0.1482 -0.1204  0.5399
  915MPD2     C13445   4.396   0.792  15.726 -0.2695  0.9149  0.3500
  915MPD2    C113446   4.292   0.702  15.774  0.4534 -0.2893 -0.3113
  915MPD2    C213447   4.238   0.722  15.902  0.1495  0.0125  1.1242
  915MPD2    C313448   4.292   0.817  15.988  0.3904 -0.0206 -0.0489
  915MPD2    C413449   4.392   0.900  15.944  0.5663 -0.6172  0.3319
  915MPD2    C513450   4.442   0.889  15.815  0.2711 -0.0787 -0.1223
  915MPD2     H13451   4.143   0.676  15.927  0.4493  0.0034  2.2391
  915MPD2    H113452   4.428   0.978  16.010  2.6547 -2.3689  1.2672
  915MPD2    H213453   4.428   0.798  15.623  1.0516  0.5474  0.7401
  915MPD2    H313454   4.505   0.967  15.776 -0.9004  1.3402  0.8365
  915MPD2     N13455   4.237   0.841  16.115  0.1359  0.1266  0.1146
  915MPD2    H513456   4.274   0.921  16.165 -0.3116  0.5518 -0.2349
  915MPD2    N113457   4.232   0.619  15.671 -0.1407 -0.4977  0.6528
  915MPD2    H713458   4.281   0.615  15.582 -2.8651 -1.7194 -0.7877
  916MPD2     C13459   2.063   3.870  15.835  0.2099  0.2961  0.5376
  916MPD2    C113460   2.066   3.751  15.906 -0.1876  0.3711  0.1798
  916MPD2    C213461   2.076   3.631  15.834 -0.0488 -0.0930  0.2276
  916MPD2    C313462   2.091   3.636  15.697  0.3033 -0.4670 -0.2672
  916MPD2    C413463   2.101   3.757  15.634  0.1535 -0.6142  0.4084
  916MPD2    C513464   2.079   3.873  15.704  0.0656  0.2694 -0.1868
  916MPD2     H13465   2.068   3.536  15.885 -1.3264 -0.4039 -0.5343
  916MPD2    H113466   2.109   3.766  15.526  0.7386 -2.0325  0.3347
  916MPD2    H213467   2.046   3.957  15.896 -0.0609  0.7816 -0.2301
  916MPD2    H313468   2.080   3.967  15.651 -2.6493  1.6690  2.2404
  916MPD2     N13469   2.120   3.515  15.634  0.3991 -0.1168 -0.2863
  916MPD2    H513470   2.097   3.439  15.696  0.7647  0.1092  0.1332
  916MPD2    N113471   2.039   3.755  16.047  0.0624 -0.6765  0.1710
  916MPD2    H713472   2.030   3.845  16.092 -0.6383 -1.6878  2.0501
  917MPD2     C13473   2.975   1.093  11.484 -1.0417 -0.5120 -0.5007
  917MPD2    C113474   2.910   1.220  11.492 -0.0894  0.6263  0.1169
  917MPD2    C213475   2.960   1.333  11.431 -0.0049 -0.1415 -0.5925
  917MPD2    C313476   3.088   1.316  11.362  0.3492 -0.1598 -0.0627
  917MPD2    C413477   3.155   1.190  11.357 -0.0206  0.0461 -0.6841
  917MPD2    C513478   3.099   1.082  11.419  0.6468 -0.0316  0.6098
  917MPD2     H13479   2.903   1.425  11.433  1.5821  0.8305  0.4912
  917MPD2    H113480   3.247   1.187  11.299  0.2911 -2.0021 -0.1038
  917MPD2    H213481   2.933   1.003  11.526 -2.9415 -0.2748 -1.8749
  917MPD2    H313482   3.137   0.981  11.429 -1.9743 -1.1588 -0.8496
  917MPD2     N13483   3.142   1.423  11.288  0.2706 -0.1577 -0.3506
  917MPD2    H513484   3.235   1.413  11.247  0.8913 -1.9831  1.5353
  917MPD2    N113485   2.777   1.221  11.549  0.0952 -0.2835  0.1520
  917MPD2    H713486   2.746   1.136  11.596 -1.3680 -0.1373 -0.5631
  918MPD2     C13487   2.369   1.904  12.131  0.6512  0.2867 -0.1556
  918MPD2    C113488   2.491   1.848  12.115  0.1299 -0.7141 -0.0647
  918MPD2    C213489   2.505   1.735  12.034  0.5288  0.0933  0.0833
  918MPD2    C313490   2.397   1.684  11.965  0.0462 -0.6817  0.3694
  918MPD2    C413491   2.274   1.751  11.968  0.6660 -0.8021 -0.2303
  918MPD2    C513492   2.264   1.851  12.058 -0.6877 -0.8873 -1.3885
  918MPD2     H13493   2.596   1.677  12.040  0.0680 -1.0676 -4.1417
  918MPD2    H113494   2.198   1.717  11.898 -2.1677 -0.3785  2.5976
  918MPD2    H213495   2.353   1.982  12.205 -0.7934  1.1774 -1.4256
  918MPD2    H313496   2.168   1.901  12.056 -1.0669 -1.5766 -0.2991
  918MPD2     N13497   2.417   1.562  11.897 -0.5721 -0.0176 -0.5451
  918MPD2    H513498   2.514   1.532  11.894 -0.5535 -0.0782  0.7547
  918MPD2    N113499   2.605   1.893  12.183 -0.7030 -0.5516  0.3432
  918MPD2    H713500   2.696   1.862  12.149 -0.8317  0.3380 -0.7810
  919MPD2     C13501   3.345   0.720  11.504  0.6606 -0.2882  0.7499
  919MPD2    C113502   3.287   0.611  11.443  0.4901  0.3011  0.6564
  919MPD2    C213503   3.265   0.617  11.308  0.5732  0.4503  0.0043
  919MPD2    C313504   3.283   0.732  11.236  0.6231 -0.7132 -0.0678
  919MPD2    C413505   3.326   0.840  11.303  0.7848 -0.6183  0.5506
  919MPD2    C513506   3.346   0.838  11.440  0.6874  1.3142 -0.5101
  919MPD2     H13507   3.235   0.524  11.263 -0.7626  1.1793 -0.6252
  919MPD2    H113508   3.337   0.939  11.260 -0.8590 -0.9629 -0.6863
  919MPD2    H213509   3.370   0.726  11.609 -0.5845  0.1670  1.0207
  919MPD2    H313510   3.382   0.927  11.491 -0.0552  1.8546 -0.9418
  919MPD2     N13511   3.258   0.745  11.098  0.6498  0.3580 -0.6674
  919MPD2    H513512   3.255   0.840  11.063 -0.2059  0.2585 -0.8569
  919MPD2    N113513   3.259   0.489  11.521 -0.7043  0.2505  0.0374
  919MPD2    H713514   3.225   0.408  11.469  0.3093 -0.6208  0.7172
  920MPD2     C13515   2.626   1.278  10.570  0.5656  0.5376  0.1750
  920MPD2    C113516   2.578   1.149  10.549 -0.3840  0.4475 -0.2988
  920MPD2    C213517   2.652   1.042  10.606 -0.4999 -0.0867  0.8174
  920MPD2    C313518   2.775   1.057  10.672 -0.0878  0.2041 -0.5266
  920MPD2    C413519   2.823   1.188  10.685 -0.1472  0.2084 -0.3984
  920MPD2    C513520   2.750   1.297  10.640 -0.3115  0.0049 -0.4645
  920MPD2     H13521   2.611   0.945  10.579  1.1582  0.3482 -3.2569
  920MPD2    H113522   2.924   1.211  10.720  0.0533 -0.4940 -0.5215
  920MPD2    H213523   2.593   1.372  10.529 -0.3571  0.0299 -0.2536
  920MPD2    H313524   2.796   1.395  10.646 -0.9071  0.2804 -0.4375
  920MPD2     N13525   2.851   0.949  10.712 -0.8750 -0.2304  0.5129
  920MPD2    H513526   2.805   0.859  10.719 -4.8452  1.6560 -1.2670
  920MPD2    N113527   2.460   1.114  10.482 -0.2803  0.2168  0.8169
  920MPD2    H713528   2.428   1.019  10.468  0.9106  0.1792 -1.6622
  921MPD2     C13529   3.757   3.625  16.719  0.1667 -0.4603 -0.5108
  921MPD2    C113530   3.804   3.586  16.598  0.2684 -0.5514  0.1808
  921MPD2    C213531   3.725   3.495  16.537  0.0509 -0.0324 -0.0412
  921MPD2    C313532   3.605   3.448  16.588  0.1441 -0.0700  0.1902
  921MPD2    C413533   3.562   3.498  16.709  0.3614  0.4106  0.1468
  921MPD2    C513534   3.634   3.590  16.773  0.6300 -0.1282 -1.0168
  921MPD2     H13535   3.756   3.458  16.440 -0.0425  0.2561 -0.1787
  921MPD2    H113536   3.462   3.489  16.749  1.3446 -1.3036  2.2338
  921MPD2    H213537   3.814   3.701  16.771 -1.6836 -0.9644  2.2397
  921MPD2    H313538   3.589   3.644  16.856 -0.2204  1.8949 -2.7843
  921MPD2     N13539   3.510   3.373  16.514  0.0039  0.4034 -0.2364
  921MPD2    H513540   3.424   3.354  16.564 -0.3004 -1.2415 -1.3815
  921MPD2    N113541   3.931   3.627  16.547  0.0903 -0.2859  0.5144
  921MPD2    H713542   3.975   3.703  16.598 -0.8243  1.6781 -1.5842
  922MPD2     C13543   4.524   2.145   0.756  0.3527 -0.6161 -0.9836
  922MPD2    C113544   4.499   2.251   0.674  0.3199  0.6876 -0.1292
  922MPD2    C213545   4.485   2.231   0.537  0.0698 -0.6935  0.7435
  922MPD2    C313546   4.484   2.100   0.489 -0.2628  0.1640  0.6447
  922MPD2    C413547   4.506   1.991   0.566 -0.3702 -0.1370 -0.4870
  922MPD2    C513548   4.523   2.012   0.705  0.0783 -0.1824  0.0664
  922MPD2     H13549   4.440   2.313   0.483 -0.3813 -0.7703  0.9981
  922MPD2    H113550   4.515   1.890   0.529  0.6186 -0.2352  0.0169
  922MPD2    H213551   4.537   2.153   0.864 -0.2101 -3.3470 -0.7062
  922MPD2    H313552   4.572   1.931   0.757  0.9610  0.9438  0.9971
  922MPD2     N13553   4.450   2.090   0.349  0.8906  0.1586 -0.6261
  922MPD2    H513554   4.439   2.176   0.296 -1.6719  1.0589  1.3105
  922MPD2    N113555   4.490   2.381   0.725  0.7152  0.2617 -0.0120
  922MPD2    H713556   4.480   2.457   0.658  1.1080 -0.2198 -0.6191
  923MPD2     C13557   1.389   0.066   9.251 -0.0597  0.1724 -0.4431
  923MPD2    C113558   1.407   4.666   9.264  0.2880 -0.0531  0.5399
  923MPD2    C213559   1.539   4.620   9.272  0.8742 -0.1171  0.3417
  923MPD2    C313560   1.644   4.709   9.260 -0.6399 -0.3181  1.0019
  923MPD2    C413561   1.622   0.111   9.240 -0.5105 -0.0890  0.1649
  923MPD2    C513562   1.495   0.152   9.236  0.0207 -0.2045 -0.0706
  923MPD2     H13563   1.554   4.514   9.289  0.7124 -0.5328 -2.1227
  923MPD2    H113564   1.698   0.187   9.231 -2.6537  1.9798 -0.4599
  923MPD2    H213565   1.288   0.105   9.259  0.1280  1.1025 -2.7577
  923MPD2    H313566   1.473   0.258   9.230 -0.5992 -0.3209  0.1014
  923MPD2     N13567   1.779   4.671   9.274 -0.5335 -0.3500 -0.3992
  923MPD2    H513568   1.844   0.016   9.282 -0.4824 -0.5973  1.6138
  923MPD2    N113569   1.296   4.581   9.265  0.0837  0.1227  0.5918
  923MPD2    H713570   1.208   4.629   9.250  0.3781  0.6833  0.6386
  924MPD2     C13571   1.010   1.935  15.862  0.9276  0.1232  0.4186
  924MPD2    C113572   0.952   1.866  15.972 -0.0042 -0.1011 -0.3922
  924MPD2    C213573   1.005   1.891  16.098  0.5088  0.7158 -0.2898
  924MPD2    C313574   1.096   1.991  16.115  0.1471  0.6394 -0.3536
  924MPD2    C413575   1.143   2.061  16.010  0.6713  0.6002 -0.2226
  924MPD2    C513576   1.109   2.031  15.884  0.7791  0.0165  0.4452
  924MPD2     H13577   0.969   1.842  16.188 -0.7631  4.3905  1.1602
  924MPD2    H113578   1.221   2.135  16.026 -0.8257  1.8915  1.1219
  924MPD2    H213579   0.973   1.908  15.763 -0.3567 -1.5280  1.3453
  924MPD2    H313580   1.165   2.083  15.808 -0.6803 -1.6708 -1.7928
  924MPD2     N13581   1.134   2.037  16.246 -0.3932  0.0532  0.0696
  924MPD2    H513582   1.182   2.127  16.242 -2.2052  0.9202 -2.2942
  924MPD2    N113583   0.843   1.781  15.945  0.2021 -0.4305 -0.1962
  924MPD2    H713584   0.813   1.763  15.850 -0.2654  0.2798 -0.1782
  925MPD2     C13585   4.591   0.239  14.858  0.0613 -0.8559  0.0597
  925MPD2    C113586   4.602   0.097  14.867 -0.8713  0.0962 -0.7445
  925MPD2    C213587   4.561   0.038  14.983 -0.2677 -0.2719 -0.3280
  925MPD2    C313588   4.529   0.110  15.100  0.2414 -0.0354  0.4126
  925MPD2    C413589   4.521   0.243  15.089 -0.7034  0.1362 -0.2191
  925MPD2    C513590   4.547   0.308  14.967 -0.6557 -0.2280  0.2235
  925MPD2     H13591   4.548   4.664  14.997 -0.0364 -0.4842 -1.7005
  925MPD2    H113592   4.499   0.310  15.172 -1.0540 -1.0942  0.6823
  925MPD2    H213593   4.601   0.285  14.761  0.0568 -1.0084 -0.0133
  925MPD2    H313594   4.523   0.414  14.964  1.6405  0.2600 -1.4362
  925MPD2     N13595   4.497   0.044  15.225  0.2738 -0.5502  0.6236
  925MPD2    H513596   4.519   4.678  15.233  2.9686 -0.0780 -0.8728
  925MPD2    N113597   4.642   0.012  14.760 -0.2719  0.0269  0.1463
  925MPD2    H713598   4.618   4.647  14.771 -0.7022  0.0490 -0.6225
  926MPD2     C13599   2.541   2.931  13.353 -0.2277 -0.5240  0.3082
  926MPD2    C113600   2.614   3.044  13.395  0.0995  0.4457 -0.0897
  926MPD2    C213601   2.724   3.087  13.329  0.1724  0.4778 -0.8242
  926MPD2    C313602   2.774   3.031  13.215  0.4756 -0.8308 -0.1304
  926MPD2    C413603   2.696   2.926  13.166 -0.0681 -0.0856  0.7863
  926MPD2    C513604   2.585   2.878  13.233  0.2147  0.7798 -1.6617
  926MPD2     H13605   2.777   3.175  13.364  0.1247 -0.4186  1.4641
  926MPD2    H113606   2.726   2.885  13.070 -0.9760 -2.0726  1.3476
  926MPD2    H213607   2.453   2.900  13.407 -1.3984 -0.7607 -1.7528
  926MPD2    H313608   2.537   2.794  13.184 -0.7942  1.4325 -1.8098
  926MPD2     N13609   2.887   3.075  13.146 -0.2242 -0.3295 -0.3063
  926MPD2    H513610   2.907   3.030  13.057  0.1545  1.3946 -1.0956
  926MPD2    N113611   2.577   3.120  13.510  0.1685 -0.4052  0.0108
  926MPD2    H713612   2.622   3.211  13.510  0.3280 -0.4873 -0.9290
  927MPD2     C13613   4.117   0.206   0.037 -0.0421 -0.2816  0.0852
  927MPD2    C113614   4.024   0.295  17.708  0.2059 -0.1893 -0.0894
  927MPD2    C213615   4.035   0.327  17.577 -0.0119  0.2741  0.0021
  927MPD2    C313616   4.137   0.276  17.502 -0.1453 -0.3953 -0.3737
  927MPD2    C413617   4.235   0.197  17.554  0.1252 -0.1899 -0.1400
  927MPD2    C513618   4.217   0.162  17.686 -0.2342 -0.4296 -0.1673
  927MPD2     H13619   3.963   0.383  17.520 -0.2349 -0.0480 -0.0282
  927MPD2    H113620   4.307   0.140  17.498  0.3259  0.6463 -0.7365
  927MPD2    H213621   4.110   0.185   0.143 -0.1680 -1.4885 -0.1578
  927MPD2    H313622   4.293   0.101   0.005 -0.3217 -0.0850  0.3991
  927MPD2     N13623   4.135   0.308  17.365  0.1801 -0.6534 -0.4501
  927MPD2    H513624   4.061   0.369  17.332  0.7441  0.4989  0.3900
  927MPD2    N113625   3.924   0.346   0.060 -0.3419 -0.1052 -0.4867
  927MPD2    H713626   3.909   0.299   0.149 -0.3088  1.6104  0.4244
  928MPD2     C13627   2.122   3.989   1.537  0.4984 -0.9778 -0.2786
  928MPD2    C113628   2.083   4.118   1.495 -0.1152 -0.2077  0.1355
  928MPD2    C213629   2.101   4.149   1.364  0.1478 -0.4329  0.2227
  928MPD2    C313630   2.137   4.058   1.266  0.7200  0.0491  0.1540
  928MPD2    C413631   2.172   3.938   1.313  0.2895 -0.1854 -0.5207
  928MPD2    C513632   2.166   3.903   1.446 -0.8733 -0.1747 -0.3314
  928MPD2     H13633   2.074   4.249   1.331 -0.2369 -0.9706 -1.0904
  928MPD2    H113634   2.210   3.863   1.244 -0.7923 -1.1599 -0.0694
  928MPD2    H213635   2.122   3.959   1.641 -3.0758 -2.9784 -0.8765
  928MPD2    H313636   2.206   3.807   1.478 -1.8950 -0.0084  1.4413
  928MPD2     N13637   2.149   4.082   1.128 -0.3901 -0.3798 -0.0056
  928MPD2    H513638   2.171   3.998   1.076  0.6051 -0.0341 -0.1375
  928MPD2    N113639   2.035   4.219   1.585  0.4667 -1.0661 -0.0383
  928MPD2    H713640   2.044   4.199   1.685  0.1880  1.2064  0.4431
  929MPD2     C13641   1.429   4.409   9.653 -0.4310  0.7875 -0.0731
  929MPD2    C113642   1.308   4.347   9.678 -0.3177 -0.2393 -0.0191
  929MPD2    C213643   1.190   4.423   9.659 -0.1894  0.2608 -0.1875
  929MPD2    C313644   1.200   4.554   9.613  0.1363 -0.3491  0.0117
  929MPD2    C413645   1.326   4.608   9.581 -0.6683 -0.4857 -0.0646
  929MPD2    C513646   1.438   4.535   9.604 -0.0075  0.2036 -0.0635
  929MPD2     H13647   1.102   4.373   9.700 -0.2922  2.0419  1.7577
  929MPD2    H113648   1.346   4.711   9.552 -0.9139  0.2223  2.2525
  929MPD2    H213649   1.521   4.353   9.667 -0.7819  1.1314  3.7230
  929MPD2    H313650   1.536   4.573   9.575 -0.3474 -0.0443 -1.5506
  929MPD2     N13651   1.083   4.647   9.620  0.5622 -0.0254  0.5521
  929MPD2    H513652   1.092   0.013   9.601  2.6159 -0.2012  0.5846
  929MPD2    N113653   1.312   4.216   9.719 -0.2410  0.1358 -0.5807
  929MPD2    H713654   1.406   4.182   9.735 -0.3499  0.6188  1.0615
  930MPD2     C13655   3.145   0.917  14.016  0.3450  0.0919  0.2933
  930MPD2    C113656   3.243   0.951  13.920 -0.1599  0.4105 -0.6153
  930MPD2    C213657   3.264   0.860  13.815 -0.6113  0.1699 -0.2474
  930MPD2    C313658   3.195   0.743  13.799  0.6014 -0.5830  0.1909
  930MPD2    C413659   3.096   0.712  13.893 -0.4115  0.0775 -0.3150
  930MPD2    C513660   3.072   0.802  14.000  0.6163 -0.2422 -0.0104
  930MPD2     H13661   3.352   0.872  13.752 -1.6039 -1.0408 -1.8661
  930MPD2    H113662   3.041   0.620  13.884  1.6443 -1.0484 -1.3486
  930MPD2    H213663   3.115   0.975  14.102 -1.4783 -0.0397 -0.2482
  930MPD2    H313664   3.009   0.784  14.087  1.6513  1.5092  1.1095
  930MPD2     N13665   3.226   0.642  13.705  0.4123  0.1417 -0.4785
  930MPD2    H513666   3.191   0.551  13.734  0.8842  0.0116 -0.3149
  930MPD2    N113667   3.308   1.074  13.926  0.1644 -0.8254 -0.0627
  930MPD2    H713668   3.351   1.106  13.839  0.3611 -1.5569 -0.2342
  931MPD2     C13669   4.144   0.559   0.561 -0.6308 -0.3847 -0.3085
  931MPD2    C113670   4.011   0.559   0.593  0.3319  0.2963 -0.5708
  931MPD2    C213671   3.966   0.583   0.730 -0.2289 -0.0747 -0.1594
  931MPD2    C313672   4.065   0.599   0.824 -0.1926 -0.4082 -0.2537
  931MPD2    C413673   4.198   0.603   0.790 -0.5213  0.2007  0.0204
  931MPD2    C513674   4.239   0.584   0.656 -0.6822 -0.9220 -0.0934
  931MPD2     H13675   3.861   0.575   0.756  0.1671 -0.3169  1.3431
  931MPD2    H113676   4.274   0.639   0.859 -1.3647 -1.6536  1.8967
  931MPD2    H213677   4.178   0.518   0.467 -0.6816 -0.5348 -0.2609
  931MPD2    H313678   4.344   0.579   0.630 -0.8957 -0.5521 -1.0354
  931MPD2     N13679   4.028   0.611   0.959 -0.6020 -0.2510 -0.6283
  931MPD2    H513680   4.096   0.592   1.031 -0.7652 -0.9302 -0.6489
  931MPD2    N113681   3.917   0.531   0.490 -0.1222  0.0410 -0.1996
  931MPD2    H713682   3.951   0.523   0.395 -0.0156 -0.1347 -0.1457
  932MPD2     C13683   0.331   4.470  11.526  0.4681  0.3509  0.2844
  932MPD2    C113684   0.458   4.492  11.574 -0.0263  0.0641 -0.9201
  932MPD2    C213685   0.552   4.392  11.538  0.1214  0.0581  0.4912
  932MPD2    C313686   0.523   4.283  11.461 -0.2105 -0.1056 -0.1449
  932MPD2    C413687   0.392   4.269  11.422  0.1321 -0.2682  0.4984
  932MPD2    C513688   0.299   4.358  11.456  0.6033 -0.2711 -0.8171
  932MPD2     H13689   0.654   4.424  11.558  0.9368 -2.8441  0.8747
  932MPD2    H113690   0.357   4.184  11.365 -2.7498  1.5869 -0.5273
  932MPD2    H213691   0.255   4.544  11.545  2.8748  2.8133  0.4147
  932MPD2    H313692   0.195   4.336  11.434  0.0550 -0.6963  2.1281
  932MPD2     N13693   0.615   4.179  11.429  0.0692 -0.3926 -0.1923
  932MPD2    H513694   0.566   4.093  11.405  0.9656 -0.9093 -0.1681
  932MPD2    N113695   0.499   4.604  11.649 -0.1868  0.2355  0.5429
  932MPD2    H713696   0.594   4.608  11.682 -0.0509  1.5096 -0.0025
  933MPD2     C13697   1.400   4.663   1.567  0.3540  0.0769  0.0586
  933MPD2    C113698   1.505   0.008   1.601  0.1639  0.2395  0.2061
  933MPD2    C213699   1.495   0.146   1.600 -0.2274  0.9866  0.0507
  933MPD2    C313700   1.374   0.208   1.590  1.1783  0.3777 -1.1092
  933MPD2    C413701   1.258   0.132   1.574 -0.9937 -0.1258 -0.7815
  933MPD2    C513702   1.274   4.725   1.561 -0.2360 -0.1602 -0.8943
  933MPD2     H13703   1.586   0.203   1.619  0.2057  1.2579 -2.7378
  933MPD2    H113704   1.159   0.175   1.558 -0.1243  2.6049  1.1003
  933MPD2    H213705   1.402   4.555   1.570 -0.5270  0.1044  1.6172
  933MPD2    H313706   1.187   4.659   1.561  0.5687 -1.2252 -1.2040
  933MPD2     N13707   1.381   0.349   1.602 -0.5459  0.3917  0.1711
  933MPD2    H513708   1.473   0.392   1.604 -0.3758 -0.0009  0.6702
  933MPD2    N113709   1.620   4.672   1.631  0.2185 -0.3428 -1.0230
  933MPD2    H713710   1.614   4.570   1.632 -1.0175 -0.2648 -0.8437
  934MPD2     C13711   2.732   2.181   1.269  0.5382 -0.3532 -0.2219
  934MPD2    C113712   2.812   2.074   1.284  0.3253  0.5567 -0.7227
  934MPD2    C213713   2.767   1.953   1.235 -0.5650  0.3177 -0.3302
  934MPD2    C313714   2.641   1.936   1.184  0.2389 -0.7630 -0.0849
  934MPD2    C413715   2.560   2.046   1.178 -0.3931 -0.0480 -0.4594
  934MPD2    C513716   2.601   2.169   1.219 -0.4261  0.1213  0.4152
  934MPD2     H13717   2.839   1.874   1.254 -0.3706  0.5431 -0.1253
  934MPD2    H113718   2.457   2.042   1.144 -0.4792  0.3932 -0.2568
  934MPD2    H213719   2.753   2.283   1.301  1.0466 -1.0141  1.5294
  934MPD2    H313720   2.538   2.256   1.202  1.4431  1.0040 -1.9391
  934MPD2     N13721   2.579   1.815   1.145  0.3573 -0.8034 -0.1051
  934MPD2    H513722   2.487   1.830   1.105 -0.8910  1.8423  3.7137
  934MPD2    N113723   2.940   2.089   1.342 -0.3925 -0.7780 -0.2373
  934MPD2    H713724   2.997   2.005   1.354  0.3024 -0.4703 -1.3308
  935MPD2     C13725   2.998   0.946   0.933  0.1079  0.4028  0.0845
  935MPD2    C113726   2.888   0.938   0.851 -0.7063  0.1331 -0.1962
  935MPD2    C213727   2.788   1.030   0.883  0.1152 -0.2185 -0.9140
  935MPD2    C313728   2.802   1.123   0.982  0.4945  0.2977  0.3710
  935MPD2    C413729   2.915   1.129   1.059  0.1486 -0.5581  0.6913
  935MPD2    C513730   3.005   1.036   1.039  0.9733 -0.6406 -0.0292
  935MPD2     H13731   2.704   1.021   0.815 -0.4550 -0.1527 -0.2163
  935MPD2    H113732   2.936   1.192   1.144  0.2542  0.0262  0.2362
  935MPD2    H213733   3.077   0.871   0.926  1.6436  2.0584 -0.5438
  935MPD2    H313734   3.096   1.029   1.099  1.1649 -3.4168 -0.6294
  935MPD2     N13735   2.711   1.223   1.022 -0.5959 -0.4666  0.6326
  935MPD2    H513736   2.737   1.273   1.107 -2.2620  0.6545  0.4594
  935MPD2    N113737   2.870   0.846   0.746 -0.1474  0.0541  0.0752
  935MPD2    H713738   2.780   0.846   0.698 -0.5816 -1.5676  0.8923
  936MPD2     C13739   0.137   3.188  12.532 -0.2311 -0.7355  0.6704
  936MPD2    C113740   0.224   3.101  12.586  0.3057  0.6560  0.3027
  936MPD2    C213741   0.355   3.125  12.571 -0.2645 -0.3199 -0.3188
  936MPD2    C313742   0.408   3.219  12.496  0.2467  0.6579 -0.2219
  936MPD2    C413743   0.321   3.294  12.423 -0.1235  0.1312  0.2869
  936MPD2    C513744   0.190   3.284  12.445 -0.4056  0.0270  0.3690
  936MPD2     H13745   0.415   3.056  12.629  0.0830  0.5920  0.3985
  936MPD2    H113746   0.351   3.361  12.344 -1.2705  0.1394 -0.1387
  936MPD2    H213747   0.030   3.169  12.535  0.0197 -2.2191  0.5411
  936MPD2    H313748   0.117   3.335  12.383  0.0744 -0.8949 -0.9576
  936MPD2     N13749   0.548   3.222  12.473 -0.4501 -0.1515 -0.1706
  936MPD2    H513750   0.583   3.292  12.408  0.0008 -1.8351 -1.7207
  936MPD2    N113751   0.191   2.981  12.651  0.3531  0.0508 -0.5646
  936MPD2    H713752   0.274   2.928  12.675  0.5231  1.4712  2.0436
  937MPD2     C13753   3.359   4.518  11.507 -0.2733  0.1199 -0.1912
  937MPD2    C113754   3.426   4.627  11.574 -0.5527 -0.8251  0.0336
  937MPD2    C213755   3.562   4.645  11.549  0.3934  0.1635  0.0760
  937MPD2    C313756   3.633   4.561  11.464  0.1854  0.1441 -0.3850
  937MPD2    C413757   3.569   4.450  11.413  0.2206 -0.4229 -0.0429
  937MPD2    C513758   3.437   4.430  11.430 -0.2467  0.0969  0.3235
  937MPD2     H13759   3.606   0.003  11.587 -1.3392  1.5078 -1.1264
  937MPD2    H113760   3.631   4.378  11.361  1.6451 -0.3842  1.5845
  937MPD2    H213761   3.253   4.497  11.512 -0.7522  2.5839  0.4032
  937MPD2    H313762   3.395   4.348  11.373  0.8768  1.7017 -2.7807
  937MPD2     N13763   3.762   4.604  11.432 -0.2965 -0.1546  0.1091
  937MPD2    H513764   3.790   4.696  11.464  0.1678 -0.6891  1.2154
  937MPD2    N113765   3.359   0.008  11.628 -0.1765  0.1171 -0.0086
  937MPD2    H713766   3.418   0.087  11.653  0.5774 -0.3095 -0.4558
  938MPD2     C13767   1.973   1.161   0.877 -0.3596  0.4113 -0.6624
  938MPD2    C113768   1.865   1.216   0.946 -0.8720  0.2245 -0.1234
  938MPD2    C213769   1.864   1.200   1.083 -0.2376 -0.3794 -0.4018
  938MPD2    C313770   1.967   1.134   1.148 -0.2083 -0.0771 -0.5549
  938MPD2    C413771   2.071   1.073   1.075  0.2786  0.4264 -0.2740
  938MPD2    C513772   2.072   1.100   0.946 -0.7242 -0.3358  0.3060
  938MPD2     H13773   1.781   1.240   1.139 -0.6380  0.1548 -1.3856
  938MPD2    H113774   2.151   1.021   1.127 -0.5230 -0.5157  0.0219
  938MPD2    H213775   1.982   1.163   0.769  0.6101 -1.5833 -0.6200
  938MPD2    H313776   2.151   1.054   0.886 -2.0840 -0.5095 -1.3543
  938MPD2     N13777   1.983   1.119   1.284  0.1860 -0.4170  0.0285
  938MPD2    H513778   2.066   1.070   1.315 -1.2606 -1.9602  1.5040
  938MPD2    N113779   1.763   1.275   0.863 -0.0518 -1.0924  0.2807
  938MPD2    H713780   1.787   1.295   0.767  0.0663 -2.8065 -0.0436
  939MPD2     C13781   2.014   1.388  17.540  0.1437 -1.0739 -0.8088
  939MPD2    C113782   2.143   1.424  17.526 -0.1195  0.8666 -0.0862
  939MPD2    C213783   2.244   1.329  17.514 -0.5290 -0.2880 -0.1792
  939MPD2    C313784   2.213   1.200  17.501 -0.2904  0.2343 -0.2437
  939MPD2    C413785   2.084   1.170  17.482  0.1794  0.0326  0.1673
  939MPD2    C513786   1.985   1.257  17.512  0.5885 -1.1177 -0.8327
  939MPD2     H13787   2.348   1.355  17.527  0.0552 -0.4156 -4.4430
  939MPD2    H113788   2.061   1.071  17.445 -0.5441  0.3088 -0.1261
  939MPD2    H213789   1.938   1.459  17.571  1.4133 -0.4213  0.8318
  939MPD2    H313790   1.878   1.241  17.510 -0.2520  4.1169  1.8061
  939MPD2     N13791   2.318   1.110  17.504  0.3171 -0.5878  0.0894
  939MPD2    H513792   2.411   1.150  17.491 -0.6057  1.6619  0.3757
  939MPD2    N113793   2.172   1.563  17.534  0.4093  0.4397  0.1190
  939MPD2    H713794   2.090   1.621  17.550 -0.9191 -1.9129  1.8285
  940MPD2     C13795   1.006   3.163  13.294 -0.1223 -0.9254 -0.7256
  940MPD2    C113796   1.036   3.046  13.356  0.2269  0.3956  0.1400
  940MPD2    C213797   1.130   2.966  13.295 -0.3280  0.5720  0.2240
  940MPD2    C313798   1.206   3.017  13.185 -0.1360  0.2866  0.6256
  940MPD2    C413799   1.186   3.143  13.141  0.3022 -0.8412 -0.8328
  940MPD2    C513800   1.077   3.220  13.196 -0.5244 -0.0914 -0.6627
  940MPD2     H13801   1.153   2.863  13.318 -2.3068  0.2879  0.9401
  940MPD2    H113802   1.243   3.196  13.067  0.6700  1.8315  1.3774
  940MPD2    H213803   0.927   3.225  13.336  0.5080  0.0453 -0.9809
  940MPD2    H313804   1.052   3.314  13.148  0.5518  0.4696 -0.1232
  940MPD2     N13805   1.314   2.956  13.116  0.6543  0.4668  0.6977
  940MPD2    H513806   1.351   3.010  13.038 -0.2602  1.8058  1.2047
  940MPD2    N113807   0.979   3.002  13.478  0.0905  0.6261 -0.3668
  940MPD2    H713808   1.024   2.919  13.516  0.2209  1.1455  0.6212
  941MPD2     C13809   1.100   2.302  10.593 -0.8994  0.6669 -0.3918
  941MPD2    C113810   0.977   2.352  10.554  0.0253  0.7292  0.0428
  941MPD2    C213811   0.859   2.301  10.616 -0.1103  0.5702 -0.7869
  941MPD2    C313812   0.863   2.201  10.713 -0.4620  0.3389 -0.1424
  941MPD2    C413813   0.985   2.159  10.755  0.4377  0.3053 -0.5689
  941MPD2    C513814   1.103   2.209  10.693  0.3555  0.2634 -0.3949
  941MPD2     H13815   0.762   2.327  10.573  0.3997  2.3123 -0.8935
  941MPD2    H113816   0.987   2.086  10.835 -0.9602  1.9327  0.9756
  941MPD2    H213817   1.196   2.329  10.551 -0.5625 -0.0021 -0.0388
  941MPD2    H313818   1.202   2.181  10.728  0.1052  0.8691  0.7896
  941MPD2     N13819   0.746   2.138  10.764  0.1901  0.1194  0.0955
  941MPD2    H513820   0.754   2.046  10.806  1.4557  0.3978  0.4769
  941MPD2    N113821   0.953   2.437  10.444 -0.2659  0.1268 -0.6719
  941MPD2    H713822   0.863   2.474  10.414  0.1338 -0.0364 -2.0831
  942MPD2     C13823   4.567   3.796   9.014 -0.1485 -0.3266 -0.3964
  942MPD2    C113824   4.636   3.839   9.126  0.0873  0.1073  0.7024
  942MPD2    C213825   0.034   3.805   9.137  0.4133 -0.5613  0.3413
  942MPD2    C313826   0.099   3.729   9.042  0.8809  0.2412  0.6971
  942MPD2    C413827   0.022   3.675   8.939  0.1742  0.2385  0.1369
  942MPD2    C513828   4.627   3.716   8.924  0.5373  0.0771 -0.2178
  942MPD2     H13829   0.090   3.822   9.228  2.0343  1.4501 -1.0272
  942MPD2    H113830   0.069   3.608   8.869  0.0817  1.9673 -1.5882
  942MPD2    H213831   4.460   3.809   9.000 -0.1815 -0.7244 -0.5169
  942MPD2    H313832   4.576   3.677   8.837 -0.6908  0.6111  0.2538
  942MPD2     N13833   0.235   3.694   9.068  0.2287 -0.1577 -0.0760
  942MPD2    H513834   0.274   3.627   9.002 -3.7698 -3.3395  0.7850
  942MPD2    N113835   4.576   3.918   9.229 -0.1617  0.1317 -0.2266
  942MPD2    H713836   4.633   3.947   9.308  1.4086 -1.2791 -0.8432
  943MPD2     C13837   4.034   2.323  10.509  0.0718  0.0815  0.1037
  943MPD2    C113838   3.970   2.205  10.525 -0.7751  0.5123 -0.2342
  943MPD2    C213839   3.996   2.129  10.641 -0.1584  0.0591 -0.0079
  943MPD2    C313840   4.095   2.161  10.731  0.9930  0.9632  0.3342
  943MPD2    C413841   4.164   2.276  10.704  0.2674  0.6472 -0.1260
  943MPD2    C513842   4.128   2.357  10.596 -0.3782  0.4031  0.6976
  943MPD2     H13843   3.930   2.046  10.661 -0.4154 -0.4621 -2.9565
  943MPD2    H113844   4.241   2.314  10.770  0.7312  0.3210 -0.4769
  943MPD2    H213845   4.028   2.383  10.419 -0.0623  0.3944  0.3180
  943MPD2    H313846   4.189   2.446  10.584  0.3238  0.0148  1.3348
  943MPD2     N13847   4.129   2.085  10.843 -0.0888  0.1282  0.4584
  943MPD2    H513848   4.212   2.118  10.893  0.6107  0.1356 -0.6950
  943MPD2    N113849   3.880   2.173  10.420 -0.0628  0.5035  0.6757
  943MPD2    H713850   3.885   2.229  10.335 -1.5924 -0.0807  0.2014
  944MPD2     C13851   4.050   1.828  11.385  0.0141  0.2258 -0.2434
  944MPD2    C113852   3.926   1.803  11.445  0.5975  0.1168 -0.1058
  944MPD2    C213853   3.866   1.907  11.510  0.1275  0.0141  0.0075
  944MPD2    C313854   3.906   2.037  11.502  0.0684 -0.1557  0.2780
  944MPD2    C413855   4.024   2.066  11.441  0.5965 -0.6848  0.6407
  944MPD2    C513856   4.102   1.958  11.389 -0.7948 -0.7604  0.3984
  944MPD2     H13857   3.764   1.895  11.546  0.4948 -0.9296  0.7416
  944MPD2    H113858   4.052   2.171  11.440 -1.7887 -0.0633  0.3168
  944MPD2    H213859   4.101   1.741  11.346  0.9896  0.8842 -0.4328
  944MPD2    H313860   4.205   1.971  11.357 -0.7419  1.8450  1.6093
  944MPD2     N13861   3.808   2.125  11.554  0.3418  0.3821  0.3274
  944MPD2    H513862   3.725   2.078  11.590 -0.6588  0.3484 -1.9781
  944MPD2    N113863   3.877   1.671  11.440 -0.9074 -0.1466  0.2870
  944MPD2    H713864   3.928   1.608  11.380  0.9023  0.8067  0.8315
    1TMC1    C113865   2.071   2.010  14.605 -0.8018  0.0643  0.1734
    1TMC1    C213866   1.957   1.998  14.686 -0.4710  0.1284 -0.1449
    1TMC1    C313867   1.970   1.941  14.811 -0.4215 -0.0870  0.5793
    1TMC1    C413868   2.191   1.966  14.643  0.3393 -0.0284  0.2508
    1TMC1    C513869   2.197   1.904  14.761  0.2732 -0.2128  0.2479
    1TMC1    C613870   2.088   1.882  14.850  0.7554 -0.3828  0.5812
    1TMC1     C13871   2.073   2.092  14.484  0.6852  0.9519  0.3680
    1TMC1     O13872   2.179   2.113  14.431 -0.2206 -0.2821  0.4352
    1TMC1     H13873   1.867   2.053  14.659 -1.8051 -1.7096  0.4965
    1TMC1    H113874   2.276   1.971  14.577  0.2352  0.2918  0.1429
    1TMC1    H213875   2.089   1.820  14.939  0.2704  0.5735  1.2604
    1TMC1    C713876   2.318   1.832  14.781 -0.2910  0.1013  0.1752
    1TMC1    C813877   1.874   1.954  14.921  0.3084 -0.0534  0.0693
    1TMC1    O113878   2.421   1.894  14.750 -0.4827 -0.2367  0.2284
    1TMC1    O213879   1.916   1.946  15.033 -0.3460 -0.7030  0.2560
    1TMC1    O313880   2.304   1.777  14.903 -0.1575 -0.4293  1.2016
    1TMC1    H313881   2.231   1.713  14.916 -2.6862  2.1749 -0.2148
    1TMC1    O513882   1.759   1.999  14.878  0.6403  0.7033 -0.7218
    1TMC1    H513883   1.754   2.004  14.780  1.5926 -2.0001 -0.8901
    2MPD2     C13884   1.852   2.442  14.181  0.4534  0.2314  0.0059
    2MPD2    C113885   1.774   2.421  14.289  0.2052 -0.3637 -0.1015
    2MPD2    C213886   1.812   2.327  14.379 -0.4767 -0.1029 -0.2483
    2MPD2    C313887   1.921   2.243  14.362 -0.0270  0.3171  0.6053
    2MPD2    C413888   1.996   2.257  14.244 -0.1681  0.5712 -0.3047
    2MPD2    C513889   1.958   2.355  14.158 -0.3678 -0.2623  0.4673
    2MPD2     H13890   1.759   2.316  14.472 -0.9154 -1.3888 -0.6506
    2MPD2    H113891   2.080   2.198  14.209  0.9723  0.4021  2.7084
    2MPD2    H213892   1.815   2.511  14.105 -2.3540  2.6423  3.5715
    2MPD2    H313893   2.013   2.374  14.066  1.8490  0.8952  2.0307
    2MPD2     N13894   1.950   2.154  14.464 -0.3211 -0.0426 -0.2564
    2MPD2    H513895   1.890   2.163  14.546 -0.4645  1.6595 -0.5468
    2MPD2    N113896   1.668   2.512  14.312 -0.2546  0.2256 -0.1487
    2MPD2    H713897   1.649   2.591  14.251  0.7140  0.6492  0.1080
    3TMC2    C113898   1.491   2.626  14.401  0.2846  0.4452 -0.3454
    3TMC2    C213899   1.462   2.714  14.505  0.2813  0.3158 -0.0065
    3TMC2    C313900   1.387   2.819  14.468  0.1497 -0.0784  0.2496
    3TMC2    C413901   1.464   2.645  14.271  0.0979  0.2858  0.1369
    3TMC2    C513902   1.402   2.759  14.236  0.6443 -1.0204 -0.4896
    3TMC2    C613903   1.348   2.835  14.336 -0.0984 -0.5508  0.0110
    3TMC2     C13904   1.593   2.528  14.423  0.6280  0.0143 -0.2398
    3TMC2     O13905   1.609   2.479  14.534  0.6834  0.1864  0.8345
    3TMC2     H13906   1.492   2.680  14.604  0.6544  0.5547 -0.0350
    3TMC2    H113907   1.481   2.567  14.198  2.3871 -0.2094  1.1831
    3TMC2    H213908   1.282   2.919  14.318 -0.9748 -1.6761 -1.9887
    3TMC2    C713909   1.382   2.777  14.088  0.3876 -0.4029  0.2349
    3TMC2    C813910   1.365   2.931  14.563 -0.2130  0.7476  0.0776
    3TMC2    O113911   1.426   2.689  14.016  0.2543  0.2441  0.0078
    3TMC2    O213912   1.274   3.014  14.555 -0.0618 -0.8762  0.5547
    3TMC2    O513913   1.444   2.921  14.673  0.3706 -0.0316  0.6403
    3TMC2    H513914   1.526   2.868  14.664  0.5397  0.2588  0.4831
    4TMC2    C113915   0.716   3.416  13.694  0.0010  0.5167  0.5772
    4TMC2    C213916   0.769   3.497  13.600 -0.2255 -0.0661 -0.2743
    4TMC2    C313917   0.905   3.518  13.595 -0.3535 -0.2159  0.1494
    4TMC2    C413918   0.791   3.342  13.785  0.0463  0.5509  0.1403
    4TMC2    C513919   0.924   3.376  13.786 -0.3327 -0.2718 -0.3252
    4TMC2    C613920   0.985   3.457  13.699 -0.0751  0.1072  0.1642
    4TMC2     C13921   0.585   3.357  13.667 -0.2763  0.4222 -0.1592
    4TMC2     O13922   0.540   3.281  13.754 -0.5820  0.3171  0.2022
    4TMC2     H13923   0.707   3.560  13.537  0.2620  0.5114 -0.1727
    4TMC2    H113924   0.746   3.272  13.855  0.0954  1.3416  0.9664
    4TMC2    H213925   1.089   3.484  13.716 -0.2848  1.7702 -1.1959
    4TMC2    C713926   1.004   3.272  13.844 -0.0154  0.7241  0.1872
    4TMC2    C813927   0.947   3.646  13.545  0.6412 -0.0235 -0.2320
    4TMC2    O113928   0.973   3.225  13.950  0.1778  0.1268 -0.1970
    4TMC2    O213929   0.868   3.737  13.534 -0.5198 -0.5111  0.1498
    4TMC2    O513930   1.038   3.622  13.451  0.4743  0.1848  0.0770
    4TMC2    H513931   1.091   3.539  13.456  0.8681  0.4675  0.6746
    5MPD2     C13932   0.216   3.239  13.333  0.0185 -0.3738  0.3169
    5MPD2    C113933   0.322   3.284  13.264  0.2426 -0.0338 -0.2840
    5MPD2    C213934   0.433   3.320  13.338 -0.4213 -0.9671  0.1346
    5MPD2    C313935   0.442   3.302  13.474 -0.2152 -0.3301  0.1065
    5MPD2    C413936   0.329   3.255  13.541  0.1255 -0.5209 -0.0118
    5MPD2    C513937   0.218   3.226  13.467 -0.0118 -0.2576 -0.2458
    5MPD2     H13938   0.522   3.356  13.287  0.7692  0.8754  3.4983
    5MPD2    H113939   0.316   3.248  13.649 -1.7303 -0.3942 -0.2205
    5MPD2    H213940   0.118   3.233  13.287  1.1696 -0.4125 -2.1357
    5MPD2    H313941   0.127   3.197  13.519  0.7329  0.2199  1.3224
    5MPD2     N13942   0.556   3.357  13.538 -0.7284  0.1136 -0.3912
    5MPD2    H513943   0.620   3.404  13.475  1.3417 -0.6356  1.1625
    5MPD2    N113944   0.319   3.284  13.119 -0.3894 -0.1273  0.3632
    5MPD2    H713945   0.226   3.268  13.084 -0.0631  2.1374 -1.5143
    6MPD1     C13946   0.421   0.248  13.377 -0.2720 -0.1251 -1.1166
    6MPD1    C113947   0.295   0.210  13.348  0.0310  0.0608  0.0554
    6MPD1    C213948   0.266   0.076  13.367  0.1345  0.2008 -0.1453
    6MPD1    C313949   0.365   4.710  13.364 -0.6191  0.8009 -0.1549
    6MPD1    C413950   0.496   0.022  13.377 -0.6083  0.1841 -0.1633
    6MPD1    C513951   0.515   0.155  13.400 -0.6303 -0.1039  0.2108
    6MPD1     H13952   0.162   0.047  13.366 -0.4755  2.3938  1.7958
    6MPD1    H113953   0.588   4.698  13.378  0.2864  1.6621  2.8611
    6MPD1    H213954   0.445   0.354  13.384  0.3537 -0.3207 -0.3565
    6MPD1    H313955   0.613   0.196  13.424 -1.3093  0.5361  1.8734
    6MPD1     N13956   0.336   4.571  13.349  0.5107  0.3989 -0.2808
    6MPD1    H513957   0.410   4.501  13.346  1.9851  1.9563 -0.1187
    6MPD1    N113958   0.194   0.302  13.354 -0.2972  0.4567 -0.7952
    6MPD1    H613959   0.223   0.390  13.312 -1.2437  0.2977 -1.7902
    6MPD1    H713960   0.114   0.262  13.305  0.2525 -1.6780  0.0322
    7MPD2     C13961   0.024   4.052  12.818 -0.3200  0.3553  0.1108
    7MPD2    C113962   0.065   3.977  12.924  0.6338 -0.1627  0.3336
    7MPD2    C213963   0.114   3.853  12.900 -0.5248 -0.7835  0.0513
    7MPD2    C313964   0.113   3.797  12.774 -0.0428  0.3380  0.0174
    7MPD2    C413965   0.066   3.873  12.667 -0.0446  0.1734  0.4169
    7MPD2    C513966   0.021   3.998  12.689 -0.4894  0.1144 -0.0470
    7MPD2     H13967   0.155   3.802  12.987 -3.3182  2.1703  3.0649
    7MPD2    H113968   0.062   3.826  12.569  0.9479  1.5348 -0.2808
    7MPD2    H213969   4.721   4.153  12.830  0.1669  0.4228  0.9664
    7MPD2    H313970   4.714   4.058  12.608  0.0303  0.8639  0.2561
    7MPD2     N13971   0.156   3.665  12.745 -0.0967 -0.0521 -0.2423
    7MPD2    H513972   0.150   3.632  12.649 -1.4406 -1.4500  0.3061
    7MPD2    N113973   0.077   4.031  13.057  0.6799  0.0389 -0.0046
    7MPD2    H713974   0.115   3.968  13.127 -0.2471 -0.5416 -0.0284
    8TMC3    C113975   0.257   3.463  12.786  0.8703 -0.2913 -0.4727
    8TMC3    C213976   0.265   3.374  12.878 -0.2420  0.5368 -0.0367
    8TMC3    C313977   0.396   3.332  12.904 -0.9465  0.6766  1.0540
    8TMC3    C413978   0.357   3.507  12.707 -0.3913 -0.0745  0.4652
    8TMC3    C513979   0.482   3.459  12.723 -0.9879 -0.5402  0.5443
    8TMC3    C613980   0.500   3.365  12.824 -0.6258 -0.4218  0.4059
    8TMC3     C13981   0.196   3.575  12.843 -0.0725  0.0567  0.6111
    8TMC3     O13982   0.199   3.582  12.968  0.2979 -0.0451  0.1707
    8TMC3     H13983   0.181   3.332  12.932  0.8627 -1.1609  0.3499
    8TMC3    H113984   0.352   3.582  12.629 -0.2396 -1.2246 -0.6632
    8TMC3    H213985   0.600   3.327  12.845 -0.7940 -2.1224 -1.8737
    8TMC3    C713986   0.572   3.572  12.736 -0.5355  0.2703  0.7528
    8TMC3    C813987   0.436   3.289  13.040 -0.6204 -0.6762  0.1351
    8TMC3    O113988   0.688   3.544  12.721  0.2457  0.2721 -0.2880
    8TMC3    O213989   0.553   3.262  13.062  0.5289  0.0775 -0.0188
    9TMC3    C113990   0.220   4.374  13.285  0.2060 -0.0211  0.0209
    9TMC3    C213991   0.342   4.304  13.290  0.2870  0.0961  0.0319
    9TMC3    C313992   0.340   4.170  13.273 -0.6444 -0.1392 -0.0626
    9TMC3    C413993   0.107   4.313  13.239 -0.0039  0.7764  0.5097
    9TMC3    C513994   0.114   4.185  13.214 -0.0293 -0.0601 -0.4985
    9TMC3    C613995   0.226   4.109  13.240 -0.3994  0.5845 -0.0476
    9TMC3     C13996   0.212   4.515  13.325  0.0805  0.2952  0.5983
    9TMC3     O13997   0.115   4.577  13.288 -0.3089 -0.4510 -0.2817
    9TMC3     H13998   0.440   4.341  13.321  1.1439 -2.4695  0.3799
    9TMC3    H113999   0.014   4.366  13.220  0.4083  1.2537 -0.1681
    9TMC3    H214000   0.227   4.001  13.238  1.6034  0.6034 -0.7985
    9TMC3    C714001   0.035   4.152  13.097 -0.1605 -0.1324 -0.1465
    9TMC3    C814002   0.463   4.124  13.210  0.4068  0.6206 -0.2240
    9TMC3    O114003   4.684   4.231  13.046  0.6690 -0.0176  0.0657
    9TMC3    O214004   0.567   4.174  13.238 -0.2122  0.2917  0.8660
   10MPD2     C14005   0.699   3.827  12.859  0.8026 -0.3593  0.8528
   10MPD2    C114006   0.567   3.780  12.870 -0.1546  0.0377  0.6676
   10MPD2    C214007   0.485   3.851  12.957 -0.6234  0.4976  0.2552
   10MPD2    C314008   0.528   3.955  13.033 -0.1706  0.0048  0.1254
   10MPD2    C414009   0.660   3.985  13.039 -0.4252 -0.3533  0.1761
   10MPD2    C514010   0.742   3.916  12.956  0.0194 -0.0933 -0.0715
   10MPD2     H14011   0.382   3.822  12.976 -0.8574 -0.1314 -1.9236
   10MPD2    H114012   0.703   4.062  13.101  1.0476 -1.1838  0.1796
   10MPD2    H214013   0.761   3.777  12.787  3.9718  0.1186  3.2734
   10MPD2    H314014   0.843   3.946  12.932  0.1220 -0.2113  0.2109
   10MPD2     N14015   0.438   4.030  13.111 -0.0889  0.6143 -0.4845
   10MPD2    H514016   0.341   4.001  13.098  0.1824 -0.1187 -0.9260
   10MPD2    N114017   0.514   3.662  12.815  0.1103 -0.4807  0.2704
   10MPD2    H714018   0.422   3.640  12.850 -1.0694 -1.5016 -3.4204
   11MPD2     C14019   1.330   2.884  13.811  0.3920 -0.3628  0.2073
   11MPD2    C114020   1.285   2.939  13.927 -0.2115  0.2165 -0.3460
   11MPD2    C214021   1.211   3.055  13.915 -0.3309  0.0992  0.1953
   11MPD2    C314022   1.192   3.117  13.788 -0.4733  0.4959  0.8539
   11MPD2    C414023   1.242   3.054  13.679  0.0391 -0.2939  0.3535
   11MPD2    C514024   1.304   2.939  13.689  0.5878 -0.3004 -0.2918
   11MPD2     H14025   1.176   3.109  14.002 -0.0148  0.8665 -0.1499
   11MPD2    H114026   1.227   3.097  13.581 -0.1789  3.2456  1.9597
   11MPD2    H214027   1.381   2.788  13.808  0.8754 -0.1314  0.8782
   11MPD2    H314028   1.336   2.887  13.599  0.0757 -1.1348  0.0066
   11MPD2     N14029   1.100   3.225  13.758 -0.3124  0.0138  0.0222
   11MPD2    H514030   1.112   3.266  13.666 -0.3949  0.8742  0.3938
   11MPD2    N114031   1.324   2.901  14.059  0.2609  0.0476  0.5068
   11MPD2    H714032   1.274   2.936  14.140  0.8547  0.9918  0.4578
    1MPD1     C14033   0.687   3.606  16.569  0.3837 -0.1886 -0.2955
    1MPD1    C114034   0.569   3.588  16.503  0.6548  0.2752 -0.3468
    1MPD1    C214035   0.449   3.603  16.565  0.5860 -0.0020 -0.0914
    1MPD1    C314036   0.434   3.666  16.689  0.2271  0.9093  0.0324
    1MPD1    C414037   0.555   3.702  16.752 -0.5739  0.3852  0.1960
    1MPD1    C514038   0.681   3.670  16.691  0.4106  1.0800  0.2700
    1MPD1     H14039   0.364   3.572  16.505  0.2288  1.1455 -0.1778
    1MPD1    H114040   0.556   3.739  16.853 -0.6860  0.4113  0.1876
    1MPD1    H214041   0.785   3.584  16.529 -0.4065  1.6077 -3.1967
    1MPD1    H314042   0.777   3.685  16.738  1.4519  1.3463 -1.9705
    1MPD1     N14043   0.317   3.698  16.755  0.4154  0.2162  0.0395
    1MPD1    H514044   0.322   3.763  16.833  0.7305 -0.0948  0.2788
    1MPD1    N114045   0.582   3.524  16.378 -0.3391 -0.0494 -0.2515
    1MPD1    H614046   0.507   3.544  16.312  2.0379  0.2651 -2.8432
    1MPD1    H714047   0.670   3.544  16.332 -0.0300 -3.6727 -1.2294
    2MPD1     C14048   4.052   3.315  16.805  0.8163 -0.1549 -0.1891
    2MPD1    C114049   4.165   3.236  16.801 -0.7641  0.1037 -0.3264
    2MPD1    C214050   4.289   3.305  16.823  0.2230 -0.4990  0.4631
    2MPD1    C314051   4.310   3.439  16.831 -0.1354 -0.6744 -0.7068
    2MPD1    C414052   4.195   3.516  16.815  0.4688  0.3637  0.0573
    2MPD1    C514053   4.070   3.452  16.819  0.5468  0.5709  0.0749
    2MPD1     H14054   4.372   3.237  16.832 -0.2356 -1.2894 -1.3351
    2MPD1    H114055   4.187   3.624  16.815 -0.6037  0.2933  2.4312
    2MPD1    H214056   3.952   3.274  16.817  0.3270  1.4322  1.0682
    2MPD1    H314057   3.987   3.521  16.832  0.1189  0.3036 -1.2442
    2MPD1     N14058   4.447   3.486  16.843 -0.0713  0.3893 -0.6031
    2MPD1    H514059   4.525   3.423  16.855 -0.9434 -0.6175 -0.2583
    2MPD1    N114060   4.159   3.094  16.813 -0.3989  0.0462  0.5898
    2MPD1    H614061   4.239   3.046  16.771 -0.0198 -0.0154  1.3630
    2MPD1    H714062   4.076   3.066  16.763 -0.3159  1.2229 -0.2061
    3TMC3    C114063   4.610   3.653  16.893  0.5884  0.8039  0.7145
    3TMC3    C214064   4.623   3.762  16.970 -0.4161  0.4151  0.0584
    3TMC3    C314065   0.008   3.836  16.972 -0.4274  0.1789 -0.0773
    3TMC3    C414066   4.705   3.622  16.801 -0.1020  0.1749 -0.1731
    3TMC3    C514067   0.083   3.704  16.801  0.1865 -0.0665 -0.5184
    3TMC3    C614068   0.108   3.805  16.887  0.3292  0.0548 -0.0429
    3TMC3     C14069   4.473   3.620  16.867  1.2674 -0.2275  0.1783
    3TMC3     O14070   4.396   3.715  16.885  0.3035  0.4457 -0.1929
    3TMC3     H14071   4.539   3.804  17.024 -1.2549 -4.1140  2.2929
    3TMC3    H114072   4.681   3.548  16.726  1.2017  1.1366 -1.5416
    3TMC3    H214073   0.187   3.876  16.865  1.3478 -1.1519 -0.3089
    3TMC3    C714074   0.192   3.648  16.723 -0.1599 -0.0518  0.6256
    3TMC3    C814075   0.009   3.947  17.069 -0.0999  0.0063  0.1012
    3TMC3    O114076   0.177   3.556  16.646 -0.1562 -0.0745 -0.2127
    3TMC3    O214077   4.635   4.004  17.089  0.2308  0.6147  0.7545
    4MPD1     C14078   0.234   4.326  17.318 -0.0270 -0.1275  0.0882
    4MPD1    C114079   0.323   4.225  17.304  0.3145 -0.0038 -0.0105
    4MPD1    C214080   0.286   4.119  17.227  0.3669  0.3949 -0.2352
    4MPD1    C314081   0.160   4.102  17.190 -0.4193 -0.8346  0.7019
    4MPD1    C414082   0.064   4.193  17.226  0.2194  0.6826  0.2993
    4MPD1    C514083   0.107   4.315  17.270 -0.2823 -0.2499 -0.2066
    4MPD1     H14084   0.360   4.049  17.192  2.1666  1.2624  1.8485
    4MPD1    H114085   4.691   4.179  17.205  0.2408  1.8615 -0.6633
    4MPD1    H214086   0.267   4.421  17.359 -2.8989  0.4461  1.0770
    4MPD1    H314087   0.032   4.392  17.285  1.2965  1.2505  0.0238
    4MPD1     N14088   0.133   3.985  17.110 -0.1653 -0.0697 -0.2090
    4MPD1    H514089   0.206   3.917  17.093  1.0650  1.1013  0.3981
    4MPD1    N114090   0.461   4.244  17.341 -0.4494 -0.0166  0.4852
    4MPD1    H614091   0.507   4.304  17.273 -1.7590  1.1312  0.6138
    4MPD1    H714092   0.506   4.154  17.328  0.3952  0.6873 -1.4626
    1TCq1    O114093   1.319   3.772  11.963  0.1545 -0.0812  0.1291
    1TCq1    C114094   1.295   3.888  12.026 -0.5157 -0.9671 -0.4537
    1TCq1    O214095   1.234   3.893  12.130  0.1689 -0.6978 -0.1571
    1TCq1    C214096   1.255   3.985  11.918 -0.1495  0.3895 -0.5053
    1TCq1    C314097   1.348   4.026  11.828  0.3770 -0.4651 -0.0508
    1TCq1    C414098   1.314   4.133  11.748  0.2084  0.0399  0.5074
    1TCq1    C514099   1.188   4.198  11.751  0.3487  0.2316 -0.1493
    1TCq1    C614100   1.096   4.150  11.844  0.0270  0.1815  0.2437
    1TCq1    C714101   1.130   4.047  11.926 -0.2669 -0.0546 -0.1019
    1TCq1    C814102   0.957   4.203  11.838 -0.3693 -0.2101 -0.0797
    1TCq1    O414103   0.941   4.283  11.745  0.3521  0.4934  0.2782
    1TCq1    C914104   1.392   4.145  11.630 -0.4348 -0.4763 -0.6701
    1TCq1    O514105   1.368   4.237  11.549  0.7237  0.1126 -0.6014
    1TCq1    O614106   1.489   4.070  11.623 -0.2145 -0.1266  0.0548
    1TCq1    H114107   1.335   3.779  11.866 -0.2411 -1.5675 -0.0315
    1TCq1    H214108   1.448   3.984  11.836  1.3517  1.5816 -1.5443
    1TCq1    H314109   1.176   4.291  11.697 -2.0881  0.5924  0.9932
    1TCq1    H414110   1.055   4.004  11.992 -1.2150  1.3502 -0.2709
    2MPD1     C14111   0.472   4.267  12.016  0.1331  0.0751  0.4553
    2MPD1    C114112   0.558   4.226  12.123  0.7184  0.0242  0.8944
    2MPD1    C214113   0.691   4.201  12.094  0.0911  0.9277 -0.1753
    2MPD1    C314114   0.741   4.207  11.966  0.2466 -0.2239 -0.9078
    2MPD1    C414115   0.668   4.264  11.864 -0.8645  0.2752  0.3945
    2MPD1    C514116   0.537   4.280  11.895  0.2783  0.2369 -0.2906
    2MPD1     H14117   0.759   4.165  12.170 -1.0590  0.1997  0.5082
    2MPD1    H114118   0.701   4.284  11.763 -0.2357 -0.9331  0.3584
    2MPD1    H214119   0.366   4.280  12.033  0.2789  0.5142  1.0289
    2MPD1    H314120   0.476   4.314  11.812  1.6018 -1.0943 -1.7972
    2MPD1     N14121   0.879   4.172  11.948 -0.4404  0.3421 -0.3726
    2MPD1    H514122   0.930   4.134  12.027  0.7773  0.4641 -1.0827
    2MPD1    N114123   0.505   4.199  12.252  0.5227  0.3280  0.4893
    2MPD1    H614124   0.417   4.250  12.258  0.2041 -0.0927 -0.5674
    2MPD1    H714125   0.571   4.239  12.318  0.9849  2.1258 -1.0777
    1TMC1    C114126   0.144   1.020   1.163 -0.2453 -0.1450  0.3816
    1TMC1    C214127   0.099   1.089   1.273  0.3122 -0.3130  0.3364
    1TMC1    C314128   0.192   1.122   1.368 -0.0215 -0.0315 -0.0358
    1TMC1    C414129   0.278   0.977   1.163 -0.1524 -0.2108  0.5273
    1TMC1    C514130   0.363   1.017   1.262  0.0305  0.7304 -0.2481
    1TMC1    C614131   0.320   1.081   1.369  0.3059  0.5417 -0.3050
    1TMC1     C14132   0.056   0.968   1.062  0.7243  0.0268  0.1090
    1TMC1     O14133   0.104   0.888   0.985 -0.4198  0.0008  0.4064
    1TMC1     H14134   4.728   1.113   1.293  0.5685 -0.4619  1.8859
    1TMC1    H114135   0.319   0.910   1.088  0.1792 -0.6632  1.1114
    1TMC1    H214136   0.381   1.114   1.452  0.4469  0.6270 -0.4410
    1TMC1    C714137   0.503   0.993   1.248 -0.1063  1.0297  0.3559
    1TMC1    C814138   0.137   1.209   1.465  0.3649 -0.3976 -0.1380
    1TMC1    O114139   0.550   0.907   1.177  0.4593  0.7130  0.0314
    1TMC1    O214140   0.206   1.300   1.509  0.0491  0.2166  0.1488
    1TMC1    O314141   0.565   1.102   1.313 -0.1887  0.2185  0.4501
    1TMC1    H314142   0.512   1.183   1.320 -0.6847 -0.2094  1.5936
    1TMC1    O514143   0.060   1.130   1.544 -0.4292 -0.3710  0.8602
    1TMC1    H514144   0.026   1.051   1.497 -0.8874 -0.3492  1.1537
    2MPD1     C14145   4.364   0.965   0.770 -0.0294  0.3347  0.0165
    2MPD1    C114146   4.354   1.067   0.865 -0.8113 -0.3416 -0.5654
    2MPD1    C214147   4.454   1.081   0.959  0.1499 -0.1238  0.1555
    2MPD1    C314148   4.565   1.005   0.964 -1.0248 -0.0843  0.3828
    2MPD1    C414149   4.576   0.908   0.862  0.0974 -0.3908 -0.4325
    2MPD1    C514150   4.477   0.895   0.762 -0.1712 -0.6709  0.1881
    2MPD1     H14151   4.445   1.153   1.039 -1.3282 -1.3731  1.1066
    2MPD1    H114152   4.669   0.854   0.848  1.5738  2.0661 -0.1533
    2MPD1    H214153   4.288   0.936   0.698 -0.5596  0.1836  0.6326
    2MPD1    H314154   4.487   0.815   0.690  0.3369 -0.3698 -0.0771
    2MPD1     N14155   4.663   1.028   1.065  0.0527 -0.2673 -0.0285
    2MPD1    H514156   4.648   1.107   1.127 -0.5280  1.2797 -2.1421
    2MPD1    N114157   4.234   1.135   0.876  0.4893  0.3565  0.0283
    2MPD1    H614158   4.169   1.127   0.798  0.4678  0.7378  0.0075
    2MPD1    H714159   4.253   1.234   0.884 -1.6851  0.8217 -0.4947
    1MPD1     C14160   2.586   4.645  11.903  0.7519 -0.4335 -0.1330
    1MPD1    C114161   2.647   4.682  11.784  0.2472 -0.3511  0.4059
    1MPD1    C214162   2.580   4.684  11.664 -0.2781 -0.4783  0.5446
    1MPD1    C314163   2.446   4.668  11.660  0.3254 -0.5937  0.0970
    1MPD1    C414164   2.380   4.633  11.779  1.2139  0.1931 -0.5515
    1MPD1    C514165   2.455   4.616  11.894  0.5126 -0.2669 -0.0994
    1MPD1     H14166   2.634   4.709  11.574  0.7567 -1.6942  0.8359
    1MPD1    H114167   2.278   4.596  11.773  1.3728 -0.5282  1.2918
    1MPD1    H214168   2.628   4.650  12.003  0.6224 -0.6526 -0.0663
    1MPD1    H314169   2.396   4.588  11.981  3.1425  1.0055  2.1105
    1MPD1     N14170   2.384   4.685  11.535  0.1610  0.1755  0.2563
    1MPD1    H514171   2.444   4.718  11.461 -0.5048  1.5773  0.3320
    1MPD1    N114172   2.767   0.019  11.788 -0.3298  0.2086 -0.1871
    1MPD1    H614173   2.820   0.047  11.706  1.0795 -0.5546  0.4592
    1MPD1    H714174   2.831   4.720  11.861  1.1737  2.9971 -0.2778
    2MPD1     C14175   1.017   4.272  11.205 -0.4221  0.1583  0.0101
    2MPD1    C114176   1.131   4.272  11.279 -0.5299  0.1724 -0.4342
    2MPD1    C214177   1.256   4.251  11.223  0.6805 -0.5998  0.0811
    2MPD1    C314178   1.261   4.230  11.089  0.8061  0.2559 -0.0742
    2MPD1    C414179   1.151   4.248  11.011 -0.1863 -0.1777 -0.3972
    2MPD1    C514180   1.033   4.270  11.077 -0.3754  0.3636 -0.0904
    2MPD1     H14181   1.341   4.262  11.289  0.7237 -0.1036 -0.0540
    2MPD1    H114182   1.153   4.241  10.903  2.1388 -0.2372 -0.3564
    2MPD1    H214183   0.919   4.292  11.246  0.3929 -0.6166  2.3054
    2MPD1    H314184   0.938   4.263  11.027  0.4010 -0.6133 -1.4310
    2MPD1     N14185   1.376   4.201  11.008 -0.0834 -0.5254 -0.6390
    2MPD1    H514186   1.355   4.176  10.912 -5.1605  0.8976  0.1124
    2MPD1    N114187   1.120   4.251  11.418  0.1414 -0.3559  0.2067
    2MPD1    H614188   1.049   4.302  11.470  1.2430  0.2226  1.1670
    2MPD1    H714189   1.209   4.262  11.467 -0.1625  1.0679  0.4470
    3MPD1     C14190   1.181   3.651  10.517 -0.0743  0.5648 -0.0340
    3MPD1    C114191   1.204   3.624  10.651 -0.0610  0.4382 -0.6086
    3MPD1    C214192   1.317   3.680  10.710 -1.5698  0.0245 -0.6001
    3MPD1    C314193   1.398   3.761  10.637 -0.3242  0.2068 -0.1175
    3MPD1    C414194   1.373   3.787  10.501 -1.0178  0.0121 -0.4409
    3MPD1    C514195   1.263   3.726  10.439  0.3551 -0.3307  0.2954
    3MPD1     H14196   1.328   3.666  10.817  0.6439 -1.3802 -1.0063
    3MPD1    H114197   1.430   3.867  10.455 -0.9801 -2.3540 -4.5159
    3MPD1    H214198   1.083   3.630  10.477 -0.5665  1.1675  0.8470
    3MPD1    H314199   1.245   3.762  10.338 -0.1118 -2.5335 -0.4065
    3MPD1     N14200   1.509   3.822  10.707 -0.2751  0.7627 -0.4266
    3MPD1    H514201   1.508   3.814  10.808  2.2277 -1.1402 -0.5611
    3MPD1    N114202   1.136   3.521  10.719  0.5165 -0.2156  0.3926
    3MPD1    H614203   1.121   3.546  10.816  1.0461  0.2427  0.3561
    3MPD1    H714204   1.045   3.497  10.681 -0.0958  1.1146  1.0135
    4MPD2     C14205   1.854   4.622  10.903  0.3749 -0.0306 -0.2221
    4MPD2    C114206   1.953   4.722  10.898 -0.0507  0.5615 -0.0593
    4MPD2    C214207   2.028   0.013  10.782  0.2079 -0.0079 -0.1773
    4MPD2    C314208   1.998   4.669  10.670  0.0440 -1.3024 -0.2819
    4MPD2    C414209   1.896   4.574  10.671 -0.3210 -0.5184  0.1466
    4MPD2    C514210   1.821   4.559  10.788 -0.4102  0.2218  0.0677
    4MPD2     H14211   2.115   0.078  10.789 -0.1659  0.7372 -2.2929
    4MPD2    H114212   1.860   4.522  10.582 -1.0674 -1.2685  0.8921
    4MPD2    H214213   1.786   4.599  10.985  1.0875 -0.5648  0.2100
    4MPD2    H314214   1.731   4.498  10.783 -0.7142  0.7813 -1.2767
    4MPD2     N14215   2.078   4.680  10.557  0.1944  0.3657 -0.0770
    4MPD2    H514216   2.074   4.601  10.492  2.8812  0.9870 -1.0012
    4MPD2    N114217   1.986   0.055  11.019  0.2401  0.2256 -0.2407
    4MPD2    H714218   2.067   0.117  11.016 -0.9733  1.8900  1.1647
    5TMC3    C114219   2.030   0.083  11.251  0.3445 -0.3165  0.2148
    5TMC3    C214220   2.073   0.005  11.354  0.2926  0.0321 -0.5649
    5TMC3    C314221   2.211   0.012  11.390  0.4008 -0.3020 -0.5248
    5TMC3    C414222   2.114   0.177  11.190  0.2231  0.2538  0.3766
    5TMC3    C514223   2.242   0.191  11.244  0.0589  0.1697  0.2009
    5TMC3    C614224   2.296   0.100  11.329 -0.3183 -0.0862  0.7729
    5TMC3     C14225   1.948   0.014  11.148 -0.1115  0.3347  0.2004
    5TMC3     O14226   1.875   4.660  11.187  0.4426  0.7957  0.6926
    5TMC3     H14227   2.005   4.664  11.395  1.0700  0.2044  1.0350
    5TMC3    H114228   2.078   0.245  11.113 -0.0939  1.4844  1.6084
    5TMC3    H214229   2.404   0.092  11.333 -0.2520 -0.4347 -1.5277
    5TMC3    C714230   2.339   0.241  11.152  0.4533 -0.4121  0.4369
    5TMC3    C814231   2.247   4.678  11.510 -0.2577  0.2766  0.1060
    5TMC3    O114232   2.433   0.173  11.121  0.2318  0.4084  0.1893
    5TMC3    O214233   2.160   4.624  11.575 -0.1629 -0.4014 -0.3451
    6TMC3    C114234   1.599   4.124  10.955  0.5182 -0.0960  0.3560
    6TMC3    C214235   1.545   4.044  10.862  0.5728 -0.2601  0.3952
    6TMC3    C314236   1.634   4.003  10.765  0.1385  0.5980  0.2101
    6TMC3    C414237   1.724   4.173  10.958 -0.3387 -0.4021 -0.6220
    6TMC3    C514238   1.806   4.137  10.851  0.1645  0.0746  0.2062
    6TMC3    C614239   1.761   4.049  10.753 -0.7172  0.6454 -1.0988
    6TMC3     C14240   1.506   4.178  11.058 -0.5718 -0.7760 -0.4645
    6TMC3     O14241   1.556   4.208  11.163  0.3435  0.2572 -0.8837
    6TMC3     H14242   1.443   4.011  10.876  0.4171 -0.3936 -1.0996
    6TMC3    H114243   1.746   4.257  11.024  1.4220 -0.6242 -0.9176
    6TMC3    H214244   1.831   4.031  10.673  1.1633  2.0530  0.2336
    6TMC3    C714245   1.930   4.211  10.816 -0.7965 -0.2503 -0.0122
    6TMC3    C814246   1.601   3.913  10.656  0.2028 -0.3551  0.2997
    6TMC3    O114247   1.966   4.223  10.698 -0.0515 -0.1488  0.4360
    6TMC3    O214248   1.640   3.934  10.540  0.0817 -0.0890 -0.2753
    7MPD2     C14249   2.413   0.487  10.717 -0.4954 -0.0704 -0.6721
    7MPD2    C114250   2.428   0.362  10.754  0.0005  0.8539 -0.1113
    7MPD2    C214251   2.390   0.314  10.877 -0.4249 -0.2889 -0.1107
    7MPD2    C314252   2.333   0.399  10.966 -0.3713  0.2617 -0.3392
    7MPD2    C414253   2.301   0.529  10.922 -1.0231  0.6951  0.2662
    7MPD2    C514254   2.347   0.579  10.803 -0.2172  0.5715 -0.6258
    7MPD2     H14255   2.390   0.211  10.911  2.3904  0.0407  0.9157
    7MPD2    H114256   2.266   0.602  10.994  0.9464  0.4135  1.5123
    7MPD2    H214257   2.444   0.523  10.619  2.1232  0.4328  0.3549
    7MPD2    H314258   2.341   0.682  10.770 -1.0663  0.7323  0.0279
    7MPD2     N14259   2.295   0.361  11.095 -0.2178 -0.0632 -0.1703
    7MPD2    H514260   2.225   0.415  11.146  1.6024  1.6643  0.4684
    7MPD2    N114261   2.463   0.270  10.653 -0.2459 -0.0385 -0.7190
    7MPD2    H714262   2.459   0.301  10.557  1.1084 -0.0165 -0.7786
    8TMC3    C114263   2.490   0.055  10.560  0.7131  0.3531  0.0365
    8TMC3    C214264   2.509   4.661  10.603  0.9070  0.0139  0.2818
    8TMC3    C314265   2.427   4.572  10.548  0.2543  0.2215 -0.1553
    8TMC3    C414266   2.386   0.091  10.473 -0.8818 -0.0707 -0.2687
    8TMC3    C514267   2.282   0.005  10.449 -0.1495 -0.9097  0.6518
    8TMC3    C614268   2.321   4.604  10.472  0.1890  0.1926 -0.3772
    8TMC3     C14269   2.498   0.141  10.680 -0.1428  0.4357 -0.2797
    8TMC3     O14270   2.524   0.079  10.783 -0.3843 -0.2056  0.3028
    8TMC3     H14271   2.598   4.627  10.656  0.5130  0.7130  1.3780
    8TMC3    H114272   2.366   0.196  10.451 -2.2124 -0.4757 -1.0142
    8TMC3    H214273   2.243   4.535  10.442 -0.4337 -0.4218  2.7300
    8TMC3    C714274   2.160   0.053  10.523  0.5943  0.0649  0.2056
    8TMC3    C814275   2.388   4.461  10.636 -0.7190  0.5002  0.2974
    8TMC3    O114276   2.176   0.161  10.581  0.5007 -0.1861  0.1184
    8TMC3    O214277   2.330   4.366  10.590  0.1514  0.3026 -0.2744
    9MPD2     C14278   2.284   4.522  10.995  0.3465 -0.3719  1.2283
    9MPD2    C114279   2.276   4.472  10.865  0.0828  0.0541  0.9877
    9MPD2    C214280   2.177   4.379  10.845 -0.4900  0.7544 -0.3470
    9MPD2    C314281   2.091   4.349  10.948  0.1653 -0.0757 -0.1981
    9MPD2    C414282   2.119   4.381  11.079  0.2564  0.6714 -0.0452
    9MPD2    C514283   2.212   4.474  11.099 -0.3201 -0.3193 -0.0449
    9MPD2     H14284   2.158   4.330  10.750 -0.5295 -3.2626  1.7168
    9MPD2    H114285   2.064   4.363  11.171  1.7120  1.3263  0.9504
    9MPD2    H214286   2.352   4.601  11.027 -0.7346  1.7497 -1.7192
    9MPD2    H314287   2.235   4.491  11.203 -0.3468 -1.3877  0.1302
    9MPD2     N14288   1.975   4.269  10.931  0.6605 -0.4870  0.3774
    9MPD2    H514289   1.931   4.242  11.019 -0.9032  1.3405  0.1747
    9MPD2    N114290   2.367   4.520  10.768  0.1631 -0.0745 -0.2383
    9MPD2    H714291   2.407   4.612  10.783  1.7310 -0.3385 -2.7612
    1MPD1     C14292   2.082   2.949  16.577 -0.4279 -0.1413 -0.3319
    1MPD1    C114293   2.032   2.836  16.635 -0.3479 -0.1547 -0.1833
    1MPD1    C214294   1.935   2.764  16.568 -0.4618 -0.5017  0.5897
    1MPD1    C314295   1.874   2.815  16.453 -0.1578 -0.2403  0.6476
    1MPD1    C414296   1.919   2.928  16.401 -0.5528 -0.7341  0.0047
    1MPD1    C514297   2.025   2.986  16.454 -0.1574 -0.3120  0.7586
    1MPD1     H14298   1.900   2.671  16.613 -1.7010 -0.1208  0.4060
    1MPD1    H114299   1.885   2.963  16.304  1.2699 -1.2849 -0.8364
    1MPD1    H214300   2.166   3.011  16.607  0.6517 -1.8458  0.1529
    1MPD1    H314301   2.056   3.079  16.408 -2.9037 -0.4536 -1.3923
    1MPD1     N14302   1.764   2.752  16.389  0.0014  0.4688  0.2771
    1MPD1    H514303   1.728   2.800  16.307 -0.8077  0.0546  0.3879
    1MPD1    N114304   2.088   2.786  16.756 -0.2759 -0.2083 -0.0221
    1MPD1    H614305   2.145   2.848  16.813 -1.2329  2.7368 -2.2096
    1MPD1    H714306   2.032   2.732  16.821  1.4402 -0.0469  1.5668
    2TMC2    C114307   1.521   2.606  16.100  0.6654  0.8425 -0.0709
    2TMC2    C214308   1.445   2.491  16.112 -0.5707  0.5248 -1.0722
    2TMC2    C314309   1.468   2.428  16.237  0.3085 -0.1508 -0.1191
    2TMC2    C414310   1.612   2.653  16.192  0.4192 -0.0795 -0.2088
    2TMC2    C514311   1.627   2.580  16.303  0.2047 -0.0688 -0.5753
    2TMC2    C614312   1.557   2.464  16.335  0.3062 -0.4542  0.1330
    2TMC2     C14313   1.497   2.688  15.984 -0.8772  0.6682 -0.3076
    2TMC2     O14314   1.549   2.799  15.992  0.2298 -0.1020  0.0352
    2TMC2     H14315   1.374   2.452  16.039 -0.9167  1.1910 -1.0906
    2TMC2    H114316   1.665   2.746  16.174 -1.1784  0.9936  0.6029
    2TMC2    H214317   1.575   2.402  16.422 -0.3254  0.5931  1.0001
    2TMC2    C714318   1.721   2.623  16.403 -0.5334  0.6517 -0.3122
    2TMC2    C814319   1.371   2.326  16.262  0.4722  0.3187  0.0928
    2TMC2    O114320   1.756   2.548  16.492 -0.2015  0.3778 -0.0508
    2TMC2    O214321   1.272   2.307  16.188 -0.0414 -0.4577 -0.4280
    2TMC2    O514322   1.432   2.229  16.329 -0.1156  0.3877  0.3398
    2TMC2    H514323   1.530   2.228  16.337 -0.1189  2.5877  0.7486
    3MPD1     C14324   1.246   2.874  15.589 -0.1737 -0.0435 -0.5836
    3MPD1    C114325   1.174   2.772  15.642  0.2863 -0.0477 -0.5676
    3MPD1    C214326   1.223   2.706  15.747 -0.4814  0.1396  0.0390
    3MPD1    C314327   1.350   2.730  15.790  0.3951 -0.6465  0.7831
    3MPD1    C414328   1.422   2.832  15.733  0.9952 -0.4518 -0.0614
    3MPD1    C514329   1.376   2.890  15.624 -0.2059  0.7960  0.6406
    3MPD1     H14330   1.166   2.630  15.799 -1.4548 -0.0082 -1.2371
    3MPD1    H114331   1.521   2.859  15.769  1.6164 -0.6348 -1.5971
    3MPD1    H214332   1.201   2.930  15.507 -1.8812 -1.1087 -0.3820
    3MPD1    H314333   1.432   2.963  15.567  0.5667 -0.7881 -0.6493
    3MPD1     N14334   1.401   2.648  15.899 -0.0266 -0.2657  0.2844
    3MPD1    H514335   1.340   2.571  15.925  0.9634 -1.6017 -1.3703
    3MPD1    N114336   1.038   2.757  15.606 -0.2936  0.0440 -0.0759
    3MPD1    H614337   1.014   2.658  15.612  1.4300 -0.3993 -0.5780
    3MPD1    H714338   1.017   2.795  15.514  0.1277  1.9586  0.6320
    1TMC1    C114339   0.129   2.129  13.138  0.1413  0.4637  0.2801
    1TMC1    C214340   0.083   2.127  13.274  0.4124  0.2150  0.0557
    1TMC1    C314341   4.695   2.081  13.303  0.2577  0.0623  0.0946
    1TMC1    C414342   0.033   2.094  13.045 -0.6972 -0.2830  0.0253
    1TMC1    C514343   4.638   2.066  13.079 -0.5310 -0.2956  1.0853
    1TMC1    C614344   4.602   2.049  13.210  0.0989 -0.1409  0.6772
    1TMC1     C14345   0.246   2.198  13.094 -0.0933  0.3972 -0.6392
    1TMC1     O14346   0.240   2.250  12.982 -0.0212  0.2012 -0.3583
    1TMC1     H14347   0.155   2.163  13.346 -0.4646 -0.8548  1.4591
    1TMC1    H114348   0.061   2.081  12.940 -0.3249  1.1145 -0.0416
    1TMC1    H214349   4.506   2.005  13.235 -0.0061 -0.3610 -0.1323
    1TMC1    C714350   4.564   1.965  13.008  0.1950  0.4958  0.1354
    1TMC1    C814351   4.658   2.045  13.438 -0.2915 -0.1253 -0.4818
    1TMC1    O114352   4.536   1.860  13.064 -0.4236  0.0377 -0.2191
    1TMC1    O214353   4.538   2.050  13.479  0.1141  0.0978 -0.4612
    1TMC1    O314354   4.540   2.011  12.888  0.3523 -0.2118  0.0962
    1TMC1    H314355   4.560   2.107  12.882 -1.5466  0.3326  2.4683
    1TMC1    O514356   0.024   1.960  13.476  0.4946  1.0056  0.3593
    1TMC1    H514357   0.118   1.963  13.447  0.3996 -0.3637 -0.0687
    2MPD2     C14358   0.529   2.300  13.071 -0.3460 -0.0219 -0.0955
    2MPD2    C114359   0.473   2.249  13.187  0.0410  0.0613  0.5680
    2MPD2    C214360   0.551   2.221  13.295  0.3942  0.0124 -0.3863
    2MPD2    C314361   0.683   2.230  13.277 -0.5701 -0.0227  0.5203
    2MPD2    C414362   0.742   2.278  13.163 -1.1796 -0.8354 -0.2395
    2MPD2    C514363   0.660   2.308  13.058  0.2433  0.4999  0.2042
    2MPD2     H14364   0.511   2.176  13.385 -0.4944  3.2079  0.8138
    2MPD2    H114365   0.849   2.295  13.157 -1.1857 -1.5938 -2.6072
    2MPD2    H214366   0.463   2.313  12.985 -0.3971  0.4283  0.0089
    2MPD2    H314367   0.700   2.336  12.962  1.7307  1.8605  1.2189
    2MPD2     N14368   0.754   2.171  13.385  0.1041  0.2509 -0.9713
    2MPD2    H514369   0.696   2.146  13.465 -1.4509 -0.5135 -2.3571
    2MPD2    N114370   0.337   2.210  13.194  0.1229 -0.8773 -0.3602
    2MPD2    H714371   0.304   2.168  13.280 -0.3736  0.8968  0.3096
    3TCq1    O114372   1.293   2.049  13.667  0.0768 -0.9863  0.3219
    3TCq1    C114373   1.219   1.944  13.658 -0.5117 -0.6120  0.4880
    3TCq1    O214374   1.245   1.842  13.718 -0.0925 -0.4396 -0.1070
    3TCq1    C214375   1.086   1.987  13.641  0.0006  0.5026 -0.0497
    3TCq1    C314376   0.994   1.929  13.729  1.0006 -0.1700 -0.0970
    3TCq1    C414377   0.865   1.939  13.701  0.0305 -0.4533 -0.2826
    3TCq1    C514378   0.825   2.016  13.601  0.4499  0.1417 -0.5520
    3TCq1    C614379   0.920   2.066  13.509 -0.0386  0.0594 -0.3632
    3TCq1    C714380   1.056   2.057  13.531 -0.4809 -0.0174  0.7447
    3TCq1    C814381   0.887   2.131  13.382  0.8165  0.5015 -0.2751
    3TCq1    O414382   0.973   2.138  13.297 -0.2771  0.2555  0.1625
    3TCq1    C914383   0.760   1.871  13.774  0.0141  0.4580 -0.4762
    3TCq1    O514384   0.789   1.837  13.891 -0.7263  0.1503  0.0179
    3TCq1    O614385   0.667   1.818  13.703 -0.1234  0.3252  0.6071
    3TCq1    H114386   1.244   2.131  13.644  1.6601 -0.1424 -0.1176
    3TCq1    H214387   1.035   1.891  13.822  0.8787 -0.3107 -0.1003
    3TCq1    H314388   0.718   2.023  13.584  0.7603 -0.5245 -2.7869
    3TCq1    H414389   1.121   2.100  13.455  0.5623 -0.4002  1.4129
    1MPD2     C14390   0.016   3.275  14.872  0.1828  0.1117  0.3340
    1MPD2    C114391   4.662   3.167  14.861  0.4106 -0.6784 -0.3057
    1MPD2    C214392   4.698   3.048  14.921 -0.2457  0.9827 -0.2699
    1MPD2    C314393   0.082   3.036  14.996  0.3858  0.1289 -0.2078
    1MPD2    C414394   0.166   3.146  15.010 -0.0897 -0.4983  0.2294
    1MPD2    C514395   0.130   3.260  14.945 -0.1194  1.0548 -0.6042
    1MPD2     H14396   4.629   2.965  14.919  1.7025 -0.6276 -0.2544
    1MPD2    H114397   0.266   3.144  15.053  0.5925  2.3915 -1.2280
    1MPD2    H214398   4.732   3.364  14.814 -0.8757 -0.2190  0.1379
    1MPD2    H314399   0.187   3.352  14.954  0.6280  0.7262 -2.0432
    1MPD2     N14400   0.101   2.921  15.068  0.8275  0.6633  0.0771
    1MPD2    H514401   0.176   2.920  15.136  0.6301  0.1584  0.2842
    1MPD2    N114402   4.543   3.183  14.787  0.1947  0.1470 -0.2925
    1MPD2    H714403   4.526   3.275  14.748 -1.1899 -0.7494 -1.8093
    2TMC3    C114404   4.345   3.132  14.676 -0.3757 -0.0919  0.4801
    2TMC3    C214405   4.235   3.047  14.706  0.1971 -0.0946  0.6122
    2TMC3    C314406   4.169   2.975  14.610  0.3138 -0.0771 -0.3049
    2TMC3    C414407   4.374   3.152  14.543 -1.0040  1.0006  0.4668
    2TMC3    C514408   4.305   3.080  14.448  0.2141 -0.8173  0.0190
    2TMC3    C614409   4.207   2.996  14.482  0.1847  0.1558  0.0209
    2TMC3     C14410   4.453   3.085  14.748  0.0936 -0.0500 -0.1228
    2TMC3     O14411   4.461   2.963  14.733  0.7054  0.3557 -0.6590
    2TMC3     H14412   4.205   3.031  14.809 -0.5167  1.7654  0.6970
    2TMC3    H114413   4.477   3.177  14.522 -0.8017  1.6034  2.1694
    2TMC3    H214414   4.157   2.935  14.408 -0.9075 -0.1539  1.0110
    2TMC3    C714415   4.299   3.138  14.318  0.3443 -0.2610  0.5131
    2TMC3    C814416   4.146   2.833  14.648 -0.0877 -0.2864 -0.4903
    2TMC3    O114417   4.261   3.062  14.228 -0.4274 -0.3491 -0.3684
    2TMC3    O214418   4.040   2.779  14.620  0.0528 -0.1516 -0.2115
    3TCq1    O114419   4.657   4.173  13.904  0.0240  0.3502  0.1105
    3TCq1    C114420   4.670   4.228  14.023 -0.4777  0.3522 -0.8722
    3TCq1    O214421   0.013   4.321  14.048 -0.2574  0.1174 -0.3007
    3TCq1    C214422   4.611   4.138  14.118 -1.0345 -0.6314  0.0193
    3TCq1    C314423   4.672   4.137  14.240 -0.6513 -0.0270  0.4656
    3TCq1    C414424   4.655   4.031  14.321 -0.0153  0.0822  0.1531
    3TCq1    C514425   4.569   3.929  14.296 -0.5678 -0.1097 -0.1764
    3TCq1    C614426   4.499   3.943  14.176  0.0863  0.7236  0.2993
    3TCq1    C714427   4.519   4.042  14.082  0.3363 -0.6172  0.1933
    3TCq1    C814428   4.405   3.835  14.121  0.6141 -0.0806 -0.1145
    3TCq1    O414429   4.317   3.865  14.038  0.1627 -0.4976  0.4970
    3TCq1    C914430   4.705   4.037  14.458 -0.7109  0.3443 -0.5416
    3TCq1    O514431   0.033   4.148  14.482 -0.6370 -0.0090  0.1761
    3TCq1    O614432   4.637   3.972  14.540  0.2093  0.1250 -0.3857
    3TCq1    H114433   4.634   4.078  13.913 -0.1281  0.4134  0.4116
    3TCq1    H214434   0.002   4.223  14.262 -0.7314 -0.0842  0.9147
    3TCq1    H314435   4.554   3.858  14.376  0.5902  1.7715  1.7127
    3TCq1    H414436   4.451   4.061  14.000 -0.7086  1.5210  1.5398
    4MPD2     C14437   4.295   3.570  14.035 -0.6055  0.0464 -0.2648
    4MPD2    C114438   4.361   3.593  14.150  0.2409  0.9126  0.6376
    4MPD2    C214439   4.370   3.491  14.246 -0.3090  0.7254 -0.2374
    4MPD2    C314440   4.319   3.362  14.214  0.4242  0.2194 -0.1807
    4MPD2    C414441   4.258   3.331  14.093 -0.3583  0.1345  0.7725
    4MPD2    C514442   4.241   3.443  14.013 -0.0861 -0.4596 -0.6783
    4MPD2     H14443   4.403   3.523  14.344  1.0319  0.2010 -0.5137
    4MPD2    H114444   4.218   3.235  14.061  2.2290 -0.8594  0.4875
    4MPD2    H214445   4.274   3.639  13.954  1.7558  1.7225  0.5691
    4MPD2    H314446   4.176   3.426  13.927  1.4176 -0.5909 -1.8000
    4MPD2     N14447   4.343   3.268  14.316 -0.5631 -0.3582  0.6214
    4MPD2    H514448   4.376   3.295  14.408 -2.8115 -2.1265  1.9627
    4MPD2    N114449   4.431   3.712  14.180  0.0356  0.4983  0.6086
    4MPD2    H714450   4.500   3.710  14.254  0.5503 -0.3492  0.1238
    5TMC2    C114451   4.719   2.481  15.127  0.9932 -0.7856 -0.0590
    5TMC2    C214452   4.702   2.502  15.261  1.1409 -0.4301  0.1048
    5TMC2    C314453   0.009   2.621  15.314  0.8588  0.3104 -0.0166
    5TMC2    C414454   0.044   2.577  15.049 -0.3442 -0.0020  0.1311
    5TMC2    C514455   0.093   2.692  15.107 -0.3111  0.8239  0.1909
    5TMC2    C614456   0.082   2.717  15.242  0.2961  0.4519 -0.0516
    5TMC2     C14457   4.586   2.439  15.082  0.6304  1.1881 -0.5156
    5TMC2     O14458   4.524   2.355  15.146  0.2694  0.0606 -0.5210
    5TMC2     H14459   4.677   2.415  15.320  1.3033 -1.9650 -2.1064
    5TMC2    H114460   0.074   2.556  14.947 -0.2154  0.6748  0.0241
    5TMC2    H214461   0.117   2.809  15.287 -0.0834  0.7439 -0.3602
    5TMC2    C714462   0.053   2.797  15.029 -0.7260  0.4893  0.1959
    5TMC2    C814463   0.017   2.648  15.457 -0.4926  0.5081 -0.5071
    5TMC2    O114464   4.706   2.759  14.946 -0.1863  0.6110 -0.6051
    5TMC2    O214465   0.114   2.706  15.501  0.0448  0.1754 -0.0860
    5TMC2    O514466   4.683   2.549  15.517 -0.0132  0.4334  0.3584
    5TMC2    H514467   4.598   2.542  15.469 -1.5600  3.3949  2.6369
    6MPD2     C14468   4.179   2.576  14.807 -0.9733 -0.4933  0.2931
    6MPD2    C114469   4.266   2.679  14.803  0.0879 -0.6656  0.2042
    6MPD2    C214470   4.387   2.666  14.871  0.5401  0.2658 -0.6365
    6MPD2    C314471   4.415   2.546  14.936  0.1574 -0.4855  0.6934
    6MPD2    C414472   4.322   2.447  14.945 -0.7207 -0.2452 -0.6583
    6MPD2    C514473   4.203   2.460  14.872  0.3778 -0.7414 -0.8583
    6MPD2     H14474   4.462   2.744  14.864 -0.1533  1.0424  0.4985
    6MPD2    H114475   4.329   2.350  14.992  0.3264  0.8788  1.5145
    6MPD2    H214476   4.085   2.584  14.755  0.5980 -0.7079 -2.5848
    6MPD2    H314477   4.143   2.372  14.851 -1.2659  0.7310 -2.2942
    6MPD2     N14478   4.543   2.530  14.989  0.0324 -0.2054 -0.5922
    6MPD2    H514479   4.610   2.598  14.955 -0.3678  0.3901 -0.1892
    6MPD2    N114480   4.247   2.800  14.730  0.1548 -0.1015 -0.3750
    6MPD2    H714481   4.320   2.870  14.730  0.0941 -0.0382 -0.8072
  945NH3     N114482   0.196   2.847  13.725 -0.7253  0.5584 -0.3256
  945NH3     H214483   0.176   2.749  13.741 -0.3198  0.4085 -0.7468
  945NH3     H314484   0.118   2.898  13.766  1.6586  3.8449  0.1485
  945NH3     H414485   0.278   2.863  13.783 -1.1405 -0.5174  0.5730
  946SOD     NA14486   1.841   3.824  14.473  0.0089  0.2113 -0.0421
  947SOD     NA14487   1.560   4.192  11.428  0.4499 -0.3601 -0.0794
  948SOD     NA14488   0.396   4.439   0.042  0.1513  0.3963  0.4864
  949SOD     NA14489   0.257   3.025   9.905 -0.1407 -0.1261 -0.2204
  950SOD     NA14490   3.834   1.876  13.018 -0.1449  0.3683  0.1480
  951SOD     NA14491   4.031   3.448  13.196 -0.4032  0.3408 -0.0071
  952SOD     NA14492   0.905   4.220   7.754 -0.1754  0.6807 -0.2140
  953SOD     NA14493   1.057   3.511  16.259 -0.2142  0.4084 -0.6159
  954SOL     OW14494   3.356   0.655  14.555  0.0483 -0.2895 -0.3261
  954SOL    HW114495   3.402   0.577  14.527  4.0442  1.3813  1.5917
  954SOL    HW214496   3.416   0.682  14.624  1.4236 -2.9983 -0.4666
  955SOL     OW14497   1.980   2.837   6.886 -0.2037  0.1792 -0.1399
  955SOL    HW114498   2.064   2.870   6.855 -0.5158  2.7226  1.6893
  955SOL    HW214499   1.994   2.855   6.979  2.9934 -1.1123 -0.3928
  956SOL     OW14500   2.938   0.638  11.667 -0.8451 -0.1540  0.2889
  956SOL    HW114501   2.924   0.659  11.759  1.4314 -1.9561  1.0083
  956SOL    HW214502   2.907   0.548  11.661  0.5655 -0.5664 -0.8849
  957SOL     OW14503   2.294   4.125   3.797  0.6958  0.3914  0.8194
  957SOL    HW114504   2.243   4.120   3.716 -0.2788  2.3496  1.2998
  957SOL    HW214505   2.370   4.171   3.761 -1.4156  2.1676 -1.3599
  958SOL     OW14506   2.981   4.536  16.974  0.2810 -0.2843  0.2522
  958SOL    HW114507   3.052   4.570  16.920 -0.4863 -0.9091 -1.1496
  958SOL    HW214508   2.937   4.465  16.927 -0.8466  1.4473 -1.3046
  959SOL     OW14509   1.954   0.566   2.857 -0.3201  0.3250 -0.0747
  959SOL    HW114510   1.913   0.629   2.916 -3.1869 -0.8681 -0.7929
  959SOL    HW214511   1.970   0.629   2.786  0.3206  0.5667  0.2830
  960SOL     OW14512   4.644   4.043   4.468  0.1762 -0.9476 -0.0510
  960SOL    HW114513   4.706   4.042   4.541  0.9745 -2.9496 -0.7534
  960SOL    HW214514   4.583   4.115   4.486  1.3509 -0.1285  0.6336
  961SOL     OW14515   1.902   0.637   5.073  0.3591  0.3880 -0.1533
  961SOL    HW114516   1.915   0.545   5.095 -2.2022  0.5554  2.1124
  961SOL    HW214517   1.994   0.659   5.065  0.4112  0.1965 -0.0702
  962SOL     OW14518   3.025   1.583   9.582  0.0727  0.1827  0.1372
  962SOL    HW114519   3.102   1.540   9.619 -0.1259 -2.0988 -2.0912
  962SOL    HW214520   3.049   1.674   9.603 -1.2702  0.4828  0.3540
  963SOL     OW14521   3.651   0.874   7.222 -0.4919  0.4952 -0.0270
  963SOL    HW114522   3.597   0.817   7.277  2.1255 -0.1355  1.8924
  963SOL    HW214523   3.717   0.812   7.191 -2.3092 -0.7339 -1.4253
  964SOL     OW14524   4.411   0.700  15.405 -0.1490 -0.1573 -0.0170
  964SOL    HW114525   4.426   0.605  15.405  3.6798  0.4311 -0.2211
  964SOL    HW214526   4.363   0.716  15.324 -0.4366 -1.1531 -0.0434
  965SOL     OW14527   2.773   2.249  13.464  0.1595  0.1035  0.9411
  965SOL    HW114528   2.847   2.222  13.410 -1.6468  0.0020 -1.4528
  965SOL    HW214529   2.825   2.283  13.537  1.3034  0.5623 -0.0767
  966SOL     OW14530   4.390   1.140   8.392  0.2541  0.0207  0.2090
  966SOL    HW114531   4.442   1.220   8.392  1.7247 -0.9356  0.2483
  966SOL    HW214532   4.305   1.172   8.362  0.2683 -0.6003 -0.5135
  967SOL     OW14533   4.530   0.407   1.925 -0.0490 -0.1564  0.4076
  967SOL    HW114534   4.548   0.501   1.920 -0.1168 -0.1182  0.8570
  967SOL    HW214535   4.436   0.410   1.907 -0.0898  1.6424  0.9036
  968SOL     OW14536   3.109   2.468   7.453 -0.0648 -0.2374  0.8064
  968SOL    HW114537   3.178   2.402   7.445  0.7294  0.4681  1.7797
  968SOL    HW214538   3.163   2.540   7.486 -0.6298  1.1696 -1.3150
  969SOL     OW14539   2.588   3.195   7.556  0.2694 -0.3488 -0.0694
  969SOL    HW114540   2.628   3.116   7.520  0.3016 -0.8742  1.1274
  969SOL    HW214541   2.496   3.167   7.557  0.2429 -0.2747 -0.2732
  970SOL     OW14542   0.718   1.719   1.565 -0.5436 -0.4180 -0.1607
  970SOL    HW114543   0.749   1.658   1.498  0.8851 -0.6125  0.6708
  970SOL    HW214544   0.707   1.666   1.644  0.5698  0.3690  0.5307
  971SOL     OW14545   1.201   1.782   8.454  0.1116  0.0118 -0.0730
  971SOL    HW114546   1.168   1.745   8.535  0.8623  0.2357  0.3428
  971SOL    HW214547   1.116   1.798   8.414  1.2070  0.4488 -2.2687
  972SOL     OW14548   0.620   1.357   9.921  0.2948 -0.8767 -0.2398
  972SOL    HW114549   0.677   1.317   9.855  0.4385 -0.7066 -0.2181
  972SOL    HW214550   0.660   1.444   9.931  0.8075 -1.1867  0.4362
  973SOL     OW14551   3.388   0.236   0.473  0.1644  0.0525  0.1957
  973SOL    HW114552   3.331   0.279   0.409  1.2506 -0.2375 -0.9702
  973SOL    HW214553   3.366   0.276   0.557 -0.6947 -2.3069  1.1033
  974SOL     OW14554   3.265   2.389   3.758 -0.2860  0.5192 -0.7714
  974SOL    HW114555   3.195   2.437   3.803 -0.8481  0.9322 -2.0823
  974SOL    HW214556   3.261   2.437   3.675  0.1902 -0.8188 -1.5653
  975SOL     OW14557   4.142   4.421   4.166  0.2075 -0.2499  0.1728
  975SOL    HW114558   4.128   4.438   4.073  0.4443 -1.9185 -0.1698
  975SOL    HW214559   4.136   4.325   4.171 -1.0106 -0.2061 -0.3538
  976SOL     OW14560   3.448   3.883   8.868 -0.3855  0.2703 -0.1938
  976SOL    HW114561   3.516   3.861   8.805 -0.2431  0.6270 -0.1629
  976SOL    HW214562   3.361   3.879   8.828 -0.3165 -1.1002 -0.2388
  977SOL     OW14563   0.220   1.984   6.828 -0.1947 -0.0873 -0.3633
  977SOL    HW114564   0.276   1.908   6.847 -3.0866 -2.2758 -0.5136
  977SOL    HW214565   0.155   1.947   6.767 -0.6544  0.6004 -0.2861
  978SOL     OW14566   1.056   2.694   2.040 -0.5593 -0.3468 -0.1416
  978SOL    HW114567   1.023   2.780   2.063  2.5065  1.0224 -0.8783
  978SOL    HW214568   1.008   2.640   2.103  1.0081  1.6097  2.7105
  979SOL     OW14569   4.419   0.996   3.782  0.3103 -0.2738 -0.2800
  979SOL    HW114570   4.401   0.907   3.812 -0.2446 -0.6131 -1.6472
  979SOL    HW214571   4.470   1.025   3.858 -0.6575  1.2676 -0.2100
  980SOL     OW14572   0.478   0.087   2.074 -0.3217  0.1834  0.3722
  980SOL    HW114573   0.476   0.145   1.998  2.1932  1.5449  1.3567
  980SOL    HW214574   0.385   0.075   2.093 -0.8934 -0.2118 -2.7357
  981SOL     OW14575   4.487   0.198  12.389  0.1656 -0.1400 -0.3048
  981SOL    HW114576   4.496   0.292  12.378  0.5185 -0.2585 -0.9857
  981SOL    HW214577   4.408   0.186  12.337 -0.0754  1.0739 -0.2182
  982SOL     OW14578   2.986   4.673   4.547 -0.4698 -0.6400  0.1281
  982SOL    HW114579   2.939   4.716   4.619 -1.3948  0.4033 -1.0963
  982SOL    HW214580   3.018   4.593   4.589 -1.7874  0.2575  2.9050
  983SOL     OW14581   4.366   2.122   6.760 -0.0043 -0.3921 -0.1365
  983SOL    HW114582   4.347   2.036   6.722 -3.0095  0.6326 -0.9212
  983SOL    HW214583   4.426   2.143   6.688  0.7887  0.2668  0.7113
  984SOL     OW14584   2.742   0.878  13.978 -0.1845 -0.3961 -0.8271
  984SOL    HW114585   2.684   0.860  13.904 -0.6175  1.1738 -0.8742
  984SOL    HW214586   2.727   0.973  13.975  1.7978 -0.0793 -0.7828
  985SOL     OW14587   1.085   0.963   3.284  0.2894 -0.2726  0.3321
  985SOL    HW114588   1.169   0.935   3.248  1.0214  1.0661  1.0098
  985SOL    HW214589   1.092   1.058   3.292 -0.5374 -0.0774 -1.4614
  986SOL     OW14590   3.407   2.324   2.448 -0.4061 -0.0068  0.2038
  986SOL    HW114591   3.488   2.310   2.498  0.4106  0.3851 -0.9963
  986SOL    HW214592   3.396   2.236   2.412 -1.4977 -0.6107  2.0433
  987SOL     OW14593   4.354   0.534   7.376  0.1087  0.0935  0.2321
  987SOL    HW114594   4.427   0.595   7.387 -1.0447  1.7861 -1.4037
  987SOL    HW214595   4.400   0.451   7.380  1.0936  0.6134 -0.4248
  988SOL     OW14596   3.144   0.705   2.456 -0.0564  0.0456 -0.1457
  988SOL    HW114597   3.158   0.717   2.549 -2.7477  0.4355  0.1947
  988SOL    HW214598   3.054   0.674   2.453  0.8334 -2.6140  0.1416
  989SOL     OW14599   2.208   3.616  12.576 -0.0779 -0.1419 -0.5371
  989SOL    HW114600   2.261   3.669  12.635 -1.4101  0.9995 -0.3655
  989SOL    HW214601   2.137   3.678  12.557  0.0492 -0.0886 -0.8424
  990SOL     OW14602   4.016   4.582   2.656  0.2090  0.6869 -0.0070
  990SOL    HW114603   3.943   4.639   2.680 -0.4637  0.4900 -1.5714
  990SOL    HW214604   3.996   4.515   2.721  2.1450  1.3053  1.2196
  991SOL     OW14605   3.442   4.697   0.478 -0.2363  0.0806  0.1131
  991SOL    HW114606   3.523   4.679   0.526 -0.2661 -1.0475 -0.2543
  991SOL    HW214607   3.413   0.049   0.513  0.9362  0.1534  0.8934
  992SOL     OW14608   3.190   4.255   8.853 -0.2180 -0.1787  0.6807
  992SOL    HW114609   3.099   4.228   8.843  0.0701 -1.0660  0.3539
  992SOL    HW214610   3.185   4.350   8.861 -1.6525 -0.3880  2.2997
  993SOL     OW14611   1.298   1.469  15.544 -0.0649 -0.4196 -0.0564
  993SOL    HW114612   1.286   1.418  15.624 -0.6185 -1.8216 -1.0448
  993SOL    HW214613   1.337   1.414  15.476 -0.2847  1.2466 -1.5485
  994SOL     OW14614   0.560   3.444   4.526 -0.3465 -0.5515 -0.5110
  994SOL    HW114615   0.619   3.474   4.457  0.7096 -0.8929  0.2289
  994SOL    HW214616   0.595   3.504   4.592  0.0478  0.1264 -1.3375
  995SOL     OW14617   3.934   3.546   0.018 -0.5314 -0.3945  0.5459
  995SOL    HW114618   3.849   3.586   0.005  0.7976  2.3596  0.4101
  995SOL    HW214619   3.994   3.618   0.035 -0.2709 -0.5904  0.4608
  996SOL     OW14620   1.479   4.007   8.323  0.7361 -0.2141 -0.6474
  996SOL    HW114621   1.543   3.936   8.317  0.4335 -0.4868 -0.6462
  996SOL    HW214622   1.527   4.065   8.382 -0.2995 -0.8908  0.8555
  997SOL     OW14623   2.544   2.345   2.660 -0.2504 -0.3901  0.4705
  997SOL    HW114624   2.616   2.295   2.620 -1.6487  0.1311 -2.7024
  997SOL    HW214625   2.559   2.317   2.750 -1.8918  1.3033  1.2627
  998SOL     OW14626   4.686   1.691   2.103 -0.5272 -0.6573 -0.2765
  998SOL    HW114627   0.003   1.612   2.079 -1.5217 -1.7035  1.1086
  998SOL    HW214628   0.030   1.744   2.124 -1.5166  0.7496 -0.2103
  999SOL     OW14629   2.717   2.157   2.507 -0.6635 -0.5015 -0.4236
  999SOL    HW114630   2.746   2.116   2.589  1.4286  0.6115 -0.6240
  999SOL    HW214631   2.694   2.083   2.451  1.9173 -0.0052 -2.1391
 1000SOL     OW14632   1.596   4.423   5.952 -0.1957 -0.4157  0.3462
 1000SOL    HW114633   1.610   4.395   5.861  0.0716  4.8097 -1.2201
 1000SOL    HW214634   1.502   4.406   5.957 -0.4043  0.4827 -0.3995
 1001SOL     OW14635   2.988   0.232  15.408  0.2388  0.2045  0.6701
 1001SOL    HW114636   2.907   0.187  15.431  0.6534 -1.7975 -1.8002
 1001SOL    HW214637   2.984   0.302  15.472 -3.1161  0.6894 -0.1035
 1002SOL     OW14638   2.330   2.836   9.257  0.0163  0.3572  0.3374
 1002SOL    HW114639   2.277   2.795   9.188 -2.0432 -0.0004  2.1441
 1002SOL    HW214640   2.378   2.767   9.304  0.3539  0.1274 -0.3394
 1003SOL     OW14641   0.752   0.848   8.998 -0.4147 -0.5940 -0.3414
 1003SOL    HW114642   0.675   0.807   9.038  0.7549 -2.3597  0.0973
 1003SOL    HW214643   0.826   0.801   9.037 -1.0965  0.5010  2.2931
 1004SOL     OW14644   0.498   4.134   8.694  0.1358 -0.5616 -0.3046
 1004SOL    HW114645   0.492   4.069   8.625  0.1508 -1.9818  1.0484
 1004SOL    HW214646   0.585   4.169   8.675  0.4076 -1.3573 -0.5088
 1005SOL     OW14647   1.820   1.108   3.527  0.1624  0.3426 -0.1207
 1005SOL    HW114648   1.845   1.126   3.618 -0.1806 -0.6506  0.1651
 1005SOL    HW214649   1.728   1.133   3.527  0.1560  0.3211 -1.7496
 1006SOL     OW14650   3.917   4.132   0.560  0.3222  0.5116  0.0229
 1006SOL    HW114651   3.825   4.156   0.562  0.5782  1.2170  2.5620
 1006SOL    HW214652   3.931   4.113   0.467  1.5725  1.2278  0.0560
 1007SOL     OW14653   2.440   2.328  11.656  0.0043 -0.4995  0.1395
 1007SOL    HW114654   2.529   2.295  11.672  0.2917  0.5026  0.5863
 1007SOL    HW214655   2.451   2.412  11.701  0.3999 -0.9542  0.8907
 1008SOL     OW14656   3.288   1.595   1.690  0.7688 -0.3752  0.4534
 1008SOL    HW114657   3.354   1.540   1.648  0.9400  0.0663  0.1423
 1008SOL    HW214658   3.273   1.555   1.775  0.5890 -2.6276 -0.6447
 1009SOL     OW14659   1.229   3.273  11.499  0.3493 -0.2231 -0.1976
 1009SOL    HW114660   1.264   3.194  11.458 -1.9182  0.2386 -2.9642
 1009SOL    HW214661   1.185   3.310  11.423 -0.2019 -0.1058  0.1801
 1010SOL     OW14662   2.117   1.216  16.612 -0.1591 -0.0536 -0.2454
 1010SOL    HW114663   2.055   1.206  16.540 -0.3595 -2.3063  0.2124
 1010SOL    HW214664   2.097   1.141  16.670 -1.3101  0.2798 -0.2033
 1011SOL     OW14665   2.369   3.240   5.581 -0.3992  0.4842 -0.8478
 1011SOL    HW114666   2.414   3.171   5.629  1.0820  3.3124  1.8145
 1011SOL    HW214667   2.434   3.310   5.576 -0.8419  0.8038 -2.3986
 1012SOL     OW14668   2.268   4.590   7.066 -0.3965 -0.3683  0.5260
 1012SOL    HW114669   2.251   4.670   7.015 -0.6831 -0.4729  0.4596
 1012SOL    HW214670   2.334   4.614   7.131 -1.0514  1.9690  0.3555
 1013SOL     OW14671   3.223   2.267   2.777 -0.5999 -0.0615 -0.6515
 1013SOL    HW114672   3.295   2.316   2.738 -1.0875  0.9206 -0.3222
 1013SOL    HW214673   3.264   2.189   2.814 -1.0868  0.2026  0.4537
 1014SOL     OW14674   0.276   4.591   6.745 -0.0163  0.8461 -0.4032
 1014SOL    HW114675   0.363   4.553   6.759 -0.3890  0.8999  1.9942
 1014SOL    HW214676   0.287   4.671   6.796  1.5553  1.8236 -2.3037
 1015SOL     OW14677   1.026   1.912   9.172  0.1278 -0.3937  0.1338
 1015SOL    HW114678   1.081   1.923   9.094 -0.1426 -1.7217 -0.2574
 1015SOL    HW214679   1.025   1.817   9.185  3.2266 -0.7039 -1.7292
 1016SOL     OW14680   4.341   4.608   9.740  0.0432  0.0958 -0.4166
 1016SOL    HW114681   4.391   4.584   9.818  0.9181  1.1173 -0.6706
 1016SOL    HW214682   4.381   4.544   9.681  1.4834  1.1208 -0.5202
 1017SOL     OW14683   0.293   3.908  16.110 -0.1622  0.2544  0.1574
 1017SOL    HW114684   0.286   3.832  16.052 -0.8094  0.0150  0.5521
 1017SOL    HW214685   0.257   3.883  16.195 -0.0090  0.2225  0.2123
 1018SOL     OW14686   1.069   2.461   4.579  0.2649  0.3645 -0.3404
 1018SOL    HW114687   1.053   2.444   4.672 -1.4037  3.0252 -0.1561
 1018SOL    HW214688   1.109   2.548   4.575  1.8240 -0.3299  0.1897
 1019SOL     OW14689   3.522   2.688   0.761 -0.2042  0.5746 -0.2208
 1019SOL    HW114690   3.590   2.646   0.709  0.1900  3.6458 -2.1934
 1019SOL    HW214691   3.495   2.751   0.694  0.8371  1.2142 -0.0418
 1020SOL     OW14692   3.631   2.072   9.784  0.2340 -0.2147 -0.4592
 1020SOL    HW114693   3.658   2.126   9.710  1.8769  0.2998  0.5056
 1020SOL    HW214694   3.707   2.014   9.789 -0.0333 -0.4458  0.8476
 1021SOL     OW14695   0.207   2.117   8.387  0.3446 -0.1642 -0.2010
 1021SOL    HW114696   0.115   2.096   8.372  1.0803 -1.4801 -2.9948
 1021SOL    HW214697   0.227   2.168   8.308 -1.3876 -1.1805 -1.2688
 1022SOL     OW14698   3.587   3.868  10.377  0.0959 -0.4958 -0.0078
 1022SOL    HW114699   3.663   3.886  10.321 -2.1106  2.7357 -1.9478
 1022SOL    HW214700   3.570   3.776  10.357  2.7648 -1.6033  2.8009
 1023SOL     OW14701   3.383   0.580   2.338 -0.2918  0.3053  0.4127
 1023SOL    HW114702   3.396   0.597   2.431 -1.0668  0.0079  0.5790
 1023SOL    HW214703   3.310   0.640   2.324  1.1320  1.9602  0.1035
 1024SOL     OW14704   2.361   2.746   2.006  0.3903  0.1547 -0.0820
 1024SOL    HW114705   2.313   2.676   1.962  1.7451  0.6637 -2.3695
 1024SOL    HW214706   2.393   2.701   2.084 -1.4211  0.1720  0.6807
 1025SOL     OW14707   4.166   3.714   4.809  0.1961  0.6827 -0.3965
 1025SOL    HW114708   4.106   3.730   4.881 -1.1294 -3.0161 -0.7004
 1025SOL    HW214709   4.245   3.678   4.850 -0.4846  0.5948  0.8283
 1026SOL     OW14710   3.629   0.428   1.735 -0.7983  0.1518 -0.0871
 1026SOL    HW114711   3.656   0.477   1.658  2.6154 -0.9509  0.3813
 1026SOL    HW214712   3.618   0.502   1.795 -0.6538 -0.2177  0.3961
 1027SOL     OW14713   2.975   4.258   3.089  0.1089 -0.5728  0.7043
 1027SOL    HW114714   3.005   4.176   3.050 -1.2883 -0.3449 -0.8503
 1027SOL    HW214715   2.990   4.325   3.021  1.0480 -1.2827  0.2073
 1028SOL     OW14716   3.022   2.365   8.915 -0.4657  0.0739 -0.3421
 1028SOL    HW114717   3.040   2.401   9.002 -2.5649 -0.5310  0.3365
 1028SOL    HW214718   3.087   2.295   8.915 -0.9492 -0.4067  2.2122
 1029SOL     OW14719   4.177   0.371   9.448  0.1014 -0.0665 -0.2997
 1029SOL    HW114720   4.183   0.312   9.523 -1.1211  2.2070  1.6236
 1029SOL    HW214721   4.245   0.437   9.460 -0.2161  0.0163  1.0971
 1030SOL     OW14722   4.055   0.118   7.200  0.4723  0.0156 -0.1568
 1030SOL    HW114723   4.075   0.073   7.282 -2.2599 -0.2890  0.3353
 1030SOL    HW214724   4.116   0.191   7.209  0.2928  0.3889 -1.8905
 1031SOL     OW14725   3.411   2.578   9.612  0.3137 -0.1676  0.4967
 1031SOL    HW114726   3.474   2.610   9.547  1.2155 -0.4756  1.2264
 1031SOL    HW214727   3.371   2.663   9.632 -0.1960  0.0307 -1.3516
 1032SOL     OW14728   0.628   1.723   5.728  0.2587  0.2839 -0.0321
 1032SOL    HW114729   0.621   1.769   5.645 -0.4280  1.1059  0.4797
 1032SOL    HW214730   0.551   1.666   5.718  0.7510 -0.6814  1.6943
 1033SOL     OW14731   0.856   1.302  16.026 -0.0865 -0.4371  0.5958
 1033SOL    HW114732   0.885   1.359  15.955  2.7301 -1.6265  0.7829
 1033SOL    HW214733   0.771   1.270  15.995 -0.5047  0.3774  0.8925
 1034SOL     OW14734   1.805   1.568  13.449  0.3417 -0.3556  0.0332
 1034SOL    HW114735   1.745   1.561  13.524 -0.2806 -1.2809 -0.5568
 1034SOL    HW214736   1.886   1.584  13.497 -0.3581  1.3197  0.6825
 1035SOL     OW14737   2.916   4.117   7.549  0.0272 -0.1424 -0.1428
 1035SOL    HW114738   2.972   4.055   7.503  2.4857  1.1987  1.0427
 1035SOL    HW214739   2.883   4.165   7.473 -0.8189  0.6138  0.6910
 1036SOL     OW14740   2.612   1.033   5.593 -0.2133  0.2092 -0.2576
 1036SOL    HW114741   2.584   0.942   5.587 -1.7642  0.7113 -0.5410
 1036SOL    HW214742   2.661   1.048   5.512 -2.0515  2.0867 -0.9904
 1037SOL     OW14743   0.125   3.442   6.701  0.1248  0.1889  0.0751
 1037SOL    HW114744   0.040   3.428   6.659 -1.1140  2.3555  1.8909
 1037SOL    HW214745   0.158   3.509   6.642  1.1014 -0.0025  0.4066
 1038SOL     OW14746   3.824   0.538  17.254 -0.0308  0.3054  0.3757
 1038SOL    HW114747   3.735   0.570  17.267  0.4707  1.7004  0.2882
 1038SOL    HW214748   3.867   0.570  17.333  3.4143  1.6127 -2.0180
 1039SOL     OW14749   2.683   1.881   0.029  0.5130 -0.3898  0.0942
 1039SOL    HW114750   2.707   1.942  17.689  0.5303 -1.6527 -0.9848
 1039SOL    HW214751   2.628   1.942   0.079  0.8065  1.1266 -1.4215
 1040SOL     OW14752   3.008   3.543   3.741 -0.3336  0.8427  0.7689
 1040SOL    HW114753   3.007   3.550   3.837  0.9664  1.4570  0.7361
 1040SOL    HW214754   2.993   3.448   3.740  2.2983  0.4006  2.4806
 1041SOL     OW14755   0.689   4.686   2.148  0.0442 -0.1044  0.6810
 1041SOL    HW114756   0.609   4.728   2.116 -0.3122 -1.7774 -0.6230
 1041SOL    HW214757   0.698   0.005   2.228  1.5554  0.0571  0.4117
 1042SOL     OW14758   0.586   2.832   7.904 -0.3210 -0.1667  0.2273
 1042SOL    HW114759   0.615   2.924   7.905  1.4027 -0.6827 -1.8477
 1042SOL    HW214760   0.558   2.830   7.812 -1.7302  0.9269  0.6287
 1043SOL     OW14761   2.973   1.889   9.028 -0.3353 -0.5344  0.1239
 1043SOL    HW114762   2.955   1.859   9.117  2.4221  0.9497  1.1825
 1043SOL    HW214763   3.066   1.878   9.007  0.6930  3.3726  2.5727
 1044SOL     OW14764   3.653   0.884  13.958  0.0249 -0.3169 -0.2289
 1044SOL    HW114765   3.630   0.969  13.920  0.5548 -0.2856 -0.4768
 1044SOL    HW214766   3.616   0.891  14.045 -0.7725  0.8211 -0.6672
 1045SOL     OW14767   0.747   4.166  17.659  0.3331 -0.1752  0.5069
 1045SOL    HW114768   0.777   4.234  17.598 -0.5341  1.8047  2.2835
 1045SOL    HW214769   0.824   4.109  17.667 -0.0202 -0.6535  0.4538
 1046SOL     OW14770   2.917   2.021  10.162  0.0417  0.4416  0.1501
 1046SOL    HW114771   2.989   2.082  10.178 -0.1551  0.5681  0.5392
 1046SOL    HW214772   2.841   2.077  10.176  0.9336  1.6702  0.0923
 1047SOL     OW14773   1.607   3.774   3.171 -0.1377  0.9385  0.4789
 1047SOL    HW114774   1.558   3.705   3.125  0.9316  2.2598 -2.6794
 1047SOL    HW214775   1.544   3.833   3.212  0.3813  1.3898  0.6201
 1048SOL     OW14776   3.110   4.125   1.671 -0.3200 -0.9323 -0.1904
 1048SOL    HW114777   3.196   4.085   1.663 -0.0069 -0.4680  0.8166
 1048SOL    HW214778   3.119   4.219   1.654 -1.1152 -1.0886 -1.4457
 1049SOL     OW14779   3.947   1.772  15.865 -0.0723 -0.7272  0.2200
 1049SOL    HW114780   4.017   1.831  15.836 -1.3835  0.8543  0.3331
 1049SOL    HW214781   3.966   1.698  15.807 -0.5182  1.9459 -3.3538
 1050SOL     OW14782   2.216   2.854  12.064  0.0304  0.2280 -0.3653
 1050SOL    HW114783   2.247   2.795  11.995 -0.6225 -0.2786 -0.2325
 1050SOL    HW214784   2.215   2.804  12.145 -0.1931  0.2829 -0.3340
 1051SOL     OW14785   3.337   3.450   2.402  0.2886 -0.3980  0.1305
 1051SOL    HW114786   3.358   3.538   2.432 -1.1011  0.1661 -0.5728
 1051SOL    HW214787   3.423   3.409   2.388  0.4727  0.6552 -1.8301
 1052SOL     OW14788   2.733   2.665   7.642 -0.2688 -0.3713 -0.4594
 1052SOL    HW114789   2.661   2.725   7.662 -0.8307 -0.7809 -1.2415
 1052SOL    HW214790   2.731   2.669   7.546 -0.4178  0.5495 -0.4211
 1053SOL     OW14791   3.249   2.379  11.655  0.1032 -0.2119 -0.0392
 1053SOL    HW114792   3.274   2.461  11.698 -0.8532  1.0644 -1.9432
 1053SOL    HW214793   3.322   2.348  11.601  0.8921  0.6386  0.5393
 1054SOL     OW14794   1.689   1.423  15.350  0.2782 -0.0383  0.4130
 1054SOL    HW114795   1.720   1.403  15.439  0.6796 -1.3035 -0.0125
 1054SOL    HW214796   1.774   1.433  15.309  0.4820  0.0658  0.8617
 1055SOL     OW14797   1.798   1.563   0.404  0.3782  0.6594  0.1769
 1055SOL    HW114798   1.744   1.508   0.347 -0.2462  1.3893  0.0592
 1055SOL    HW214799   1.861   1.497   0.431 -0.8248  0.7354  3.1754
 1056SOL     OW14800   2.299   3.400   7.252  0.4963 -0.0438  0.1371
 1056SOL    HW114801   2.316   3.442   7.336 -0.4588  0.5865  0.0161
 1056SOL    HW214802   2.217   3.353   7.266  0.8944 -0.7965 -0.0462
 1057SOL     OW14803   2.207   1.296  13.247  0.5162 -0.2063  0.0325
 1057SOL    HW114804   2.212   1.366  13.313  1.7449 -1.4760  1.2746
 1057SOL    HW214805   2.233   1.341  13.166 -0.9087 -0.1834 -0.4095
 1058SOL     OW14806   1.092   2.891   7.581 -0.3390 -0.7327  0.4291
 1058SOL    HW114807   1.108   2.955   7.650  0.2080 -0.7175  0.2878
 1058SOL    HW214808   1.153   2.818   7.594  0.5281 -0.2426 -0.8291
 1059SOL     OW14809   4.056   1.249  12.542  0.3310 -0.3106  0.7974
 1059SOL    HW114810   4.121   1.220  12.606  1.9843 -1.1512 -1.2675
 1059SOL    HW214811   3.987   1.287  12.596 -0.4029 -1.5954  0.7885
 1060SOL     OW14812   3.678   0.947   0.243  0.1057  0.1591  0.7092
 1060SOL    HW114813   3.703   1.038   0.230  1.2017 -0.1506  0.6524
 1060SOL    HW214814   3.725   0.921   0.323 -1.1537 -1.3074  0.9751
 1061SOL     OW14815   0.005   3.912   8.606  0.3615  0.4567  0.1028
 1061SOL    HW114816   4.695   3.952   8.531  1.1336  0.8160 -0.1486
 1061SOL    HW214817   4.669   3.871   8.658 -1.3796  0.9905 -1.7768
 1062SOL     OW14818   3.555   0.218   4.596 -0.4111  0.1713 -0.7689
 1062SOL    HW114819   3.603   0.191   4.518 -1.3733 -0.8373 -1.0070
 1062SOL    HW214820   3.594   0.303   4.616 -1.9696  0.4669  1.0614
 1063SOL     OW14821   0.097   0.061  14.064  0.0416 -0.4939  0.6676
 1063SOL    HW114822   0.146   0.091  13.987  1.6281 -1.0775  1.4546
 1063SOL    HW214823   0.116   0.131  14.126 -1.4560  1.3517 -0.9340
 1064SOL     OW14824   4.371   1.746  12.340 -1.6073  0.1776 -0.3010
 1064SOL    HW114825   4.278   1.751  12.318 -1.6348  1.4249  0.0921
 1064SOL    HW214826   4.381   1.831  12.382 -0.4816  0.1391 -0.4888
 1065SOL     OW14827   2.838   2.876   3.072  0.3242 -0.0747 -0.3343
 1065SOL    HW114828   2.878   2.846   2.990 -0.1232  2.2672 -1.4233
 1065SOL    HW214829   2.781   2.946   3.039  1.1566  1.4661  1.5229
 1066SOL     OW14830   2.117   2.630   2.748  0.2299 -0.0983  0.0600
 1066SOL    HW114831   2.038   2.659   2.704 -1.1589 -0.4314  2.3376
 1066SOL    HW214832   2.140   2.552   2.698 -2.4699 -2.1816  2.0623
 1067SOL     OW14833   2.399   4.724   8.969  0.1771 -0.4020 -0.5209
 1067SOL    HW114834   2.434   0.049   9.038 -0.0762 -0.3727 -0.4165
 1067SOL    HW214835   2.478   4.708   8.918 -0.1532 -1.5938 -0.6653
 1068SOL     OW14836   3.848   2.030  16.829  0.2350  0.3803  0.0185
 1068SOL    HW114837   3.917   2.025  16.763 -0.1682  0.0154 -0.3786
 1068SOL    HW214838   3.898   1.996  16.904 -1.5078  0.6813  1.3326
 1069SOL     OW14839   3.417   0.973  12.293 -0.1406 -0.4647  0.5488
 1069SOL    HW114840   3.394   1.037  12.225  0.6249 -1.2638 -0.4659
 1069SOL    HW214841   3.422   1.028  12.371  0.4310 -0.8818  0.8056
 1070SOL     OW14842   1.264   0.178   1.976  0.0678 -0.1524  0.3443
 1070SOL    HW114843   1.223   0.252   1.929  1.3340 -0.5652 -1.4052
 1070SOL    HW214844   1.356   0.200   1.969 -0.0749  0.2019 -0.4391
 1071SOL     OW14845   1.315   0.848   1.428 -0.3409 -0.4169  0.2717
 1071SOL    HW114846   1.225   0.827   1.402 -0.8102 -0.9808  2.3313
 1071SOL    HW214847   1.291   0.920   1.485 -1.3874 -0.5131 -0.0514
 1072SOL     OW14848   1.840   1.980   5.060 -0.0191 -0.1658 -0.3945
 1072SOL    HW114849   1.773   2.023   5.007  2.4945  1.6455 -2.1382
 1072SOL    HW214850   1.785   1.947   5.131 -1.6046  0.0481 -1.5316
 1073SOL     OW14851   4.160   3.973   0.205 -0.2500  0.5369 -0.1619
 1073SOL    HW114852   4.155   3.914   0.129  1.8728 -0.0850  0.1867
 1073SOL    HW214853   4.088   3.930   0.251  0.7098  0.0540  0.8844
 1074SOL     OW14854   4.659   4.246   9.169  0.3762 -0.3675  0.3519
 1074SOL    HW114855   4.683   4.155   9.153  2.7394  0.4733 -0.7347
 1074SOL    HW214856   4.728   4.291   9.122 -0.6825 -1.6864 -2.4768
 1075SOL     OW14857   2.935   1.211   5.736  0.0403 -0.2975 -0.5712
 1075SOL    HW114858   2.897   1.252   5.814  3.2211 -0.4953  1.0485
 1075SOL    HW214859   2.892   1.126   5.726 -0.8181  0.0285  0.2632
 1076SOL     OW14860   4.451   1.248   1.845  0.4050 -0.1824  0.3571
 1076SOL    HW114861   4.514   1.280   1.781 -1.1800  2.4041  0.0816
 1076SOL    HW214862   4.437   1.162   1.805 -1.4356  0.6135 -0.7219
 1077SOL     OW14863   3.401   3.295   4.373  0.1515 -0.4574 -0.5466
 1077SOL    HW114864   3.414   3.388   4.388 -0.6719 -0.6605  1.3236
 1077SOL    HW214865   3.490   3.262   4.386  0.8965  1.2449 -1.3356
 1078SOL     OW14866   3.777   0.657   8.175 -0.1650  0.0090  0.7393
 1078SOL    HW114867   3.795   0.751   8.168 -0.0084 -0.1834 -1.4332
 1078SOL    HW214868   3.681   0.656   8.181 -0.2149 -0.4015 -0.1374
 1079SOL     OW14869   1.140   0.719   2.504 -0.2849  0.1947 -0.4929
 1079SOL    HW114870   1.103   0.675   2.428  2.1171  0.4565 -1.8138
 1079SOL    HW214871   1.113   0.665   2.579 -3.2780 -0.7182 -2.2563
 1080SOL     OW14872   0.595   3.533   2.404  0.0927 -0.0138 -0.0946
 1080SOL    HW114873   0.563   3.509   2.317 -1.0109  0.0781  0.2818
 1080SOL    HW214874   0.510   3.556   2.442 -0.0978  1.5262 -1.4465
 1081SOL     OW14875   3.809   0.897   3.940 -0.4412 -0.8120 -0.0704
 1081SOL    HW114876   3.874   0.826   3.941 -0.1892 -0.6048 -1.1041
 1081SOL    HW214877   3.836   0.956   4.010 -0.2776 -0.3577 -0.5162
 1082SOL     OW14878   3.846   3.478   9.399 -0.6783  0.2747 -0.7573
 1082SOL    HW114879   3.925   3.433   9.369 -1.1526  0.2233 -1.9412
 1082SOL    HW214880   3.814   3.414   9.462 -2.6249  2.3734  0.3668
 1083SOL     OW14881   3.638   3.310   8.989  0.1271 -0.1815 -0.0583
 1083SOL    HW114882   3.592   3.234   9.022 -0.8771  0.1308 -0.7550
 1083SOL    HW214883   3.629   3.290   8.896 -2.6227  1.3310 -0.1388
 1084SOL     OW14884   3.970   0.317   6.474  0.6516 -0.2554 -0.2733
 1084SOL    HW114885   3.940   0.237   6.432  2.5984 -1.0922 -0.0602
 1084SOL    HW214886   3.946   0.310   6.567 -2.7458  1.2695 -1.0160
 1085SOL     OW14887   1.167   4.703  10.311  0.2237 -0.1250 -0.6874
 1085SOL    HW114888   1.197   0.059  10.330  0.9306 -0.6678  0.7913
 1085SOL    HW214889   1.202   4.691  10.223  0.7036 -1.3810 -0.3257
 1086SOL     OW14890   4.535   1.838  10.075  0.3504 -0.5307 -0.0902
 1086SOL    HW114891   4.586   1.833  10.156 -0.7596  1.3340  0.7178
 1086SOL    HW214892   4.515   1.931  10.077  0.5289 -0.5349  1.4637
 1087SOL     OW14893   0.305   3.429  17.424 -0.4176  0.2491 -0.6754
 1087SOL    HW114894   0.304   3.381  17.341 -1.2756  1.9235 -1.6452
 1087SOL    HW214895   0.282   3.517  17.395 -1.0607 -0.4536 -2.3321
 1088SOL     OW14896   0.585   1.509   4.410 -0.4642  0.3218  0.3004
 1088SOL    HW114897   0.648   1.576   4.382 -0.8526  0.7853  0.5386
 1088SOL    HW214898   0.624   1.478   4.492 -2.3142 -0.5442  0.8367
 1089SOL     OW14899   1.506   1.082   7.790 -0.1171  0.9777 -0.5125
 1089SOL    HW114900   1.559   1.160   7.803 -0.5663  1.2349 -0.2206
 1089SOL    HW214901   1.460   1.083   7.874  1.7896  1.9513  0.5142
 1090SOL     OW14902   0.255   3.580   0.629 -0.2404 -0.3749  0.0582
 1090SOL    HW114903   0.343   3.548   0.650  0.7515  1.3430 -1.4790
 1090SOL    HW214904   0.260   3.674   0.612  0.2598 -0.2474  0.8926
 1091SOL     OW14905   1.262   3.601  12.217  0.0638  0.0229  0.5080
 1091SOL    HW114906   1.235   3.691  12.235 -2.4255 -0.7050  0.4898
 1091SOL    HW214907   1.300   3.613  12.130  0.9704 -1.5015  0.7094
 1092SOL     OW14908   2.783   4.295   4.231  0.0850  0.3018  0.1676
 1092SOL    HW114909   2.758   4.318   4.321  1.1361  1.6610  0.1171
 1092SOL    HW214910   2.807   4.205   4.253 -2.0081 -0.9677 -2.8339
 1093SOL     OW14911   0.881   4.493   4.463  0.2600  0.1805  0.3666
 1093SOL    HW114912   0.787   4.485   4.479  0.1167 -1.6708 -1.4770
 1093SOL    HW214913   0.910   4.414   4.508  1.7096  1.4649  1.7111
 1094SOL     OW14914   0.940   1.304   1.962  0.0977  0.0152 -0.2668
 1094SOL    HW114915   0.951   1.364   2.035 -0.2912 -0.4692  0.1914
 1094SOL    HW214916   0.891   1.231   2.000 -0.4261  0.8186  0.5604
 1095SOL     OW14917   2.048   2.915   2.486 -0.4554 -0.3270  0.1395
 1095SOL    HW114918   2.040   2.995   2.539  0.2147  1.8798 -3.0613
 1095SOL    HW214919   2.143   2.902   2.482 -0.2700  0.3365  2.4129
 1096SOL     OW14920   2.575   0.321   8.819  0.3889  0.8030 -0.0293
 1096SOL    HW114921   2.631   0.309   8.743  1.0269  2.1863  0.2198
 1096SOL    HW214922   2.610   0.263   8.886 -2.2505 -1.5692 -0.7437
 1097SOL     OW14923   1.990   4.410   5.862  0.4992  0.0536 -0.0354
 1097SOL    HW114924   2.002   4.453   5.777 -1.0909 -0.6040 -0.5976
 1097SOL    HW214925   1.933   4.472   5.909  0.9377  1.2994 -1.1351
 1098SOL     OW14926   2.081   4.706   6.348 -0.3658 -0.1972 -0.3686
 1098SOL    HW114927   1.990   4.711   6.317  0.6161 -1.6075 -3.3802
 1098SOL    HW214928   2.085   4.614   6.373  4.2762  0.0314 -0.3269
 1099SOL     OW14929   1.298   3.205   0.335 -0.8602 -0.2108  0.4701
 1099SOL    HW114930   1.326   3.181   0.247 -1.4127  0.2640  0.1648
 1099SOL    HW214931   1.294   3.300   0.324 -1.9820 -0.7262 -3.6053
 1100SOL     OW14932   4.558   1.360  13.252  0.1265  0.5825  0.6601
 1100SOL    HW114933   4.473   1.336  13.289 -0.2347 -0.0324 -0.5778
 1100SOL    HW214934   4.614   1.331  13.324  1.7088  0.1654 -0.7322
 1101SOL     OW14935   3.179   0.144   4.842  0.2180  0.4925 -0.2949
 1101SOL    HW114936   3.270   0.171   4.834  0.3624 -0.7469 -2.5818
 1101SOL    HW214937   3.167   0.204   4.916 -0.8304 -2.2103  1.7644
 1102SOL     OW14938   0.651   1.479   4.684 -0.2820  0.2108 -0.0303
 1102SOL    HW114939   0.646   1.572   4.703  1.1662  0.4361 -0.7151
 1102SOL    HW214940   0.582   1.435   4.733 -1.2000 -0.4467 -1.9178
 1103SOL     OW14941   3.430   4.338   4.534  0.0971  0.1295  0.8697
 1103SOL    HW114942   3.418   4.377   4.621 -1.0936 -2.7267  1.9640
 1103SOL    HW214943   3.470   4.253   4.554  0.1555 -0.2244 -0.7603
 1104SOL     OW14944   3.165   1.874   6.806 -0.1038  0.2879 -0.3121
 1104SOL    HW114945   3.222   1.922   6.746  1.2560  1.8627  2.2015
 1104SOL    HW214946   3.111   1.822   6.747  1.3213 -2.4422  0.8248
 1105SOL     OW14947   1.239   3.889   1.661  0.1047  0.4725  0.2438
 1105SOL    HW114948   1.332   3.889   1.636 -0.3743  1.2375 -1.5178
 1105SOL    HW214949   1.236   3.803   1.702 -0.9820  0.1336 -0.5416
 1106SOL     OW14950   1.630   2.125  13.122 -0.8310  0.0850 -0.0263
 1106SOL    HW114951   1.599   2.215  13.112  1.2065  1.0515  2.4344
 1106SOL    HW214952   1.725   2.140  13.125 -0.6124 -1.0123 -1.8202
 1107SOL     OW14953   4.242   4.280   5.656 -0.3011 -0.2310  0.5110
 1107SOL    HW114954   4.228   4.365   5.698  2.0943  0.0106  0.8097
 1107SOL    HW214955   4.160   4.234   5.676  0.3635 -2.4916 -2.0400
 1108SOL     OW14956   2.941   0.608   8.750  0.3078  0.5536 -0.0861
 1108SOL    HW114957   2.921   0.558   8.829  1.8776  2.2311  1.3676
 1108SOL    HW214958   2.859   0.585   8.705 -0.0560 -0.3955  1.0509
 1109SOL     OW14959   2.727   3.983   1.464  0.0461  0.1679  0.2867
 1109SOL    HW114960   2.681   3.904   1.493  0.1414  0.0110  0.0128
 1109SOL    HW214961   2.654   4.030   1.424 -0.2945 -1.2633 -0.7729
 1110SOL     OW14962   2.339   2.212   8.829  0.2052 -0.6033  0.0134
 1110SOL    HW114963   2.348   2.271   8.904 -0.5555  1.1662 -1.3081
 1110SOL    HW214964   2.389   2.257   8.761 -0.8959  0.0479 -0.3455
 1111SOL     OW14965   1.710   4.581  15.519  0.2797  0.5373  0.4698
 1111SOL    HW114966   1.744   4.571  15.431 -2.0900 -2.1166 -0.1668
 1111SOL    HW214967   1.730   4.674  15.529  1.0777  0.3443  0.7089
 1112SOL     OW14968   2.624   0.577   2.436  0.0144 -0.2059  0.5824
 1112SOL    HW114969   2.603   0.651   2.379 -2.7488 -1.9685 -0.6778
 1112SOL    HW214970   2.541   0.551   2.475 -1.2973  1.4312 -1.1382
 1113SOL     OW14971   1.787   2.730   3.078 -0.2012  0.3783 -0.6996
 1113SOL    HW114972   1.857   2.729   3.144  0.5905 -1.2571 -1.5771
 1113SOL    HW214973   1.708   2.715   3.130  2.2283 -1.2405  2.5740
 1114SOL     OW14974   1.863   2.637   4.054 -0.1014  0.1520  0.3432
 1114SOL    HW114975   1.897   2.555   4.091  0.2291  0.1503  0.0397
 1114SOL    HW214976   1.819   2.597   3.979  1.1993 -0.6468  0.0064
 1115SOL     OW14977   3.669   2.891   2.229 -0.2921  0.0939  0.0548
 1115SOL    HW114978   3.764   2.888   2.219 -0.1606  2.8291  0.6635
 1115SOL    HW214979   3.631   2.869   2.144  2.7904  1.0938 -1.5658
 1116SOL     OW14980   3.182   0.621   6.189  0.5081 -0.2732  0.0526
 1116SOL    HW114981   3.252   0.647   6.249 -0.5664 -0.2760  1.2988
 1116SOL    HW214982   3.237   0.593   6.116  0.2674  1.1497 -0.6862
 1117SOL     OW14983   0.358   0.759  10.431  0.2420 -0.2236 -0.5116
 1117SOL    HW114984   0.398   0.692  10.486  1.2606 -0.7181 -1.8561
 1117SOL    HW214985   0.352   0.713  10.347 -0.8899  0.0894 -0.6055
 1118SOL     OW14986   0.586   1.756   8.241 -0.3339 -0.2328 -0.2029
 1118SOL    HW114987   0.534   1.834   8.219  0.5886  0.3262 -0.4106
 1118SOL    HW214988   0.661   1.799   8.282  0.5452 -2.6638  0.7252
 1119SOL     OW14989   3.601   3.514   6.561 -0.0224 -0.2245 -0.1077
 1119SOL    HW114990   3.617   3.556   6.645 -0.3051 -0.1244 -0.1022
 1119SOL    HW214991   3.653   3.567   6.501  1.8240 -1.2007  0.6535
 1120SOL     OW14992   3.917   4.581   4.247  0.1697  0.1922  0.5990
 1120SOL    HW114993   3.972   4.504   4.257  1.2817  0.7727 -0.9962
 1120SOL    HW214994   3.892   4.591   4.339  0.6436  2.3213  0.5055
 1121SOL     OW14995   3.512   3.865   8.274  0.4366 -0.3950  0.0929
 1121SOL    HW114996   3.589   3.873   8.331  0.0580 -0.7431  0.6524
 1121SOL    HW214997   3.535   3.931   8.208 -1.8048  1.3327  1.0501
 1122SOL     OW14998   2.662   2.085   5.569  0.6508  0.8546  0.1693
 1122SOL    HW114999   2.614   2.168   5.577 -0.2745  0.5590 -2.2091
 1122SOL    HW215000   2.684   2.090   5.476  2.7646 -0.2535  0.6223
 1123SOL     OW15001   1.042   0.807  16.925 -0.2767 -0.0793  0.2684
 1123SOL    HW115002   1.087   0.722  16.919  2.6744  1.5033  0.1432
 1123SOL    HW215003   1.099   0.859  16.868  1.7725 -3.1626 -0.4812
 1124SOL     OW15004   0.335   2.939   3.971 -0.3420 -0.1451 -0.5537
 1124SOL    HW115005   0.279   2.906   3.902  1.2778 -2.5471 -0.7230
 1124SOL    HW215006   0.391   2.866   4.000 -0.3773 -0.2866 -0.8437
 1125SOL     OW15007   3.943   1.702   9.382 -0.2346  0.3402  0.3321
 1125SOL    HW115008   4.010   1.666   9.441  0.3776 -1.6520 -1.5928
 1125SOL    HW215009   3.987   1.766   9.326  2.9335 -1.0239  1.2379
 1126SOL     OW15010   3.059   1.523   7.413  0.2354  0.2771 -0.0915
 1126SOL    HW115011   2.978   1.547   7.368 -0.8939  0.1641  1.8862
 1126SOL    HW215012   3.051   1.428   7.398  1.5038 -0.1145  1.6481
 1127SOL     OW15013   2.551   0.102   6.873  0.6442  0.5934 -0.1278
 1127SOL    HW115014   2.609   0.042   6.826  0.2636 -0.8106  1.1988
 1127SOL    HW215015   2.611   0.131   6.942 -0.2406  0.3268  0.7565
 1128SOL     OW15016   4.701   3.759   4.908 -0.2485  0.1478  0.0511
 1128SOL    HW115017   0.024   3.766   4.831  1.6916  3.3149  1.7456
 1128SOL    HW215018   4.687   3.852   4.927  0.7941  0.1830  0.6110
 1129SOL     OW15019   3.590   4.669  15.367  0.6463 -0.6441  0.2631
 1129SOL    HW115020   3.656   4.714  15.419  1.0030 -0.0225 -0.7323
 1129SOL    HW215021   3.545   0.007  15.321 -0.3003 -2.9475 -2.3344
 1130SOL     OW15022   4.036   1.701   6.000 -0.3551 -0.6440  0.1635
 1130SOL    HW115023   3.991   1.744   6.073  1.6110  1.2193  0.2629
 1130SOL    HW215024   4.125   1.699   6.033  1.1439 -1.8304 -3.9233
 1131SOL     OW15025   2.793   2.583   2.731  0.2152  0.3163  0.1010
 1131SOL    HW115026   2.707   2.550   2.706  0.3471 -0.4042  0.5665
 1131SOL    HW215027   2.846   2.512   2.694  1.5553  2.3767 -1.9074
 1132SOL     OW15028   1.645   3.622   0.088 -0.3877  0.1941 -0.0157
 1132SOL    HW115029   1.738   3.614   0.067  0.3198  0.5029  3.0368
 1132SOL    HW215030   1.621   3.675   0.012  0.0892  0.8401  0.2848
 1133SOL     OW15031   2.523   0.135   9.955  0.1443 -0.2951 -0.1465
 1133SOL    HW115032   2.530   0.230   9.962 -0.7088 -0.2461  0.0475
 1133SOL    HW215033   2.616   0.113   9.955 -0.0499 -1.0936  1.1554
 1134SOL     OW15034   0.968   2.595  17.253  0.0979  0.4276  0.1188
 1134SOL    HW115035   1.003   2.682  17.271 -0.0346  0.4187  0.4172
 1134SOL    HW215036   0.903   2.624  17.189  3.3704  0.5125 -3.1893
 1135SOL     OW15037   2.030   2.414   5.973  0.2921 -0.0924  0.1810
 1135SOL    HW115038   2.012   2.320   5.968 -1.1142  0.0508  2.4355
 1135SOL    HW215039   1.943   2.444   5.945  0.4396  0.5308  0.3887
 1136SOL     OW15040   1.944   3.863   9.419 -0.3588 -0.0710  0.3087
 1136SOL    HW115041   2.022   3.874   9.363  0.6333  0.7105  1.8575
 1136SOL    HW215042   1.958   3.923   9.491 -0.0516 -2.7380  2.4835
 1137SOL     OW15043   1.662   2.615  15.711 -0.0691  0.0914 -0.0639
 1137SOL    HW115044   1.685   2.539  15.658  0.6088 -0.1598  0.5908
 1137SOL    HW215045   1.567   2.601  15.717 -0.0637 -0.0554 -0.3206
 1138SOL     OW15046   2.801   4.300   6.438 -0.7472 -0.4067 -0.4030
 1138SOL    HW115047   2.706   4.310   6.429 -0.3983  2.3806 -1.1825
 1138SOL    HW215048   2.842   4.379   6.403 -0.8686  0.6580  1.8854
 1139SOL     OW15049   3.619   3.304   5.258  0.1348  0.2637 -0.3260
 1139SOL    HW115050   3.628   3.389   5.214  1.7907 -0.5905 -1.6541
 1139SOL    HW215051   3.705   3.317   5.300 -0.3794  0.5263  0.6491
 1140SOL     OW15052   3.090   3.352   6.618 -0.1024 -0.5810  0.1587
 1140SOL    HW115053   3.108   3.413   6.547  2.8904  2.3221  3.4480
 1140SOL    HW215054   3.157   3.284   6.615 -0.2366 -0.6564 -1.5228
 1141SOL     OW15055   2.147   3.635   8.505  0.1682  0.2305 -0.3535
 1141SOL    HW115056   2.234   3.664   8.477  0.3596 -1.9077 -1.9089
 1141SOL    HW215057   2.153   3.548   8.545 -0.3031 -0.0258 -0.8368
 1142SOL     OW15058   4.346   1.256   3.897  0.3879  0.2031 -0.2899
 1142SOL    HW115059   4.352   1.163   3.918  1.0517  0.6878  1.6142
 1142SOL    HW215060   4.436   1.284   3.916 -0.4526  1.1187  2.2603
 1143SOL     OW15061   2.086   2.643   6.673 -0.1683  0.0694  0.5678
 1143SOL    HW115062   2.012   2.667   6.618 -1.6691  0.1004  2.6154
 1143SOL    HW215063   2.039   2.604   6.746  2.9946 -4.2044  0.3444
 1144SOL     OW15064   3.208   3.111   6.573 -0.0615  0.1168  0.7200
 1144SOL    HW115065   3.182   3.019   6.583  0.4163  0.3108  3.6355
 1144SOL    HW215066   3.292   3.109   6.526 -0.1493 -1.6687  0.6257
 1145SOL     OW15067   1.996   0.356   3.041  0.5752  0.7225  0.3217
 1145SOL    HW115068   2.031   0.431   3.089 -2.4433  0.2765  3.1744
 1145SOL    HW215069   1.978   0.398   2.957 -0.5103  0.8601  0.6282
 1146SOL     OW15070   0.524   0.907   8.515  0.7747 -0.0147  0.1002
 1146SOL    HW115071   0.461   0.855   8.564  1.7756 -0.2998  1.0902
 1146SOL    HW215072   0.513   0.865   8.430 -0.8198  1.2743 -0.3320
 1147SOL     OW15073   3.167   0.593  10.392 -0.3883  0.2406  0.1789
 1147SOL    HW115074   3.225   0.667  10.371 -2.2338  0.6757 -3.3082
 1147SOL    HW215075   3.079   0.627  10.375  0.1835  0.5805 -2.1376
 1148SOL     OW15076   0.202   1.350   8.546 -0.1184  0.2473 -0.3427
 1148SOL    HW115077   0.198   1.277   8.607 -0.2431  0.4828 -0.0716
 1148SOL    HW215078   0.269   1.400   8.592  1.0518 -0.4335 -1.2934
 1149SOL     OW15079   0.042   1.199   2.089 -0.1085  0.6608  0.0260
 1149SOL    HW115080   4.714   1.128   2.112  0.4696  0.5216  1.1192
 1149SOL    HW215081   0.080   1.160   2.010 -0.6887 -0.7096  0.4168
 1150SOL     OW15082   1.995   0.732  12.399 -0.1602 -0.3627 -0.3034
 1150SOL    HW115083   2.077   0.764  12.436 -0.6341 -1.6052  1.8109
 1150SOL    HW215084   1.986   0.641  12.428  0.1508 -0.1435  0.4736
 1151SOL     OW15085   2.850   4.220   7.318  0.5173  0.0236  0.7206
 1151SOL    HW115086   2.872   4.229   7.225  1.1847 -0.1236  0.8598
 1151SOL    HW215087   2.828   4.311   7.336  1.6298  0.4273  0.0163
 1152SOL     OW15088   1.459   4.521   4.164 -0.2747  0.2788 -0.2710
 1152SOL    HW115089   1.456   4.592   4.100  0.8394 -0.0132 -0.6565
 1152SOL    HW215090   1.444   4.568   4.246  2.6459  2.7956 -1.1915
 1153SOL     OW15091   3.011   3.280   8.282 -0.2017  0.6104  0.4289
 1153SOL    HW115092   3.083   3.312   8.336  0.8140 -0.6573 -0.1832
 1153SOL    HW215093   2.932   3.290   8.334 -1.1637 -1.1885 -0.6860
 1154SOL     OW15094   4.584   4.566   6.164 -0.1329 -0.0078 -0.0886
 1154SOL    HW115095   4.596   4.643   6.109 -0.5222 -0.9234 -1.4478
 1154SOL    HW215096   4.488   4.558   6.161 -0.2399  1.2112 -0.1191
 1155SOL     OW15097   2.212   4.710   5.134 -0.3773 -0.0435  0.8289
 1155SOL    HW115098   2.219   4.656   5.213 -0.6043  1.2170  1.7206
 1155SOL    HW215099   2.272   0.049   5.157  0.0707 -1.1039  3.0100
 1156SOL     OW15100   3.614   1.370  13.214 -0.2365 -0.0694 -0.0578
 1156SOL    HW115101   3.687   1.320  13.250  1.2978  1.6305 -0.7913
 1156SOL    HW215102   3.638   1.457  13.246  1.8293 -1.0617  1.0876
 1157SOL     OW15103   0.299   2.171   4.092 -0.3971 -0.3582  0.1814
 1157SOL    HW115104   0.331   2.244   4.145  0.2106 -1.3203  1.1322
 1157SOL    HW215105   0.207   2.190   4.073 -0.0306  0.7301 -0.4817
 1158SOL     OW15106   3.299   3.888   2.818 -0.1938  0.2079  0.6215
 1158SOL    HW115107   3.380   3.940   2.821  0.8963 -1.4988  0.6002
 1158SOL    HW215108   3.329   3.802   2.847 -1.4485 -0.0830  1.0482
 1159SOL     OW15109   1.383   3.484  17.695 -0.1285 -0.1159 -0.4105
 1159SOL    HW115110   1.330   3.413   0.003 -0.3087  0.9886  1.4136
 1159SOL    HW215111   1.448   3.482   0.035  1.1879  0.2770 -1.6348
 1160SOL     OW15112   0.698   2.141   8.127  0.0643 -0.4076 -0.0287
 1160SOL    HW115113   0.691   2.180   8.040  0.9009 -1.0705 -0.3983
 1160SOL    HW215114   0.757   2.200   8.176 -0.3284 -0.1991  0.1890
 1161SOL     OW15115   0.975   4.165   5.791  0.1942 -0.2023 -0.0081
 1161SOL    HW115116   1.040   4.108   5.832  1.6538  2.6583  1.6191
 1161SOL    HW215117   0.924   4.195   5.867 -2.0295  3.1432 -2.8365
 1162SOL     OW15118   0.820   1.195  13.917 -0.4715 -0.0876 -0.0038
 1162SOL    HW115119   0.754   1.257  13.885 -0.4942 -0.5565 -0.8656
 1162SOL    HW215120   0.802   1.205  14.010  0.4863  1.0938  0.0597
 1163SOL     OW15121   1.434   2.443   4.655 -0.6468 -0.5733 -0.3876
 1163SOL    HW115122   1.407   2.522   4.701 -1.3776 -1.8874  1.4821
 1163SOL    HW215123   1.403   2.384   4.724  1.5560 -0.3166  0.8256
 1164SOL     OW15124   0.357   3.380   7.990  0.2159 -0.7190  0.8158
 1164SOL    HW115125   0.311   3.360   8.072  0.1779  0.7767  1.1582
 1164SOL    HW215126   0.437   3.328   7.999  0.5367 -0.3371  0.1619
 1165SOL     OW15127   0.890   1.881   6.721  0.5807 -0.3132 -0.2074
 1165SOL    HW115128   0.894   1.863   6.627  2.2045  2.4952 -0.6458
 1165SOL    HW215129   0.856   1.970   6.725 -0.0633 -0.6561  1.8798
 1166SOL     OW15130   4.474   3.590  12.516 -0.1247 -0.0699  0.2585
 1166SOL    HW115131   4.432   3.567  12.433  0.4166  1.2525 -0.3764
 1166SOL    HW215132   4.422   3.656  12.560 -1.5678 -1.0248  0.0003
 1167SOL     OW15133   1.366   3.898  14.408 -0.5493  0.0255 -0.0228
 1167SOL    HW115134   1.344   3.991  14.401 -0.7701  0.0551  1.0592
 1167SOL    HW215135   1.302   3.861  14.469 -0.5630 -0.0030 -0.0545
 1168SOL     OW15136   1.816   0.689  10.089 -0.1678  0.3137  0.0631
 1168SOL    HW115137   1.870   0.750  10.139 -1.3260  0.1380  1.5430
 1168SOL    HW215138   1.741   0.689  10.149  1.5892  3.7358  2.2314
 1169SOL     OW15139   0.276   1.253  11.112 -0.1359 -0.8036  0.4505
 1169SOL    HW115140   0.245   1.326  11.166 -0.0240  0.7522 -1.5837
 1169SOL    HW215141   0.358   1.283  11.073 -0.6596 -1.2862 -1.0365
 1170SOL     OW15142   0.252   2.180   7.789  0.6705  0.1693 -0.0758
 1170SOL    HW115143   0.160   2.192   7.764 -0.3993 -1.8458  2.8870
 1170SOL    HW215144   0.289   2.254   7.743 -0.0559  1.3169  1.1823
 1171SOL     OW15145   0.002   3.882  16.466 -0.0088 -0.2390  0.1218
 1171SOL    HW115146   4.685   3.801  16.478  0.6394 -1.0026 -2.3726
 1171SOL    HW215147   0.082   3.845  16.429  0.7924  2.7029 -1.0583
 1172SOL     OW15148   2.937   2.921   5.238  0.0352 -0.0067 -0.4997
 1172SOL    HW115149   3.011   2.971   5.273 -1.2157  2.1656 -0.9410
 1172SOL    HW215150   2.989   2.847   5.209 -0.3633 -0.6495  0.4135
 1173SOL     OW15151   0.451   0.146   6.430  0.1071  0.6249  0.2690
 1173SOL    HW115152   0.402   0.102   6.499  2.0805 -0.7777  0.7737
 1173SOL    HW215153   0.540   0.132   6.464  1.4236  0.6435 -3.1414
 1174SOL     OW15154   0.939   1.924  13.158 -0.0498  0.0283 -0.4838
 1174SOL    HW115155   1.001   1.871  13.210 -1.6664 -0.4228  0.9941
 1174SOL    HW215156   0.954   2.008  13.201 -0.7534  0.0459 -0.2661
 1175SOL     OW15157   2.309   2.755   7.170  0.5019  0.1535 -0.3629
 1175SOL    HW115158   2.237   2.761   7.233 -0.6690 -1.1408 -1.5964
 1175SOL    HW215159   2.371   2.702   7.221  0.4884  0.8032  0.3294
 1176SOL     OW15160   2.755   3.216   4.553  0.1918 -0.3296 -0.4901
 1176SOL    HW115161   2.763   3.312   4.546 -1.5856 -0.1914 -0.6948
 1176SOL    HW215162   2.806   3.202   4.632 -0.4439 -1.1684 -0.2328
 1177SOL     OW15163   3.608   3.621   4.878  0.7238  0.0414 -0.0845
 1177SOL    HW115164   3.591   3.714   4.896  0.4465 -0.4091  1.9688
 1177SOL    HW215165   3.610   3.608   4.783 -1.7732  1.2448 -0.2902
 1178SOL     OW15166   0.074   3.383   3.778 -0.0555  0.0374  0.5816
 1178SOL    HW115167   0.045   3.313   3.837 -2.5499 -0.7629 -1.5702
 1178SOL    HW215168   0.128   3.437   3.836  0.2478  3.0947 -2.5734
 1179SOL     OW15169   0.541   0.731   7.756  0.2703 -0.2513 -0.1038
 1179SOL    HW115170   0.522   0.647   7.797 -1.7615 -0.7250 -2.0228
 1179SOL    HW215171   0.463   0.732   7.701  0.2622  2.3819 -0.0178
 1180SOL     OW15172   0.157   2.209   8.639  0.1338  0.0209  0.2840
 1180SOL    HW115173   0.235   2.221   8.693  0.6534  1.0755 -0.6943
 1180SOL    HW215174   0.192   2.158   8.567  0.9758 -3.5722  3.2359
 1181SOL     OW15175   1.194   0.150  14.477  0.4832 -0.1623  0.0378
 1181SOL    HW115176   1.128   0.103  14.425  0.4078  1.8279 -1.6527
 1181SOL    HW215177   1.202   0.227  14.421  0.4910  0.5969  1.1003
 1182SOL     OW15178   2.681   1.888   0.810  0.6877  0.0611 -0.5139
 1182SOL    HW115179   2.700   1.806   0.764 -0.2468 -0.5234  0.1276
 1182SOL    HW215180   2.593   1.904   0.775  0.6111  1.0660  0.1532
 1183SOL     OW15181   3.740   2.621  11.251  0.0750  0.0665  0.0130
 1183SOL    HW115182   3.651   2.654  11.258  0.7344  1.2650  2.5877
 1183SOL    HW215183   3.759   2.674  11.174  0.1158 -0.1344 -0.1163
 1184SOL     OW15184   1.877   2.123   6.722  0.2906  0.6892 -0.4967
 1184SOL    HW115185   1.862   2.197   6.781 -2.1975 -0.7132  0.6009
 1184SOL    HW215186   1.808   2.126   6.656  0.1103  2.2992 -0.2419
 1185SOL     OW15187   3.278   2.085  16.263 -0.0264  0.7884  0.5483
 1185SOL    HW115188   3.280   1.995  16.294  3.1648  0.2682 -1.2427
 1185SOL    HW215189   3.362   2.125  16.285 -0.6051  3.1395 -1.4930
 1186SOL     OW15190   1.943   3.370   3.754 -0.3408 -0.3817  0.0727
 1186SOL    HW115191   1.947   3.382   3.659 -1.2772  0.6003  0.1477
 1186SOL    HW215192   1.892   3.289   3.756 -2.3291  0.8386 -0.9487
 1187SOL     OW15193   3.937   3.859   0.295  0.4196 -0.3234  0.2466
 1187SOL    HW115194   3.849   3.898   0.299  0.0305 -1.0084 -1.4697
 1187SOL    HW215195   3.921   3.770   0.326 -1.6940 -0.2302 -0.5360
 1188SOL     OW15196   3.058   2.332   2.056 -0.1241  0.0690  0.5308
 1188SOL    HW115197   3.132   2.361   2.003 -1.0417 -0.7807 -1.2293
 1188SOL    HW215198   2.994   2.403   2.051  0.0855  0.2875  1.0207
 1189SOL     OW15199   2.236   2.913   8.728 -0.0774  0.9150  0.0257
 1189SOL    HW115200   2.305   2.862   8.686  1.3647  1.8174  1.3004
 1189SOL    HW215201   2.252   3.000   8.691 -0.5478  0.4715 -1.2333
 1190SOL     OW15202   1.165   1.561  16.892  0.1998 -0.2841  0.1754
 1190SOL    HW115203   1.113   1.499  16.943 -1.5578  1.2219  0.2504
 1190SOL    HW215204   1.178   1.506  16.815 -1.0349 -1.0503  0.5073
 1191SOL     OW15205   2.715   0.054   7.712  0.3841  0.2415  0.2180
 1191SOL    HW115206   2.682   4.706   7.671 -0.6599  0.7361  0.0767
 1191SOL    HW215207   2.782   0.084   7.651 -1.0238  0.7123 -1.0998
 1192SOL     OW15208   1.518   3.562   1.061  0.4581 -0.1745  0.1566
 1192SOL    HW115209   1.601   3.514   1.068 -0.1470 -1.3667 -0.8653
 1192SOL    HW215210   1.491   3.562   1.153  1.1503  0.5764  0.3598
 1193SOL     OW15211   0.485   3.523   5.633  0.6993  0.6310 -0.0619
 1193SOL    HW115212   0.439   3.532   5.549  1.4239  1.1284 -0.4017
 1193SOL    HW215213   0.473   3.612   5.667 -0.4472  0.3439  0.3062
 1194SOL     OW15214   1.851   0.717   7.566  0.0997  0.4314 -0.1651
 1194SOL    HW115215   1.775   0.723   7.508 -0.1008 -0.7970 -0.0234
 1194SOL    HW215216   1.830   0.639   7.617  1.9096 -0.1980 -0.3817
 1195SOL     OW15217   0.070   4.576   3.363  0.1055  0.1003  0.0148
 1195SOL    HW115218   0.131   4.616   3.301  0.6474 -0.9907 -0.1628
 1195SOL    HW215219   4.728   4.565   3.305  0.3283 -0.7081 -0.1210
 1196SOL     OW15220   2.539   1.028  15.108  0.6226  0.2113  0.2353
 1196SOL    HW115221   2.535   1.112  15.062  0.1529  0.6987  1.1478
 1196SOL    HW215222   2.598   1.044  15.182 -1.9382  1.3276  2.0773
 1197SOL     OW15223   3.274   1.782   0.473  0.2144  0.3952 -0.3278
 1197SOL    HW115224   3.312   1.738   0.549 -3.2526 -0.9636  0.5968
 1197SOL    HW215225   3.225   1.711   0.431  0.8127 -1.2234  1.7097
 1198SOL     OW15226   2.951   4.691   0.538 -0.5645  0.0414 -0.0869
 1198SOL    HW115227   2.869   0.008   0.539  0.9859  2.6667 -1.8810
 1198SOL    HW215228   2.922   4.615   0.588 -0.2092 -0.7374 -1.0456
 1199SOL     OW15229   4.135   3.804   6.705 -0.6080 -0.1558 -0.5398
 1199SOL    HW115230   4.063   3.824   6.645 -1.0641 -0.0167  0.0528
 1199SOL    HW215231   4.161   3.891   6.736  1.2642 -0.4320 -1.3473
 1200SOL     OW15232   0.329   0.925   7.075  0.2832 -0.5383  0.1216
 1200SOL    HW115233   0.418   0.958   7.062 -0.5727  1.2280 -1.1960
 1200SOL    HW215234   0.279   0.988   7.024  0.4792 -1.0755 -0.7422
 1201SOL     OW15235   2.203   2.847   3.817  0.4875  0.3382 -0.3770
 1201SOL    HW115236   2.231   2.761   3.851  0.0225 -0.1737 -1.2924
 1201SOL    HW215237   2.285   2.894   3.804  0.1262  1.1043  0.1516
 1202SOL     OW15238   3.758   2.203   9.534  0.0875 -0.2715  0.3076
 1202SOL    HW115239   3.836   2.251   9.562 -0.9069  1.4514  0.1263
 1202SOL    HW215240   3.711   2.266   9.480 -1.1451 -1.6340 -0.2230
 1203SOL     OW15241   0.238   1.510   0.299  0.2360 -0.1225  0.4659
 1203SOL    HW115242   0.280   1.585   0.258 -0.3985  1.6438  3.0691
 1203SOL    HW215243   0.315   1.486   0.350  0.3289 -0.6797  0.0675
 1204SOL     OW15244   4.513   2.878   6.511 -0.1545 -0.0492 -0.3212
 1204SOL    HW115245   4.433   2.919   6.477 -0.7880  0.3055  1.5964
 1204SOL    HW215246   4.467   2.811   6.561 -1.7060  0.6040 -0.8396
 1205SOL     OW15247   3.374   3.726   4.232 -0.6404  0.4328 -0.2545
 1205SOL    HW115248   3.368   3.803   4.290 -1.5767 -0.6882  1.1375
 1205SOL    HW215249   3.293   3.731   4.182 -1.3390  0.7580  0.9109
 1206SOL     OW15250   0.118   0.983   8.397 -0.2500  0.4457  0.4012
 1206SOL    HW115251   0.206   0.988   8.359  0.1681 -2.4510  1.0327
 1206SOL    HW215252   0.093   0.892   8.382 -0.3215  0.2487  1.8005
 1207SOL     OW15253   1.205   3.355  12.875  0.9348 -0.4851  0.0620
 1207SOL    HW115254   1.131   3.296  12.859  1.5117 -0.2563 -3.3593
 1207SOL    HW215255   1.158   3.439  12.882  0.8192 -0.5484  0.0532
 1208SOL     OW15256   1.219   0.644   6.975 -0.8891 -0.2949  0.3590
 1208SOL    HW115257   1.214   0.553   7.001  2.7503 -0.9970 -1.4231
 1208SOL    HW215258   1.164   0.693   7.037  1.0555 -1.7935  3.2003
 1209SOL     OW15259   3.717   4.390   8.857  0.7479 -0.1162  0.0946
 1209SOL    HW115260   3.794   4.333   8.853 -0.0071 -1.0322 -1.2309
 1209SOL    HW215261   3.718   4.414   8.950  0.6951  0.7618 -0.1264
 1210SOL     OW15262   2.551   1.362   0.634  0.4329  0.8347  0.3410
 1210SOL    HW115263   2.510   1.448   0.643  0.1925  0.6417  1.1095
 1210SOL    HW215264   2.517   1.314   0.709  1.2822 -0.9661 -0.4322
 1211SOL     OW15265   3.435   2.965   1.838  0.3597 -0.0141  0.1685
 1211SOL    HW115266   3.479   3.046   1.811  1.1370  0.3830  2.6461
 1211SOL    HW215267   3.513   2.917   1.865  0.0557 -2.2959 -2.9598
 1212SOL     OW15268   1.882   0.717   6.831  0.1105 -0.3158  0.2634
 1212SOL    HW115269   1.954   0.779   6.832 -0.1991  0.0334  0.8386
 1212SOL    HW215270   1.801   0.767   6.841  0.0037 -0.2645 -0.8979
 1213SOL     OW15271   0.363   3.322  13.995  0.3182 -0.0674  0.0427
 1213SOL    HW115272   0.279   3.357  13.966 -1.3076 -1.0669  3.5841
 1213SOL    HW215273   0.410   3.313  13.912  1.1966  2.2958  0.2961
 1214SOL     OW15274   2.765   1.675   9.866  0.2547  0.3016 -0.8026
 1214SOL    HW115275   2.802   1.764   9.866  0.6322  0.1443 -1.3413
 1214SOL    HW215276   2.690   1.689   9.923  1.2578 -1.1083  0.8564
 1215SOL     OW15277   4.122   1.509   2.751  0.3977  0.9869 -0.3653
 1215SOL    HW115278   4.147   1.452   2.678 -1.1856 -0.1577 -0.0129
 1215SOL    HW215279   4.179   1.585   2.736 -0.1747  1.6436  0.8126
 1216SOL     OW15280   4.193   3.880  16.899  0.9093 -0.1817  0.2013
 1216SOL    HW115281   4.254   3.810  16.925  0.5816 -0.9131 -0.9659
 1216SOL    HW215282   4.245   3.955  16.925  1.9497 -0.2170 -1.7557
 1217SOL     OW15283   4.647   3.705   4.059  0.0420  0.2446  0.5620
 1217SOL    HW115284   4.650   3.788   4.106 -2.7279  1.0261 -0.6636
 1217SOL    HW215285   4.686   3.729   3.975  0.8333 -0.8549  0.6042
 1218SOL     OW15286   4.473   0.045  16.399 -0.2680  0.2401 -0.4173
 1218SOL    HW115287   4.509   0.022  16.313 -0.3036 -1.7646  0.0831
 1218SOL    HW215288   4.420   0.121  16.378 -0.5919 -0.2456 -1.3617
 1219SOL     OW15289   2.807   1.788   8.827 -0.1141 -0.6554 -0.2269
 1219SOL    HW115290   2.856   1.826   8.901  1.4273  0.3999 -1.7990
 1219SOL    HW215291   2.873   1.727   8.795 -0.0819 -1.1533  0.7836
 1220SOL     OW15292   1.959   4.104   4.815  0.0131  0.4307 -0.2305
 1220SOL    HW115293   1.906   4.053   4.754  1.4289 -1.9722  0.5460
 1220SOL    HW215294   1.890   4.138   4.872  1.0668  0.6811  0.8907
 1221SOL     OW15295   4.082   3.621   3.408 -0.1677  0.5604 -0.0523
 1221SOL    HW115296   4.024   3.551   3.379  0.1853  0.8887 -1.5433
 1221SOL    HW215297   4.136   3.571   3.470  2.4214  0.6044 -2.3029
 1222SOL     OW15298   2.491   1.100   4.626  0.9163  0.1346 -0.7223
 1222SOL    HW115299   2.407   1.145   4.615  1.5424  1.2184 -1.0068
 1222SOL    HW215300   2.508   1.065   4.539 -0.1590 -0.1322 -0.8237
 1223SOL     OW15301   3.022   1.218   3.912  0.2694  0.0158  0.0152
 1223SOL    HW115302   3.073   1.229   3.993 -0.0673 -1.5284  0.4496
 1223SOL    HW215303   3.048   1.131   3.881  1.0531  0.2293  0.0807
 1224SOL     OW15304   1.950   2.392   4.109  0.1236  0.3759 -0.2464
 1224SOL    HW115305   1.899   2.332   4.055  1.5310 -0.2760 -0.8377
 1224SOL    HW215306   2.037   2.359   4.084  1.0629  2.1286  0.7604
 1225SOL     OW15307   2.801   2.447   9.841  0.3384 -0.2486 -0.1174
 1225SOL    HW115308   2.758   2.454   9.756  1.5514  2.8852 -0.4642
 1225SOL    HW215309   2.726   2.447   9.901 -0.0872 -0.2412 -0.6520
 1226SOL     OW15310   0.926   1.332   4.724 -0.6198  0.1268 -0.0020
 1226SOL    HW115311   0.878   1.370   4.650 -0.1011 -0.2949 -0.5480
 1226SOL    HW215312   0.962   1.412   4.762  1.0559 -1.5490  1.9594
 1227SOL     OW15313   0.626   3.286  11.037  0.3768 -0.1103 -0.1584
 1227SOL    HW115314   0.693   3.285  11.105  0.5966 -0.7292 -0.3905
 1227SOL    HW215315   0.677   3.278  10.957 -0.6276  0.9018 -0.9020
 1228SOL     OW15316   3.715   4.471   3.235  0.1152 -0.7298 -0.1934
 1228SOL    HW115317   3.727   4.560   3.203 -0.8463  0.3256  2.3432
 1228SOL    HW215318   3.644   4.442   3.178  0.9436 -0.5873 -1.2973
 1229SOL     OW15319   0.346   1.094   7.361 -0.2207  0.1360  0.0806
 1229SOL    HW115320   0.361   1.000   7.358 -3.7953 -0.3422 -2.5947
 1229SOL    HW215321   0.272   1.102   7.300 -1.1754  0.6874  1.3062
 1230SOL     OW15322   4.312   0.358   5.802  0.4658 -0.8503  0.0934
 1230SOL    HW115323   4.386   0.357   5.863  0.6610  1.1593 -0.1095
 1230SOL    HW215324   4.346   0.406   5.727  1.3652 -0.0128  1.0416
 1231SOL     OW15325   1.910   3.149   4.507  0.0026  0.2889 -0.1865
 1231SOL    HW115326   1.978   3.095   4.468  1.1488  1.3138  0.4193
 1231SOL    HW215327   1.836   3.093   4.482  0.2237  0.4759 -1.2524
 1232SOL     OW15328   3.138   2.633   1.386 -0.5325  0.2033 -0.2452
 1232SOL    HW115329   3.092   2.645   1.303 -2.0563 -0.8155  0.4457
 1232SOL    HW215330   3.113   2.706   1.443 -1.3164 -1.0721  1.0534
 1233SOL     OW15331   4.520   4.499   1.532  0.1496 -0.5527  0.3052
 1233SOL    HW115332   4.543   4.450   1.611 -1.7562 -1.6895  0.1265
 1233SOL    HW215333   4.443   4.450   1.504  0.0164  0.5004 -1.2024
 1234SOL     OW15334   2.074   2.464  17.668  0.0830 -0.1427  0.0855
 1234SOL    HW115335   1.984   2.471  17.700  0.8152 -0.3220  2.1937
 1234SOL    HW215336   2.077   2.368  17.670 -0.8189 -0.1526  1.5356
 1235SOL     OW15337   4.469   0.351   3.098 -0.2144 -0.4114 -0.4118
 1235SOL    HW115338   4.535   0.402   3.051 -0.5725  0.9486  0.5727
 1235SOL    HW215339   4.518   0.331   3.178  0.5378  1.3245 -0.4417
 1236SOL     OW15340   2.497   3.790   0.810  0.0409  0.4345 -0.1157
 1236SOL    HW115341   2.506   3.773   0.717 -4.1541 -0.2061 -0.3795
 1236SOL    HW215342   2.517   3.704   0.848  3.8432  1.1854 -0.3854
 1237SOL     OW15343   4.602   4.401   4.731  0.1675 -0.5771  0.1520
 1237SOL    HW115344   4.697   4.411   4.724  0.1029 -0.0599 -0.0455
 1237SOL    HW215345   4.578   4.490   4.758  1.2816 -0.1878 -0.1292
 1238SOL     OW15346   0.989   1.694  14.400  0.4964 -0.6035 -0.1373
 1238SOL    HW115347   1.001   1.642  14.479  0.5160  0.1531  0.3646
 1238SOL    HW215348   0.899   1.726  14.413  1.1585  0.6896  1.3393
 1239SOL     OW15349   1.871   3.752  17.705  0.5676  0.8652 -0.3002
 1239SOL    HW115350   1.942   3.689  17.695  0.7887  0.4485  3.9438
 1239SOL    HW215351   1.826   3.754  17.620 -1.3728  1.5177  0.7407
 1240SOL     OW15352   2.735   3.972   3.560  0.7996  0.1619 -0.7458
 1240SOL    HW115353   2.653   3.949   3.516 -0.4484  0.1594  1.5690
 1240SOL    HW215354   2.772   3.892   3.598 -0.0756  0.8050  1.4465
 1241SOL     OW15355   3.547   1.303  12.074 -0.1202 -0.1687 -0.1976
 1241SOL    HW115356   3.542   1.257  11.991  4.2300 -2.2052  0.6704
 1241SOL    HW215357   3.459   1.292  12.110 -0.0472  0.9812  0.3327
 1242SOL     OW15358   4.066   1.940   6.496  0.0994  0.4534  0.8310
 1242SOL    HW115359   4.143   1.984   6.459 -1.2064  1.2753 -0.9137
 1242SOL    HW215360   4.000   2.010   6.502  0.4368  0.7896  0.6633
 1243SOL     OW15361   1.705   3.815   2.564  0.0662 -0.6221  0.1158
 1243SOL    HW115362   1.628   3.771   2.529  0.0442 -0.3167 -0.2123
 1243SOL    HW215363   1.767   3.746   2.540  0.0796 -0.3002 -0.7705
 1244SOL     OW15364   1.822   0.981   9.043 -0.5928  0.4859  0.0172
 1244SOL    HW115365   1.814   1.076   9.053 -1.8687  0.2834  0.9806
 1244SOL    HW215366   1.821   0.943   9.131  1.6215 -0.2979 -0.3025
 1245SOL     OW15367   2.288   3.775   3.229 -0.7896  0.3934  0.2932
 1245SOL    HW115368   2.273   3.785   3.135 -0.1950  1.9114  0.3571
 1245SOL    HW215369   2.275   3.866   3.254  2.0234  1.3646 -1.7730
 1246SOL     OW15370   1.761   3.463   0.986 -0.4230 -0.1058 -0.3355
 1246SOL    HW115371   1.834   3.469   1.049 -1.1340  2.2395  0.2536
 1246SOL    HW215372   1.798   3.510   0.911  0.2638  2.7519  1.7994
 1247SOL     OW15373   0.018   3.364   4.622  0.1529 -1.1739 -0.3211
 1247SOL    HW115374   4.719   3.319   4.544 -1.0920  1.4831 -1.3576
 1247SOL    HW215375   0.112   3.375   4.607 -0.0497  0.5615 -0.3130
 1248SOL     OW15376   0.521   2.403   2.725  0.6972 -0.0401  0.0106
 1248SOL    HW115377   0.570   2.352   2.789  1.0531  0.1097 -0.1454
 1248SOL    HW215378   0.584   2.445   2.667 -0.1604 -0.6484 -1.3810
 1249SOL     OW15379   3.952   3.414   9.864 -0.1636 -0.0070  0.2845
 1249SOL    HW115380   3.928   3.395   9.955  1.3394  3.3638  1.3797
 1249SOL    HW215381   3.991   3.500   9.873 -0.2354 -0.0282  0.7945
 1250SOL     OW15382   1.252   2.008  17.039  0.0392  0.6294 -0.3231
 1250SOL    HW115383   1.297   2.091  17.021 -1.7988  1.8651  0.6898
 1250SOL    HW215384   1.198   2.003  16.960  1.2146 -4.5325 -0.8077
 1251SOL     OW15385   3.026   2.131  16.066 -0.7542  0.2904 -0.2332
 1251SOL    HW115386   3.117   2.106  16.081 -0.5946  1.6439  0.9714
 1251SOL    HW215387   3.006   2.198  16.131 -2.3789 -0.6915  0.2671
 1252SOL     OW15388   2.991   1.626   1.998 -0.8355  0.2817  0.4877
 1252SOL    HW115389   3.052   1.580   2.056  0.9970  0.8555 -0.9799
 1252SOL    HW215390   3.043   1.648   1.921  0.6755 -0.3289  1.3295
 1253SOL     OW15391   3.786   0.141  14.216  0.3165  0.1167 -0.3816
 1253SOL    HW115392   3.712   0.121  14.273  1.2014  1.5352  1.2760
 1253SOL    HW215393   3.829   0.056  14.211 -1.0881 -0.4645 -2.8084
 1254SOL     OW15394   0.150   1.675   8.025  0.1040  0.0045  0.2499
 1254SOL    HW115395   0.146   1.762   7.986  1.1598  0.2986  0.7956
 1254SOL    HW215396   0.144   1.695   8.118 -0.7757 -3.3321  0.8987
 1255SOL     OW15397   1.428   3.020  16.950  0.3489 -0.8624 -0.3468
 1255SOL    HW115398   1.419   3.114  16.937 -0.2608 -0.7347  0.9962
 1255SOL    HW215399   1.348   3.002  16.999  0.1660 -2.4394 -1.2135
 1256SOL     OW15400   3.232   3.125   8.215  0.0452  0.1039  0.1122
 1256SOL    HW115401   3.255   3.166   8.132  1.6772  1.2505  1.1388
 1256SOL    HW215402   3.158   3.183   8.236 -0.0944 -0.5076  1.3230
 1257SOL     OW15403   3.112   1.506   3.346 -0.1671  0.2989 -0.7301
 1257SOL    HW115404   3.092   1.457   3.426 -3.4418  2.5355 -0.1839
 1257SOL    HW215405   3.023   1.525   3.316  0.0199 -3.3859 -3.6901
 1258SOL     OW15406   0.620   3.233   9.851 -0.0542 -0.2982 -0.5115
 1258SOL    HW115407   0.583   3.199   9.769 -0.6733 -0.4043 -0.1858
 1258SOL    HW215408   0.579   3.319   9.861 -0.2863 -0.2232 -2.0723
 1259SOL     OW15409   3.764   0.932  15.432 -0.5592 -0.9154  0.1783
 1259SOL    HW115410   3.710   0.997  15.386 -1.7576 -1.6737  0.5215
 1259SOL    HW215411   3.751   0.866  15.364 -0.5427 -0.7848  0.0464
 1260SOL     OW15412   2.353   3.186   3.569  0.1543  0.0896 -0.2417
 1260SOL    HW115413   2.296   3.263   3.579 -1.2180 -0.7583 -1.6905
 1260SOL    HW215414   2.423   3.225   3.516 -0.6499  1.4118 -0.3247
 1261SOL     OW15415   3.973   3.184   3.023  0.3696  0.3920  0.1601
 1261SOL    HW115416   3.968   3.195   3.118  1.7198 -1.3883  0.4202
 1261SOL    HW215417   3.895   3.130   3.012  1.6325 -1.5602  0.7730
 1262SOL     OW15418   3.352   0.694   2.006 -0.1783 -0.5569  0.4059
 1262SOL    HW115419   3.306   0.613   1.986  0.0713 -0.8993  1.2288
 1262SOL    HW215420   3.366   0.674   2.099  1.1488  0.2808  0.3946
 1263SOL     OW15421   4.469   4.265   4.537 -0.2311 -0.1612 -0.4513
 1263SOL    HW115422   4.381   4.288   4.505 -1.2340 -2.2183  0.8061
 1263SOL    HW215423   4.473   4.333   4.605 -1.6829  0.1468 -0.6584
 1264SOL     OW15424   3.262   2.819   9.622  0.1488  0.5282 -0.1522
 1264SOL    HW115425   3.271   2.826   9.717  0.8422  0.1008 -0.1870
 1264SOL    HW215426   3.177   2.860   9.608  0.2928  2.2526  4.0468
 1265SOL     OW15427   1.059   2.416  12.774  0.2330  0.2360 -0.2117
 1265SOL    HW115428   1.138   2.382  12.730 -0.4387 -1.0112 -0.4696
 1265SOL    HW215429   1.093   2.490  12.825  1.3400 -1.4093  1.4669
 1266SOL     OW15430   3.260   1.441   9.583  0.3820 -0.2260  0.1601
 1266SOL    HW115431   3.233   1.354   9.554  1.2705 -0.3267 -0.3588
 1266SOL    HW215432   3.262   1.489   9.500  1.0739 -0.1442  0.2302
 1267SOL     OW15433   1.511   4.113   6.155  0.4837  0.3646  0.0751
 1267SOL    HW115434   1.469   4.145   6.075  1.0255 -0.4733 -0.5441
 1267SOL    HW215435   1.532   4.024   6.126 -0.7443  0.8756 -2.4083
 1268SOL     OW15436   4.364   1.934  10.499 -0.6660 -0.5100  0.0432
 1268SOL    HW115437   4.389   2.023  10.473 -1.6628 -0.3897 -0.4936
 1268SOL    HW215438   4.416   1.932  10.579 -1.1036  0.3535  0.3499
 1269SOL     OW15439   1.702   2.746   4.261  0.0784  0.1963  0.2497
 1269SOL    HW115440   1.784   2.713   4.224  0.4926  2.2415 -0.6837
 1269SOL    HW215441   1.654   2.733   4.179 -0.7204  1.4988  0.5170
 1270SOL     OW15442   3.774   4.175   3.156  0.1346 -0.5417 -0.0779
 1270SOL    HW115443   3.801   4.216   3.238  0.6777 -2.5873  0.7475
 1270SOL    HW215444   3.852   4.129   3.125 -0.2374 -0.7985 -0.6383
 1271SOL     OW15445   2.976   4.415  12.480  0.7159 -0.6758  0.6219
 1271SOL    HW115446   3.048   4.418  12.543  1.3445  0.3913 -0.1448
 1271SOL    HW215447   2.912   4.484  12.499 -0.9383 -1.6730 -1.2470
 1272SOL     OW15448   4.338   4.152   3.925 -0.1717  0.6756  0.1815
 1272SOL    HW115449   4.257   4.101   3.922  0.6341 -0.5804 -0.2754
 1272SOL    HW215450   4.337   4.182   4.016 -0.9808  0.9957  0.0613
 1273SOL     OW15451   0.278   3.026  17.707  0.0246 -0.3879  0.6466
 1273SOL    HW115452   0.356   3.081  17.714 -0.5293  0.5384 -0.3548
 1273SOL    HW215453   0.284   2.971   0.055 -3.6792 -1.3165  0.2679
 1274SOL     OW15454   1.108   1.213   3.015  0.0412 -0.3269  0.5815
 1274SOL    HW115455   1.102   1.118   3.003  0.0959 -0.2428 -0.1005
 1274SOL    HW215456   1.024   1.239   2.977  0.5340  0.5189  0.0771
 1275SOL     OW15457   1.499   2.180  10.779  0.5982  0.0923 -0.0672
 1275SOL    HW115458   1.561   2.230  10.833  0.0088  0.4272  0.2967
 1275SOL    HW215459   1.449   2.149  10.855 -1.2863 -0.4623 -1.5414
 1276SOL     OW15460   0.827   1.425   5.999  0.7955 -0.9962  0.1817
 1276SOL    HW115461   0.753   1.459   5.949  3.1923  2.0116 -1.2824
 1276SOL    HW215462   0.799   1.430   6.091  1.3750 -0.2322  0.3210
 1277SOL     OW15463   1.434   1.777   5.205 -0.8268 -0.0829 -0.6081
 1277SOL    HW115464   1.396   1.818   5.127 -1.0072  0.1975 -0.3682
 1277SOL    HW215465   1.512   1.831   5.219 -2.0951  0.9446  2.3822
 1278SOL     OW15466   3.675   0.072   5.358  0.7237  0.0826 -0.2070
 1278SOL    HW115467   3.617   0.083   5.432 -0.4414  1.1481 -1.2838
 1278SOL    HW215468   3.692   0.164   5.337 -1.3695 -0.5956 -5.0455
 1279SOL     OW15469   0.768   2.893   5.041  0.0101  0.4913 -0.5120
 1279SOL    HW115470   0.701   2.953   5.008 -0.4464  1.3435  1.9560
 1279SOL    HW215471   0.718   2.833   5.096 -1.5242  0.9816 -1.3761
 1280SOL     OW15472   3.507   2.628   9.211  0.0240  0.7302  0.0498
 1280SOL    HW115473   3.595   2.661   9.194  0.1740  0.4891  0.3586
 1280SOL    HW215474   3.485   2.582   9.130  0.8959 -1.2486  0.9354
 1281SOL     OW15475   3.960   1.299  16.910 -0.2175  0.1494  0.0257
 1281SOL    HW115476   3.979   1.355  16.834  1.6489  1.1861  1.2446
 1281SOL    HW215477   3.903   1.349  16.967 -0.4250  0.3162 -0.3248
 1282SOL     OW15478   2.531   4.176   3.275  0.0676 -0.0569 -0.1725
 1282SOL    HW115479   2.494   4.213   3.195  0.8424 -1.6227 -1.2706
 1282SOL    HW215480   2.597   4.114   3.242  0.8217  0.5678  0.1518
 1283SOL     OW15481   0.037   2.766  16.329 -0.1967 -0.7345  0.1727
 1283SOL    HW115482   4.722   2.785  16.248 -1.0539  1.0646  1.1052
 1283SOL    HW215483   0.059   2.676  16.308 -0.6948 -0.5794 -1.0364
 1284SOL     OW15484   0.565   4.043   2.455  0.1120  0.4586  0.4136
 1284SOL    HW115485   0.505   4.034   2.382  0.2225  0.2732  0.3443
 1284SOL    HW215486   0.498   4.032   2.523  1.8823  1.2430  2.3129
 1285SOL     OW15487   3.204   1.607   3.099 -0.3393 -0.2496 -0.0241
 1285SOL    HW115488   3.170   1.580   3.184 -0.7456  0.9247  0.1872
 1285SOL    HW215489   3.199   1.702   3.113  0.5995 -0.2635  0.4249
 1286SOL     OW15490   4.346   1.093   8.659 -0.0175 -0.9194  0.1528
 1286SOL    HW115491   4.364   1.114   8.568  1.3229  1.9523  1.0719
 1286SOL    HW215492   4.412   1.153   8.692  0.8537 -1.1851 -1.1287
 1287SOL     OW15493   0.689   4.170   0.389 -0.3158 -0.3019  0.3655
 1287SOL    HW115494   0.777   4.208   0.389 -0.2183 -0.5406 -0.5929
 1287SOL    HW215495   0.645   4.218   0.459  0.8007  0.6954  0.3949
 1288SOL     OW15496   2.617   1.788  11.707 -0.3280 -0.4061  0.2110
 1288SOL    HW115497   2.673   1.720  11.744  2.6769  2.1615  0.3463
 1288SOL    HW215498   2.677   1.861  11.719 -1.1067  0.0464  1.3423
 1289SOL     OW15499   4.341   1.904   1.507 -0.6310 -0.0348  0.0504
 1289SOL    HW115500   4.434   1.882   1.509 -0.3755  0.8846 -1.9583
 1289SOL    HW215501   4.319   1.886   1.599 -1.0628  0.6023  0.0758
 1290SOL     OW15502   1.227   1.806  17.704 -0.1759  0.0681 -0.8246
 1290SOL    HW115503   1.230   1.840  17.615 -1.5918 -1.0936 -1.3177
 1290SOL    HW215504   1.172   1.872   0.014 -1.1968  1.4105 -4.4909
 1291SOL     OW15505   3.546   2.929   7.037 -0.1433 -0.0323 -0.2832
 1291SOL    HW115506   3.598   2.953   7.114  0.0511 -1.1477 -0.0761
 1291SOL    HW215507   3.612   2.895   6.977 -0.0460  0.5235 -0.4974
 1292SOL     OW15508   1.036   2.397   4.051  0.2740 -0.2746  0.0482
 1292SOL    HW115509   1.056   2.394   3.957  0.5784  0.2299  0.0980
 1292SOL    HW215510   0.942   2.380   4.041  0.5856 -2.0906  0.2399
 1293SOL     OW15511   2.675   1.267   0.401 -0.2958  0.1328  1.0476
 1293SOL    HW115512   2.603   1.292   0.460  0.0080  2.0829  0.5765
 1293SOL    HW215513   2.706   1.354   0.378  0.6929 -0.7375 -0.8839
 1294SOL     OW15514   0.952   0.221  16.233 -0.0377 -0.1287 -0.2031
 1294SOL    HW115515   0.899   0.220  16.313 -0.0786  1.4549 -0.2115
 1294SOL    HW215516   1.022   0.282  16.255  1.7338 -1.1337 -2.9962
 1295SOL     OW15517   1.900   0.232  12.387 -0.5408  0.3017  0.1161
 1295SOL    HW115518   1.867   0.193  12.306  1.0521 -0.8741  0.0257
 1295SOL    HW215519   1.843   0.189  12.452 -1.8617  0.1069 -1.1576
 1296SOL     OW15520   3.325   0.001   4.179  0.4993 -0.9722  0.2407
 1296SOL    HW115521   3.415   4.707   4.195  2.2825  3.7160 -2.0545
 1296SOL    HW215522   3.297   0.026   4.267  2.4300  1.0295  0.2690
 1297SOL     OW15523   1.211   2.839   2.760 -0.0778 -0.0634  0.2013
 1297SOL    HW115524   1.149   2.865   2.692  1.5772 -0.2957 -1.3889
 1297SOL    HW215525   1.233   2.927   2.790 -0.4260  0.3021 -0.6189
 1298SOL     OW15526   2.182   4.291  12.965  0.2320  0.1110  0.6132
 1298SOL    HW115527   2.254   4.228  12.974  1.7159  1.5297 -1.3982
 1298SOL    HW215528   2.100   4.242  12.953 -0.5833  2.0721 -1.8488
 1299SOL     OW15529   1.476   3.710   5.447  0.4292 -0.2643  0.4223
 1299SOL    HW115530   1.402   3.767   5.468 -0.6327 -0.5505 -2.4833
 1299SOL    HW215531   1.444   3.642   5.388 -1.3996  0.8943  0.0805
 1300SOL     OW15532   3.861   0.151   9.940 -0.2557  0.3563 -0.8413
 1300SOL    HW115533   3.877   0.057   9.950 -0.4203  0.6016  1.6492
 1300SOL    HW215534   3.778   0.153   9.987  0.6803  0.0647  0.8167
 1301SOL     OW15535   2.496   1.493  12.943 -0.2199  0.8540 -0.2547
 1301SOL    HW115536   2.501   1.574  12.891 -1.8574  0.5922 -0.8021
 1301SOL    HW215537   2.570   1.445  12.906 -0.8492  0.7982 -1.4383
 1302SOL     OW15538   1.019   0.299  17.372 -0.1164  0.2347 -0.2558
 1302SOL    HW115539   0.970   0.294  17.290 -1.5265  0.9588  0.5461
 1302SOL    HW215540   0.956   0.351  17.422  0.2016  0.1196  0.2565
 1303SOL     OW15541   1.259   1.788   3.464 -0.3670  0.5811 -0.6388
 1303SOL    HW115542   1.181   1.841   3.449 -0.3119  0.6578 -0.6539
 1303SOL    HW215543   1.271   1.787   3.559 -2.0669 -0.8014 -0.4407
 1304SOL     OW15544   1.876   3.788   6.917 -0.2009  0.0621  0.4404
 1304SOL    HW115545   1.827   3.871   6.917  1.0412  0.8003  1.6124
 1304SOL    HW215546   1.863   3.754   6.829  0.1934 -0.4270  0.5722
 1305SOL     OW15547   0.440   0.498  14.894  0.5237  0.3018  0.4403
 1305SOL    HW115548   0.496   0.561  14.939  0.8531  1.1912 -1.2274
 1305SOL    HW215549   0.432   0.438  14.969  1.6107 -0.4079 -0.0148
 1306SOL     OW15550   3.117   4.349   2.694  0.5856  0.0575  0.0965
 1306SOL    HW115551   3.210   4.329   2.702  0.4406 -0.5702  0.1557
 1306SOL    HW215552   3.090   4.398   2.772  0.7970  0.5295 -0.1234
 1307SOL     OW15553   0.079   4.082   7.086  0.0408  0.2168 -0.3945
 1307SOL    HW115554   0.011   4.144   7.057 -1.3133 -0.9621  0.2741
 1307SOL    HW215555   0.136   4.132   7.144 -0.5291  1.2310 -0.6905
 1308SOL     OW15556   0.996   2.960   1.249  0.9278 -0.1250  0.1210
 1308SOL    HW115557   1.053   3.020   1.200  0.0142 -0.4112 -1.3097
 1308SOL    HW215558   1.037   2.953   1.335  0.7203 -0.4703  0.1916
 1309SOL     OW15559   4.475   2.857   4.051 -0.2239 -0.5595  0.0865
 1309SOL    HW115560   4.415   2.897   4.115  0.2536  0.4304 -0.0745
 1309SOL    HW215561   4.519   2.791   4.104  0.9317 -0.7649 -1.1425
 1310SOL     OW15562   3.986   2.429   0.677  0.0877 -0.3358  0.0135
 1310SOL    HW115563   3.892   2.420   0.661 -0.1268 -0.0161  1.0916
 1310SOL    HW215564   3.985   2.478   0.759 -1.1765 -1.7298  0.8222
 1311SOL     OW15565   0.791   3.692   9.788 -0.2230 -0.0546 -0.2624
 1311SOL    HW115566   0.830   3.724   9.869 -1.5321 -0.3246  0.4609
 1311SOL    HW215567   0.874   3.656   9.756  0.4802 -1.3700  3.0403
 1312SOL     OW15568   3.459   0.428   2.920  0.3476 -0.4343 -0.1184
 1312SOL    HW115569   3.482   0.447   2.829  2.2911 -0.3777  0.3871
 1312SOL    HW215570   3.489   0.513   2.953  0.0070 -0.0365 -0.8391
 1313SOL     OW15571   0.062   3.699   9.630 -0.0316 -0.3814 -0.1606
 1313SOL    HW115572   4.724   3.762   9.648  0.2458  0.1278 -0.8456
 1313SOL    HW215573   0.140   3.754   9.616  0.0473 -0.1074  1.3732
 1314SOL     OW15574   4.133   2.576   7.546 -0.9827  0.2616  0.1194
 1314SOL    HW115575   4.116   2.668   7.567  0.6140  0.1896  1.6712
 1314SOL    HW215576   4.223   2.568   7.578 -1.7042  0.4893  2.1468
 1315SOL     OW15577   3.870   4.314  12.700 -0.1842  0.0015  0.1001
 1315SOL    HW115578   3.787   4.311  12.749 -0.0032 -3.1577  0.2251
 1315SOL    HW215579   3.905   4.401  12.717 -0.8143 -0.4748  3.9674
 1316SOL     OW15580   3.966   4.263   0.283 -0.5601  0.4530  0.0482
 1316SOL    HW115581   3.906   4.284   0.212 -0.9303 -1.3777 -0.1610
 1316SOL    HW215582   3.957   4.168   0.282 -0.2518  0.4035  1.6724
 1317SOL     OW15583   4.487   1.045   7.632  0.5432  0.3837  0.0469
 1317SOL    HW115584   4.506   1.129   7.674  2.6215  0.8657 -1.8035
 1317SOL    HW215585   4.524   1.061   7.545  0.4159 -1.0135 -0.2597
 1318SOL     OW15586   1.783   0.986  16.844 -0.4324  0.7094 -0.0236
 1318SOL    HW115587   1.810   0.908  16.798  0.5403  1.5452 -0.8619
 1318SOL    HW215588   1.799   0.958  16.934  1.1519 -2.8020 -1.4092
 1319SOL     OW15589   3.750   0.177  14.843  0.5933  0.0115  0.3001
 1319SOL    HW115590   3.796   0.179  14.927  0.5800 -0.0122  0.3078
 1319SOL    HW215591   3.772   0.092  14.806 -5.0730 -0.8435 -1.1089
 1320SOL     OW15592   2.282   2.003   9.564 -0.4093  0.0733 -0.0419
 1320SOL    HW115593   2.275   2.088   9.520  1.7383  0.6746  0.7948
 1320SOL    HW215594   2.299   1.955   9.483 -1.5883 -1.5684  0.6954
 1321SOL     OW15595   4.387   2.543   2.785  0.0603  0.0243  0.5915
 1321SOL    HW115596   4.387   2.534   2.689  1.6889  1.0674  0.5073
 1321SOL    HW215597   4.295   2.564   2.799 -0.2224 -0.7959 -0.0262
 1322SOL     OW15598   1.590   2.126   4.953 -0.2661 -0.7206 -0.1859
 1322SOL    HW115599   1.560   2.080   4.875  2.0197  1.2675 -2.2531
 1322SOL    HW215600   1.513   2.178   4.976 -0.0864 -0.5184 -0.0417
 1323SOL     OW15601   0.840   2.139   3.412 -0.1151  0.3161  1.1337
 1323SOL    HW115602   0.807   2.163   3.499 -0.0056  0.3643  1.1619
 1323SOL    HW215603   0.815   2.216   3.361 -0.9632 -0.7840 -0.0931
 1324SOL     OW15604   3.367   3.480   1.335  0.1856 -0.9576 -0.5334
 1324SOL    HW115605   3.385   3.574   1.325 -1.3289 -0.5425  0.6912
 1324SOL    HW215606   3.297   3.477   1.270 -0.8991  1.2557  0.5344
 1325SOL     OW15607   3.740   1.515   3.349 -0.3095 -0.0499 -0.2436
 1325SOL    HW115608   3.814   1.515   3.287  0.4127  3.4299  0.6062
 1325SOL    HW215609   3.749   1.427   3.384  2.2943 -0.3787 -1.7298
 1326SOL     OW15610   2.434   1.036   5.253  0.1356  0.1889  0.3378
 1326SOL    HW115611   2.398   0.998   5.333  0.7465 -1.9044 -0.3909
 1326SOL    HW215612   2.463   1.122   5.285  1.4770  0.4381 -1.5462
 1327SOL     OW15613   1.093   3.942  16.771  0.2049 -0.3103  0.3638
 1327SOL    HW115614   1.100   3.980  16.684 -1.0034 -0.4796  0.1969
 1327SOL    HW215615   1.182   3.947  16.805  0.5573 -0.6442 -0.5150
 1328SOL     OW15616   2.073   1.648   8.628 -0.0587 -0.0268 -0.2617
 1328SOL    HW115617   2.039   1.587   8.562 -0.0007 -0.1176 -0.2064
 1328SOL    HW215618   2.161   1.611   8.631 -0.0561  0.0835  0.8643
 1329SOL     OW15619   1.539   1.831   5.747 -0.3912 -0.2714  0.2916
 1329SOL    HW115620   1.478   1.768   5.785  1.8263 -2.0796  0.8903
 1329SOL    HW215621   1.546   1.897   5.816 -0.2524 -1.2787  1.2409
 1330SOL     OW15622   2.932   4.014   5.562  0.0799  0.4075 -0.7267
 1330SOL    HW115623   2.872   3.954   5.517  1.9468 -1.0614 -1.2274
 1330SOL    HW215624   2.879   4.093   5.552 -0.2089  0.0558 -2.0270
 1331SOL     OW15625   3.032   2.447   7.184  0.0748 -0.4309  0.0868
 1331SOL    HW115626   3.102   2.505   7.154 -1.1527  0.6503 -0.7128
 1331SOL    HW215627   3.029   2.446   7.279  1.4038  2.5132  0.1560
 1332SOL     OW15628   4.619   1.020  10.293 -0.0998  0.4216 -0.1970
 1332SOL    HW115629   4.638   0.932  10.326 -2.1402  0.9472  2.3723
 1332SOL    HW215630   4.525   1.013  10.309  0.0569  0.0896  0.5916
 1333SOL     OW15631   0.058   3.931   4.247  0.0577 -0.1434  0.5527
 1333SOL    HW115632   0.095   3.999   4.192  0.0574  0.2397  1.0249
 1333SOL    HW215633   0.025   3.989   4.316  0.2393 -0.8975  1.2834
 1334SOL     OW15634   2.365   4.126   4.483  0.3661 -0.2173  0.0609
 1334SOL    HW115635   2.388   4.034   4.498  0.8817 -0.4267 -2.0297
 1334SOL    HW215636   2.414   4.147   4.404  1.3602  0.8676  0.9662
 1335SOL     OW15637   4.685   4.284   9.471  0.6172  0.2681 -0.4982
 1335SOL    HW115638   4.670   4.281   9.376 -0.1991  2.2464 -0.4430
 1335SOL    HW215639   4.720   4.197   9.488 -0.9474 -0.0871  0.8481
 1336SOL     OW15640   0.246   1.760   5.120  0.1798 -0.5685 -0.0848
 1336SOL    HW115641   0.260   1.822   5.191  1.5043 -1.0132  0.0355
 1336SOL    HW215642   0.334   1.757   5.082 -0.3849 -1.4523 -1.3324
 1337SOL     OW15643   4.008   1.831  17.643 -0.3090  0.0454  0.5014
 1337SOL    HW115644   3.957   1.911  17.652 -0.4197  0.1941 -1.3955
 1337SOL    HW215645   4.023   1.808   0.005  1.9024 -0.1677  0.0938
 1338SOL     OW15646   2.564   1.588   4.916 -0.2353 -0.5390  0.2914
 1338SOL    HW115647   2.504   1.530   4.869  0.0624 -0.0236 -0.7201
 1338SOL    HW215648   2.546   1.556   5.005  1.6359 -3.2288 -0.2731
 1339SOL     OW15649   3.027   4.574   6.098 -0.0225  0.6543 -0.3481
 1339SOL    HW115650   3.076   4.654   6.079  1.0769  0.1500  0.4069
 1339SOL    HW215651   2.983   4.562   6.013  0.5206  0.5682 -0.6206
 1340SOL     OW15652   2.124   1.403  15.556 -0.1456  0.3053 -0.2066
 1340SOL    HW115653   2.089   1.393  15.467 -0.7969  2.3677 -0.1787
 1340SOL    HW215654   2.208   1.441  15.530 -0.6638  0.5586 -1.5352
 1341SOL     OW15655   3.589   1.990   7.688  0.2898  0.0861 -0.0981
 1341SOL    HW115656   3.649   1.999   7.762  0.1110  1.1966 -0.0917
 1341SOL    HW215657   3.540   1.910   7.706  3.4466 -1.2590  2.4704
 1342SOL     OW15658   2.074   0.308   1.215 -0.1898  0.5380 -0.1403
 1342SOL    HW115659   2.060   0.215   1.197 -0.3473  0.2802  1.3805
 1342SOL    HW215660   2.142   0.303   1.281 -0.7197 -0.9523  0.2914
 1343SOL     OW15661   3.199   3.917   8.762  0.4610  0.9406  0.3293
 1343SOL    HW115662   3.254   3.988   8.728  0.3921  0.0482 -1.6867
 1343SOL    HW215663   3.149   3.887   8.686  0.3547  0.5447  0.5567
 1344SOL     OW15664   4.026   1.143   3.837  0.6355 -0.2809 -0.4790
 1344SOL    HW115665   4.112   1.160   3.875 -0.2178  0.9069  0.9352
 1344SOL    HW215666   4.002   1.234   3.817 -1.1284 -0.3844  1.1799
 1345SOL     OW15667   2.273   0.565   1.022  0.5751  0.8103 -0.4879
 1345SOL    HW115668   2.360   0.604   1.031 -0.0877  1.9742  1.0270
 1345SOL    HW215669   2.231   0.637   0.975  0.5692  1.3304  0.3236
 1346SOL     OW15670   0.544   1.542   6.787 -0.0745  0.1673 -0.2694
 1346SOL    HW115671   0.550   1.449   6.810 -1.5965  0.1982  0.2801
 1346SOL    HW215672   0.528   1.535   6.693  0.3346  2.5598 -0.5149
 1347SOL     OW15673   2.775   3.702   4.931  0.7747  1.1371  0.4510
 1347SOL    HW115674   2.772   3.633   4.997  0.9485  0.7447  0.0453
 1347SOL    HW215675   2.727   3.775   4.972 -2.2571 -0.6859  0.0951
 1348SOL     OW15676   3.452   2.937   4.763  0.1588 -0.5054  0.6392
 1348SOL    HW115677   3.404   2.939   4.846  0.0367  1.1585  0.5383
 1348SOL    HW215678   3.378   2.919   4.705  0.2829  2.3088 -0.4162
 1349SOL     OW15679   0.732   4.720   6.909  0.6012 -0.5377  0.1586
 1349SOL    HW115680   0.751   4.681   6.994 -0.8504 -2.1666 -0.2702
 1349SOL    HW215681   0.810   4.701   6.857  0.3379 -1.9293  0.2720
 1350SOL     OW15682   1.044   4.091   4.047  0.5243  0.2596 -0.0014
 1350SOL    HW115683   1.109   4.156   4.074 -2.4097  3.0849  0.1053
 1350SOL    HW215684   0.967   4.145   4.032  0.3699  0.2360  0.7285
 1351SOL     OW15685   1.786   1.130  14.630  0.3795  0.0731  0.8327
 1351SOL    HW115686   1.840   1.203  14.603  0.5446 -0.9658 -1.6209
 1351SOL    HW215687   1.703   1.176  14.620 -0.1162 -0.7016  1.3966
 1352SOL     OW15688   3.056   2.052   2.645  0.3708 -0.3142 -0.0906
 1352SOL    HW115689   3.086   2.001   2.571  0.2377 -0.5255  0.0025
 1352SOL    HW215690   3.134   2.107   2.652  1.0895 -1.3214 -0.3551
 1353SOL     OW15691   2.402   2.636   9.439  0.4710  0.6384 -0.3039
 1353SOL    HW115692   2.332   2.603   9.496  0.5277 -2.0894 -1.8087
 1353SOL    HW215693   2.409   2.559   9.382  1.2136  0.2170  0.3626
 1354SOL     OW15694   1.379   4.687  16.826 -0.1893 -1.0261 -0.6406
 1354SOL    HW115695   1.375   0.050  16.829 -1.0986 -1.1290  1.8209
 1354SOL    HW215696   1.303   4.648  16.868 -0.4314  0.4309  0.2827
 1355SOL     OW15697   2.660   2.573  14.254  0.7783 -0.0546 -0.1859
 1355SOL    HW115698   2.645   2.567  14.160  2.2152 -0.6622 -0.3879
 1355SOL    HW215699   2.675   2.667  14.263 -0.3847 -0.1303  2.5529
 1356SOL     OW15700   3.237   2.722  17.195  0.0123  0.4074  0.0634
 1356SOL    HW115701   3.185   2.716  17.115  0.9996  1.7360 -0.6706
 1356SOL    HW215702   3.311   2.668  17.167 -2.1671 -1.6873 -1.6399
 1357SOL     OW15703   4.147   1.355   3.543  0.0842 -0.1777 -0.1085
 1357SOL    HW115704   4.219   1.395   3.495  1.3351 -0.6617  1.3667
 1357SOL    HW215705   4.160   1.405   3.623 -0.3385  1.1862 -0.8974
 1358SOL     OW15706   4.121   2.214   5.110  0.7659 -0.7018  0.7394
 1358SOL    HW115707   4.094   2.206   5.202 -0.8345  2.4471  0.5539
 1358SOL    HW215708   4.118   2.124   5.078  0.2747 -0.6811  0.7186
 1359SOL     OW15709   0.610   4.283   2.669  0.2528  0.9257 -0.0741
 1359SOL    HW115710   0.557   4.362   2.667  1.1320  1.5010 -0.4457
 1359SOL    HW215711   0.582   4.243   2.587  2.1791  0.9666 -0.7671
 1360SOL     OW15712   3.381   4.011  12.553 -0.1932  0.1735  0.8113
 1360SOL    HW115713   3.299   4.012  12.504  0.7641 -1.4161 -0.8050
 1360SOL    HW215714   3.395   3.922  12.583 -1.3867 -0.6005 -0.9477
 1361SOL     OW15715   4.289   3.318   7.857  0.5979 -0.2176 -0.0096
 1361SOL    HW115716   4.358   3.347   7.916  0.3878 -0.9784  0.6197
 1361SOL    HW215717   4.270   3.231   7.892 -0.0950  0.3962  1.1130
 1362SOL     OW15718   2.329   4.600  12.905  0.2760  0.1668 -0.4988
 1362SOL    HW115719   2.327   4.546  12.984 -0.7980  1.3518  0.2946
 1362SOL    HW215720   2.252   4.654  12.926  0.0333  0.4577 -2.1284
 1363SOL     OW15721   0.195   1.858   4.487  0.0745  0.0515 -0.5479
 1363SOL    HW115722   0.238   1.773   4.491 -0.1032 -0.0135  0.0745
 1363SOL    HW215723   0.155   1.857   4.400 -1.2593  0.3782  0.0597
 1364SOL     OW15724   0.872   3.038  14.087 -0.5091 -0.0349 -0.3920
 1364SOL    HW115725   0.908   3.101  14.025  1.3132  1.5057  2.2148
 1364SOL    HW215726   0.941   3.041  14.154 -0.0237 -2.3755 -0.8007
 1365SOL     OW15727   4.365   3.249   9.464 -0.2837 -0.0371  0.0519
 1365SOL    HW115728   4.279   3.291   9.467 -0.3767 -0.1570 -0.8332
 1365SOL    HW215729   4.411   3.319   9.511 -1.3724  1.7203 -1.4722
 1366SOL     OW15730   2.112   0.834   5.296 -0.4239 -0.1223 -0.1993
 1366SOL    HW115731   2.164   0.790   5.229 -1.2876  0.2911 -1.1247
 1366SOL    HW215732   2.043   0.768   5.300 -0.4375 -0.1357 -0.6720
 1367SOL     OW15733   2.655   1.751  12.767 -0.7578  0.2533  0.5371
 1367SOL    HW115734   2.708   1.703  12.830  1.0396  1.2874 -0.1724
 1367SOL    HW215735   2.713   1.733  12.693 -2.6731  0.9575 -1.1251
 1368SOL     OW15736   3.978   1.023  15.600  0.1867 -0.2788 -0.5406
 1368SOL    HW115737   3.896   0.997  15.558  0.4750  3.8578 -3.6680
 1368SOL    HW215738   3.969   1.118  15.594  0.8083 -0.1682  0.3395
 1369SOL     OW15739   4.444   3.661   5.689 -0.1427  0.0147  0.2520
 1369SOL    HW115740   4.516   3.702   5.642  0.9675  0.5629  2.4254
 1369SOL    HW215741   4.413   3.597   5.624  0.8746 -1.6286  1.3859
 1370SOL     OW15742   3.573   0.849   4.100 -0.2848  0.5141  0.7238
 1370SOL    HW115743   3.634   0.863   4.027 -0.1200 -2.6298  0.2723
 1370SOL    HW215744   3.606   0.907   4.168  0.7831 -0.1948  0.8041
 1371SOL     OW15745   0.775   0.570   4.977  0.1730  0.1137 -0.4690
 1371SOL    HW115746   0.758   0.624   5.054  0.5093  2.0047 -1.7190
 1371SOL    HW215747   0.870   0.569   4.986  0.2363  2.7519 -0.7679
 1372SOL     OW15748   0.860   0.893   3.399 -0.0670  0.0553  0.4831
 1372SOL    HW115749   0.880   0.922   3.488  0.7049 -0.1555  0.3807
 1372SOL    HW215750   0.940   0.912   3.350  0.2611  0.5593  1.2101
 1373SOL     OW15751   3.606   2.237   7.066  0.6352  0.4359  0.0203
 1373SOL    HW115752   3.635   2.270   6.981  1.5558  1.4904  0.7375
 1373SOL    HW215753   3.578   2.322   7.101 -1.3873  1.3840 -3.9096
 1374SOL     OW15754   3.705   4.239   3.948 -0.4017  0.0427 -0.1734
 1374SOL    HW115755   3.653   4.170   3.906  0.4627 -2.2851  2.5671
 1374SOL    HW215756   3.702   4.311   3.885 -0.2531 -0.7856 -1.1063
 1375SOL     OW15757   2.296   0.815  11.740 -0.2268 -0.5922 -0.1778
 1375SOL    HW115758   2.247   0.824  11.822 -0.0310 -1.0608 -0.0089
 1375SOL    HW215759   2.268   0.896  11.697 -2.4663 -0.8424  0.8424
 1376SOL     OW15760   3.556   3.124   0.214 -0.0967 -0.0833 -0.0140
 1376SOL    HW115761   3.508   3.111   0.132  0.3527 -2.8908  0.1508
 1376SOL    HW215762   3.584   3.035   0.236  0.3490 -0.0571 -0.4779
 1377SOL     OW15763   0.834   4.003   5.597  0.1156 -0.4216  0.3190
 1377SOL    HW115764   0.872   4.056   5.667  1.3031 -0.2167 -0.4761
 1377SOL    HW215765   0.750   4.046   5.579 -1.1970 -3.5733 -1.0630
 1378SOL     OW15766   2.732   3.391   1.624 -0.1516  0.9407 -0.5848
 1378SOL    HW115767   2.705   3.467   1.675 -0.0155  0.2021  0.6083
 1378SOL    HW215768   2.824   3.390   1.652 -0.2776 -0.0787 -0.2188
 1379SOL     OW15769   4.732   4.088   5.447  0.4825 -0.4150  0.2228
 1379SOL    HW115770   0.046   4.119   5.524 -0.1221  0.5841  0.1853
 1379SOL    HW215771   4.651   4.140   5.453  0.4755 -0.4713  0.5937
 1380SOL     OW15772   0.739   4.055   8.350 -0.7052 -0.6107  0.5167
 1380SOL    HW115773   0.682   4.043   8.274 -0.4494 -2.2409  0.5803
 1380SOL    HW215774   0.699   4.128   8.396 -0.3089  0.7861 -1.3345
 1381SOL     OW15775   3.320   0.323   8.808 -0.2992 -0.2423  0.5668
 1381SOL    HW115776   3.258   0.299   8.739 -0.4504 -0.5295  0.8008
 1381SOL    HW215777   3.280   0.278   8.883  0.7167  1.8879  2.3613
 1382SOL     OW15778   3.007   4.298   5.200  0.6053  0.2083  0.4480
 1382SOL    HW115779   3.069   4.253   5.258  1.6570  0.8144 -0.2039
 1382SOL    HW215780   2.925   4.257   5.227 -0.4981  2.3852  0.3766
 1383SOL     OW15781   2.907   2.281   6.376  0.1129 -1.1104  0.2696
 1383SOL    HW115782   2.934   2.200   6.333 -0.5210 -0.8679 -0.5915
 1383SOL    HW215783   2.815   2.294   6.355  1.2173  2.1980 -2.6333
 1384SOL     OW15784   1.805   4.468  15.045  0.6081  0.0249 -0.4715
 1384SOL    HW115785   1.784   4.480  14.953  0.4999 -1.1828 -0.6108
 1384SOL    HW215786   1.895   4.444  15.027  1.2112  0.1784  2.2761
 1385SOL     OW15787   3.580   3.214   4.725 -0.2367  0.0746 -0.4153
 1385SOL    HW115788   3.632   3.152   4.675  0.5241 -1.7711  2.6495
 1385SOL    HW215789   3.509   3.159   4.759  0.3146 -1.2779 -1.4585
 1386SOL     OW15790   0.752   1.616  14.719 -0.8310  0.1706 -0.3676
 1386SOL    HW115791   0.758   1.672  14.642 -0.1416 -0.4389 -0.7514
 1386SOL    HW215792   0.795   1.664  14.790  1.9663 -2.0429 -0.5527
 1387SOL     OW15793   0.001   3.441   8.282  0.3710 -0.0179 -0.5344
 1387SOL    HW115794   4.695   3.355   8.301 -0.9152  0.3093 -1.7871
 1387SOL    HW215795   0.047   3.432   8.199  0.5452  1.3578 -0.5870
 1388SOL     OW15796   1.534   2.836  17.310  0.1226  0.0585 -0.0970
 1388SOL    HW115797   1.543   2.825  17.215  2.1173 -2.0715  0.3373
 1388SOL    HW215798   1.482   2.916  17.312  0.0749 -0.0222  1.7965
 1389SOL     OW15799   2.177   1.784  16.119 -0.1453  0.3484  0.4016
 1389SOL    HW115800   2.249   1.768  16.181  0.1566  0.4184  0.0671
 1389SOL    HW215801   2.223   1.767  16.037  0.2361  0.8774  0.5045
 1390SOL     OW15802   2.967   4.068   0.977 -0.6509 -0.9711 -0.0585
 1390SOL    HW115803   2.981   3.973   0.968  0.6538 -0.8202  0.4215
 1390SOL    HW215804   2.875   4.049   0.997 -0.4379 -0.3383  1.5506
 1391SOL     OW15805   2.958   4.688   9.174 -0.0804  0.2889 -0.5914
 1391SOL    HW115806   2.972   4.593   9.181  1.6117  0.6721  1.2402
 1391SOL    HW215807   3.039   4.724   9.210 -0.2072  0.0863 -0.0986
 1392SOL     OW15808   0.702   4.074   7.761  0.1772 -0.0790  0.2962
 1392SOL    HW115809   0.629   4.051   7.705 -0.0681  1.2525  0.0738
 1392SOL    HW215810   0.697   4.009   7.831 -3.0278 -0.4057 -0.2756
 1393SOL     OW15811   3.729   2.950   5.236 -0.2136  0.1332  0.5548
 1393SOL    HW115812   3.697   2.939   5.147  0.1042  1.2324  0.2988
 1393SOL    HW215813   3.801   3.013   5.226  0.8207 -1.3963 -1.6406
 1394SOL     OW15814   4.648   0.894   1.484  0.0286  0.7094  0.6463
 1394SOL    HW115815   4.606   0.835   1.546  0.3477  0.8279  0.9760
 1394SOL    HW215816   4.625   0.855   1.400 -0.0922 -1.0445  1.5001
 1395SOL     OW15817   0.858   1.576  10.766  0.1935 -0.6664 -0.2009
 1395SOL    HW115818   0.921   1.518  10.723  0.3607 -1.1129  0.6454
 1395SOL    HW215819   0.781   1.520  10.763 -0.4219  0.1115  0.8312
 1396SOL     OW15820   1.886   3.446   5.776 -0.0397 -0.4157 -0.5334
 1396SOL    HW115821   1.980   3.448   5.761  0.1916 -0.7978  0.8024
 1396SOL    HW215822   1.863   3.440   5.684  0.6137  0.7277 -0.7652
 1397SOL     OW15823   0.963   0.083   4.667 -0.0027 -0.2976 -0.1350
 1397SOL    HW115824   0.896   0.021   4.637  0.3308 -0.8596  0.2912
 1397SOL    HW215825   1.000   0.038   4.743  0.9913  0.8234  0.0466
 1398SOL     OW15826   4.547   1.734  16.259 -0.4364 -0.0958 -0.6193
 1398SOL    HW115827   4.471   1.728  16.316  1.1578  0.4313  1.5642
 1398SOL    HW215828   4.514   1.813  16.215  0.2856  0.2972 -0.4501
 1399SOL     OW15829   0.417   2.522   9.458 -0.4226 -0.2256 -0.1543
 1399SOL    HW115830   0.406   2.514   9.363 -2.9225  0.5262  0.0607
 1399SOL    HW215831   0.335   2.558   9.491 -1.0419 -2.1643  0.4073
 1400SOL     OW15832   3.691   2.537  15.666 -0.6074 -0.2197  0.1179
 1400SOL    HW115833   3.778   2.500  15.652 -1.7357 -2.3776 -1.2710
 1400SOL    HW215834   3.648   2.462  15.708  0.4447 -1.0020 -0.2121
 1401SOL     OW15835   3.492   1.360   9.791 -0.6425  0.1531 -0.3034
 1401SOL    HW115836   3.431   1.408   9.736  0.1337  1.4133 -0.0495
 1401SOL    HW215837   3.566   1.419   9.774 -0.6533 -0.2411 -1.7053
 1402SOL     OW15838   0.076   2.748   5.431 -0.1468 -0.2809  0.6467
 1402SOL    HW115839   0.168   2.762   5.455  0.4900 -1.5577 -1.0555
 1402SOL    HW215840   0.088   2.753   5.336  0.6046  1.6641  0.8480
 1403SOL     OW15841   3.861   0.091   7.014  0.5553 -0.6852 -0.2936
 1403SOL    HW115842   3.929   0.069   7.078  0.0586 -1.2129  0.0559
 1403SOL    HW215843   3.822   0.160   7.068  0.1305 -1.1760  0.0378
 1404SOL     OW15844   3.149   3.666   1.205  0.0188 -0.5891 -0.0062
 1404SOL    HW115845   3.088   3.679   1.133  0.8383 -2.2725 -1.0076
 1404SOL    HW215846   3.175   3.752   1.238 -0.2998 -0.5923  0.2489
 1405SOL     OW15847   2.903   4.030   5.256  0.4854 -0.1361  0.1759
 1405SOL    HW115848   2.843   3.962   5.225  1.5777 -0.6688 -0.7576
 1405SOL    HW215849   2.842   4.093   5.294 -1.5382 -1.7995 -0.2992
 1406SOL     OW15850   2.372   2.732  11.663 -0.2301 -0.3671  0.1045
 1406SOL    HW115851   2.442   2.720  11.599 -1.1623  0.4130 -1.0646
 1406SOL    HW215852   2.413   2.802  11.714  0.2570 -1.3499  1.0473
 1407SOL     OW15853   2.988   0.541   5.650 -0.8262  0.1066 -0.3848
 1407SOL    HW115854   2.975   0.466   5.709 -2.2250  0.7140  0.0815
 1407SOL    HW215855   2.906   0.524   5.603 -0.8117  0.3264 -0.4890
 1408SOL     OW15856   2.491   0.785  15.011 -0.2592 -0.3428  0.0102
 1408SOL    HW115857   2.494   0.877  15.039  0.2104  0.1525 -1.6409
 1408SOL    HW215858   2.579   0.752  15.025  0.6953  2.0779 -0.2675
 1409SOL     OW15859   1.487   4.309   4.489  0.6024  0.2029  0.0009
 1409SOL    HW115860   1.580   4.300   4.512  0.9175 -0.3500 -1.5211
 1409SOL    HW215861   1.480   4.399   4.520 -1.0094 -0.2194  0.8452
 1410SOL     OW15862   1.585   1.056   2.823 -0.0601  0.0997  0.1611
 1410SOL    HW115863   1.511   1.106   2.856  0.4550  0.2840  1.0260
 1410SOL    HW215864   1.588   1.072   2.729  0.5642 -2.0975 -0.1891
 1411SOL     OW15865   0.025   4.489   8.930  0.3764  0.7331  0.0588
 1411SOL    HW115866   0.060   4.543   9.001 -0.6263  2.4880 -0.7941
 1411SOL    HW215867   0.084   4.512   8.859 -1.5401  0.5120 -1.6102
 1412SOL     OW15868   0.681   3.187   5.488 -0.2074 -0.4465 -0.2301
 1412SOL    HW115869   0.601   3.159   5.532 -0.3787  0.1414 -0.1749
 1412SOL    HW215870   0.637   3.224   5.412  3.0081 -0.9110 -2.3385
 1413SOL     OW15871   0.852   4.616   6.505  0.1773  0.0165 -0.0351
 1413SOL    HW115872   0.928   4.635   6.450  0.0127  0.5851 -0.0678
 1413SOL    HW215873   0.889   4.621   6.593  1.4362 -2.6619 -0.3949
 1414SOL     OW15874   1.309   3.940   1.363 -0.2904 -0.2697 -0.4077
 1414SOL    HW115875   1.404   3.950   1.375 -0.6394  0.2736  1.8323
 1414SOL    HW215876   1.273   3.950   1.451  0.8719  1.7345 -0.1584
 1415SOL     OW15877   1.679   4.633  10.110  0.1733  0.4611 -0.2849
 1415SOL    HW115878   1.751   4.605  10.166  0.4151  2.5244  0.4227
 1415SOL    HW215879   1.644   4.706  10.160  0.4200  0.7331 -0.5099
 1416SOL     OW15880   3.300   0.118   7.828  0.0842 -0.2892 -0.1741
 1416SOL    HW115881   3.337   0.038   7.789 -1.3771 -1.5874  1.0869
 1416SOL    HW215882   3.377   0.153   7.872 -0.9372 -0.4467  1.7468
 1417SOL     OW15883   2.224   0.757   3.036 -0.3378 -0.2522 -0.0025
 1417SOL    HW115884   2.233   0.811   2.957 -1.0452 -0.6902 -0.3824
 1417SOL    HW215885   2.300   0.785   3.087  1.4951 -1.7513 -1.8659
 1418SOL     OW15886   2.528   4.322   6.483 -0.0135 -0.2310 -0.3623
 1418SOL    HW115887   2.461   4.261   6.452  0.2564 -0.2427 -0.9205
 1418SOL    HW215888   2.512   4.318   6.578 -1.3532  0.6749 -0.5612
 1419SOL     OW15889   1.678   4.656   7.029 -0.1958  0.0033 -0.5457
 1419SOL    HW115890   1.634   4.721   7.083 -3.3828 -1.8284 -0.9221
 1419SOL    HW215891   1.746   4.629   7.091  0.5827  1.1601 -0.8976
 1420SOL     OW15892   3.393   2.525  17.114  0.0634  0.0994  0.6373
 1420SOL    HW115893   3.410   2.443  17.160  2.8429  0.3025 -0.0463
 1420SOL    HW215894   3.401   2.499  17.023  0.5533  0.4167  0.5897
 1421SOL     OW15895   3.817   2.632  14.653 -0.2701  0.1256 -0.1079
 1421SOL    HW115896   3.905   2.665  14.638  0.3846 -1.8283 -0.4972
 1421SOL    HW215897   3.767   2.710  14.676 -0.6569  0.5004 -2.2506
 1422SOL     OW15898   4.710   4.393   5.950  0.6835 -0.6220 -0.0243
 1422SOL    HW115899   4.690   4.467   6.008 -1.4227 -0.6375 -0.7182
 1422SOL    HW215900   4.666   4.329   6.006  3.4819 -1.0621  1.6920
 1423SOL     OW15901   4.155   1.514  10.619  0.0132 -0.4588  0.4865
 1423SOL    HW115902   4.151   1.422  10.644 -1.9447 -1.4189 -3.4260
 1423SOL    HW215903   4.115   1.516  10.532 -0.6674  2.0202  0.8465
 1424SOL     OW15904   0.715   3.048   1.603 -0.0525 -0.5360  0.2210
 1424SOL    HW115905   0.749   3.125   1.649 -0.8208 -1.5092  2.3866
 1424SOL    HW215906   0.725   3.068   1.510 -0.2882 -2.0528 -0.1223
 1425SOL     OW15907   2.545   2.723  15.108  0.8499 -0.3800 -0.8107
 1425SOL    HW115908   2.473   2.676  15.066 -1.5306  0.8819  1.8455
 1425SOL    HW215909   2.553   2.805  15.061 -0.6884 -0.2653 -0.8653
 1426SOL     OW15910   0.605   3.901   0.795  0.1334  0.2320  0.1634
 1426SOL    HW115911   0.698   3.889   0.814  0.1875 -0.3227 -0.4198
 1426SOL    HW215912   0.596   3.853   0.712 -0.4710  2.5877 -1.1466
 1427SOL     OW15913   2.080   4.441   6.420  0.2249 -0.4411  0.4667
 1427SOL    HW115914   2.016   4.418   6.486  0.2729 -0.2715  0.5704
 1427SOL    HW215915   2.059   4.381   6.348  2.1341  1.3993 -1.6536
 1428SOL     OW15916   4.554   1.579  10.355  0.3455  0.1900 -0.6266
 1428SOL    HW115917   4.560   1.505  10.295  0.9910 -0.0664 -0.2516
 1428SOL    HW215918   4.573   1.521  10.429 -2.0628 -2.2844 -1.9715
 1429SOL     OW15919   1.645   1.460   8.983  0.2074 -0.0761 -0.1224
 1429SOL    HW115920   1.706   1.525   8.947  3.6136 -3.5459 -0.6920
 1429SOL    HW215921   1.700   1.382   8.972  1.5484  1.2793 -3.0468
 1430SOL     OW15922   4.267   0.151   3.169  0.2974  0.2314  0.2578
 1430SOL    HW115923   4.321   0.076   3.146 -0.7879  0.4143 -2.9611
 1430SOL    HW215924   4.327   0.220   3.142  0.1182  0.3227  0.0899
 1431SOL     OW15925   1.616   0.965  13.452  0.0936 -0.2548  0.5649
 1431SOL    HW115926   1.620   0.931  13.362  0.5653  1.3555 -0.0279
 1431SOL    HW215927   1.656   1.050  13.436 -2.3390  0.5324 -1.3476
 1432SOL     OW15928   3.185   4.408  12.659 -0.4560  0.4022  0.0205
 1432SOL    HW115929   3.226   4.342  12.715 -0.4442 -1.1986 -1.8855
 1432SOL    HW215930   3.266   4.444  12.622 -0.0151 -0.0375  0.5581
 1433SOL     OW15931   4.159   0.094   2.396 -0.0094 -0.6277  0.2462
 1433SOL    HW115932   4.144   0.185   2.369  3.5483 -0.6506 -1.6942
 1433SOL    HW215933   4.183   0.105   2.488  0.0107  3.3460 -0.2361
 1434SOL     OW15934   1.881   1.695  17.556 -0.2597 -0.3341  0.4834
 1434SOL    HW115935   1.815   1.641  17.598 -1.4194  0.8321  0.1464
 1434SOL    HW215936   1.857   1.699  17.463 -0.1858  1.1320  0.5239
 1435SOL     OW15937   3.155   0.833   4.925 -0.2398  0.3348 -0.2178
 1435SOL    HW115938   3.117   0.897   4.864  2.1868  0.2836 -1.7556
 1435SOL    HW215939   3.198   0.770   4.868 -1.3376  0.5888 -1.3370
 1436SOL     OW15940   4.429   1.624   5.397  0.1020  0.3507  0.2392
 1436SOL    HW115941   4.524   1.614   5.400  0.1771  1.4775  1.7339
 1436SOL    HW215942   4.404   1.614   5.489 -0.4734 -2.6045 -0.2315
 1437SOL     OW15943   4.296   2.818   2.463  0.2555  0.2599 -0.5712
 1437SOL    HW115944   4.323   2.801   2.373  1.1233 -2.7321  0.2651
 1437SOL    HW215945   4.244   2.740   2.481 -1.1100  1.2105 -0.4390
 1438SOL     OW15946   3.037   3.680   6.186 -0.2803 -0.3021  0.4159
 1438SOL    HW115947   3.060   3.760   6.234 -1.6230  1.5282 -2.0165
 1438SOL    HW215948   2.944   3.673   6.207  0.0345 -1.4953  1.4618
 1439SOL     OW15949   0.681   4.463   3.337  0.3021  0.0653 -0.7480
 1439SOL    HW115950   0.772   4.445   3.312  0.7358  1.7227 -0.3914
 1439SOL    HW215951   0.645   4.509   3.260  2.8725 -0.5167 -2.3006
 1440SOL     OW15952   4.360   3.068  12.253  0.8464 -0.2894  0.2535
 1440SOL    HW115953   4.434   3.124  12.276  1.1844 -0.1458 -1.1490
 1440SOL    HW215954   4.385   3.051  12.162 -0.4365 -0.8061 -0.0076
 1441SOL     OW15955   0.345   0.472   2.956 -0.4461  0.0159 -0.4846
 1441SOL    HW115956   0.362   0.516   3.039  0.1877  1.5336 -1.4144
 1441SOL    HW215957   0.291   0.395   2.973 -0.1147 -0.3133 -0.9219
 1442SOL     OW15958   3.999   2.293   5.999 -0.8927 -0.0278  0.3050
 1442SOL    HW115959   4.073   2.345   5.966 -1.4844  0.1262 -0.7871
 1442SOL    HW215960   4.024   2.302   6.091  0.0210  0.2087  0.0393
 1443SOL     OW15961   0.904   0.109   5.958 -0.5608 -0.0270  0.1110
 1443SOL    HW115962   0.825   0.072   5.918 -0.5260 -1.5461  1.4473
 1443SOL    HW215963   0.878   0.085   6.047  0.7112 -1.0006  0.2255
 1444SOL     OW15964   1.505   1.021  16.782  0.5951  0.3933 -0.6399
 1444SOL    HW115965   1.594   1.004  16.811 -0.3598 -1.4721  1.2275
 1444SOL    HW215966   1.526   1.060  16.697 -0.0799  1.7878 -0.1728
 1445SOL     OW15967   4.235   1.143   7.485  0.0662 -0.2507  0.0704
 1445SOL    HW115968   4.151   1.102   7.465 -0.4557  0.1024  1.5637
 1445SOL    HW215969   4.280   1.078   7.539 -4.0082 -0.4015  3.2781
 1446SOL     OW15970   3.628   3.868   5.811 -0.1264 -0.4920  0.8095
 1446SOL    HW115971   3.603   3.947   5.858  1.2109 -0.9966  2.3717
 1446SOL    HW215972   3.546   3.844   5.767 -0.5869  0.2313  1.2667
 1447SOL     OW15973   0.473   0.660   7.033 -0.0088 -0.1930 -0.5414
 1447SOL    HW115974   0.451   0.752   7.048 -0.4662 -0.5089  0.7275
 1447SOL    HW215975   0.453   0.623   7.119 -0.8744  0.1506 -0.5887
 1448SOL     OW15976   0.655   1.373   4.136 -0.1166  0.2426  0.2239
 1448SOL    HW115977   0.716   1.300   4.139 -1.2962 -0.8541 -1.7661
 1448SOL    HW215978   0.686   1.424   4.210  0.4817  1.5591 -0.9303
 1449SOL     OW15979   2.496   3.299   3.367  0.1069  0.6724  0.5886
 1449SOL    HW115980   2.562   3.332   3.306 -0.3384  0.2956 -0.0934
 1449SOL    HW215981   2.447   3.379   3.388 -0.7988  0.2450  0.0721
 1450SOL     OW15982   2.218   0.765   0.856 -0.0149 -0.6622 -0.2430
 1450SOL    HW115983   2.134   0.803   0.831 -0.2947 -0.3646  1.1523
 1450SOL    HW215984   2.284   0.833   0.839 -1.2355  0.6312  0.1993
 1451SOL     OW15985   2.284   3.605   5.503 -0.1653 -0.4198 -0.9701
 1451SOL    HW115986   2.190   3.587   5.502 -0.1542 -0.5045  1.3835
 1451SOL    HW215987   2.296   3.583   5.410  0.6442  0.6074 -1.1174
 1452SOL     OW15988   2.345   3.522   5.251  0.5804  0.0637  0.2461
 1452SOL    HW115989   2.393   3.446   5.219  1.3807 -0.2350  2.1786
 1452SOL    HW215990   2.262   3.516   5.204 -0.1831  1.4654  1.4014
 1453SOL     OW15991   0.756   4.605  11.780 -0.1687  0.5126 -0.9350
 1453SOL    HW115992   0.851   4.593  11.773 -0.0539  2.4848 -3.0397
 1453SOL    HW215993   0.735   4.613  11.873 -2.5674 -0.0730 -1.4324
 1454SOL     OW15994   2.366   2.214  16.081  0.0877  0.0129  0.2045
 1454SOL    HW115995   2.272   2.212  16.100 -0.1579 -2.7864 -1.2969
 1454SOL    HW215996   2.401   2.131  16.112  0.6643 -0.0252 -0.5359
 1455SOL     OW15997   3.540   4.686   1.812 -0.1621  0.0057  0.0956
 1455SOL    HW115998   3.505   4.728   1.891 -0.3192  0.2393 -0.0962
 1455SOL    HW215999   3.546   4.598   1.847  2.1172  0.1258 -0.0049
 1456SOL     OW16000   3.559   4.118   2.533 -0.0628  0.0396  0.3166
 1456SOL    HW116001   3.597   4.033   2.513  0.6908  0.4056  0.2094
 1456SOL    HW216002   3.518   4.099   2.618  1.4973  0.7824  1.2342
 1457SOL     OW16003   0.715   3.825   2.520 -0.6395  0.0314  0.1403
 1457SOL    HW116004   0.761   3.869   2.592 -1.0823 -3.1970  2.4126
 1457SOL    HW216005   0.672   3.889   2.465  0.7742  0.1026 -0.8696
 1458SOL     OW16006   3.057   2.195  11.714  0.2310 -0.1158 -0.1215
 1458SOL    HW116007   3.123   2.262  11.698  0.8672 -1.2930 -2.4624
 1458SOL    HW216008   2.992   2.222  11.649  1.1139 -1.9025 -1.7611
 1459SOL     OW16009   2.189   4.613   0.395 -0.3274 -0.2768  0.3996
 1459SOL    HW116010   2.152   4.601   0.482 -1.3853 -2.3421 -0.3290
 1459SOL    HW216011   2.267   4.557   0.396  1.0016  1.5478 -0.1658
 1460SOL     OW16012   1.127   4.676   9.950  0.5837 -0.3385 -0.2291
 1460SOL    HW116013   1.202   4.621   9.973 -2.0837 -3.4157  1.2243
 1460SOL    HW216014   1.179   0.015   9.914  1.6324 -1.2531 -0.5370
 1461SOL     OW16015   2.279   2.668   5.237 -0.6525  0.6699 -0.4833
 1461SOL    HW116016   2.314   2.734   5.179 -1.5455  1.4193 -0.1749
 1461SOL    HW216017   2.353   2.663   5.297 -0.4174  1.0797 -0.7401
 1462SOL     OW16018   2.608   3.979   6.413 -0.1747 -0.4699  0.2351
 1462SOL    HW116019   2.541   3.984   6.344 -0.3804  0.7736  0.5148
 1462SOL    HW216020   2.667   4.050   6.388 -0.7462 -0.5694 -1.4011
 1463SOL     OW16021   4.698   2.166   4.226  0.3402  0.4227 -0.3647
 1463SOL    HW116022   0.013   2.153   4.308 -1.7689 -2.1481  0.4674
 1463SOL    HW216023   4.621   2.218   4.251 -0.8105 -1.3279 -0.2444
 1464SOL     OW16024   0.999   0.206   9.289  0.3206  0.0917  0.7877
 1464SOL    HW116025   1.037   0.142   9.229 -1.0694  0.3909 -0.4152
 1464SOL    HW216026   0.906   0.183   9.286  0.5915 -1.0057  0.9526
 1465SOL     OW16027   3.984   1.710   4.881  0.3084 -0.1344  0.1723
 1465SOL    HW116028   4.040   1.634   4.896  1.4514  0.4108 -1.2292
 1465SOL    HW216029   3.934   1.669   4.810 -1.3264 -1.5120  2.1343
 1466SOL     OW16030   2.028   1.865   1.360 -0.2458 -1.0600 -0.1569
 1466SOL    HW116031   2.005   1.913   1.281 -1.3556 -2.4117 -0.6478
 1466SOL    HW216032   2.122   1.886   1.370 -0.4363  0.7263 -2.2002
 1467SOL     OW16033   3.496   0.991   0.063 -0.0222 -0.1907 -0.5251
 1467SOL    HW116034   3.447   0.929   0.117 -0.5312 -0.2243 -1.0273
 1467SOL    HW216035   3.580   0.974   0.107  0.1214  0.2922 -0.6136
 1468SOL     OW16036   2.227   3.052   4.871  0.1272  0.1863  0.2664
 1468SOL    HW116037   2.138   3.086   4.862 -0.0416 -1.0985 -2.8526
 1468SOL    HW216038   2.266   3.113   4.809 -0.0268 -0.9460 -0.9448
 1469SOL     OW16039   0.162   1.410  10.275 -0.3565  0.5867 -0.0151
 1469SOL    HW116040   0.085   1.386  10.326 -0.0016  0.0956  0.2990
 1469SOL    HW216041   0.203   1.326  10.252  0.5806  0.7894  0.9138
 1470SOL     OW16042   2.482   4.582  12.676 -0.1104 -0.2570  0.2089
 1470SOL    HW116043   2.564   4.603  12.722 -0.0745  2.0183 -0.8991
 1470SOL    HW216044   2.422   4.583  12.750  0.2959  0.2268  0.5365
 1471SOL     OW16045   4.086   2.612   2.828 -0.3708  0.9214 -0.5132
 1471SOL    HW116046   3.992   2.629   2.837 -0.2167  0.8333  1.3463
 1471SOL    HW216047   4.097   2.584   2.738  0.2579 -0.6611  0.0548
 1472SOL     OW16048   3.157   2.885   6.294  0.8439  0.6733  0.4596
 1472SOL    HW116049   3.250   2.862   6.299  0.1316 -1.9954  1.3602
 1472SOL    HW216050   3.133   2.871   6.202 -2.0906 -0.7008  1.4186
 1473SOL     OW16051   2.944   3.779   9.417  0.5845 -0.1812  0.6981
 1473SOL    HW116052   2.943   3.873   9.401 -0.0214 -0.4192 -0.6487
 1473SOL    HW216053   3.002   3.764   9.342 -1.7549  1.4460 -1.4198
 1474SOL     OW16054   0.520   0.667  11.640  0.2363  0.0444 -0.7418
 1474SOL    HW116055   0.549   0.758  11.644  0.0527  0.1445 -1.9171
 1474SOL    HW216056   0.436   0.668  11.688  0.8522 -1.3353  0.3649
 1475SOL     OW16057   3.499   2.981   1.559 -0.0003  0.5798 -0.5905
 1475SOL    HW116058   3.476   2.963   1.468  1.3587  1.1525 -1.0534
 1475SOL    HW216059   3.427   2.944   1.610  1.3854 -1.0007  0.2017
 1476SOL     OW16060   1.259   3.712   0.040 -0.2524  0.6511 -0.0062
 1476SOL    HW116061   1.201   3.715  17.694 -1.4250  0.3350  0.8697
 1476SOL    HW216062   1.322   3.643   0.019 -1.1094  0.1593 -0.9759
 1477SOL     OW16063   2.298   1.369   3.891 -0.0460 -0.3706  0.2013
 1477SOL    HW116064   2.268   1.290   3.846  1.2346 -1.3877  1.1587
 1477SOL    HW216065   2.216   1.417   3.908  0.9942  1.6708 -0.5315
 1478SOL     OW16066   4.700   2.531   9.868 -0.6228 -0.3164 -0.9463
 1478SOL    HW116067   4.654   2.612   9.844 -0.4613  0.4209  1.2226
 1478SOL    HW216068   4.701   2.541   9.963  0.1723  0.4149 -1.0330
 1479SOL     OW16069   0.668   1.998   7.364 -0.0507 -0.2408  0.5179
 1479SOL    HW116070   0.672   1.985   7.269  1.2668 -0.1340  0.5569
 1479SOL    HW216071   0.635   1.912   7.390 -0.3297 -0.1309  0.5255
 1480SOL     OW16072   3.808   2.545   7.205 -0.4871 -0.2694 -0.2342
 1480SOL    HW116073   3.724   2.508   7.180 -0.3884 -1.4331  1.2232
 1480SOL    HW216074   3.813   2.632   7.165 -2.2173 -0.9382 -1.8823
 1481SOL     OW16075   3.081   3.210   5.738 -0.3214  0.0902  0.4306
 1481SOL    HW116076   3.092   3.267   5.662 -0.8425 -0.9305 -0.4184
 1481SOL    HW216077   3.137   3.135   5.717 -0.7981 -0.8791  2.6482
 1482SOL     OW16078   0.409   3.328   0.882 -0.0409 -0.0484 -0.2230
 1482SOL    HW116079   0.417   3.246   0.930  1.1059  0.1423 -0.0844
 1482SOL    HW216080   0.383   3.388   0.952 -1.8131 -1.5317  0.3996
 1483SOL     OW16081   2.078   3.360   1.928  0.3748  0.1527 -0.4080
 1483SOL    HW116082   2.106   3.450   1.943 -0.9740  0.4609  0.2369
 1483SOL    HW216083   2.017   3.347   2.001 -0.0359  2.3721 -0.3668
 1484SOL     OW16084   4.594   4.214  14.720  0.3445  0.0664  0.5162
 1484SOL    HW116085   4.504   4.220  14.687  0.0447 -0.0582  1.3156
 1484SOL    HW216086   4.621   4.148  14.656  2.5031  1.6708 -0.2015
 1485SOL     OW16087   4.410   0.971   1.687  0.4648 -0.2859 -0.4294
 1485SOL    HW116088   4.464   0.892   1.687  0.1849 -0.4801 -2.4365
 1485SOL    HW216089   4.329   0.939   1.725  0.4773  0.9414  0.6133
 1486SOL     OW16090   4.333   2.142   1.368 -0.6324 -0.6708  0.6027
 1486SOL    HW116091   4.331   2.056   1.408  2.4484 -0.8435  0.4027
 1486SOL    HW216092   4.271   2.187   1.426  0.0258 -0.1778  0.9296
 1487SOL     OW16093   2.679   0.095   3.520  0.0302  0.4438  0.4130
 1487SOL    HW116094   2.694   0.181   3.482  0.2213 -0.1722 -0.9060
 1487SOL    HW216095   2.735   0.046   3.459  0.7637  1.0574  0.5971
 1488SOL     OW16096   2.517   1.238   2.969  0.1327  0.3489  0.1921
 1488SOL    HW116097   2.579   1.167   2.985  0.5025  0.7037  0.3470
 1488SOL    HW216098   2.463   1.215   2.894  0.9289  0.2075 -0.3425
 1489SOL     OW16099   4.131   4.457  14.413 -0.0058 -0.2296  0.7159
 1489SOL    HW116100   4.223   4.451  14.387 -0.0771 -1.6722  0.7703
 1489SOL    HW216101   4.107   4.541  14.374 -1.0755 -0.6635  0.4252
 1490SOL     OW16102   2.271   3.391   1.284  0.4265 -0.1159  0.7047
 1490SOL    HW116103   2.306   3.436   1.360 -0.0618 -0.0314  0.8773
 1490SOL    HW216104   2.274   3.302   1.320 -0.8057 -0.1826  0.6564
 1491SOL     OW16105   1.207   0.935   8.050  0.7424 -0.0468  0.1094
 1491SOL    HW116106   1.122   0.934   8.006  1.2553 -3.0387 -0.7582
 1491SOL    HW216107   1.194   0.901   8.138 -2.0684 -0.1635 -0.3643
 1492SOL     OW16108   3.028   4.165   6.400  0.6447  0.7462 -0.2947
 1492SOL    HW116109   3.050   4.184   6.492  0.7995 -0.8159  0.0036
 1492SOL    HW216110   2.944   4.207   6.384  1.3436  2.7974  1.3092
 1493SOL     OW16111   2.825   1.378   7.104 -0.3308 -0.2925  0.6820
 1493SOL    HW116112   2.887   1.366   7.032  2.8971  2.7276  2.9774
 1493SOL    HW216113   2.762   1.444   7.077 -0.8174 -0.5452  1.2106
 1494SOL     OW16114   1.846   0.438   8.535  0.2169 -0.0558 -0.1619
 1494SOL    HW116115   1.869   0.472   8.448  1.0928  0.2344  0.1949
 1494SOL    HW216116   1.786   0.370   8.504  0.4929 -0.6100  0.5327
 1495SOL     OW16117   0.233   4.599   8.201 -0.2031 -0.1918 -0.1703
 1495SOL    HW116118   0.194   4.513   8.181 -1.8178 -0.0086  2.1902
 1495SOL    HW216119   0.170   4.660   8.163  0.7517  1.2016  0.4777
 1496SOL     OW16120   1.447   3.189   1.918 -0.5728  0.6417  0.2291
 1496SOL    HW116121   1.534   3.221   1.893  0.5696 -0.9090  2.1747
 1496SOL    HW216122   1.471   3.133   1.993 -2.1004  0.4694  0.5905
 1497SOL     OW16123   0.873   3.003   0.474  0.7143  0.6511  0.4852
 1497SOL    HW116124   0.955   3.012   0.425 -0.0835  0.3283 -0.9258
 1497SOL    HW216125   0.904   3.050   0.551  1.7326 -2.1091  1.7342
 1498SOL     OW16126   1.837   4.551   4.886 -0.2664  0.1196  0.5434
 1498SOL    HW116127   1.777   4.600   4.831 -3.0776 -1.6483  1.9962
 1498SOL    HW216128   1.869   4.632   4.927  1.5228 -0.7316  0.8366
 1499SOL     OW16129   1.935   1.619   1.444  0.0702  0.2736 -0.2591
 1499SOL    HW116130   1.843   1.647   1.449 -0.3058 -0.9732 -0.0832
 1499SOL    HW216131   1.981   1.702   1.430 -2.5212  2.1488  2.3150
 1500SOL     OW16132   1.423   0.420   5.604  0.0605  0.6932  0.2914
 1500SOL    HW116133   1.411   0.339   5.655 -0.2089  1.1305  0.9190
 1500SOL    HW216134   1.334   0.440   5.577 -0.7362 -0.9566  1.6676
 1501SOL     OW16135   0.769   0.631   2.710  0.3211  0.3074  0.3328
 1501SOL    HW116136   0.712   0.556   2.691  0.3407  0.5671 -0.7436
 1501SOL    HW216137   0.714   0.680   2.772  0.3202 -0.0642  0.6294
 1502SOL     OW16138   2.437   4.693   3.783  0.2764 -0.0684  0.4669
 1502SOL    HW116139   2.476   0.037   3.826  2.3379 -0.5872 -0.5134
 1502SOL    HW216140   2.437   4.721   3.692  1.3743 -2.3423 -0.2182
 1503SOL     OW16141   4.515   4.387   8.094  0.1938 -0.0245  0.1551
 1503SOL    HW116142   4.421   4.389   8.112  0.2020 -0.3802  0.2433
 1503SOL    HW216143   4.518   4.394   7.998  0.4107 -0.6262  0.1185
 1504SOL     OW16144   3.701   1.807   8.508 -0.2883 -0.4211  0.4376
 1504SOL    HW116145   3.677   1.870   8.440  0.9975 -1.9534 -1.4516
 1504SOL    HW216146   3.777   1.851   8.545 -0.5408  1.0064 -0.7187
 1505SOL     OW16147   0.440   0.548   8.932  0.8958 -0.2743 -0.8950
 1505SOL    HW116148   0.392   0.503   9.002 -1.6765  0.1802 -2.3641
 1505SOL    HW216149   0.411   0.491   8.861  1.9599 -1.0358 -0.7152
 1506SOL     OW16150   0.371   4.295   3.981 -0.2528  0.1478 -0.2045
 1506SOL    HW116151   0.447   4.305   3.924  1.4193 -1.8166  1.6844
 1506SOL    HW216152   0.331   4.378   3.957 -0.1692 -0.7042 -3.2787
 1507SOL     OW16153   1.616   1.289   3.539 -0.5244 -0.0887 -0.2558
 1507SOL    HW116154   1.534   1.331   3.568 -1.4246 -0.7832 -1.8366
 1507SOL    HW216155   1.648   1.361   3.485 -0.8634  1.2280  1.2851
 1508SOL     OW16156   4.219   3.224  14.989 -0.6171  1.0844 -0.5084
 1508SOL    HW116157   4.152   3.292  14.990 -1.8164 -0.1303  1.1523
 1508SOL    HW216158   4.302   3.270  14.974 -0.2632  1.0888  1.5099
 1509SOL     OW16159   0.478   0.186   1.343 -0.0244  0.0279 -0.4418
 1509SOL    HW116160   0.504   0.249   1.276  0.7194  0.6379  0.4080
 1509SOL    HW216161   0.493   0.107   1.292  1.9352  0.0154  0.1633
 1510SOL     OW16162   1.419   2.787   7.792  0.5488 -0.1241  0.2898
 1510SOL    HW116163   1.376   2.812   7.874 -1.3756  1.4711 -1.2228
 1510SOL    HW216164   1.427   2.878   7.762  1.1058  0.5827  2.5514
 1511SOL     OW16165   1.150   4.121   1.502 -0.3131 -0.0212 -0.1585
 1511SOL    HW116166   1.104   4.200   1.532 -2.7782 -1.3659 -0.4454
 1511SOL    HW216167   1.157   4.072   1.584  2.5241 -3.2658 -2.3760
 1512SOL     OW16168   3.989   0.699  14.212 -0.4580  0.6620  0.4329
 1512SOL    HW116169   4.015   0.714  14.303 -0.2111 -0.3903  0.5364
 1512SOL    HW216170   3.898   0.727  14.221 -1.0794 -1.2039  0.0119
 1513SOL     OW16171   3.453   4.185   5.412 -0.0055  0.0688 -0.4205
 1513SOL    HW116172   3.368   4.193   5.370 -1.0080 -1.7390  1.2901
 1513SOL    HW216173   3.474   4.100   5.372  1.3394 -0.2078  0.8662
 1514SOL     OW16174   4.079   2.335   7.813  0.0752 -0.2628 -0.4459
 1514SOL    HW116175   4.146   2.401   7.833  1.4869 -2.0200  0.6158
 1514SOL    HW216176   4.055   2.306   7.901 -2.2900  0.6884 -0.7917
 1515SOL     OW16177   1.209   0.664   6.251  0.2899  0.6892  0.0944
 1515SOL    HW116178   1.290   0.613   6.242 -0.5696 -0.3260 -1.8871
 1515SOL    HW216179   1.205   0.698   6.162 -0.8772  0.7272  0.1553
 1516SOL     OW16180   3.214   4.418   0.069 -0.1497 -0.3553  0.3539
 1516SOL    HW116181   3.147   4.475   0.030  2.1455  1.2730 -1.1993
 1516SOL    HW216182   3.249   4.474   0.139  1.8897  1.3909 -2.0890
 1517SOL     OW16183   4.212   0.252   6.864 -0.3109 -0.1329 -0.4679
 1517SOL    HW116184   4.176   0.336   6.894 -2.1593 -2.1016  2.7298
 1517SOL    HW216185   4.140   0.191   6.877 -2.6409  2.2764 -2.2463
 1518SOL     OW16186   1.849   2.325  15.209 -0.2138 -0.1502  0.0481
 1518SOL    HW116187   1.787   2.254  15.225  0.8669 -1.1406 -0.1815
 1518SOL    HW216188   1.871   2.369  15.291  1.9814 -0.0315 -0.5873
 1519SOL     OW16189   1.169   1.004   8.461 -0.1702 -0.9246 -0.1659
 1519SOL    HW116190   1.265   0.999   8.461 -0.1214  0.1683 -2.2443
 1519SOL    HW216191   1.142   0.935   8.401  1.1005 -1.1151 -0.5144
 1520SOL     OW16192   0.379   3.671   7.391  0.1234 -0.2906 -0.8055
 1520SOL    HW116193   0.384   3.631   7.478  1.1812  0.3374 -0.5851
 1520SOL    HW216194   0.308   3.619   7.352 -1.8692  1.1103  1.0042
 1521SOL     OW16195   3.100   1.934   2.980 -0.0957  0.2543 -0.0593
 1521SOL    HW116196   3.012   1.901   2.997  0.2746 -1.4490 -1.4627
 1521SOL    HW216197   3.134   1.865   2.922  0.1154  0.5325 -0.2707
 1522SOL     OW16198   0.235   2.266   0.340 -0.2729  0.3946 -0.3684
 1522SOL    HW116199   0.204   2.291   0.252  0.6017  2.0253 -0.2030
 1522SOL    HW216200   0.318   2.313   0.339 -1.6761  2.8067 -1.2991
 1523SOL     OW16201   3.643   2.050   6.404  0.3566 -0.0196  0.0799
 1523SOL    HW116202   3.654   1.999   6.485 -1.7625 -0.0980  0.3369
 1523SOL    HW216203   3.567   2.102   6.431 -0.3042 -2.7224  3.5622
 1524SOL     OW16204   4.082   2.514   8.709  0.5903  0.0748 -0.2583
 1524SOL    HW116205   4.040   2.431   8.736  1.0398 -0.1111 -0.1367
 1524SOL    HW216206   4.048   2.526   8.621 -1.2872  0.7954  0.5546
 1525SOL     OW16207   1.643   4.387   7.244 -0.0684 -0.1656  0.2437
 1525SOL    HW116208   1.688   4.371   7.327  4.1926 -1.2139 -2.2628
 1525SOL    HW216209   1.685   4.314   7.199 -1.4904  0.1503 -1.6167
 1526SOL     OW16210   2.733   1.878   5.739 -0.4325  0.1769  0.9841
 1526SOL    HW116211   2.818   1.899   5.700 -0.0813  0.5546  1.9577
 1526SOL    HW216212   2.679   1.950   5.706 -0.6884  0.0302  1.0884
 1527SOL     OW16213   0.777   0.403  12.042  0.4090  0.2381 -0.2232
 1527SOL    HW116214   0.779   0.317  12.083  1.8937 -0.2787 -1.3951
 1527SOL    HW216215   0.683   0.421  12.033  0.6318  1.4073 -0.2592
 1528SOL     OW16216   2.631   2.288   8.889  0.8375 -0.5053  0.8543
 1528SOL    HW116217   2.611   2.224   8.958 -1.0851 -2.3848 -1.4331
 1528SOL    HW216218   2.711   2.243   8.864  0.6445  0.6067 -1.7752
 1529SOL     OW16219   1.653   3.191   5.970 -0.4938  0.1575  0.5697
 1529SOL    HW116220   1.666   3.176   6.063  1.4065 -1.0255  0.1095
 1529SOL    HW216221   1.673   3.283   5.955 -4.1255  1.0216  1.0999
 1530SOL     OW16222   2.529   0.288   4.329 -0.2408  0.3408 -0.3921
 1530SOL    HW116223   2.457   0.314   4.272 -0.7992  0.6546  0.4691
 1530SOL    HW216224   2.605   0.321   4.281 -0.9243  0.9190 -1.0888
 1531SOL     OW16225   0.937   1.854   6.443  0.3715  0.2858 -0.1303
 1531SOL    HW116226   1.007   1.790   6.429 -1.2506 -1.6753  0.7140
 1531SOL    HW216227   0.872   1.800   6.399 -0.1511  0.2380  0.6983
 1532SOL     OW16228   3.405   3.866   5.631  0.3511 -0.2162 -0.0433
 1532SOL    HW116229   3.422   3.961   5.626 -1.5492  0.3336  3.9641
 1532SOL    HW216230   3.359   3.871   5.547  2.3034  1.2914 -1.0350
 1533SOL     OW16231   0.957   0.580   3.586  0.2454 -0.4329 -0.4855
 1533SOL    HW116232   1.012   0.626   3.522  2.4737 -2.4076  0.0131
 1533SOL    HW216233   0.963   0.629   3.668 -1.7890 -1.3320  0.1911
 1534SOL     OW16234   4.657   4.127  16.373  0.3239 -0.3040 -0.6948
 1534SOL    HW116235   4.679   4.180  16.450 -2.0321  0.6190 -0.6561
 1534SOL    HW216236   4.673   4.038  16.403 -1.5093 -0.1494  0.7637
 1535SOL     OW16237   0.649   2.614  11.377 -0.6351 -0.1562 -0.3853
 1535SOL    HW116238   0.649   2.638  11.285  0.5272 -0.6394 -0.5197
 1535SOL    HW216239   0.737   2.577  11.389  0.0911  1.5111 -0.5979
 1536SOL     OW16240   0.816   3.383   3.095  0.2830  0.3364  0.3872
 1536SOL    HW116241   0.771   3.319   3.039 -1.0530  2.1529 -0.6010
 1536SOL    HW216242   0.890   3.330   3.124  0.8644  0.0224 -1.6690
 1537SOL     OW16243   1.187   3.050  16.745  0.1290 -0.6618 -0.1834
 1537SOL    HW116244   1.263   3.085  16.792 -1.2571  1.4381  0.4803
 1537SOL    HW216245   1.211   2.958  16.730 -1.4227 -0.8616 -1.4387
 1538SOL     OW16246   2.224   4.707   7.939 -0.1910  0.2327  0.0003
 1538SOL    HW116247   2.159   4.728   7.872  0.0466 -1.8473 -0.9035
 1538SOL    HW216248   2.297   0.034   7.924  2.4231 -2.1949  3.0036
 1539SOL     OW16249   1.592   0.803   7.792  0.1136 -0.4844 -0.0626
 1539SOL    HW116250   1.681   0.808   7.827 -0.1825  0.2848  0.5824
 1539SOL    HW216251   1.556   0.891   7.787 -1.0737 -0.8986  0.9749
 1540SOL     OW16252   0.705   4.324   5.129  0.3096  0.7510 -0.0301
 1540SOL    HW116253   0.759   4.286   5.198  0.7826  0.7287 -0.4121
 1540SOL    HW216254   0.655   4.245   5.108 -1.2687  1.1623  2.2543
 1541SOL     OW16255   0.948   3.192   7.205  0.4026  0.3204  0.5930
 1541SOL    HW116256   0.966   3.102   7.233  0.3711  0.3997  0.8658
 1541SOL    HW216257   1.036   3.228   7.198 -0.1037  1.4309 -0.0770
 1542SOL     OW16258   1.885   2.567  11.937  0.2199  0.5452 -0.1687
 1542SOL    HW116259   1.975   2.539  11.952 -0.2175  0.1272  1.6423
 1542SOL    HW216260   1.840   2.483  11.924  0.0817  0.2083  2.5960
 1543SOL     OW16261   2.700   3.418   6.738 -0.2902 -0.1960 -0.2542
 1543SOL    HW116262   2.767   3.349   6.730  0.5628  0.4741  0.9999
 1543SOL    HW216263   2.750   3.493   6.706 -0.6157 -0.3483 -1.0952
 1544SOL     OW16264   0.868   0.779   0.979 -0.6950 -0.3500  0.5908
 1544SOL    HW116265   0.869   0.685   0.963 -2.3643 -0.5715  1.8156
 1544SOL    HW216266   0.955   0.793   1.017 -1.1419 -0.7023  1.7265
 1545SOL     OW16267   4.258   1.458   4.104 -0.5987  0.1282  0.1759
 1545SOL    HW116268   4.316   1.460   4.028  1.0922  1.3733  1.4697
 1545SOL    HW216269   4.312   1.416   4.171 -0.3168  1.0699  0.5456
 1546SOL     OW16270   2.955   2.863   6.704 -0.4463 -0.0435 -0.1140
 1546SOL    HW116271   2.964   2.810   6.625  1.1798  0.4760 -0.2820
 1546SOL    HW216272   2.920   2.804   6.770  1.3080 -1.1462 -0.1783
 1547SOL     OW16273   4.437   1.758   7.303 -0.1188  0.0376 -0.3581
 1547SOL    HW116274   4.525   1.767   7.266  0.8555 -0.6632  1.8036
 1547SOL    HW216275   4.383   1.757   7.224  0.3494 -1.9720 -0.6562
 1548SOL     OW16276   0.801   0.287   9.047 -0.2856  0.2325 -0.1225
 1548SOL    HW116277   0.764   0.277   8.959  0.4045 -1.8983 -0.1709
 1548SOL    HW216278   0.757   0.218   9.097  2.5218  1.4692  4.0787
 1549SOL     OW16279   0.989   3.274  11.649  0.4777 -0.2398  0.0098
 1549SOL    HW116280   1.057   3.252  11.584  0.2236  0.0090 -0.3372
 1549SOL    HW216281   0.951   3.186  11.650 -1.1609  0.5056  2.4592
 1550SOL     OW16282   4.338   0.422  15.954  0.1247  0.0941 -0.2505
 1550SOL    HW116283   4.273   0.463  15.896 -1.2606 -0.2044  1.0950
 1550SOL    HW216284   4.283   0.389  16.026  0.4650  1.6754  0.7264
 1551SOL     OW16285   1.133   4.646   1.893 -0.2600 -0.1857  0.1321
 1551SOL    HW116286   1.062   4.621   1.952  0.1621 -1.5689  0.0514
 1551SOL    HW216287   1.134   0.009   1.900  0.2843 -0.2118  0.3868
 1552SOL     OW16288   3.858   0.277  17.239 -0.3502 -0.0788 -0.1286
 1552SOL    HW116289   3.825   0.365  17.222  0.2500 -0.3024 -2.5004
 1552SOL    HW216290   3.820   0.259  17.324 -3.2498  1.1948 -1.1735
 1553SOL     OW16291   2.154   0.516   3.749  0.5145  0.1063 -0.6054
 1553SOL    HW116292   2.228   0.469   3.711  0.1707  0.6584 -1.9731
 1553SOL    HW216293   2.079   0.466   3.716  1.2213 -1.3262 -0.0454
 1554SOL     OW16294   1.909   3.788   4.341  0.9316  0.5152 -0.2306
 1554SOL    HW116295   1.892   3.867   4.393  0.1384  0.1715  0.0326
 1554SOL    HW216296   1.923   3.815   4.250 -2.0448 -0.5346 -0.9989
 1555SOL     OW16297   2.901   2.890  15.658  0.7775 -0.0745 -0.0796
 1555SOL    HW116298   2.919   2.799  15.681  0.4427  0.0626  0.7178
 1555SOL    HW216299   2.813   2.886  15.619  0.4832 -0.4614  0.6263
 1556SOL     OW16300   0.167   3.672   8.586 -0.6336 -0.6720 -0.2270
 1556SOL    HW116301   0.097   3.607   8.591 -0.4635 -0.8554 -0.2265
 1556SOL    HW216302   0.111   3.745   8.562 -0.0909 -0.1478  0.0891
 1557SOL     OW16303   2.484   0.737  16.087 -0.4831  0.7886 -0.3571
 1557SOL    HW116304   2.469   0.815  16.140 -0.1132  1.0943 -0.6986
 1557SOL    HW216305   2.509   0.681  16.160 -2.0405  1.9851  1.0759
 1558SOL     OW16306   4.304   1.068  12.955  0.4769 -0.0996  0.5210
 1558SOL    HW116307   4.282   0.986  13.000  0.8504 -1.8998 -2.5733
 1558SOL    HW216308   4.396   1.045  12.938  0.6145  2.5089 -2.0891
 1559SOL     OW16309   1.838   3.117   3.709 -0.2308 -0.2038  0.1204
 1559SOL    HW116310   1.920   3.116   3.660 -0.0924 -1.4019  0.3520
 1559SOL    HW216311   1.839   3.026   3.740 -1.0150  0.5219  2.3095
 1560SOL     OW16312   2.510   4.167   5.543  0.1682  0.4788  0.8714
 1560SOL    HW116313   2.516   4.092   5.602 -0.2767 -1.0046 -0.9922
 1560SOL    HW216314   2.422   4.156   5.505  0.8486 -1.9837  0.0215
 1561SOL     OW16315   3.719   2.661  14.974  0.3320 -0.2855 -0.1027
 1561SOL    HW116316   3.684   2.686  15.060  1.0119  0.2155  0.0294
 1561SOL    HW216317   3.791   2.723  14.971  0.9028 -0.9484 -0.1010
 1562SOL     OW16318   2.125   0.510   5.701 -0.2428  0.0292  0.2562
 1562SOL    HW116319   2.101   0.431   5.749  0.3047  1.8003  3.4460
 1562SOL    HW216320   2.219   0.511   5.716  0.0009  0.1223 -1.3686
 1563SOL     OW16321   2.038   3.490   3.974  0.4266 -0.4302  0.5246
 1563SOL    HW116322   2.012   3.430   3.904 -2.1268 -0.1163  1.1956
 1563SOL    HW216323   2.021   3.437   4.052 -0.5369 -0.8662  0.0187
 1564SOL     OW16324   1.948   3.882  11.743 -0.1907 -0.3915  0.7308
 1564SOL    HW116325   1.910   3.804  11.704  1.9889 -0.3551 -1.5284
 1564SOL    HW216326   1.891   3.904  11.816 -0.2998 -0.8778  0.7878
 1565SOL     OW16327   4.047   3.545  15.888  0.0610 -0.2847  0.2176
 1565SOL    HW116328   4.001   3.580  15.812  2.0301 -0.1937 -0.9340
 1565SOL    HW216329   3.970   3.540  15.945 -0.1044  0.0787  0.0231
 1566SOL     OW16330   2.602   3.263   7.001  0.1712 -0.3460  0.1802
 1566SOL    HW116331   2.639   3.235   7.085 -0.8511  2.1138  1.4637
 1566SOL    HW216332   2.676   3.290   6.948  0.3937  0.4983  0.9232
 1567SOL     OW16333   2.931   1.321   7.669 -0.0114  0.3621 -0.3849
 1567SOL    HW116334   3.023   1.339   7.692  0.3264  0.0949 -1.5445
 1567SOL    HW216335   2.930   1.228   7.649 -0.3058  0.1565  0.6119
 1568SOL     OW16336   2.413   4.484   2.302 -0.3067  0.2396 -0.4966
 1568SOL    HW116337   2.328   4.504   2.264 -0.3434 -1.2604 -1.2012
 1568SOL    HW216338   2.459   4.567   2.309 -2.8026  1.5465  0.2179
 1569SOL     OW16339   3.652   0.589   9.128  0.2449  0.3454  0.6336
 1569SOL    HW116340   3.711   0.637   9.187 -2.0062  0.1943  2.9727
 1569SOL    HW216341   3.658   0.498   9.155  1.9145  0.5755  1.0548
 1570SOL     OW16342   2.086   2.719  13.614 -0.0490 -0.5874  0.4427
 1570SOL    HW116343   2.107   2.810  13.593 -0.2309 -0.5589  0.3865
 1570SOL    HW216344   2.170   2.679  13.590 -0.7439 -0.3607 -2.2712
 1571SOL     OW16345   1.123   4.424   8.398 -0.4066  0.2522 -0.8428
 1571SOL    HW116346   1.178   4.349   8.374  2.6428  1.3473  2.7536
 1571SOL    HW216347   1.173   4.451   8.475 -1.7689  0.7211 -0.1243
 1572SOL     OW16348   2.407   3.017   3.793  0.1583  0.3921  0.3152
 1572SOL    HW116349   2.395   3.060   3.709 -0.1808  0.3733  0.3509
 1572SOL    HW216350   2.404   3.076   3.869 -2.1434  2.0167 -1.0299
 1573SOL     OW16351   4.710   1.550   7.827 -0.3836 -0.0139  0.3575
 1573SOL    HW116352   0.059   1.579   7.869 -0.8308 -0.4012  1.4854
 1573SOL    HW216353   4.641   1.586   7.882 -0.2141 -1.6052  1.5999
 1574SOL     OW16354   3.981   1.700  13.023 -0.8348 -0.1664 -0.2844
 1574SOL    HW116355   3.984   1.618  12.974 -1.3810 -0.3382 -0.0212
 1574SOL    HW216356   4.059   1.689  13.077 -0.2162 -1.3881 -1.4228
 1575SOL     OW16357   3.939   4.254  12.213  0.0060 -0.5179 -0.0967
 1575SOL    HW116358   3.986   4.193  12.269  0.6133 -0.6009 -0.6978
 1575SOL    HW216359   3.943   4.203  12.133 -1.7505  0.2870 -0.7012
 1576SOL     OW16360   4.398   2.151   7.264 -0.2992 -0.0146  0.0716
 1576SOL    HW116361   4.338   2.225   7.260  0.7302  0.7431 -1.8289
 1576SOL    HW216362   4.347   2.083   7.220  0.2512 -0.4882  0.1585
 1577SOL     OW16363   0.547   2.074   6.237 -0.3417 -0.2377 -0.7077
 1577SOL    HW116364   0.594   2.014   6.179  0.2566 -0.2817 -0.1820
 1577SOL    HW216365   0.592   2.052   6.319  0.2240 -0.0696 -0.9776
 1578SOL     OW16366   2.244   2.867   5.605 -0.0716 -0.0471  0.3837
 1578SOL    HW116367   2.211   2.933   5.545 -1.1232 -0.6452  0.3162
 1578SOL    HW216368   2.279   2.801   5.545  0.3344 -0.5748  1.1980
 1579SOL     OW16369   1.613   3.848   0.742 -0.6785 -0.2036  0.1614
 1579SOL    HW116370   1.665   3.923   0.770  0.1622 -0.4371 -0.7900
 1579SOL    HW216371   1.647   3.836   0.653  0.3027  1.7858  0.2694
 1580SOL     OW16372   0.620   4.415   8.280 -0.2591  0.4284  0.0024
 1580SOL    HW116373   0.630   4.356   8.354 -0.4277 -1.9479 -1.8582
 1580SOL    HW216374   0.612   4.499   8.325 -1.1411 -0.4351  1.4457
 1581SOL     OW16375   4.626   0.943   9.035 -0.0024 -0.2300  0.0417
 1581SOL    HW116376   4.682   0.993   9.094  1.6134 -0.4544 -1.2727
 1581SOL    HW216377   4.575   1.016   9.000  0.2801  0.0724  0.2614
 1582SOL     OW16378   2.641   0.718  10.661  0.2281  0.2621 -0.1866
 1582SOL    HW116379   2.570   0.781  10.673  1.4016  1.3392  1.1845
 1582SOL    HW216380   2.689   0.716  10.744 -1.0730  2.0866  0.6090
 1583SOL     OW16381   0.719   3.166   0.736 -0.6180  0.0577  0.4168
 1583SOL    HW116382   0.672   3.249   0.742 -1.3669 -0.3588  0.1997
 1583SOL    HW216383   0.701   3.154   0.642 -0.0797 -1.3441  0.4957
 1584SOL     OW16384   1.205   0.013   8.791 -0.1764 -0.3731 -0.0173
 1584SOL    HW116385   1.212   4.718   8.700 -1.1314 -1.1889  0.1526
 1584SOL    HW216386   1.222   4.662   8.834 -1.2889  0.8707  2.8601
 1585SOL     OW16387   0.910   3.950  14.847 -0.5435  0.3829 -0.6230
 1585SOL    HW116388   0.905   3.923  14.939  1.6217 -1.8558 -1.1346
 1585SOL    HW216389   0.823   3.976  14.818 -1.7223 -2.5827  0.2190
 1586SOL     OW16390   3.161   1.332   8.685 -0.1285  0.0104  0.1168
 1586SOL    HW116391   3.221   1.367   8.618 -0.5851  1.3443  0.3966
 1586SOL    HW216392   3.082   1.315   8.634  1.4896  1.2386 -2.8378
 1587SOL     OW16393   2.685   2.953  17.717  0.5588 -0.2841  0.0372
 1587SOL    HW116394   2.603   2.991  17.685 -0.6437 -1.4741  1.7609
 1587SOL    HW216395   2.709   2.897  17.643  0.5378 -2.2684  1.5548
 1588SOL     OW16396   3.783   0.487   6.043  0.0313  0.2634  0.6112
 1588SOL    HW116397   3.693   0.494   6.075  0.7806  0.3688  2.6751
 1588SOL    HW216398   3.792   0.576   6.007 -0.4439  0.1405  0.1982
 1589SOL     OW16399   2.110   0.884   3.964 -0.1470  0.2507 -0.4213
 1589SOL    HW116400   2.033   0.838   3.996  0.5682 -1.1453 -0.7206
 1589SOL    HW216401   2.085   0.976   3.965  1.2982  0.6202  1.1322
 1590SOL     OW16402   2.039   3.667   2.766  0.1516 -0.3555 -0.8753
 1590SOL    HW116403   2.105   3.611   2.808  0.7567  0.6913 -0.4220
 1590SOL    HW216404   1.958   3.617   2.779 -0.5859  0.1631 -3.4042
 1591SOL     OW16405   0.580   0.105   7.526 -0.4268 -0.4062 -0.2662
 1591SOL    HW116406   0.621   0.172   7.581  0.9567 -0.3586 -1.3397
 1591SOL    HW216407   0.498   0.100   7.575  1.1151 -0.4194  2.3116
 1592SOL     OW16408   3.458   3.511   7.342 -0.2803  0.0428 -0.3257
 1592SOL    HW116409   3.468   3.455   7.419  0.1353  0.1599 -0.2918
 1592SOL    HW216410   3.375   3.549   7.369 -0.1721  0.3962 -0.4891
 1593SOL     OW16411   1.108   3.889   8.036  0.9209  0.5191 -0.3410
 1593SOL    HW116412   1.186   3.940   8.057 -1.0880  2.6439  1.9340
 1593SOL    HW216413   1.148   3.832   7.970  0.2816  0.3323 -0.5660
 1594SOL     OW16414   2.292   2.039  11.562  0.4063 -0.2700 -0.0105
 1594SOL    HW116415   2.248   2.048  11.478 -0.1361 -0.9565  0.1978
 1594SOL    HW216416   2.361   2.105  11.556  0.9460 -0.8159  0.1626
 1595SOL     OW16417   3.631   1.052  16.150 -0.2273 -0.0023  0.2118
 1595SOL    HW116418   3.668   0.970  16.116 -1.2229 -0.1235 -0.5685
 1595SOL    HW216419   3.714   1.099  16.154  0.4842 -1.2405  0.0480
 1596SOL     OW16420   2.241   1.295  12.748 -0.6103  0.2076  0.1242
 1596SOL    HW116421   2.272   1.352  12.678  1.9602 -1.3757 -0.0415
 1596SOL    HW216422   2.245   1.208  12.709 -1.2238  1.6898 -3.3120
 1597SOL     OW16423   3.592   1.145   4.210 -0.0650 -0.2574 -0.0288
 1597SOL    HW116424   3.657   1.176   4.147 -0.8169  2.2367  0.4098
 1597SOL    HW216425   3.510   1.163   4.164 -1.4637 -3.5023  1.2217
 1598SOL     OW16426   3.749   0.766   6.829  0.4623  0.4253 -0.3616
 1598SOL    HW116427   3.734   0.714   6.908 -0.6058  0.7085 -0.3809
 1598SOL    HW216428   3.658   0.773   6.802  0.2915  3.3356  0.9433
 1599SOL     OW16429   1.570   2.233  15.926  0.0531  0.3145  0.1391
 1599SOL    HW116430   1.491   2.274  15.891 -0.0563  0.5040  0.6088
 1599SOL    HW216431   1.580   2.158  15.868  1.1803 -0.2265  1.0432
 1600SOL     OW16432   1.557   1.098   7.276 -0.2263 -0.0166 -0.2260
 1600SOL    HW116433   1.483   1.041   7.297  0.3083 -1.1108 -1.2793
 1600SOL    HW216434   1.542   1.166   7.341 -0.8081  0.3557 -0.7523
 1601SOL     OW16435   1.619   2.043   8.907  0.2895  0.0476 -0.2226
 1601SOL    HW116436   1.629   1.948   8.913  4.0317  0.4383  0.3291
 1601SOL    HW216437   1.626   2.055   8.813  0.9628  0.7939 -0.0869
 1602SOL     OW16438   3.181   3.226  12.305 -0.0708 -0.4390  0.3529
 1602SOL    HW116439   3.196   3.320  12.300  0.2313 -0.4726  0.5623
 1602SOL    HW216440   3.250   3.201  12.367  0.2272 -0.5064 -0.0020
 1603SOL     OW16441   3.683   0.953   9.443  0.5193  0.0459  0.0205
 1603SOL    HW116442   3.754   0.984   9.499  0.9861 -1.1329  0.0926
 1603SOL    HW216443   3.625   1.027   9.460 -0.0111 -0.2779 -0.3996
 1604SOL     OW16444   3.129   3.751   1.793  0.1733 -0.3060 -0.4020
 1604SOL    HW116445   3.095   3.765   1.705  2.6194  0.0188 -1.2924
 1604SOL    HW216446   3.055   3.783   1.846 -0.3048 -1.1335 -0.5782
 1605SOL     OW16447   3.961   3.073   4.300  0.4808  0.7836 -0.0427
 1605SOL    HW116448   3.916   3.028   4.228  0.8990 -2.0486  1.4782
 1605SOL    HW216449   3.962   3.164   4.270  2.7713  0.5513 -0.6529
 1606SOL     OW16450   2.515   1.216   5.752 -0.5529  0.0015 -0.0585
 1606SOL    HW116451   2.517   1.135   5.701 -2.0797  0.6456 -1.1480
 1606SOL    HW216452   2.579   1.268   5.701 -0.0109 -2.4140 -1.8541
 1607SOL     OW16453   4.675   0.545   6.383 -0.8449  0.0226  0.2155
 1607SOL    HW116454   4.602   0.488   6.406 -2.7422  1.3457 -2.5230
 1607SOL    HW216455   4.634   0.631   6.390 -1.6252 -0.4222  1.1532
 1608SOL     OW16456   3.330   3.990   4.319  0.0508  0.1370  0.7945
 1608SOL    HW116457   3.384   3.969   4.395  1.2115 -2.5876 -0.7893
 1608SOL    HW216458   3.243   4.016   4.349 -0.8507  0.8655 -2.4357
 1609SOL     OW16459   1.699   4.267   6.260 -0.4709  0.3600  0.3650
 1609SOL    HW116460   1.676   4.358   6.242 -0.8852  0.7302  2.7832
 1609SOL    HW216461   1.622   4.226   6.220  0.3086 -1.6823  0.9302
 1610SOL     OW16462   1.339   1.080  11.301  0.0317 -0.1098 -0.4114
 1610SOL    HW116463   1.248   1.051  11.301 -0.0968  0.3097  1.0621
 1610SOL    HW216464   1.379   1.016  11.361 -0.6596 -2.0674 -2.0429
 1611SOL     OW16465   2.125   2.575  15.061 -0.1203  0.1551 -0.1791
 1611SOL    HW116466   2.211   2.617  15.064 -1.5055  2.9813  0.8073
 1611SOL    HW216467   2.118   2.551  14.969  1.5152 -3.2474  0.5823
 1612SOL     OW16468   0.606   4.651   9.027 -0.1666 -0.0430 -0.1931
 1612SOL    HW116469   0.559   4.678   8.948  1.8598 -1.2886 -1.8262
 1612SOL    HW216470   0.558   4.570   9.044 -2.7340  1.6900  0.8418
 1613SOL     OW16471   0.246   2.446   2.362  0.5070 -0.3031 -0.0123
 1613SOL    HW116472   0.253   2.433   2.457 -0.0088  1.5041  0.2694
 1613SOL    HW216473   0.152   2.461   2.350  0.1954 -1.7709  0.6158
 1614SOL     OW16474   3.476   3.221  10.326 -0.0662  0.1094  0.0051
 1614SOL    HW116475   3.507   3.186  10.409 -1.0845 -1.4971 -0.3079
 1614SOL    HW216476   3.416   3.151  10.302  0.3055  0.0488 -0.7649
 1615SOL     OW16477   1.288   2.063   3.647 -0.2846  0.2870  0.3234
 1615SOL    HW116478   1.322   2.108   3.724  2.4887 -1.7351  0.2748
 1615SOL    HW216479   1.267   1.976   3.682  2.0448 -0.7675 -0.8805
 1616SOL     OW16480   3.292   2.288   5.522 -0.5684 -0.1459 -0.2071
 1616SOL    HW116481   3.383   2.275   5.550 -0.3860 -0.3789 -0.9070
 1616SOL    HW216482   3.307   2.294   5.427 -0.8035  2.3498 -0.0764
 1617SOL     OW16483   1.775   1.232  15.893 -0.2681  0.1162 -0.1387
 1617SOL    HW116484   1.702   1.182  15.930 -0.5778  1.3888  0.9735
 1617SOL    HW216485   1.792   1.303  15.955 -1.2167 -0.9746  1.3657
 1618SOL     OW16486   3.867   0.278   3.466 -0.5971  0.2350  0.4272
 1618SOL    HW116487   3.895   0.311   3.552 -2.0012 -1.1911  1.4193
 1618SOL    HW216488   3.936   0.211   3.464  0.6462  1.4914  1.0644
 1619SOL     OW16489   1.931   0.987  15.972 -0.6369 -0.3525  0.5551
 1619SOL    HW116490   2.020   0.975  15.938 -1.1294 -0.9824 -0.5219
 1619SOL    HW216491   1.931   1.081  15.953 -0.6272 -0.8282 -1.8697
 1620SOL     OW16492   2.252   3.140  12.223  0.7266  0.2523  0.2030
 1620SOL    HW116493   2.205   3.060  12.199 -1.8617  2.2631 -1.3058
 1620SOL    HW216494   2.218   3.176  12.305  3.1943 -1.2226  1.8798
 1621SOL     OW16495   3.556   1.644  14.584 -0.1723  0.5042 -0.3382
 1621SOL    HW116496   3.482   1.668  14.528 -0.1874  0.8246 -0.1847
 1621SOL    HW216497   3.554   1.719  14.644 -1.5053 -0.1345  0.4126
 1622SOL     OW16498   4.076   4.156   2.693 -0.0733  0.4243  0.5557
 1622SOL    HW116499   4.153   4.098   2.690  1.4170  2.3953  0.3856
 1622SOL    HW216500   4.072   4.194   2.605  0.5624 -0.0893  0.3026
 1623SOL     OW16501   3.932   2.861   6.206 -0.2539  0.2758 -0.0990
 1623SOL    HW116502   3.949   2.893   6.295 -1.2341 -1.7688  0.8093
 1623SOL    HW216503   3.849   2.822   6.233  0.5293  0.4857  2.6312
 1624SOL     OW16504   1.312   3.438   5.851  0.0827 -0.1972  0.3161
 1624SOL    HW116505   1.359   3.424   5.769  2.5402  0.4646  1.5980
 1624SOL    HW216506   1.379   3.404   5.912  0.0411 -1.7823 -0.5181
 1625SOL     OW16507   4.506   4.435   7.816 -0.0535 -0.0509  0.3497
 1625SOL    HW116508   4.454   4.514   7.832  1.2538  0.9686 -0.3853
 1625SOL    HW216509   4.581   4.472   7.770 -0.4599 -0.7984 -0.9044
 1626SOL     OW16510   1.989   2.813  17.653  0.3869  0.3260 -0.4567
 1626SOL    HW116511   1.925   2.822  17.724  0.1429 -1.8707 -0.4058
 1626SOL    HW216512   2.046   2.880  17.692  0.3791 -0.9497  1.7455
 1627SOL     OW16513   0.300   4.463   2.063 -0.1679  0.0033  0.2000
 1627SOL    HW116514   0.246   4.481   2.140 -0.9874 -3.4442  0.4345
 1627SOL    HW216515   0.285   4.536   2.002  1.4206  0.4996  0.3941
 1628SOL     OW16516   3.951   3.662  13.304 -0.6548  0.2412 -0.1683
 1628SOL    HW116517   3.900   3.732  13.344  1.0478  0.8534  0.9338
 1628SOL    HW216518   4.034   3.685  13.345 -0.2821  2.8567 -2.4134
 1629SOL     OW16519   2.248   2.648   8.444 -0.1110  0.6788 -0.1549
 1629SOL    HW116520   2.159   2.670   8.472 -0.9283 -1.7543 -0.8677
 1629SOL    HW216521   2.305   2.703   8.498 -0.3749  0.9694 -0.1700
 1630SOL     OW16522   2.952   1.203   1.484 -0.5378 -0.5666 -0.1700
 1630SOL    HW116523   2.958   1.108   1.472  1.4312 -0.6021  1.2071
 1630SOL    HW216524   2.958   1.218   1.578  0.6879 -1.0102 -0.1795
 1631SOL     OW16525   3.387   3.100  16.839 -0.4224  0.2439  0.1854
 1631SOL    HW116526   3.441   3.080  16.916 -0.8278  0.4449  0.5240
 1631SOL    HW216527   3.422   3.031  16.784 -1.9615  0.0170 -0.5199
 1632SOL     OW16528   0.257   0.364  13.620  0.2834 -0.4755 -0.0105
 1632SOL    HW116529   0.187   0.429  13.628 -0.9770 -1.7543 -0.5923
 1632SOL    HW216530   0.244   0.353  13.526  0.3810 -0.9515  0.0328
 1633SOL     OW16531   0.292   2.993  15.292 -0.2735 -0.3965  0.0768
 1633SOL    HW116532   0.386   2.979  15.302 -0.5148 -2.8757 -1.3854
 1633SOL    HW216533   0.253   2.976  15.378 -0.2003  1.0554  0.4140
 1634SOL     OW16534   1.666   1.469   5.843 -0.2521 -0.4885 -0.1264
 1634SOL    HW116535   1.753   1.481   5.805 -1.2433  0.2475 -2.1547
 1634SOL    HW216536   1.645   1.381   5.811 -1.2338 -0.9106  1.6881
 1635SOL     OW16537   2.848   4.127  14.431 -0.2177 -0.1004 -0.3493
 1635SOL    HW116538   2.934   4.166  14.444 -0.4902  0.2384  0.4553
 1635SOL    HW216539   2.844   4.100  14.339  1.4300 -1.7641  0.0606
 1636SOL     OW16540   0.517   4.001   7.588  0.2133 -0.2534 -0.3768
 1636SOL    HW116541   0.485   3.928   7.641  0.7805  0.6544  1.1982
 1636SOL    HW216542   0.474   3.982   7.505  1.2714  0.9604 -1.1983
 1637SOL     OW16543   3.508   0.456   1.061 -0.5146 -0.7284  0.1212
 1637SOL    HW116544   3.595   0.433   1.028  0.3143  1.9813  0.4410
 1637SOL    HW216545   3.473   0.516   0.995 -1.1197 -0.5107  0.6433
 1638SOL     OW16546   3.068   2.857  10.678 -0.1752  0.3641 -0.1805
 1638SOL    HW116547   3.045   2.848  10.771 -1.1266  2.2673 -0.2132
 1638SOL    HW216548   2.982   2.851  10.636 -0.2332 -1.1883  0.1730
 1639SOL     OW16549   1.584   4.492   2.657 -0.5609  0.1478 -0.0204
 1639SOL    HW116550   1.493   4.463   2.653 -0.5509 -0.4596  3.8928
 1639SOL    HW216551   1.574   4.578   2.699  0.0102  0.5649 -0.7488
 1640SOL     OW16552   1.024   1.228   9.710  0.7612 -0.4015  0.3321
 1640SOL    HW116553   1.073   1.307   9.734  0.4001  0.1730 -0.8428
 1640SOL    HW216554   1.044   1.180   9.791  3.0483 -1.9758 -1.1858
 1641SOL     OW16555   2.717   0.249   5.277 -0.3495 -0.5042  0.3341
 1641SOL    HW116556   2.643   0.203   5.316 -0.0485  0.1140  1.6363
 1641SOL    HW216557   2.702   0.258   5.183 -0.2795  1.8664  0.5500
 1642SOL     OW16558   2.179   2.495   8.831  0.1571 -0.1556  0.1124
 1642SOL    HW116559   2.272   2.484   8.849  0.4372  1.6582 -0.1402
 1642SOL    HW216560   2.134   2.419   8.869  1.0712 -1.0212 -0.5586
 1643SOL     OW16561   2.264   0.456  16.908 -0.3205 -0.8774  0.5538
 1643SOL    HW116562   2.315   0.535  16.926  0.7948 -1.5438  0.3413
 1643SOL    HW216563   2.320   0.381  16.930 -1.6475 -1.4687  1.8537
 1644SOL     OW16564   2.437   0.533   8.455  0.2752  0.1626 -0.1822
 1644SOL    HW116565   2.342   0.529   8.458  0.2595 -0.1507 -1.0380
 1644SOL    HW216566   2.449   0.438   8.464 -2.9381  0.1500  3.7063
 1645SOL     OW16567   0.555   1.150   3.922  0.2628 -0.6046 -0.3697
 1645SOL    HW116568   0.566   1.226   3.865  0.6720 -0.1224  0.3602
 1645SOL    HW216569   0.505   1.180   3.998 -0.0159  0.5504 -1.0195
 1646SOL     OW16570   0.625   1.295  12.877  0.3473  0.0211 -0.1526
 1646SOL    HW116571   0.656   1.321  12.790  0.8902  1.7151  0.5513
 1646SOL    HW216572   0.593   1.210  12.847 -1.7857  1.0194 -0.6768
 1647SOL     OW16573   1.136   0.177   9.518 -0.3266 -0.5216  0.4971
 1647SOL    HW116574   1.100   0.182   9.430  0.9138 -1.6879 -0.0754
 1647SOL    HW216575   1.083   0.234   9.573 -1.4911 -0.0929 -1.0733
 1648SOL     OW16576   2.559   2.297  14.351 -0.0178 -0.2078 -0.1641
 1648SOL    HW116577   2.625   2.232  14.373  0.0497  0.2629  1.0508
 1648SOL    HW216578   2.614   2.375  14.347  1.7030 -1.4331 -0.1617
 1649SOL     OW16579   0.954   0.515   2.048 -0.2136  0.0600 -0.2541
 1649SOL    HW116580   1.008   0.463   1.988 -0.8564  0.4680 -1.1783
 1649SOL    HW216581   0.894   0.442   2.064 -1.4317  1.7217  2.7015
 1650SOL     OW16582   3.483   2.932  17.699  0.8432 -0.0581  0.2582
 1650SOL    HW116583   3.389   2.925  17.682  0.5386  1.6315  1.2294
 1650SOL    HW216584   3.500   2.898   0.057 -0.0373 -0.2758  0.3394
 1651SOL     OW16585   3.295   2.777   1.628 -0.0133 -0.3336 -0.0194
 1651SOL    HW116586   3.325   2.691   1.598  1.9497  0.4234 -0.2173
 1651SOL    HW216587   3.228   2.796   1.562 -0.6206  0.6210  0.8668
 1652SOL     OW16588   1.029   3.411   0.969 -0.0810  0.6114 -0.1221
 1652SOL    HW116589   1.124   3.407   0.957 -0.5241 -1.4467 -2.8866
 1652SOL    HW216590   1.006   3.319   0.957  0.5472  0.3577  0.5715
 1653SOL     OW16591   3.218   3.746   4.982 -0.7241 -0.4784 -0.2797
 1653SOL    HW116592   3.129   3.779   4.998 -0.2031 -1.0041  3.6419
 1653SOL    HW216593   3.266   3.770   5.061  1.2862  0.7619 -1.8865
 1654SOL     OW16594   2.533   2.164   5.963  0.2806  0.1657  0.2784
 1654SOL    HW116595   2.534   2.253   5.928 -0.3461  0.6022  1.3758
 1654SOL    HW216596   2.483   2.128   5.890 -0.1671  2.7032 -0.6749
 1655SOL     OW16597   4.050   2.920  13.634  0.3315  0.1773  0.1375
 1655SOL    HW116598   4.102   2.906  13.713 -1.3401 -2.6537  0.7180
 1655SOL    HW216599   4.050   2.833  13.595 -1.5308  0.3776 -0.3059
 1656SOL     OW16600   0.739   3.215   4.739 -0.1172 -0.0921  0.0306
 1656SOL    HW116601   0.814   3.164   4.767  0.8075  1.5014  0.4836
 1656SOL    HW216602   0.714   3.259   4.820  0.6861  0.6122 -0.1010
 1657SOL     OW16603   1.168   4.527   6.552 -0.6671  0.3727  0.5324
 1657SOL    HW116604   1.181   4.441   6.514 -1.1376  1.1663 -1.4227
 1657SOL    HW216605   1.252   4.574   6.545 -1.3602  1.3866 -1.0791
 1658SOL     OW16606   1.578   4.336   7.659  0.0243 -0.1739 -0.0715
 1658SOL    HW116607   1.528   4.255   7.672  0.4481 -0.5849 -0.9923
 1658SOL    HW216608   1.521   4.394   7.608  0.3678 -0.5278 -0.8666
 1659SOL     OW16609   3.990   3.076   5.220 -0.3953 -0.2214  0.1022
 1659SOL    HW116610   3.994   2.981   5.212  0.0522 -0.1581 -0.4076
 1659SOL    HW216611   3.990   3.094   5.126  1.9477  1.4161  0.4188
 1660SOL     OW16612   1.360   3.928   0.667 -0.4691 -0.2006  0.2302
 1660SOL    HW116613   1.443   3.887   0.691  0.6094  1.7230 -0.1961
 1660SOL    HW216614   1.368   3.919   0.572 -0.1204  0.1286  0.2280
 1661SOL     OW16615   0.282   3.704  17.639 -0.6973 -0.2705 -0.0960
 1661SOL    HW116616   0.268   3.791  17.601 -0.9238  0.2448  1.1830
 1661SOL    HW216617   0.206   3.687  17.694 -1.3509  0.4500 -0.7790
 1662SOL     OW16618   2.324   0.881   2.290 -0.2279  0.2493  0.1839
 1662SOL    HW116619   2.351   0.903   2.379  0.5673  0.4430 -0.1066
 1662SOL    HW216620   2.332   0.964   2.243 -0.5739 -0.0217 -0.3567
 1663SOL     OW16621   4.625   0.606  10.137 -0.4783  0.5709 -0.6834
 1663SOL    HW116622   4.689   0.569  10.198 -1.4312  1.4331  0.8378
 1663SOL    HW216623   4.683   0.614  10.061 -1.7489  0.8305 -1.6226
 1664SOL     OW16624   1.142   0.846  11.018  0.5861 -0.2162  0.5091
 1664SOL    HW116625   1.200   0.793  10.964  0.4824  0.0614  0.1219
 1664SOL    HW216626   1.069   0.796  10.982 -0.7427 -0.1059  3.0615
 1665SOL     OW16627   0.459   2.975   2.758  0.3505 -0.4052  0.7253
 1665SOL    HW116628   0.479   3.012   2.672 -2.2312  1.0660  0.7306
 1665SOL    HW216629   0.429   2.887   2.735 -0.0779 -0.0883  0.0690
 1666SOL     OW16630   3.472   4.396  16.647  0.3615  0.4175 -0.2155
 1666SOL    HW116631   3.479   4.479  16.601 -0.1071  1.4406  1.5371
 1666SOL    HW216632   3.377   4.390  16.656  0.5406 -0.5038  1.0460
 1667SOL     OW16633   3.107   3.550   6.428 -0.4335  0.5640 -0.2471
 1667SOL    HW116634   3.087   3.557   6.334  0.0506 -1.6832 -0.5271
 1667SOL    HW216635   3.202   3.556   6.436 -0.4500 -0.5630  0.6637
 1668SOL     OW16636   3.343   3.969  12.914  0.3555 -0.0004  0.2166
 1668SOL    HW116637   3.412   3.950  12.977  0.3020  0.4886  0.4196
 1668SOL    HW216638   3.321   3.880  12.887  2.1606 -0.2507 -0.3822
 1669SOL     OW16639   2.915   4.645   3.713 -0.1724 -0.1230 -0.1733
 1669SOL    HW116640   2.838   4.625   3.766 -1.7726  3.1790 -1.2580
 1669SOL    HW216641   2.876   4.612   3.633  1.0973  0.2826 -0.9628
 1670SOL     OW16642   3.459   1.765   2.796 -0.5008  0.1874  0.0016
 1670SOL    HW116643   3.369   1.758   2.764 -0.1205  1.3299 -1.3455
 1670SOL    HW216644   3.498   1.696   2.741 -1.3378 -0.6222  0.4188
 1671SOL     OW16645   4.186   2.159   8.035  0.8496  0.2867  0.2672
 1671SOL    HW116646   4.250   2.137   7.967  1.1906 -0.7065  0.8983
 1671SOL    HW216647   4.130   2.081   8.035  1.2327  0.0257  1.5890
 1672SOL     OW16648   0.453   2.421  10.486 -0.0885 -0.4138  0.0644
 1672SOL    HW116649   0.392   2.356  10.451  1.9531 -2.8565  1.0230
 1672SOL    HW216650   0.475   2.388  10.574 -0.3597  2.1816  1.0910
 1673SOL     OW16651   1.078   2.330  15.760 -0.1390 -0.5424 -0.6899
 1673SOL    HW116652   1.063   2.241  15.729 -2.0855 -0.3153 -0.4002
 1673SOL    HW216653   1.097   2.371  15.676  1.8330  1.0429  0.5317
 1674SOL     OW16654   3.875   1.077  12.125  0.2830 -0.3225  0.1615
 1674SOL    HW116655   3.798   1.054  12.072  0.6555 -0.1922 -0.4405
 1674SOL    HW216656   3.831   1.106  12.205 -1.6946  0.8648 -1.3424
 1675SOL     OW16657   1.396   3.715   2.493 -0.7128  0.0926  0.1240
 1675SOL    HW116658   1.308   3.698   2.460  0.0688 -0.0635 -1.9387
 1675SOL    HW216659   1.436   3.628   2.494 -0.7875  0.0585  0.1161
 1676SOL     OW16660   3.616   3.723   0.852  0.4633 -0.3513  0.2729
 1676SOL    HW116661   3.592   3.745   0.762  1.1611  1.3908  0.5080
 1676SOL    HW216662   3.655   3.806   0.881 -2.8033  0.9745  0.9491
 1677SOL     OW16663   2.611   0.037   4.976  0.2101  0.1717  0.6961
 1677SOL    HW116664   2.557   0.086   4.914  0.5976 -1.8547 -1.2848
 1677SOL    HW216665   2.679   0.004   4.918  0.0716 -0.5076  0.9119
 1678SOL     OW16666   1.634   4.212  13.154  0.3379 -0.1090  0.2704
 1678SOL    HW116667   1.699   4.272  13.117  0.8919 -0.2039  1.0933
 1678SOL    HW216668   1.558   4.223  13.096 -2.7095 -1.6081  3.9850
 1679SOL     OW16669   1.608   3.066   9.852  0.4927 -0.1285 -0.5638
 1679SOL    HW116670   1.622   3.075   9.946  1.0719  0.9891 -0.7662
 1679SOL    HW216671   1.588   2.972   9.843  0.5169 -0.0631 -1.3083
 1680SOL     OW16672   3.734   1.943   8.938  0.2087  0.8002  0.2497
 1680SOL    HW116673   3.664   1.938   9.003 -1.3999  1.1245 -1.4642
 1680SOL    HW216674   3.732   1.852   8.907  2.3593  0.7204  0.3239
 1681SOL     OW16675   1.221   1.012   3.557  0.7493 -0.7584 -0.4459
 1681SOL    HW116676   1.130   0.986   3.572  1.0902 -3.0752 -2.3423
 1681SOL    HW216677   1.219   1.055   3.471 -0.8696 -0.6181 -0.3476
 1682SOL     OW16678   3.635   1.983   5.914  0.1844  0.5220 -0.1405
 1682SOL    HW116679   3.636   1.989   6.009  1.3914  0.8392 -0.1784
 1682SOL    HW216680   3.568   1.916   5.902 -1.5623  2.0000  1.3306
 1683SOL     OW16681   2.360   3.933  13.218 -0.3027  0.6205  0.1442
 1683SOL    HW116682   2.314   3.938  13.302 -0.2342 -0.0911  0.2207
 1683SOL    HW216683   2.365   4.028  13.206  0.7646  0.6109  0.5149
 1684SOL     OW16684   2.116   0.258   7.128 -0.1528  0.0105  0.0054
 1684SOL    HW116685   2.182   0.197   7.160  0.3274  0.2726 -0.4789
 1684SOL    HW216686   2.163   0.342   7.124  1.9542 -1.1519  0.9833
 1685SOL     OW16687   2.155   2.008   7.635 -0.3681 -0.0618 -0.3292
 1685SOL    HW116688   2.181   2.045   7.720 -0.0094  0.6755 -0.7506
 1685SOL    HW216689   2.131   2.088   7.588 -0.5856 -0.8720 -1.5804
 1686SOL     OW16690   0.855   0.039  12.374 -0.3475 -0.0520 -0.2877
 1686SOL    HW116691   0.855   0.131  12.350 -2.3256  0.1568  0.5229
 1686SOL    HW216692   0.775   0.032  12.425  0.1702 -0.0628  0.5259
 1687SOL     OW16693   0.238   1.275   2.934  0.2302  0.1081  0.1587
 1687SOL    HW116694   0.327   1.288   2.969  0.5373  1.6146 -1.1900
 1687SOL    HW216695   0.238   1.343   2.867  0.2838  0.0890  0.1388
 1688SOL     OW16696   2.347   0.698  14.440  0.5248  0.4716 -0.3660
 1688SOL    HW116697   2.375   0.692  14.532 -1.7080 -2.7992  0.1380
 1688SOL    HW216698   2.252   0.696  14.456  0.6014  0.4655  0.1110
 1689SOL     OW16699   2.319   4.156   6.380 -0.2330 -0.6816  0.8199
 1689SOL    HW116700   2.330   4.076   6.329  2.0782 -0.9134  1.6948
 1689SOL    HW216701   2.253   4.119   6.438 -1.2143 -2.3965 -1.3852
 1690SOL     OW16702   3.832   4.182   9.301 -0.5408  0.6303 -0.1181
 1690SOL    HW116703   3.778   4.133   9.239  0.6510 -1.5845  0.5779
 1690SOL    HW216704   3.912   4.130   9.311 -1.4836 -1.0144 -1.0908
 1691SOL     OW16705   3.133   4.441  13.953  0.3882 -0.3508 -0.2750
 1691SOL    HW116706   3.048   4.400  13.936  0.8682 -1.7835  0.8442
 1691SOL    HW216707   3.105   4.531  13.972 -2.5787 -1.2215 -0.5555
 1692SOL     OW16708   1.581   4.004   5.052 -0.3707  0.4592  0.0642
 1692SOL    HW116709   1.493   4.021   5.086 -0.5271  1.0552 -0.6488
 1692SOL    HW216710   1.576   4.013   4.957 -0.2015 -0.6652 -0.0452
 1693SOL     OW16711   0.585   3.077  17.396 -0.0810  0.6289 -0.5324
 1693SOL    HW116712   0.540   3.102  17.476  0.7569 -1.0001  0.4595
 1693SOL    HW216713   0.564   3.158  17.349 -1.0425  0.5454 -0.2271
 1694SOL     OW16714   1.544   0.203   2.906  0.6095  0.8764 -0.1193
 1694SOL    HW116715   1.506   0.119   2.880  0.4266  1.2161 -0.9677
 1694SOL    HW216716   1.624   0.201   2.853  0.9850  1.4600  0.4360
 1695SOL     OW16717   0.573   1.372  13.975  0.6326  0.0975  0.1574
 1695SOL    HW116718   0.490   1.385  13.929  0.7793 -1.4366 -0.5328
 1695SOL    HW216719   0.586   1.460  14.012 -0.2780  0.5223 -0.5243
 1696SOL     OW16720   2.316   4.544   4.938  0.1332  0.0040 -0.1157
 1696SOL    HW116721   2.272   4.605   4.997  2.2047 -1.9448  3.4491
 1696SOL    HW216722   2.299   4.459   4.979  0.2033  0.8614  1.7206
 1697SOL     OW16723   2.931   1.391   8.514 -0.3714  0.5491  0.2201
 1697SOL    HW116724   2.931   1.297   8.496  0.1806  0.7478 -0.8539
 1697SOL    HW216725   2.851   1.406   8.564 -1.1050  0.2088 -0.8514
 1698SOL     OW16726   4.510   4.407   9.644 -0.3439  0.0116  0.4623
 1698SOL    HW116727   4.571   4.397   9.570 -0.9253  1.6716 -0.2339
 1698SOL    HW216728   4.561   4.462   9.703 -0.3675 -2.4110  2.7451
 1699SOL     OW16729   2.154   2.970   3.304 -0.3487 -0.4131  0.2421
 1699SOL    HW116730   2.229   2.933   3.258  0.5315  0.9285  0.6011
 1699SOL    HW216731   2.159   3.062   3.278  2.1617  0.3179  3.2718
 1700SOL     OW16732   0.248   1.608   9.492 -0.1414 -0.1948 -0.0038
 1700SOL    HW116733   0.270   1.656   9.572 -0.2910  0.4323 -0.3397
 1700SOL    HW216734   0.153   1.609   9.505  0.0817  1.7772  1.3839
 1701SOL     OW16735   3.152   3.372   5.478  0.0513 -0.0009  0.1222
 1701SOL    HW116736   3.064   3.346   5.450 -0.1919  2.2355 -1.2212
 1701SOL    HW216737   3.200   3.311   5.423 -0.2378 -1.0295  1.0115
 1702SOL     OW16738   3.771   3.470  13.291  0.0134  0.8163  0.3549
 1702SOL    HW116739   3.721   3.481  13.210 -1.9676  0.3697  1.5276
 1702SOL    HW216740   3.823   3.551  13.295  0.4169  0.5840 -0.2118
 1703SOL     OW16741   0.761   3.975   9.764  0.0668  0.0608  0.1550
 1703SOL    HW116742   0.766   3.972   9.669  2.1532  1.5915  0.2098
 1703SOL    HW216743   0.803   3.891   9.783  2.6867  1.4296  0.3954
 1704SOL     OW16744   4.684   2.129   8.918 -0.6774  0.1625  0.3355
 1704SOL    HW116745   0.032   2.084   8.945 -0.5617 -1.2279 -2.3220
 1704SOL    HW216746   4.643   2.057   8.870 -0.5152  0.2367  0.0869
 1705SOL     OW16747   2.139   4.173   7.957  0.2578 -0.0530 -0.4292
 1705SOL    HW116748   2.221   4.222   7.953 -0.0006  0.5297  1.9726
 1705SOL    HW216749   2.161   4.097   7.902  0.4523 -0.3024 -0.0054
 1706SOL     OW16750   0.932   1.783   5.915  0.0182  0.2196 -0.0517
 1706SOL    HW116751   0.907   1.846   5.847 -0.5086  1.6900  1.5183
 1706SOL    HW216752   0.967   1.711   5.861  3.1294  0.7361  1.2929
 1707SOL     OW16753   2.933   1.209   4.618  0.2125 -0.5852 -0.3062
 1707SOL    HW116754   2.988   1.183   4.691 -0.3231  1.6422  0.8891
 1707SOL    HW216755   2.915   1.299   4.643  1.1776 -0.7468  0.9923
 1708SOL     OW16756   3.880   1.479   4.450  0.0732  0.1167 -0.4189
 1708SOL    HW116757   3.819   1.412   4.421  0.3388 -0.5146  0.4752
 1708SOL    HW216758   3.969   1.445   4.438 -0.1837 -0.9059  0.5562
 1709SOL     OW16759   2.322   1.534  11.434 -0.3681  0.5842 -0.0345
 1709SOL    HW116760   2.268   1.489  11.499 -0.0242 -0.1627 -0.2731
 1709SOL    HW216761   2.329   1.620  11.476  0.2947 -0.2306  1.5294
 1710SOL     OW16762   4.229   3.537   4.242  0.0954  0.5747  0.1512
 1710SOL    HW116763   4.256   3.602   4.177  1.6891  0.2351  0.4779
 1710SOL    HW216764   4.256   3.579   4.324 -0.7401  1.0113  0.2071
 1711SOL     OW16765   4.424   4.273  13.282 -0.2554  0.4450 -0.3795
 1711SOL    HW116766   4.442   4.353  13.332 -0.7060 -0.0343  0.5594
 1711SOL    HW216767   4.464   4.299  13.199  0.9339  1.4383  0.4970
 1712SOL     OW16768   1.847   2.503   4.544 -0.2820 -0.1524  0.3841
 1712SOL    HW116769   1.935   2.521   4.575  0.1967 -0.8328 -0.5883
 1712SOL    HW216770   1.859   2.486   4.450 -1.8259  0.4140  0.0716
 1713SOL     OW16771   2.480   0.596   5.201  0.0428 -0.5180 -0.0540
 1713SOL    HW116772   2.455   0.675   5.153  0.5249  0.9122  2.0249
 1713SOL    HW216773   2.564   0.576   5.161 -0.3875 -2.3145 -0.0446
 1714SOL     OW16774   2.910   0.373   2.153 -0.3862  0.1051  0.6623
 1714SOL    HW116775   2.866   0.317   2.088  2.0250 -1.0962  0.0539
 1714SOL    HW216776   2.854   0.349   2.227  0.3851 -1.9676  0.5764
 1715SOL     OW16777   2.877   0.242   7.866  0.5236 -0.7955  0.0985
 1715SOL    HW116778   2.813   0.195   7.813  1.5562 -0.9053 -1.0474
 1715SOL    HW216779   2.844   0.332   7.858  2.6555 -0.1393 -1.1115
 1716SOL     OW16780   3.758   3.363   4.849 -0.0073  0.4362 -0.2785
 1716SOL    HW116781   3.684   3.311   4.817  1.0640 -0.5171 -1.2616
 1716SOL    HW216782   3.729   3.451   4.825 -1.0017  0.9754  2.8696
 1717SOL     OW16783   0.042   3.961   1.924 -0.0665 -0.1196  0.5377
 1717SOL    HW116784   0.107   3.949   1.992  1.3830 -3.1157 -1.3851
 1717SOL    HW216785   0.009   4.048   1.945 -0.6399 -0.1179 -0.3641
 1718SOL     OW16786   4.178   0.618   6.711 -0.2676 -0.2068 -0.6249
 1718SOL    HW116787   4.186   0.551   6.644  2.5973  0.3443 -0.8397
 1718SOL    HW216788   4.084   0.612   6.729 -0.5607  0.0213 -2.1493
 1719SOL     OW16789   2.129   4.398   3.004 -0.1670 -0.6773  0.9694
 1719SOL    HW116790   2.076   4.361   2.933  2.0413 -0.6103 -0.7266
 1719SOL    HW216791   2.170   4.318   3.036  1.8873  0.0230  0.1592
 1720SOL     OW16792   0.865   2.120   7.129 -0.1679 -0.1624  0.1109
 1720SOL    HW116793   0.876   2.132   7.035  0.8030  0.2611  0.2781
 1720SOL    HW216794   0.776   2.087   7.131 -1.5098  3.5121  1.6687
 1721SOL     OW16795   1.293   1.819   3.153  0.4017 -0.4890 -0.2133
 1721SOL    HW116796   1.209   1.788   3.187 -0.7939  0.8374 -1.9237
 1721SOL    HW216797   1.352   1.795   3.224 -0.3584 -0.8545  0.2938
 1722SOL     OW16798   2.777   3.519   5.198  0.3026 -0.3721  0.5053
 1722SOL    HW116799   2.851   3.572   5.230  1.6644 -1.3299 -1.0459
 1722SOL    HW216800   2.719   3.512   5.273 -2.1925  0.2096 -1.3483
 1723SOL     OW16801   3.858   3.597  11.308 -0.1589 -0.0135 -0.1471
 1723SOL    HW116802   3.770   3.568  11.332 -0.7358  0.7856 -1.2456
 1723SOL    HW216803   3.834   3.677  11.261  1.0648  0.6339  0.3226
 1724SOL     OW16804   4.680   4.721   7.480 -0.2290 -0.1925  0.2399
 1724SOL    HW116805   4.652   4.630   7.492 -0.1369 -0.3316 -0.6022
 1724SOL    HW216806   4.704   0.014   7.569 -0.4212 -3.0421  1.1198
 1725SOL     OW16807   1.829   3.125   6.465 -0.0371  0.2012  0.1930
 1725SOL    HW116808   1.797   3.035   6.453 -1.0634  0.3101  2.0677
 1725SOL    HW216809   1.914   3.115   6.506  0.7316 -0.5392 -1.5760
 1726SOL     OW16810   1.593   4.181  15.039  0.3784 -0.9688  0.6579
 1726SOL    HW116811   1.609   4.203  14.947  1.9846 -0.3237  1.0837
 1726SOL    HW216812   1.549   4.098  15.024 -1.4697  0.3332 -1.1359
 1727SOL     OW16813   1.086   3.211   0.553  0.2843  0.3230 -0.5638
 1727SOL    HW116814   1.146   3.236   0.623 -1.4730 -0.6300  1.2973
 1727SOL    HW216815   1.148   3.207   0.481 -0.1529  0.5355 -0.9481
 1728SOL     OW16816   3.022   1.046   4.430  0.3172  0.2080 -0.2604
 1728SOL    HW116817   2.997   1.111   4.495  1.2119  0.1177  0.1690
 1728SOL    HW216818   3.104   1.015   4.469  0.3684  2.0073  1.0307
 1729SOL     OW16819   2.786   3.074   2.642 -1.0136  0.2286 -0.1631
 1729SOL    HW116820   2.863   3.046   2.594 -0.4104 -1.0022  1.5261
 1729SOL    HW216821   2.791   3.169   2.628  0.3176 -0.0194 -1.3649
 1730SOL     OW16822   3.335   1.400  12.428 -0.6331 -0.2825 -0.3165
 1730SOL    HW116823   3.259   1.355  12.392 -1.8343  1.0611  0.5436
 1730SOL    HW216824   3.345   1.491  12.400 -0.5623 -0.0430  0.4721
 1731SOL     OW16825   3.396   4.172   8.300 -0.2818  0.4351 -0.2776
 1731SOL    HW116826   3.481   4.216   8.299 -1.1142  2.0434  0.2581
 1731SOL    HW216827   3.402   4.122   8.218 -1.5976 -0.1453 -0.0234
 1732SOL     OW16828   2.011   2.600   9.775 -0.3959 -0.1846  0.4717
 1732SOL    HW116829   1.917   2.614   9.781 -0.3945 -0.3062  0.7582
 1732SOL    HW216830   2.040   2.670   9.833 -0.4072  2.3576 -2.5931
 1733SOL     OW16831   4.347   4.077   5.216  0.2995  0.4513  0.0443
 1733SOL    HW116832   4.397   4.067   5.298  0.1286 -3.1381 -0.2720
 1733SOL    HW216833   4.264   4.056   5.258  0.6099 -2.8162 -0.9795
 1734SOL     OW16834   0.545   2.701   3.489 -0.4330  0.7716 -0.1197
 1734SOL    HW116835   0.560   2.781   3.539 -0.1547  0.6733 -0.0465
 1734SOL    HW216836   0.595   2.710   3.408  0.0638  2.0277  0.3331
 1735SOL     OW16837   0.932   3.400   1.217  0.4300  0.3305 -0.1396
 1735SOL    HW116838   0.848   3.440   1.241 -0.3358 -1.8720  0.8509
 1735SOL    HW216839   0.942   3.413   1.123  0.6665  1.8089  0.0901
 1736SOL     OW16840   3.954   2.500  11.006 -0.4361 -0.8074  0.3792
 1736SOL    HW116841   3.985   2.500  11.097 -0.3195 -1.1133  0.3399
 1736SOL    HW216842   3.933   2.593  11.003  2.9794 -0.0711 -0.8459
 1737SOL     OW16843   3.049   1.376   3.002 -0.2379 -0.2732 -0.6023
 1737SOL    HW116844   3.067   1.285   3.025 -1.5635 -0.5967 -0.8581
 1737SOL    HW216845   3.099   1.444   3.047 -2.9593  0.9161  0.6103
 1738SOL     OW16846   4.692   1.238  14.680  0.6641  0.1517 -0.2306
 1738SOL    HW116847   4.688   1.316  14.736  1.1031 -0.0956  0.1520
 1738SOL    HW216848   4.599   1.220  14.673  1.0835 -1.4752 -1.6699
 1739SOL     OW16849   2.089   1.473  12.330 -0.2489  0.2440 -1.0887
 1739SOL    HW116850   2.114   1.452  12.240  2.4807  0.4536 -0.3619
 1739SOL    HW216851   2.067   1.565  12.317 -1.0183  0.3381  0.9152
 1740SOL     OW16852   1.547   3.963   5.641  0.2192  0.2681 -0.2862
 1740SOL    HW116853   1.483   4.003   5.582 -1.8691 -0.4646  1.5406
 1740SOL    HW216854   1.501   3.890   5.680  1.6587  0.4150  1.6981
 1741SOL     OW16855   0.127   0.486  10.255  0.0804 -0.0456 -0.1525
 1741SOL    HW116856   0.075   0.405  10.252 -0.4732  0.3019  0.1008
 1741SOL    HW216857   0.163   0.483  10.344 -1.1164  0.5829  0.3438
 1742SOL     OW16858   3.401   3.742  12.035 -0.3563 -0.0064  0.8681
 1742SOL    HW116859   3.344   3.817  12.019  1.0870  0.7546 -0.6515
 1742SOL    HW216860   3.486   3.781  12.015  1.5455 -4.3485  0.4898
 1743SOL     OW16861   0.997   3.294   8.705  0.0220 -0.0605 -0.2506
 1743SOL    HW116862   0.925   3.253   8.753  0.1342  0.9763  0.7865
 1743SOL    HW216863   1.059   3.324   8.772  1.2550 -1.6127 -0.6859
 1744SOL     OW16864   1.739   1.252   9.233 -0.0525 -0.2406 -0.4238
 1744SOL    HW116865   1.662   1.197   9.244  0.8988 -1.5081 -0.0195
 1744SOL    HW216866   1.725   1.323   9.296  0.7623  1.7838 -2.5100
 1745SOL     OW16867   3.100   3.484   8.810  0.1375 -0.5956  0.0645
 1745SOL    HW116868   3.089   3.568   8.855  1.2451  0.4566 -1.6316
 1745SOL    HW216869   3.027   3.431   8.840 -0.1120  1.2653  2.8167
 1746SOL     OW16870   2.811   2.966  15.117 -0.1705 -0.0719 -0.0024
 1746SOL    HW116871   2.811   2.896  15.052 -0.6064  0.1836 -0.2809
 1746SOL    HW216872   2.905   2.962  15.133 -0.2800  0.5783  0.8318
 1747SOL     OW16873   1.312   2.468  13.941  0.0931 -0.4174  0.5940
 1747SOL    HW116874   1.356   2.543  13.981 -0.0823  0.4026 -0.7819
 1747SOL    HW216875   1.339   2.398  14.001  1.8625  0.0252  0.3184
 1748SOL     OW16876   1.065   3.522   8.097 -0.5091 -0.0346 -0.0187
 1748SOL    HW116877   0.975   3.492   8.105 -0.8071  0.6351 -0.8502
 1748SOL    HW216878   1.070   3.556   8.008 -0.8929  0.2295  0.0602
 1749SOL     OW16879   2.243   2.277   2.394  0.0272  0.5513 -0.3732
 1749SOL    HW116880   2.314   2.222   2.361 -0.1413 -1.3227  2.4277
 1749SOL    HW216881   2.235   2.346   2.328 -0.5439 -0.2154 -1.0971
 1750SOL     OW16882   4.037   2.823   7.618  0.2415 -0.0426 -0.3809
 1750SOL    HW116883   3.966   2.833   7.681 -0.0764  1.5358 -0.9919
 1750SOL    HW216884   4.030   2.913   7.587 -0.1873  0.4218  1.0694
 1751SOL     OW16885   4.210   3.375   5.664 -0.7892  0.3739  0.5280
 1751SOL    HW116886   4.134   3.414   5.707  0.4458  3.2294  0.1338
 1751SOL    HW216887   4.188   3.282   5.666  0.8566 -0.0582 -1.6035
 1752SOL     OW16888   3.341   3.913   9.106 -0.7756  0.1358  0.6106
 1752SOL    HW116889   3.255   3.952   9.088 -1.5568 -1.5549  0.7191
 1752SOL    HW216890   3.376   3.901   9.018 -2.0788 -1.7687  0.3585
 1753SOL     OW16891   1.827   0.056   6.289  1.2463  0.7865  0.1092
 1753SOL    HW116892   1.792   0.116   6.355  0.9567  0.5983  0.1240
 1753SOL    HW216893   1.765   0.080   6.220  2.3365 -2.1250 -1.8578
 1754SOL     OW16894   4.194   4.471  15.962  0.4690 -0.3035  0.8610
 1754SOL    HW116895   4.258   4.495  15.895  1.5644 -1.3046  1.5479
 1754SOL    HW216896   4.245   4.439  16.036 -1.2963 -3.3072  0.7875
 1755SOL     OW16897   1.256   1.167   5.796 -0.0411 -0.1488 -0.0949
 1755SOL    HW116898   1.224   1.173   5.706 -1.9553  0.5743  0.6498
 1755SOL    HW216899   1.169   1.151   5.832  0.2531 -0.7387  0.3658
 1756SOL     OW16900   4.336   1.400   6.581  0.0020 -0.0254  0.0781
 1756SOL    HW116901   4.253   1.447   6.586 -0.2325 -0.3145 -1.0971
 1756SOL    HW216902   4.366   1.425   6.493  2.0875 -2.4768  0.0765
 1757SOL     OW16903   2.827   3.993   7.766  0.0127  1.0301 -0.4761
 1757SOL    HW116904   2.912   3.949   7.775  0.2214  1.9735  2.1124
 1757SOL    HW216905   2.831   4.036   7.680  1.3418 -0.7164 -1.2937
 1758SOL     OW16906   3.584   3.150   2.677  0.3416  0.2401 -0.0945
 1758SOL    HW116907   3.505   3.117   2.719  0.6821  0.9049  1.0642
 1758SOL    HW216908   3.566   3.140   2.584  0.3979 -1.4280  0.0741
 1759SOL     OW16909   0.467   4.315   6.559  0.2393 -0.6080  0.3105
 1759SOL    HW116910   0.404   4.256   6.598 -0.0215 -1.5225 -1.4927
 1759SOL    HW216911   0.543   4.257   6.560  0.7617  0.0582 -0.8368
 1760SOL     OW16912   1.823   0.754  16.733 -0.5949 -0.1553 -0.1413
 1760SOL    HW116913   1.791   0.687  16.672  0.6702  0.2478 -1.2478
 1760SOL    HW216914   1.906   0.713  16.758 -1.0507 -0.1604  1.3777
 1761SOL     OW16915   0.544   0.604   3.771 -0.1959 -0.1855 -0.3952
 1761SOL    HW116916   0.474   0.598   3.837  1.4759 -0.9049  1.3327
 1761SOL    HW216917   0.619   0.631   3.824 -1.9922 -0.3098  2.2199
 1762SOL     OW16918   3.895   0.622  15.929 -0.1705  0.2444 -0.2051
 1762SOL    HW116919   3.946   0.588  16.002 -1.3485  0.9595  0.9733
 1762SOL    HW216920   3.865   0.543  15.885 -0.8033  0.5383 -0.3106
 1763SOL     OW16921   0.279   0.685   8.139 -0.0909  0.9475 -0.1905
 1763SOL    HW116922   0.302   0.772   8.174  1.1901  0.7173 -0.4383
 1763SOL    HW216923   0.256   0.636   8.218 -1.4654  3.8462  1.2002
 1764SOL     OW16924   2.167   2.829   4.412 -0.2844  0.3885 -0.0663
 1764SOL    HW116925   2.087   2.823   4.465 -0.4551 -1.0020 -0.4826
 1764SOL    HW216926   2.139   2.892   4.345  0.2924  0.1902 -0.4930
 1765SOL     OW16927   1.461   0.013   4.035  0.0161  0.6595  0.0792
 1765SOL    HW116928   1.399   0.043   3.968 -0.5394 -0.5118  0.0722
 1765SOL    HW216929   1.478   0.095   4.082 -0.1815  0.9774 -0.4039
 1766SOL     OW16930   3.899   3.328   8.996  0.4168 -0.2681  0.0120
 1766SOL    HW116931   3.882   3.235   8.977 -0.9748  0.5825 -2.8760
 1766SOL    HW216932   3.824   3.363   9.044  1.0304  0.6186  0.3100
 1767SOL     OW16933   4.713   2.112   5.030 -0.0564  0.0144 -0.0599
 1767SOL    HW116934   4.632   2.123   4.979 -0.6855  1.8811  1.3552
 1767SOL    HW216935   4.716   2.184   5.093  2.3087 -0.8031  0.7366
 1768SOL     OW16936   4.244   0.496   0.054 -0.0384 -0.1937 -0.7381
 1768SOL    HW116937   4.171   0.537   0.100 -0.0355 -0.3492 -0.5962
 1768SOL    HW216938   4.201   0.435  17.722 -1.8216  0.1296  0.1839
 1769SOL     OW16939   2.137   1.153   4.430 -0.2719 -0.1691 -0.0736
 1769SOL    HW116940   2.201   1.132   4.362 -0.7872 -0.7669 -0.3761
 1769SOL    HW216941   2.062   1.116   4.384  2.0264 -1.3403 -2.9024
 1770SOL     OW16942   3.607   0.186  17.718 -0.1544  0.1072 -0.4214
 1770SOL    HW116943   3.520   0.205   0.022 -0.0868  0.0981 -0.2371
 1770SOL    HW216944   3.658   0.187   0.070 -0.3975 -0.6323 -0.2558
 1771SOL     OW16945   2.051   1.098  13.106 -0.0898  0.0591  0.1031
 1771SOL    HW116946   2.081   1.176  13.154 -2.9348  0.0464  1.8894
 1771SOL    HW216947   2.014   1.048  13.178 -1.0442  0.0053 -0.4260
 1772SOL     OW16948   4.681   0.730  11.561 -0.5743  0.6401  0.0899
 1772SOL    HW116949   0.016   0.663  11.552  0.2829  1.2077  2.3320
 1772SOL    HW216950   4.706   0.755  11.650 -2.8426 -1.6131  1.3662
 1773SOL     OW16951   1.948   1.707   1.805  0.0719  0.0145 -0.4043
 1773SOL    HW116952   1.913   1.787   1.766  1.2283  0.6736 -0.0749
 1773SOL    HW216953   1.939   1.640   1.738  1.1907  0.7858 -1.3056
 1774SOL     OW16954   0.661   0.750   9.359  0.7761  0.3310 -0.3140
 1774SOL    HW116955   0.605   0.756   9.281  0.8504 -1.1031 -0.4886
 1774SOL    HW216956   0.690   0.659   9.354  1.4839  0.5430 -0.0839
 1775SOL     OW16957   2.977   3.120   4.193  0.9428 -0.0624  0.2163
 1775SOL    HW116958   3.023   3.171   4.260  0.4565  1.8046 -0.8784
 1775SOL    HW216959   2.990   3.030   4.224 -2.4098 -0.7059 -0.2252
 1776SOL     OW16960   4.647   2.614   7.595  0.3769 -0.3809  0.3311
 1776SOL    HW116961   4.688   2.552   7.534  2.3078 -0.0027  1.2498
 1776SOL    HW216962   4.645   2.692   7.540 -0.3468 -0.5658  0.0919
 1777SOL     OW16963   4.034   2.374  13.710  0.0568  0.4782  0.6513
 1777SOL    HW116964   3.954   2.357  13.760 -0.6976  0.4296 -0.5722
 1777SOL    HW216965   4.055   2.282  13.694 -1.2287  0.0012  1.6819
 1778SOL     OW16966   2.050   2.041   8.613  0.8609 -0.0733 -0.5405
 1778SOL    HW116967   2.026   1.997   8.531 -2.0308  0.6923 -0.1018
 1778SOL    HW216968   2.065   2.133   8.591  1.5124 -0.4004 -1.4713
 1779SOL     OW16969   2.195   1.672   3.771 -0.5466  0.5216 -0.7356
 1779SOL    HW116970   2.198   1.657   3.866 -0.0276  2.5035 -0.4557
 1779SOL    HW216971   2.166   1.582   3.751  2.4668 -0.5583 -0.1764
 1780SOL     OW16972   2.076   3.108   3.548  0.4751  0.1890 -0.1943
 1780SOL    HW116973   2.092   3.031   3.494 -1.9191  0.2610 -1.0445
 1780SOL    HW216974   2.167   3.130   3.567  0.0183 -0.2823  2.6357
 1781SOL     OW16975   2.686   2.246  11.900  0.0825 -0.1306  0.1245
 1781SOL    HW116976   2.699   2.321  11.842 -0.2439 -0.3508 -0.2322
 1781SOL    HW216977   2.647   2.281  11.980  1.3247 -0.5705  0.9330
 1782SOL     OW16978   1.955   1.793   9.470  0.1433 -0.0080  0.2247
 1782SOL    HW116979   1.932   1.866   9.527  0.1885  0.0649  0.1497
 1782SOL    HW216980   2.014   1.849   9.420  0.0579  0.9107  1.1607
 1783SOL     OW16981   2.388   3.059   9.084  0.9617  0.5121  0.1092
 1783SOL    HW116982   2.368   2.983   9.138 -0.7996  1.0860  0.2756
 1783SOL    HW216983   2.429   3.021   9.006 -1.7913  0.7646 -1.4723
 1784SOL     OW16984   2.511   4.654   5.782  0.2570 -0.6218 -0.8775
 1784SOL    HW116985   2.517   4.573   5.731 -3.3862  0.7066 -3.4014
 1784SOL    HW216986   2.491   4.619   5.868 -0.6112  0.3452 -0.6888
 1785SOL     OW16987   0.302   2.275  11.837 -0.1176  0.0520  0.0784
 1785SOL    HW116988   0.298   2.182  11.861 -0.4003  0.6375  2.2657
 1785SOL    HW216989   0.337   2.318  11.915  2.0935 -1.1331 -0.2588
 1786SOL     OW16990   0.999   1.866  11.150 -0.2477 -0.1867 -0.0120
 1786SOL    HW116991   0.947   1.787  11.168  0.2248 -0.4094  0.3822
 1786SOL    HW216992   0.932   1.932  11.130  0.7026  0.3749 -1.2704
 1787SOL     OW16993   4.652   3.684   6.780  0.0675 -0.4655  0.1088
 1787SOL    HW116994   4.667   3.614   6.717 -1.1020  0.1667 -0.8798
 1787SOL    HW216995   4.682   3.756   6.725 -0.3339 -1.3471 -1.2588
 1788SOL     OW16996   0.679   1.369  12.609  0.8120 -0.3227 -0.7654
 1788SOL    HW116997   0.621   1.441  12.582 -0.2579 -0.7831  0.3306
 1788SOL    HW216998   0.655   1.307  12.541 -2.3364  0.3749 -0.3053
 1789SOL     OW16999   2.493   0.607   9.171  0.7245  0.0402  0.4652
 1789SOL    HW117000   2.525   0.693   9.144  2.8722 -0.8650  0.1725
 1789SOL    HW217001   2.420   0.595   9.110 -0.0973 -0.2310  1.4984
 1790SOL     OW17002   2.585   3.384   9.411 -0.5140 -0.3267  0.1482
 1790SOL    HW117003   2.509   3.400   9.467  0.3665  1.4976  0.8268
 1790SOL    HW217004   2.642   3.460   9.427 -2.4618  1.2738 -0.4267
 1791SOL     OW17005   1.514   3.211   1.002 -0.1841  0.0878  0.3697
 1791SOL    HW117006   1.538   3.229   1.093 -0.1159  0.9842  0.1759
 1791SOL    HW217007   1.446   3.145   1.009 -0.6696  0.5763  0.2574
 1792SOL     OW17008   1.171   3.754   7.646  0.1296 -0.0167 -0.1931
 1792SOL    HW117009   1.102   3.693   7.621  1.5843 -0.8078 -2.3400
 1792SOL    HW217010   1.140   3.836   7.605 -0.3440  0.9579  2.1508
 1793SOL     OW17011   2.280   0.513  12.890  0.5165 -0.1716  0.2470
 1793SOL    HW117012   2.309   0.523  12.981  3.8036 -0.5774 -0.7528
 1793SOL    HW217013   2.262   0.420  12.893 -2.0268  0.2846 -1.0503
 1794SOL     OW17014   1.198   0.113   2.845  0.3059 -0.6739 -0.3209
 1794SOL    HW117015   1.241   0.159   2.917  0.8668 -2.0999  0.2555
 1794SOL    HW217016   1.270   0.079   2.792 -0.2134 -0.1777 -1.3374
 1795SOL     OW17017   4.708   0.381   4.715 -0.0672 -0.4985  0.3927
 1795SOL    HW117018   4.656   0.367   4.636  0.5571  0.8633 -0.2502
 1795SOL    HW217019   4.644   0.364   4.785 -2.4779  2.1072 -1.2024
 1796SOL     OW17020   3.752   4.718   0.885  0.3640  0.4234 -0.0741
 1796SOL    HW117021   3.754   4.653   0.956 -1.9440  0.1022 -0.3265
 1796SOL    HW217022   3.831   0.032   0.913  0.4525  0.1249  0.1762
 1797SOL     OW17023   1.927   0.624   5.354 -0.1991  0.1271  0.8995
 1797SOL    HW117024   1.856   0.688   5.344 -1.5084 -1.5917 -0.6792
 1797SOL    HW217025   1.939   0.624   5.449  0.7708 -1.1009  0.7655
 1798SOL     OW17026   3.420   4.505   6.110  0.7537  0.0004  0.2225
 1798SOL    HW117027   3.336   4.484   6.151  0.1518  2.6292  0.3611
 1798SOL    HW217028   3.454   4.576   6.165 -1.7640  0.9386  0.5696
 1799SOL     OW17029   0.636   0.905   4.323  0.4983  0.1602 -0.5953
 1799SOL    HW117030   0.570   0.966   4.290 -0.6694 -0.7671  0.0133
 1799SOL    HW217031   0.700   0.957   4.371  0.2282  0.6500 -0.7704
 1800SOL     OW17032   0.881   4.665   8.973 -0.2303  0.4250 -0.1590
 1800SOL    HW117033   0.785   4.670   8.980 -0.3958 -2.7084  0.2140
 1800SOL    HW217034   0.889   0.009   8.917  1.2212 -0.0571 -0.6157
 1801SOL     OW17035   3.256   1.637   4.117 -0.2020 -0.3152 -0.5951
 1801SOL    HW117036   3.282   1.684   4.037 -1.9574 -0.8771 -1.4960
 1801SOL    HW217037   3.301   1.694   4.179  0.2130 -0.6305 -0.6052
 1802SOL     OW17038   3.215   3.483   8.245  0.6348  0.1876  0.0121
 1802SOL    HW117039   3.306   3.508   8.227  0.4920  0.6483 -0.0773
 1802SOL    HW217040   3.199   3.450   8.157 -1.8657  0.8616  0.2402
 1803SOL     OW17041   1.806   0.207   2.803  0.5187  0.6465  0.3392
 1803SOL    HW117042   1.872   0.164   2.747 -2.2113 -2.1406 -0.7524
 1803SOL    HW217043   1.863   0.225   2.878 -0.9562 -2.8616  2.3145
 1804SOL     OW17044   2.935   2.630  15.657  0.3263 -0.0371  0.0168
 1804SOL    HW117045   2.903   2.576  15.730  0.0583 -2.0672 -1.6050
 1804SOL    HW217046   2.956   2.567  15.588  0.7249  0.6096 -0.4557
 1805SOL     OW17047   3.074   4.557   2.526 -0.4169  1.4074  0.3203
 1805SOL    HW117048   3.168   4.552   2.508 -0.9880 -3.2748 -1.6012
 1805SOL    HW217049   3.062   4.467   2.556  1.6701  0.7818 -0.7095
 1806SOL     OW17050   4.052   3.636   5.976 -0.2269 -0.0317 -0.2598
 1806SOL    HW117051   4.057   3.656   6.070 -1.5832 -2.0770  0.2559
 1806SOL    HW217052   3.960   3.611   5.966 -0.3809  0.6065 -0.4262
 1807SOL     OW17053   4.658   2.399   1.338  0.0230 -0.3252  0.1082
 1807SOL    HW117054   4.634   2.489   1.359  1.5333 -0.2003  1.2773
 1807SOL    HW217055   4.673   2.368   1.428 -1.8772  1.2384  0.9404
 1808SOL     OW17056   0.383   3.944   7.352  0.2684  0.3482  0.2996
 1808SOL    HW117057   0.293   3.951   7.382  1.1229  0.3837  2.9087
 1808SOL    HW217058   0.395   3.850   7.362 -0.9767 -0.1571 -2.9214
 1809SOL     OW17059   3.997   3.441   5.123  0.2174 -0.4340 -0.4034
 1809SOL    HW117060   4.090   3.452   5.104  0.2022 -0.0176 -0.2247
 1809SOL    HW217061   3.990   3.354   5.084 -2.4874 -0.6438  0.5428
 1810SOL     OW17062   2.778   3.623   6.260 -0.2039  0.8270 -0.2053
 1810SOL    HW117063   2.734   3.700   6.224  1.1473  1.2740 -0.8985
 1810SOL    HW217064   2.711   3.589   6.319  1.1715 -0.6191  0.5496
 1811SOL     OW17065   1.620   4.580  12.512  0.2843 -0.4729 -0.2369
 1811SOL    HW117066   1.659   4.594  12.598  1.1179  0.3180 -0.7414
 1811SOL    HW217067   1.572   4.500  12.533 -2.5668  1.3495  0.1811
 1812SOL     OW17068   1.656   0.706  13.600 -0.1584 -0.2775  0.1258
 1812SOL    HW117069   1.660   0.777  13.536  0.3308 -1.3515 -1.0235
 1812SOL    HW217070   1.653   0.758  13.681 -3.8539  0.0191 -0.1822
 1813SOL     OW17071   0.169   0.895   4.054 -0.0525 -0.4000  0.1923
 1813SOL    HW117072   0.199   0.940   4.133 -1.7984  0.6137  0.2549
 1813SOL    HW217073   0.207   0.951   3.987 -0.8086 -1.2849 -0.9755
 1814SOL     OW17074   1.445   3.334  14.433  0.5114  0.1790  0.0768
 1814SOL    HW117075   1.418   3.326  14.341 -0.0819 -2.9418  0.5494
 1814SOL    HW217076   1.365   3.314  14.481  0.1482 -0.1958 -0.6919
 1815SOL     OW17077   4.632   2.328   1.594 -0.7748 -0.8465 -0.1725
 1815SOL    HW117078   4.563   2.351   1.657  0.4820  1.8143  0.2312
 1815SOL    HW217079   4.704   2.369   1.642 -0.4353 -0.8538 -0.6883
 1816SOL     OW17080   3.468   4.707   6.266  0.7496  0.3499 -0.0009
 1816SOL    HW117081   3.498   0.023   6.190 -0.7821 -1.3268 -1.6977
 1816SOL    HW217082   3.548   4.703   6.319 -0.0394 -2.0757  1.0391
 1817SOL     OW17083   4.552   3.272   3.351 -0.1151  0.8302 -0.5307
 1817SOL    HW117084   4.604   3.269   3.271 -1.2795  3.0336 -1.3739
 1817SOL    HW217085   4.465   3.283   3.312  0.4967  0.0753 -2.0842
 1818SOL     OW17086   0.975   1.159   8.100 -0.2644 -0.1720 -0.3436
 1818SOL    HW117087   1.000   1.168   8.009 -0.1371  3.8636  0.0745
 1818SOL    HW217088   1.058   1.173   8.147 -1.0089  2.7069  0.1270
 1819SOL     OW17089   1.270   2.964   8.731 -0.2427 -0.6504  0.1273
 1819SOL    HW117090   1.235   3.019   8.802 -0.6652 -1.2558  0.3821
 1819SOL    HW217091   1.298   2.889   8.783  0.9024 -0.2327  0.1158
 1820SOL     OW17092   1.540   3.505   2.548 -0.4168  0.6030  0.5482
 1820SOL    HW117093   1.507   3.511   2.638 -0.6404 -0.6342  0.5531
 1820SOL    HW217094   1.588   3.424   2.563  0.1484  0.4508 -2.1380
 1821SOL     OW17095   2.519   1.859  17.226  0.1026  0.3423  0.1236
 1821SOL    HW117096   2.535   1.768  17.199 -3.3918  0.2441 -1.6414
 1821SOL    HW217097   2.464   1.895  17.157 -0.1976 -1.4759 -0.5903
 1822SOL     OW17098   3.725   4.429  12.239 -0.7405 -0.9797  0.1160
 1822SOL    HW117099   3.786   4.356  12.247 -2.3222 -2.3531 -0.3229
 1822SOL    HW217100   3.758   4.493  12.302 -0.3221 -0.6433 -0.4475
 1823SOL     OW17101   2.761   0.727  10.898  0.0903 -0.0726 -0.3337
 1823SOL    HW117102   2.743   0.803  10.953 -0.9221 -0.9693  0.5783
 1823SOL    HW217103   2.811   0.668  10.954  1.8897  0.7999 -1.0365
 1824SOL     OW17104   1.368   3.462  16.068 -0.0037  0.2402  0.2421
 1824SOL    HW117105   1.352   3.383  16.119  1.5245 -1.2537 -1.6150
 1824SOL    HW217106   1.452   3.491  16.105 -0.4994  2.5295 -0.4350
 1825SOL     OW17107   3.437   2.226   1.880 -0.6820  0.8635  0.0314
 1825SOL    HW117108   3.504   2.277   1.834 -0.6653  0.4175 -0.4404
 1825SOL    HW217109   3.363   2.285   1.890  0.2549  1.8041  1.4835
 1826SOL     OW17110   1.081   0.348   8.982  0.1161 -0.0011 -0.3356
 1826SOL    HW117111   0.994   0.332   9.020  0.4639  0.7797  0.7839
 1826SOL    HW217112   1.064   0.422   8.923 -0.4037  0.8022  0.8111
 1827SOL     OW17113   1.164   0.319   4.378  0.4061 -0.2264 -0.3941
 1827SOL    HW117114   1.188   0.320   4.285  1.6456 -0.5124 -0.0772
 1827SOL    HW217115   1.070   0.336   4.370  0.6920  0.9117 -1.2981
 1828SOL     OW17116   0.595   0.741   2.909 -0.3197  0.2441  0.0032
 1828SOL    HW117117   0.661   0.807   2.934 -0.0980 -0.1402  0.4495
 1828SOL    HW217118   0.571   0.716   2.998 -0.1325  1.5790  0.4327
 1829SOL     OW17119   2.570   2.703   6.270  0.3338  0.5121  0.3163
 1829SOL    HW117120   2.662   2.729   6.260  0.4876  0.1586  0.8114
 1829SOL    HW217121   2.570   2.653   6.352 -1.1580 -0.5186 -0.3343
 1830SOL     OW17122   3.182   4.317   7.012 -0.2138 -0.2155  0.1016
 1830SOL    HW117123   3.261   4.266   7.027 -0.1421  0.2983  1.5324
 1830SOL    HW217124   3.111   4.253   7.021 -2.8868  2.5782 -1.0306
 1831SOL     OW17125   3.330   2.885   2.666  0.1204  0.1080  0.1501
 1831SOL    HW117126   3.360   2.815   2.723  1.9803 -0.9023 -2.0738
 1831SOL    HW217127   3.380   2.867   2.586 -1.0355  0.8282 -0.7560
 1832SOL     OW17128   1.831   2.335   8.729  0.3395 -0.2718  0.3446
 1832SOL    HW117129   1.739   2.363   8.731 -0.3363 -2.4812  0.2308
 1832SOL    HW217130   1.847   2.340   8.634 -1.3253  0.8768  0.1157
 1833SOL     OW17131   3.516   4.281   8.685  0.1077  0.6503 -0.0383
 1833SOL    HW117132   3.584   4.332   8.728 -0.6336  0.8461  0.9129
 1833SOL    HW217133   3.568   4.251   8.610  0.8047  1.2516  0.2083
 1834SOL     OW17134   0.396   3.788   4.759 -0.6713  0.2829  0.0263
 1834SOL    HW117135   0.400   3.832   4.843 -1.3069 -3.2723  1.9252
 1834SOL    HW217136   0.306   3.756   4.757 -0.7097  0.4735 -1.9221
 1835SOL     OW17137   4.100   1.268   5.182  0.0056  0.5065 -0.2712
 1835SOL    HW117138   4.145   1.260   5.267 -1.5204 -1.2872  0.3627
 1835SOL    HW217139   4.009   1.248   5.204  1.4585 -1.9454  3.6084
 1836SOL     OW17140   2.115   0.403  10.726  0.2325  0.0303  0.4962
 1836SOL    HW117141   2.210   0.402  10.741  0.1601  0.4339  0.9899
 1836SOL    HW217142   2.116   0.324  10.672 -0.5036  0.7536 -0.5652
 1837SOL     OW17143   3.505   1.493   5.893  0.0473  0.2250  0.3007
 1837SOL    HW117144   3.586   1.462   5.933  0.6182  2.6856  1.0340
 1837SOL    HW217145   3.444   1.421   5.909  0.0625  0.3016  0.6991
 1838SOL     OW17146   2.885   1.928   9.872 -0.4487 -0.6167  0.2510
 1838SOL    HW117147   2.893   1.934   9.967  0.2108  1.3649  0.0666
 1838SOL    HW217148   2.850   2.015   9.855  0.8885  0.0976  1.1179
 1839SOL     OW17149   0.870   3.577   2.463 -0.3166 -0.2321 -0.0427
 1839SOL    HW117150   0.806   3.517   2.425  1.1337 -0.7887 -1.5802
 1839SOL    HW217151   0.806   3.646   2.483 -0.0150  0.9749 -3.2968
 1840SOL     OW17152   1.241   0.838   0.274 -0.3544  0.7922 -0.4772
 1840SOL    HW117153   1.212   0.822   0.185 -1.9406 -0.9819  0.3745
 1840SOL    HW217154   1.231   0.934   0.275  1.6593  0.9801  2.3034
 1841SOL     OW17155   1.600   1.666   8.509  0.1520 -0.3387  0.7487
 1841SOL    HW117156   1.687   1.677   8.548  0.8329 -2.2335 -0.2389
 1841SOL    HW217157   1.564   1.754   8.513  7.2130  2.6405 -0.5528
 1842SOL     OW17158   1.838   2.890   5.607  0.4419 -0.1076 -0.2296
 1842SOL    HW117159   1.771   2.847   5.660 -1.7589  1.5473 -1.6762
 1842SOL    HW217160   1.875   2.957   5.664  0.1658 -1.5566  1.6407
 1843SOL     OW17161   3.348   2.201   9.163  0.2818 -0.0384  0.1347
 1843SOL    HW117162   3.372   2.248   9.243 -2.2647  1.7511 -0.1843
 1843SOL    HW217163   3.377   2.113   9.189 -0.5347 -0.4074 -0.2240
 1844SOL     OW17164   2.749   2.105   9.483  0.0206  0.4969 -0.1999
 1844SOL    HW117165   2.701   2.141   9.557 -0.3168 -1.5981  0.6049
 1844SOL    HW217166   2.760   2.014   9.509 -0.1793  0.2508 -0.9777
 1845SOL     OW17167   0.029   3.035   8.041 -0.5281 -0.3001  0.1098
 1845SOL    HW117168   0.107   2.991   8.008 -0.1548  0.6544 -0.2896
 1845SOL    HW217169   0.067   3.083   8.115  1.2817  0.3856 -1.2436
 1846SOL     OW17170   1.379   2.718   8.248  0.2504  0.3231  0.1807
 1846SOL    HW117171   1.426   2.643   8.211  1.5207  1.4802 -0.5960
 1846SOL    HW217172   1.288   2.694   8.233 -0.5675  3.5705 -0.0346
 1847SOL     OW17173   1.376   2.274   5.988  0.0506 -0.4545 -0.3982
 1847SOL    HW117174   1.287   2.275   6.022  0.4878  0.2850  0.7585
 1847SOL    HW217175   1.368   2.321   5.905 -1.2023 -0.7575 -0.4401
 1848SOL     OW17176   4.381   1.701   3.002  0.0886  0.1389  0.3567
 1848SOL    HW117177   4.422   1.629   3.049 -1.0011 -0.3691  0.5320
 1848SOL    HW217178   4.426   1.711   2.918  2.8847  0.5551  1.8968
 1849SOL     OW17179   4.196   1.908   4.054 -0.1320  0.7083 -0.1540
 1849SOL    HW117180   4.193   1.913   3.958  0.6970  2.1749 -0.1106
 1849SOL    HW217181   4.115   1.948   4.085 -0.1371  0.4546  0.1612
 1850SOL     OW17182   0.375   1.784   2.572  0.0227  0.1692 -0.5707
 1850SOL    HW117183   0.280   1.781   2.572  0.0764 -1.8227  1.5804
 1850SOL    HW217184   0.390   1.786   2.478 -2.3395 -0.9027 -0.9580
 1851SOL     OW17185   4.409   1.392   8.129  0.4785 -0.0034  0.7435
 1851SOL    HW117186   4.382   1.300   8.126  0.9417 -0.1195  0.2436
 1851SOL    HW217187   4.393   1.415   8.037  0.0334 -0.7629  0.6313
 1852SOL     OW17188   2.774   1.508   0.336 -0.6673  0.2156  0.3986
 1852SOL    HW117189   2.785   1.559   0.256 -2.6749 -1.4047 -0.9020
 1852SOL    HW217190   2.844   1.541   0.392 -0.9275 -1.6033  1.7793
 1853SOL     OW17191   4.282   3.034   4.645 -0.6090  0.1559 -0.6812
 1853SOL    HW117192   4.341   3.016   4.572  0.3450 -1.9856  0.6228
 1853SOL    HW217193   4.284   3.129   4.639 -0.0915  0.2099  0.3893
 1854SOL     OW17194   2.697   1.971   4.203  0.2666 -0.5249  0.0735
 1854SOL    HW117195   2.631   2.039   4.213 -0.1988 -0.9227 -0.3134
 1854SOL    HW217196   2.667   1.919   4.129 -0.8694  1.5905 -0.9403
 1855SOL     OW17197   4.594   3.014   2.233 -0.1681 -0.5664  0.1434
 1855SOL    HW117198   4.542   3.020   2.313 -0.7862  1.1479 -0.3974
 1855SOL    HW217199   4.626   2.924   2.234  0.7644 -0.2251  0.2540
 1856SOL     OW17200   2.550   2.421   9.901  0.4911 -0.3925  0.0724
 1856SOL    HW117201   2.498   2.448   9.825 -0.4082  0.4429  0.9943
 1856SOL    HW217202   2.497   2.364   9.956 -2.1876  0.3048 -1.7799
 1857SOL     OW17203   2.668   2.732  14.812 -0.6066  0.0451  0.0461
 1857SOL    HW117204   2.708   2.701  14.893 -0.8934  1.1892  0.6285
 1857SOL    HW217205   2.660   2.824  14.835  1.1607  0.4289 -0.8523
 1858SOL     OW17206   2.148   2.388   7.884  0.7220 -0.0837 -0.4824
 1858SOL    HW117207   2.215   2.402   7.816  1.4448  0.6425  0.3833
 1858SOL    HW217208   2.148   2.469   7.936 -0.3851  0.4964 -1.3945
 1859SOL     OW17209   2.210   1.830   3.470 -0.9941  0.4623 -0.0203
 1859SOL    HW117210   2.252   1.882   3.402 -1.4437 -0.8110 -1.2577
 1859SOL    HW217211   2.277   1.762   3.476  0.5580  1.9246 -0.5047
 1860SOL     OW17212   1.809   3.942   8.786 -0.0132 -0.0492  0.5649
 1860SOL    HW117213   1.728   3.899   8.814 -0.5389 -0.4655 -1.5682
 1860SOL    HW217214   1.851   3.952   8.871  1.3717 -1.2240  0.0091
 1861SOL     OW17215   4.119   0.795  15.035 -0.4532 -0.7169 -0.1283
 1861SOL    HW117216   4.100   0.727  15.099  1.0797 -1.0919 -0.0831
 1861SOL    HW217217   4.205   0.827  15.061  0.2588 -1.8690 -1.0827
 1862SOL     OW17218   3.344   1.872   7.709  0.0958  0.1566 -0.5706
 1862SOL    HW117219   3.318   1.950   7.659  0.0929  1.2312  1.1044
 1862SOL    HW217220   3.327   1.793   7.659  1.6111 -0.0163 -0.8225
 1863SOL     OW17221   1.984   4.165   7.482 -0.2792 -0.4242  0.0184
 1863SOL    HW117222   2.076   4.190   7.474 -0.3789  0.3633  1.2404
 1863SOL    HW217223   1.994   4.071   7.467  1.1168 -0.3949  0.7601
 1864SOL     OW17224   0.746   3.607   6.496  0.1072 -0.2528 -0.3803
 1864SOL    HW117225   0.686   3.659   6.548 -0.7800 -0.0632 -1.5948
 1864SOL    HW217226   0.734   3.528   6.548  1.1307  0.8607  1.5209
 1865SOL     OW17227   0.440   0.511   1.876  0.1398 -0.5638 -0.1321
 1865SOL    HW117228   0.360   0.500   1.825  1.1967 -2.8156 -1.3188
 1865SOL    HW217229   0.452   0.606   1.870 -0.2450 -0.4228  1.4626
 1866SOL     OW17230   3.409   1.611  12.274 -0.5699 -0.8622  0.1735
 1866SOL    HW117231   3.442   1.699  12.256 -0.3205 -1.0259 -0.1643
 1866SOL    HW217232   3.432   1.565  12.193 -0.9435  0.8284 -0.8927
 1867SOL     OW17233   1.320   4.526   5.149  0.0433 -0.2086 -0.1265
 1867SOL    HW117234   1.271   4.602   5.117 -1.5166 -0.5195  1.5078
 1867SOL    HW217235   1.260   4.487   5.214 -3.2587  1.5223 -2.1465
 1868SOL     OW17236   2.324   2.355  14.473  0.0096  0.1987  0.2099
 1868SOL    HW117237   2.248   2.297  14.469 -1.0117  1.4034  1.9110
 1868SOL    HW217238   2.399   2.302  14.447  0.8588  1.0097  0.9959
 1869SOL     OW17239   0.613   1.181  10.488  0.1061 -0.2065 -0.0005
 1869SOL    HW117240   0.661   1.119  10.542 -0.9597 -0.4063  0.7059
 1869SOL    HW217241   0.539   1.129  10.458 -0.4487  0.4145  0.2852
 1870SOL     OW17242   4.474   1.973   3.183 -0.3349 -0.1787 -0.1689
 1870SOL    HW117243   4.508   1.989   3.095 -0.7670  1.7896  0.0149
 1870SOL    HW217244   4.451   2.063   3.205 -1.0639 -0.7722  1.5185
 1871SOL     OW17245   4.429   4.604   8.997  0.1937 -0.2839  0.8018
 1871SOL    HW117246   4.455   4.694   9.012 -2.7601  0.9706 -1.5592
 1871SOL    HW217247   4.482   4.577   8.922  1.2360  1.0942  1.0450
 1872SOL     OW17248   2.413   2.495   7.771 -0.1027  0.1674 -0.6802
 1872SOL    HW117249   2.503   2.461   7.775  0.6069  2.1049 -0.3557
 1872SOL    HW217250   2.383   2.468   7.685 -0.7018  0.4429 -0.5537
 1873SOL     OW17251   1.187   0.548   9.698 -0.7980  0.1120 -0.2116
 1873SOL    HW117252   1.144   0.632   9.682 -0.1589  0.6246  0.7535
 1873SOL    HW217253   1.239   0.570   9.775 -0.7142  0.2472 -0.3056
 1874SOL     OW17254   2.744   0.481   7.979  0.0020 -0.3186 -0.0013
 1874SOL    HW117255   2.671   0.469   8.040 -0.7563 -0.6425 -0.9767
 1874SOL    HW217256   2.708   0.494   7.892  1.0189  1.8598 -0.0997
 1875SOL     OW17257   3.715   3.562   5.141  0.6663  0.4482  0.0368
 1875SOL    HW117258   3.803   3.598   5.138  1.0903 -0.3662  2.1000
 1875SOL    HW217259   3.703   3.532   5.051  1.2665 -0.4847  0.2668
 1876SOL     OW17260   2.508   2.961   5.320  0.0380  0.8222 -0.3010
 1876SOL    HW117261   2.419   2.944   5.288  0.1504 -0.0805 -0.1106
 1876SOL    HW217262   2.501   3.028   5.388  2.0301 -0.4603  1.1569
 1877SOL     OW17263   2.874   2.410  14.342 -0.0399 -0.0254  0.5089
 1877SOL    HW117264   2.920   2.449  14.416  0.0704  1.8749 -0.5687
 1877SOL    HW217265   2.802   2.469  14.322 -0.5833 -1.1979 -0.9899
 1878SOL     OW17266   1.682   0.890  13.184 -0.2831  0.1188 -0.2695
 1878SOL    HW117267   1.773   0.912  13.168 -0.1584 -0.8905 -0.9176
 1878SOL    HW217268   1.643   0.976  13.170  1.5054  0.8449 -0.7132
 1879SOL     OW17269   4.202   0.179   8.805  0.2079  0.2125 -0.6466
 1879SOL    HW117270   4.146   0.123   8.753 -0.1578 -1.7858  1.8873
 1879SOL    HW217271   4.157   0.191   8.889 -0.1151  0.4494 -0.8559
 1880SOL     OW17272   4.397   0.920  15.187  0.1925 -0.2984 -0.2671
 1880SOL    HW117273   4.431   0.967  15.111  2.3695  0.3536  1.0990
 1880SOL    HW217274   4.434   0.971  15.260  0.2091 -1.7433  0.7335
 1881SOL     OW17275   2.685   0.485  13.341  0.3296  0.3938 -0.1143
 1881SOL    HW117276   2.632   0.494  13.420  1.0933  0.7190  0.3658
 1881SOL    HW217277   2.636   0.547  13.286 -1.6618 -0.6418  0.5123
 1882SOL     OW17278   3.023   0.668   7.819  0.9599  0.1717  0.3104
 1882SOL    HW117279   3.013   0.657   7.913  1.3511  0.3482  0.3723
 1882SOL    HW217280   3.029   0.764   7.812  0.3468  0.2335  0.7101
 1883SOL     OW17281   3.248   3.805   0.740  0.3941 -0.4641 -0.6427
 1883SOL    HW117282   3.154   3.814   0.722  0.0169  0.6611  1.8486
 1883SOL    HW217283   3.273   3.731   0.685  1.1543 -2.2641  2.0732
 1884SOL     OW17284   0.368   1.679   4.785  0.2488  0.4093 -0.0151
 1884SOL    HW117285   0.285   1.656   4.743  1.1298 -0.5584 -1.2564
 1884SOL    HW217286   0.398   1.599   4.827 -0.9905  0.3880  0.8294
 1885SOL     OW17287   4.242   4.250   0.871  0.4583 -0.1478 -0.5019
 1885SOL    HW117288   4.257   4.180   0.808 -0.5700  0.4457 -1.4006
 1885SOL    HW217289   4.179   4.306   0.826 -0.2074  0.0201  0.6335
 1886SOL     OW17290   3.259   2.887  16.114  0.0944  0.2418 -0.1327
 1886SOL    HW117291   3.266   2.817  16.049  1.3576  0.4591 -0.2394
 1886SOL    HW217292   3.197   2.938  16.063 -1.0746  0.6489  1.6937
 1887SOL     OW17293   1.053   3.047   1.843  0.2228 -0.3026  0.2454
 1887SOL    HW117294   1.013   3.017   1.924  0.2575  2.3510  1.2523
 1887SOL    HW217295   1.091   2.966   1.809  1.3725 -0.8644  2.9129
 1888SOL     OW17296   0.982   2.897   4.744 -0.3512  0.3652 -0.4477
 1888SOL    HW117297   0.981   2.983   4.785 -2.3994  0.5725 -0.9517
 1888SOL    HW217298   0.922   2.922   4.674  0.9603  0.1273 -1.6572
 1889SOL     OW17299   0.178   2.373   0.102 -0.1779 -0.2761  0.0359
 1889SOL    HW117300   0.229   2.454   0.103  0.8460 -0.9131 -0.6052
 1889SOL    HW217301   0.207   2.335   0.019 -0.6549 -1.1265  0.2548
 1890SOL     OW17302   3.651   2.854   1.931 -0.2441 -0.1703 -0.2421
 1890SOL    HW117303   3.678   2.771   1.970  1.3025 -0.0302 -1.0011
 1890SOL    HW217304   3.662   2.838   1.837  1.0379  0.4142 -0.1886
 1891SOL     OW17305   3.566   4.597   4.856 -0.0554 -0.2669 -0.5546
 1891SOL    HW117306   3.537   4.506   4.864 -1.5441  0.4883  2.5785
 1891SOL    HW217307   3.573   4.621   4.948 -1.8586 -4.0385  0.5770
 1892SOL     OW17308   1.342   4.122   5.600 -0.9647  1.1153  0.2303
 1892SOL    HW117309   1.293   4.204   5.591  1.8294  2.4336 -3.2321
 1892SOL    HW217310   1.286   4.051   5.569 -0.7840  0.5732  1.1448
 1893SOL     OW17311   3.210   4.343   6.264  0.3070 -0.2331 -0.2016
 1893SOL    HW117312   3.293   4.305   6.294 -0.0910  0.9486  2.3995
 1893SOL    HW217313   3.146   4.287   6.307  0.3973 -0.7840 -0.7845
 1894SOL     OW17314   4.267   1.887  12.832 -0.3850  0.2875  0.5820
 1894SOL    HW117315   4.347   1.939  12.845  1.4231 -2.3796  0.1675
 1894SOL    HW217316   4.282   1.811  12.887 -1.0233 -0.6220 -0.5020
 1895SOL     OW17317   4.314   3.806  15.732 -0.0126 -0.4947  0.0988
 1895SOL    HW117318   4.225   3.840  15.745 -0.6637 -2.3415  0.4900
 1895SOL    HW217319   4.288   3.721  15.698 -1.2440  0.1330 -0.5445
 1896SOL     OW17320   1.074   1.047   0.167  0.1074  0.3177  0.1132
 1896SOL    HW117321   0.999   1.098   0.196 -0.3083 -1.0191  1.3939
 1896SOL    HW217322   1.035   0.965   0.136 -0.0102  0.6345 -0.5830
 1897SOL     OW17323   4.249   3.564   3.030  0.8634  0.6260  0.5199
 1897SOL    HW117324   4.320   3.503   3.009  0.9809  1.6402 -2.0687
 1897SOL    HW217325   4.295   3.644   3.054 -0.2108  0.9375  1.5305
 1898SOL     OW17326   3.940   1.048   6.427  0.1020  0.3442  0.0996
 1898SOL    HW117327   4.034   1.031   6.428 -0.3104 -2.1119 -1.9560
 1898SOL    HW217328   3.909   0.977   6.482  0.5563  1.5401  1.8964
 1899SOL     OW17329   1.965   1.217  13.693  0.2106 -0.5799 -0.2389
 1899SOL    HW117330   1.961   1.200  13.599  1.7745  3.3815 -1.0117
 1899SOL    HW217331   2.059   1.235  13.695 -0.5278  3.2714 -0.8529
 1900SOL     OW17332   3.708   2.366   0.630 -0.0051  0.2414  0.3510
 1900SOL    HW117333   3.654   2.287   0.638  0.0276  0.0142 -1.7094
 1900SOL    HW217334   3.698   2.387   0.537  1.5993  0.3125  0.2006
 1901SOL     OW17335   0.432   1.737   1.047 -0.3950 -0.1464 -0.5897
 1901SOL    HW117336   0.389   1.815   1.013 -0.4219  0.5510  1.0029
 1901SOL    HW217337   0.401   1.668   0.988  2.6616 -1.4419 -0.6697
 1902SOL     OW17338   1.593   0.003   2.466 -0.1306  0.5724 -0.3709
 1902SOL    HW117339   1.575   4.720   2.373  0.4883 -0.4575 -0.3207
 1902SOL    HW217340   1.506   0.031   2.492 -0.0778  1.7430 -1.4039
 1903SOL     OW17341   2.763   2.385   3.941 -0.7768  0.2520  0.0764
 1903SOL    HW117342   2.773   2.291   3.927  1.3366  0.6149 -0.9061
 1903SOL    HW217343   2.833   2.384   4.006 -0.4729  3.7112 -0.1769
 1904SOL     OW17344   4.108   3.541   6.740  0.4512 -0.2720 -0.0117
 1904SOL    HW117345   4.028   3.569   6.783  2.5895  2.5955  2.0154
 1904SOL    HW217346   4.151   3.621   6.711  0.6982  0.4381  2.4123
 1905SOL     OW17347   4.293   1.406   7.440 -0.2372  0.2665  0.5481
 1905SOL    HW117348   4.256   1.423   7.354  1.2960 -0.8654 -0.3361
 1905SOL    HW217349   4.278   1.311   7.444 -0.0254  0.2724  1.4876
 1906SOL     OW17350   2.185   4.122   3.519 -0.4946  0.2922  0.0032
 1906SOL    HW117351   2.158   4.151   3.432  1.5409  0.5345 -0.5335
 1906SOL    HW217352   2.271   4.083   3.502  0.2749  3.0027 -2.1938
 1907SOL     OW17353   4.313   3.261   3.239 -0.2034  0.1024  0.3220
 1907SOL    HW117354   4.256   3.208   3.295  1.2269  0.1787  1.8554
 1907SOL    HW217355   4.270   3.246   3.155  1.1273 -0.0502 -0.3427
 1908SOL     OW17356   0.384   2.444   9.050  0.2132  0.0223 -0.3520
 1908SOL    HW117357   0.467   2.467   9.091  0.5641 -5.2412  1.9921
 1908SOL    HW217358   0.367   2.357   9.088  0.2217  0.0687 -0.2441
 1909SOL     OW17359   1.575   1.859   4.302  0.5452  0.1396  0.1146
 1909SOL    HW117360   1.555   1.918   4.375  0.6097  0.1138  0.1534
 1909SOL    HW217361   1.669   1.871   4.288  0.6524  1.8522  2.3622
 1910SOL     OW17362   0.244   1.354  16.775  0.8922  0.0193  0.0865
 1910SOL    HW117363   0.227   1.306  16.694  0.2738  1.6287 -0.7538
 1910SOL    HW217364   0.230   1.446  16.751  3.7224  0.2025 -0.8543
 1911SOL     OW17365   2.580   2.995   8.863 -0.7181 -0.3398 -0.0893
 1911SOL    HW117366   2.551   3.022   8.776  1.4896  0.5818 -0.5294
 1911SOL    HW217367   2.657   2.953   8.826 -2.2691 -1.5754 -1.9373
 1912SOL     OW17368   4.447   2.953   4.875 -0.4673 -0.6787 -0.3778
 1912SOL    HW117369   4.390   2.976   4.801  0.8306 -0.0315 -1.1654
 1912SOL    HW217370   4.385   2.910   4.935  0.5119 -0.8446  0.5048
 1913SOL     OW17371   0.653   3.472  14.616  0.9872 -0.1113 -0.0664
 1913SOL    HW117372   0.737   3.435  14.591  0.6783 -1.9675  1.5700
 1913SOL    HW217373   0.689   3.530  14.683  0.7966  0.2686 -0.2950
 1914SOL     OW17374   4.406   2.630   8.272  0.1835 -0.0860  0.5181
 1914SOL    HW117375   4.384   2.604   8.361  0.3850 -0.2753  0.5129
 1914SOL    HW217376   4.353   2.708   8.257 -1.5243 -0.9511  2.0851
 1915SOL     OW17377   2.280   3.237   2.060 -0.2655 -0.0676  0.0275
 1915SOL    HW117378   2.228   3.281   1.994  0.4197  1.6875  0.6403
 1915SOL    HW217379   2.362   3.245   2.011  0.8153 -0.3194  1.7665
 1916SOL     OW17380   3.854   0.777   4.689  0.2965 -0.5468 -0.2108
 1916SOL    HW117381   3.794   0.852   4.686 -2.1349 -2.3376  2.7882
 1916SOL    HW217382   3.877   0.762   4.598  0.9760  0.4388 -0.2044
 1917SOL     OW17383   2.539   0.805  16.924 -0.1731  0.4289  0.3800
 1917SOL    HW117384   2.604   0.773  16.861  1.1777  1.2926  1.3382
 1917SOL    HW217385   2.557   0.747  16.998  0.3620  0.7420  0.4929
 1918SOL     OW17386   3.909   4.366   4.817 -0.2366 -0.9078 -0.2775
 1918SOL    HW117387   3.914   4.462   4.816 -0.6408 -0.9254 -2.6761
 1918SOL    HW217388   3.834   4.350   4.760 -0.3490  2.2571 -0.9917
 1919SOL     OW17389   1.323   0.481   7.293  0.0140  0.3360  0.0280
 1919SOL    HW117390   1.363   0.562   7.262  0.1406  0.6371  0.9819
 1919SOL    HW217391   1.318   0.492   7.388  0.8707  1.1056 -0.0201
 1920SOL     OW17392   1.920   2.166   5.908  0.0521 -0.8697 -0.2740
 1920SOL    HW117393   1.875   2.138   5.988 -4.1890  1.8228 -1.7385
 1920SOL    HW217394   1.863   2.129   5.841 -0.0120  0.8375 -1.1721
 1921SOL     OW17395   1.490   2.086   3.414  0.6247 -0.3186  0.2951
 1921SOL    HW117396   1.455   2.105   3.502 -1.7164 -0.4209 -0.6165
 1921SOL    HW217397   1.458   1.996   3.407 -0.5828  0.1486 -0.0675
 1922SOL     OW17398   2.024   2.127   4.908 -0.4172  0.2750 -0.8293
 1922SOL    HW117399   1.971   2.051   4.933 -1.8326  1.7487  0.6482
 1922SOL    HW217400   2.036   2.168   4.994  0.3940  1.2094 -1.3963
 1923SOL     OW17401   3.948   3.911   4.750 -0.4000 -0.6573 -0.0614
 1923SOL    HW117402   3.969   3.883   4.839 -0.3240 -0.3865  0.0081
 1923SOL    HW217403   3.996   3.847   4.698  0.1402 -1.3368  1.2565
 1924SOL     OW17404   1.150   3.046  15.260  0.1967  0.4076 -0.5762
 1924SOL    HW117405   1.102   3.125  15.238 -1.4814 -0.0867  1.2060
 1924SOL    HW217406   1.088   2.989  15.307 -0.0616 -0.3474 -1.8315
 1925SOL     OW17407   4.369   2.852   8.635  0.0465 -0.0671 -0.2161
 1925SOL    HW117408   4.359   2.762   8.604  1.1538 -1.0808  2.3994
 1925SOL    HW217409   4.284   2.886   8.606  0.1983  0.7445  0.2770
 1926SOL     OW17410   2.253   4.288  12.658 -0.0943  0.0975 -0.0147
 1926SOL    HW117411   2.275   4.326  12.743 -0.5034  2.4480 -0.9665
 1926SOL    HW217412   2.339   4.296  12.616  0.6918  0.1123  1.5973
 1927SOL     OW17413   1.761   4.511  12.170  0.0675 -0.2462 -0.2322
 1927SOL    HW117414   1.755   4.549  12.082  0.9874  0.2036 -0.1055
 1927SOL    HW217415   1.668   4.519  12.187  0.1288 -0.0757  0.0251
 1928SOL     OW17416   1.458   3.496   3.614 -0.3755  0.1681 -0.6030
 1928SOL    HW117417   1.403   3.567   3.647  0.4877  0.4669  0.1831
 1928SOL    HW217418   1.547   3.525   3.633 -0.3786 -0.5401  0.5170
 1929SOL     OW17419   4.122   0.523  14.031  0.6400 -1.0201  0.2108
 1929SOL    HW117420   4.099   0.477  14.112 -1.1754 -0.9487 -0.2550
 1929SOL    HW217421   4.080   0.609  14.041  2.5052 -0.0991  0.0968
 1930SOL     OW17422   4.554   4.295  12.084  0.1876 -0.4858 -0.3993
 1930SOL    HW117423   4.548   4.250  12.169 -3.3782 -0.1473 -0.4641
 1930SOL    HW217424   4.466   4.327  12.061  0.5280 -0.2969 -1.3988
 1931SOL     OW17425   0.991   3.586  14.480  0.4546  0.4967  0.3219
 1931SOL    HW117426   1.019   3.588  14.388 -1.9873 -1.2891 -0.4693
 1931SOL    HW217427   1.009   3.674  14.514 -1.9129  1.3399 -0.5777
 1932SOL     OW17428   2.805   2.965   6.152 -0.5182 -0.4147 -0.0098
 1932SOL    HW117429   2.732   3.016   6.188  0.2164  0.6720 -0.0754
 1932SOL    HW217430   2.825   2.899   6.219  3.1270 -0.8207 -1.5412
 1933SOL     OW17431   4.187   1.722   8.915  0.5368 -0.0832 -0.2172
 1933SOL    HW117432   4.207   1.631   8.934 -0.7220 -0.2070  0.5059
 1933SOL    HW217433   4.255   1.752   8.855 -0.3972  0.9606 -0.7571
 1934SOL     OW17434   0.259   2.403   2.639 -0.1509 -0.2814  0.3359
 1934SOL    HW117435   0.350   2.417   2.665 -0.1223 -0.2678  0.2306
 1934SOL    HW217436   0.229   2.343   2.707 -0.2749 -0.6818 -0.0781
 1935SOL     OW17437   3.242   3.844   3.432  0.3412 -0.3886  0.5582
 1935SOL    HW117438   3.181   3.779   3.399  0.0670  0.3788 -0.4720
 1935SOL    HW217439   3.243   3.902   3.355  2.0118  0.9096  1.5507
 1936SOL     OW17440   0.799   3.769   1.224  0.0051  0.6254 -0.2287
 1936SOL    HW117441   0.724   3.825   1.202 -0.5105  0.1304  0.2834
 1936SOL    HW217442   0.751   3.689   1.246 -0.3290  0.4109 -1.7786
 1937SOL     OW17443   1.247   1.526   3.347 -0.0399  0.3805  0.0672
 1937SOL    HW117444   1.197   1.499   3.424 -0.2061  2.6128  0.7565
 1937SOL    HW217445   1.253   1.621   3.355  0.4129  0.3044  0.6621
 1938SOL     OW17446   0.784   4.021   3.855  1.0903 -0.1613 -0.4530
 1938SOL    HW117447   0.877   4.035   3.833  1.2652 -1.4953 -0.5249
 1938SOL    HW217448   0.771   3.984   3.942  0.8770 -2.1047 -1.3038
 1939SOL     OW17449   0.725   4.392   7.698  0.3546 -0.0145 -0.6943
 1939SOL    HW117450   0.694   4.402   7.608 -4.3136  1.8115  1.1369
 1939SOL    HW217451   0.701   4.480   7.728  0.5386 -1.1800  2.7997
 1940SOL     OW17452   3.611   4.411   6.550  0.0047  0.0311 -0.2336
 1940SOL    HW117453   3.571   4.358   6.619 -2.4661  2.3249  0.0844
 1940SOL    HW217454   3.563   4.494   6.555 -1.2925 -0.7289 -0.2328
 1941SOL     OW17455   1.370   4.037  16.803 -0.6063 -0.3269  0.0451
 1941SOL    HW117456   1.375   4.060  16.710  1.3091 -0.2481  0.1640
 1941SOL    HW217457   1.451   3.987  16.810  1.5287  3.5484  2.6864
 1942SOL     OW17458   4.594   2.899   5.180 -0.9967 -0.2649 -0.0492
 1942SOL    HW117459   4.676   2.859   5.208 -0.1104  0.9103 -0.9656
 1942SOL    HW217460   4.615   2.983   5.139 -0.2155 -0.7450 -0.6166
 1943SOL     OW17461   1.115   2.631   1.458  0.2770 -0.1289 -0.2810
 1943SOL    HW117462   1.119   2.721   1.426  0.7514  0.3812  1.2186
 1943SOL    HW217463   1.117   2.653   1.551  1.0648 -0.3734 -0.2471
 1944SOL     OW17464   0.186   0.482   4.994  0.1608 -0.6516 -0.8766
 1944SOL    HW117465   0.150   0.509   4.909 -0.2160  2.1033  0.1622
 1944SOL    HW217466   0.101   0.459   5.031 -0.2436  0.9979 -0.7601
 1945SOL     OW17467   1.965   0.488   6.729 -0.1238 -0.2795  0.1567
 1945SOL    HW117468   1.896   0.423   6.741 -0.2444 -0.1339  0.2631
 1945SOL    HW217469   1.931   0.566   6.774  1.0689  0.7328 -0.7087
 1946SOL     OW17470   4.199   1.640   4.374 -0.5631 -0.0283  0.2841
 1946SOL    HW117471   4.260   1.712   4.391 -4.2792  3.6109 -2.0295
 1946SOL    HW217472   4.120   1.672   4.417 -0.8166 -0.2093 -0.0488
 1947SOL     OW17473   4.131   0.958   8.566  0.3658 -0.5901 -0.4926
 1947SOL    HW117474   4.042   0.979   8.593 -0.4586 -1.3646 -2.5780
 1947SOL    HW217475   4.182   1.016   8.621 -0.5131  0.9778 -1.3207
 1948SOL     OW17476   3.540   2.201   5.316 -0.1127  0.5031  0.2964
 1948SOL    HW117477   3.487   2.128   5.283 -0.9136  1.0855  0.3105
 1948SOL    HW217478   3.492   2.276   5.283 -0.9938  0.3591  1.2644
 1949SOL     OW17479   1.968   3.350   2.472 -0.0734  0.6767 -0.2281
 1949SOL    HW117480   1.873   3.344   2.483 -0.2339  2.5115 -0.5894
 1949SOL    HW217481   1.996   3.289   2.540 -0.4403  0.6467 -0.1033
 1950SOL     OW17482   3.619   3.430   2.187  0.2059  0.3716 -0.1430
 1950SOL    HW117483   3.528   3.428   2.158  0.2572 -0.0950 -0.2695
 1950SOL    HW217484   3.640   3.523   2.187 -1.1041  0.6594  0.7937
 1951SOL     OW17485   1.635   0.743   8.507 -0.3594 -0.4227 -0.3758
 1951SOL    HW117486   1.648   0.826   8.552  0.5569 -1.3579  1.1051
 1951SOL    HW217487   1.652   0.771   8.418  0.5197  2.2109  0.6173
 1952SOL     OW17488   0.989   1.870   7.550  0.4822  0.8417 -0.7434
 1952SOL    HW117489   0.955   1.848   7.463  1.5184 -3.0830 -0.1769
 1952SOL    HW217490   0.931   1.818   7.606  0.6513  1.3971 -0.0551
 1953SOL     OW17491   2.612   2.282  12.179  0.0572  0.0581  0.4362
 1953SOL    HW117492   2.600   2.240  12.264 -0.8468  1.8920  1.2162
 1953SOL    HW217493   2.553   2.357  12.181  1.2266  0.9302  2.1490
 1954SOL     OW17494   3.864   3.750  12.145 -0.1696  0.0775 -0.3120
 1954SOL    HW117495   3.786   3.767  12.092 -1.4205  0.5424  1.6418
 1954SOL    HW217496   3.865   3.818  12.212 -0.4799 -1.0928  0.8823
 1955SOL     OW17497   4.668   0.156   5.286  0.2124 -0.0161  0.8838
 1955SOL    HW117498   4.575   0.177   5.298 -0.2717 -1.8367  0.1853
 1955SOL    HW217499   4.650   0.087   5.223  1.4239 -0.3171  0.8857
 1956SOL     OW17500   4.313   4.364  10.707 -0.7103  0.1335 -0.1305
 1956SOL    HW117501   4.366   4.385  10.630 -0.8621  0.1689 -0.2252
 1956SOL    HW217502   4.314   4.268  10.712  0.1896  0.1773  0.7434
 1957SOL     OW17503   2.943   0.173   5.437 -0.1527  0.0175 -0.3514
 1957SOL    HW117504   2.958   0.221   5.356  1.5820 -1.0485 -0.6592
 1957SOL    HW217505   2.866   0.220   5.470  0.6057  0.2134  1.1653
 1958SOL     OW17506   1.737   3.339   1.973  0.8134  0.5152  0.1176
 1958SOL    HW117507   1.783   3.256   1.963 -0.6006 -0.4309  1.4597
 1958SOL    HW217508   1.756   3.360   2.064  2.3651 -0.0188 -0.0890
 1959SOL     OW17509   1.054   0.705   7.218 -0.4536  0.2110  0.3549
 1959SOL    HW117510   1.066   0.789   7.175 -0.0109  0.4756  0.9936
 1959SOL    HW217511   1.076   0.717   7.310  1.3538  1.0391 -0.2025
 1960SOL     OW17512   1.409   3.973  17.558 -0.3449  0.5276 -0.3328
 1960SOL    HW117513   1.387   4.065  17.544 -1.3236  0.4370  0.6205
 1960SOL    HW217514   1.391   3.938  17.471 -2.7159 -1.3238  0.8936
 1961SOL     OW17515   3.151   3.472  13.799  0.0238 -0.2144  0.3005
 1961SOL    HW117516   3.194   3.465  13.884 -2.5187 -1.0634  1.5041
 1961SOL    HW217517   3.131   3.565  13.814  0.4949  0.4191 -2.8758
 1962SOL     OW17518   4.475   2.101   5.925 -0.2307 -0.1663 -0.0731
 1962SOL    HW117519   4.430   2.145   5.854 -0.0318  0.0906 -0.0398
 1962SOL    HW217520   4.426   2.148   5.993 -0.6327  1.6194 -1.6161
 1963SOL     OW17521   3.400   4.450   3.947 -0.3595  0.0749  0.2181
 1963SOL    HW117522   3.406   4.398   3.867  0.5986 -0.1107  0.4005
 1963SOL    HW217523   3.306   4.453   3.964 -0.5855 -0.6397 -0.9870
 1964SOL     OW17524   1.711   2.863  14.645 -0.1805 -0.2845 -0.6454
 1964SOL    HW117525   1.730   2.821  14.729  1.8161  1.6595 -0.1541
 1964SOL    HW217526   1.768   2.813  14.586  2.1198  2.6714 -0.9015
 1965SOL     OW17527   2.724   2.717   9.073  0.1249 -0.5411  0.1263
 1965SOL    HW117528   2.731   2.656   9.146  0.2569  1.3643  1.7100
 1965SOL    HW217529   2.645   2.697   9.022 -0.3323  2.2489 -0.3124
 1966SOL     OW17530   4.137   1.366   4.704  0.2524 -0.0000  0.3176
 1966SOL    HW117531   4.118   1.340   4.614 -0.6735  1.1668  0.1821
 1966SOL    HW217532   4.216   1.312   4.711  2.3076  2.9127 -0.4633
 1967SOL     OW17533   0.873   1.726   6.202 -0.0083  0.1139 -0.2407
 1967SOL    HW117534   0.791   1.765   6.170  0.2981  1.5539  0.7171
 1967SOL    HW217535   0.919   1.723   6.118  1.0072 -2.9461  0.4548
 1968SOL     OW17536   0.723   0.840   6.014  0.2849 -0.0256  0.0655
 1968SOL    HW117537   0.741   0.802   6.100  1.3298 -0.8898 -0.5352
 1968SOL    HW217538   0.662   0.910   6.039  2.7609  1.1429  2.7521
 1969SOL     OW17539   2.277   0.817  12.495  0.2388  0.1260  1.1434
 1969SOL    HW117540   2.242   0.797  12.582 -2.6564 -0.7164 -0.2129
 1969SOL    HW217541   2.283   0.911  12.508  0.0969  0.1526  1.0216
 1970SOL     OW17542   0.667   3.039   2.029  0.5479  0.3565 -0.2456
 1970SOL    HW117543   0.677   3.115   1.972  0.8048  0.6923  0.2438
 1970SOL    HW217544   0.578   3.013   2.006  0.8671 -0.6494 -0.3282
 1971SOL     OW17545   3.978   1.822   2.276  0.2172 -0.1421 -0.0180
 1971SOL    HW117546   3.919   1.826   2.200 -2.0983  0.1301  1.7863
 1971SOL    HW217547   3.982   1.914   2.302  1.0179  0.5892 -2.7457
 1972SOL     OW17548   2.808   4.329   3.323  0.1708  0.1828  0.2588
 1972SOL    HW117549   2.798   4.278   3.242  1.3846  1.6616 -0.8299
 1972SOL    HW217550   2.892   4.371   3.305  0.6309 -1.2339 -0.9276
 1973SOL     OW17551   1.768   1.332   2.691  0.2127  0.2462  0.1647
 1973SOL    HW117552   1.725   1.413   2.661 -0.4937 -0.6750 -1.3163
 1973SOL    HW217553   1.726   1.274   2.628 -0.3086 -0.4534  1.1722
 1974SOL     OW17554   4.597   4.428   5.479  0.5659  0.1574  0.1152
 1974SOL    HW117555   4.646   4.433   5.561  1.4321 -0.6301 -0.3589
 1974SOL    HW217556   4.663   4.447   5.412  0.2997  1.2382  0.1545
 1975SOL     OW17557   2.474   3.477   5.668  0.3069  0.2707  0.0066
 1975SOL    HW117558   2.432   3.436   5.744 -0.2407 -0.6493 -0.7942
 1975SOL    HW217559   2.402   3.526   5.627 -2.4227 -3.5681  0.1490
 1976SOL     OW17560   2.424   2.041   4.951 -0.1273  0.1871  0.1606
 1976SOL    HW117561   2.491   2.109   4.949  0.8374 -0.7998 -1.0167
 1976SOL    HW217562   2.383   2.044   4.864 -0.9362 -1.8691  0.4691
 1977SOL     OW17563   0.494   3.250  14.603  0.2897 -0.2824 -0.7397
 1977SOL    HW117564   0.533   3.338  14.606  2.8175 -1.3899 -1.2861
 1977SOL    HW217565   0.401   3.274  14.601  0.2362 -0.3892  0.5303
 1978SOL     OW17566   4.427   3.686  14.588 -0.2648  0.6866 -0.2006
 1978SOL    HW117567   4.379   3.769  14.585  0.9703  1.3729 -1.2359
 1978SOL    HW217568   4.518   3.715  14.601  0.6748 -1.6252 -1.6340
 1979SOL     OW17569   2.112   4.141  17.122 -1.0209  0.0685 -0.7275
 1979SOL    HW117570   2.194   4.185  17.100  1.2510 -3.6529  0.3799
 1979SOL    HW217571   2.042   4.183  17.072 -0.9309 -0.5593 -1.3874
 1980SOL     OW17572   4.414   4.387   9.159 -0.0889  0.1601 -0.4527
 1980SOL    HW117573   4.503   4.355   9.149 -0.3237 -0.2753 -1.1029
 1980SOL    HW217574   4.408   4.450   9.087 -1.6347  0.8795  0.2853
 1981SOL     OW17575   0.741   4.012  13.900  0.2335 -0.0044  0.5069
 1981SOL    HW117576   0.717   4.044  13.988  0.4637 -0.6216  0.7918
 1981SOL    HW217577   0.712   4.083  13.843 -0.4749 -1.2835 -0.7124
 1982SOL     OW17578   2.535   2.886   0.650 -0.0318 -0.1234  0.1483
 1982SOL    HW117579   2.527   2.965   0.596  0.3907 -0.8808 -1.0189
 1982SOL    HW217580   2.527   2.933   0.733 -0.2302  0.5923 -0.2789
 1983SOL     OW17581   0.072   0.651   6.944  0.2253 -0.3269 -0.0719
 1983SOL    HW117582   0.016   0.581   6.977 -0.4365  0.4054  0.3911
 1983SOL    HW217583   0.145   0.659   7.006 -1.5216  2.1566  1.6933
 1984SOL     OW17584   0.121   3.857  14.870 -0.1289 -0.2046  0.1659
 1984SOL    HW117585   0.163   3.773  14.891 -1.8534 -1.0151  0.3201
 1984SOL    HW217586   0.046   3.831  14.817 -0.8945 -0.5401  1.4036
 1985SOL     OW17587   1.278   3.997  16.276  0.5310  0.6128  0.3547
 1985SOL    HW117588   1.282   4.066  16.209  0.0203  0.7511  0.4741
 1985SOL    HW217589   1.200   4.018  16.325  0.1513  0.0595 -0.0083
 1986SOL     OW17590   1.663   0.038   6.561  0.2956 -0.5159  0.0351
 1986SOL    HW117591   1.696   0.027   6.650  0.3969 -1.1307 -0.0763
 1986SOL    HW217592   1.713   4.702   6.517 -1.9959 -0.0600 -3.3016
 1987SOL     OW17593   2.385   2.711   8.196  0.1271 -0.3130 -0.4749
 1987SOL    HW117594   2.362   2.803   8.183 -1.0899 -0.6186 -0.4926
 1987SOL    HW217595   2.318   2.691   8.262 -1.0578 -0.0202 -1.5999
 1988SOL     OW17596   2.445   3.500   6.750  0.4100 -0.3925 -0.4818
 1988SOL    HW117597   2.535   3.469   6.742 -0.2547 -2.7181  0.9390
 1988SOL    HW217598   2.425   3.516   6.843  1.6344  2.9230 -0.7777
 1989SOL     OW17599   3.693   2.155   8.007 -0.1179  0.5499  0.2268
 1989SOL    HW117600   3.744   2.131   7.930 -0.6295 -1.1103  0.4210
 1989SOL    HW217601   3.628   2.085   8.007 -1.8407  2.1453 -2.2721
 1990SOL     OW17602   1.244   4.094  10.177  0.0689 -0.0018  0.3089
 1990SOL    HW117603   1.154   4.112  10.151 -0.5525 -0.2523  2.2511
 1990SOL    HW217604   1.280   4.176  10.144  1.0637  0.2061  1.8989
 1991SOL     OW17605   4.236   1.699   6.183 -0.7534 -0.1582 -0.1488
 1991SOL    HW117606   4.203   1.624   6.232 -0.9237  0.5912  0.9015
 1991SOL    HW217607   4.295   1.731   6.251 -0.9239 -1.5946  0.6748
 1992SOL     OW17608   2.851   3.045  16.492  0.5396 -0.1231 -0.1013
 1992SOL    HW117609   2.845   2.952  16.516 -0.0143  0.4783  2.0898
 1992SOL    HW217610   2.940   3.064  16.522  0.7578  1.1114 -1.5633
 1993SOL     OW17611   1.447   3.707   6.443 -0.1299  0.2806  0.5204
 1993SOL    HW117612   1.358   3.725   6.412 -1.0680  0.3071  3.3033
 1993SOL    HW217613   1.429   3.615   6.462 -0.1993  0.7718  2.8186
 1994SOL     OW17614   2.132   0.339  13.520  0.3264 -0.7009  0.0476
 1994SOL    HW117615   2.127   0.351  13.614 -0.0628  0.6893 -0.1378
 1994SOL    HW217616   2.057   0.390  13.490  0.9075  0.6338  0.8394
 1995SOL     OW17617   0.824   2.917   8.160  0.1071  0.1564  0.8514
 1995SOL    HW117618   0.910   2.905   8.200  1.2250 -2.0061 -2.1939
 1995SOL    HW217619   0.839   2.865   8.081 -1.6202 -1.8002  1.8030
 1996SOL     OW17620   1.196   1.565   7.029 -0.2707 -0.3241  0.2135
 1996SOL    HW117621   1.283   1.591   7.057  0.3755 -0.7663 -1.4088
 1996SOL    HW217622   1.146   1.644   7.048 -0.1035 -0.5099  1.4079
 1997SOL     OW17623   0.993   0.735   3.813 -0.2678  0.3292  0.3717
 1997SOL    HW117624   0.910   0.759   3.855 -0.8333 -1.9288  0.5093
 1997SOL    HW217625   1.041   0.702   3.888 -1.1954  1.7400  1.5937
 1998SOL     OW17626   0.306   1.133   2.206  0.0802 -0.6421  0.1762
 1998SOL    HW117627   0.234   1.180   2.164  0.2540 -0.9876 -0.5163
 1998SOL    HW217628   0.253   1.072   2.257 -0.9234  1.0117  1.1013
 1999SOL     OW17629   3.415   3.463   4.977  0.2936 -0.2417 -0.0193
 1999SOL    HW117630   3.446   3.375   4.996 -1.0289 -0.9116 -0.9449
 1999SOL    HW217631   3.479   3.500   4.916  0.4411 -0.1943  0.1676
 2000SOL     OW17632   2.244   1.424  13.008  0.0511 -0.3967 -0.2642
 2000SOL    HW117633   2.198   1.400  12.927 -1.1532 -0.4582  0.4414
 2000SOL    HW217634   2.333   1.438  12.976  0.2335 -0.2146  0.3300
 2001SOL     OW17635   4.206   0.955   5.512 -0.4333  0.4463  0.8947
 2001SOL    HW117636   4.241   0.980   5.426  1.0318  0.3249  1.4473
 2001SOL    HW217637   4.150   1.030   5.532 -0.0104  1.0411 -0.1487
 2002SOL     OW17638   2.294   3.210   4.503 -0.1783 -0.3452  0.0155
 2002SOL    HW117639   2.357   3.154   4.548  0.3180  0.5093  0.3708
 2002SOL    HW217640   2.279   3.157   4.424 -0.6052 -0.1458 -0.0396
 2003SOL     OW17641   2.475   4.652   2.704  0.0953 -0.3171  0.3272
 2003SOL    HW117642   2.525   4.728   2.732 -2.6817  1.0801  1.4725
 2003SOL    HW217643   2.489   4.663   2.610 -0.8183  0.4020  0.2743
 2004SOL     OW17644   0.944   3.860   6.133  0.1333 -0.5024  0.7431
 2004SOL    HW117645   0.855   3.843   6.103  0.8251 -0.3563 -1.4094
 2004SOL    HW217646   0.964   3.798   6.204  0.1559 -2.5898 -1.0646
 2005SOL     OW17647   3.481   3.544   1.607  0.1484 -0.1166 -0.2076
 2005SOL    HW117648   3.528   3.503   1.534 -1.0646 -1.0469 -0.4704
 2005SOL    HW217649   3.551   3.532   1.670 -0.8721 -1.9637  0.5757
 2006SOL     OW17650   0.925   4.587   4.054 -0.2885 -0.5648  0.2688
 2006SOL    HW117651   0.986   4.521   4.087  0.2773 -0.0107  0.3382
 2006SOL    HW217652   0.835   4.565   4.075 -0.4897  0.9818  1.0237
 2007SOL     OW17653   3.815   1.219  12.421 -0.3021 -0.4654 -0.4682
 2007SOL    HW117654   3.771   1.300  12.396 -0.1836  0.1237  1.2361
 2007SOL    HW217655   3.906   1.243  12.437 -0.0065 -0.9738 -1.4062
 2008SOL     OW17656   0.726   0.661   2.353 -0.6004  0.0949 -0.1868
 2008SOL    HW117657   0.685   0.616   2.279  1.1093  2.2881 -2.4577
 2008SOL    HW217658   0.648   0.709   2.378  0.1090  2.5692 -2.6581
 2009SOL     OW17659   0.769   1.822  10.836 -0.2780  0.6428  0.1375
 2009SOL    HW117660   0.850   1.839  10.885  0.5065  0.4531 -1.0981
 2009SOL    HW217661   0.796   1.736  10.803  2.3216  1.4952  0.0176
 2010SOL     OW17662   4.044   0.829   8.884  0.6373 -1.0206 -0.1564
 2010SOL    HW117663   4.023   0.757   8.825 -2.1742  2.9286 -3.9622
 2010SOL    HW217664   3.955   0.848   8.916  1.6239 -1.6616  2.9880
 2011SOL     OW17665   3.733   0.980   1.953 -0.4757 -0.1515  0.1614
 2011SOL    HW117666   3.758   1.071   1.970 -2.2277  0.3681  0.0114
 2011SOL    HW217667   3.667   0.994   1.885 -0.3969  0.3838  0.1911
 2012SOL     OW17668   3.032   3.708   4.375 -0.1146  0.4093  0.6124
 2012SOL    HW117669   3.122   3.681   4.391  0.1309  0.1769 -1.1898
 2012SOL    HW217670   2.986   3.629   4.402 -0.0845  1.5254  3.9867
 2013SOL     OW17671   0.941   1.989   4.575  0.3705 -0.2066  0.4317
 2013SOL    HW117672   1.019   2.022   4.620 -0.9122  3.5510 -0.0909
 2013SOL    HW217673   0.972   1.937   4.500 -0.8899 -2.8560  1.7467
 2014SOL     OW17674   0.049   2.264   6.588 -0.3726  0.0561  0.2417
 2014SOL    HW117675   0.020   2.327   6.654  0.8248  0.4540  0.3847
 2014SOL    HW217676   0.066   2.319   6.511 -0.4022 -2.3908 -1.5071
 2015SOL     OW17677   0.337   0.214   8.480 -0.1182  0.9141 -0.0704
 2015SOL    HW117678   0.367   0.213   8.390 -2.0212  4.0216 -0.7366
 2015SOL    HW217679   0.414   0.167   8.512  0.6257 -0.6435 -4.1798
 2016SOL     OW17680   0.349   4.339  10.139 -0.3911 -0.2831 -0.1992
 2016SOL    HW117681   0.412   4.275  10.108  1.8342  0.9958  1.6553
 2016SOL    HW217682   0.327   4.388  10.060 -1.5768 -1.7812 -0.7923
 2017SOL     OW17683   2.094   4.094   4.411  0.5793  0.0157 -0.0693
 2017SOL    HW117684   2.120   4.031   4.343  1.1315  0.9869 -0.7654
 2017SOL    HW217685   2.180   4.129   4.433  1.5807 -2.0909 -0.6323
 2018SOL     OW17686   3.790   1.259   7.161 -0.1892  0.2053 -0.2251
 2018SOL    HW117687   3.847   1.263   7.084 -1.3009  2.4623 -0.9276
 2018SOL    HW217688   3.719   1.199   7.138  0.1444 -0.2353 -0.1074
 2019SOL     OW17689   0.608   3.176   0.484 -0.4399 -0.7584 -0.1240
 2019SOL    HW117690   0.623   3.089   0.449  1.0926  0.2870 -2.0279
 2019SOL    HW217691   0.689   3.225   0.469 -1.0557 -0.3116 -1.9133
 2020SOL     OW17692   4.477   4.248  17.667 -0.5200  0.5541 -0.0211
 2020SOL    HW117693   4.499   4.326  17.717 -2.3524 -0.0118  1.6720
 2020SOL    HW217694   4.456   4.186   0.007  3.5566 -0.3391  0.4294
 2021SOL     OW17695   0.026   4.360   3.126 -0.7737 -0.4137 -0.0606
 2021SOL    HW117696   0.108   4.403   3.101 -1.0170  0.5436  0.7786
 2021SOL    HW217697   0.032   4.352   3.221  2.0853  2.2867  0.0051
 2022SOL     OW17698   4.452   4.029  12.830 -1.0103  0.1147 -0.3300
 2022SOL    HW117699   4.510   4.103  12.813  2.0462 -1.5223  2.8849
 2022SOL    HW217700   4.493   4.001  12.912 -2.0775 -2.6214 -0.7500
 2023SOL     OW17701   2.772   0.376   2.617 -0.1889 -0.2973  0.1735
 2023SOL    HW117702   2.806   0.412   2.699 -0.0032  0.8068 -0.3871
 2023SOL    HW217703   2.722   0.447   2.578 -0.0256 -1.2799 -1.8037
 2024SOL     OW17704   0.938   0.460   7.181 -0.1151  0.7578 -0.0517
 2024SOL    HW117705   0.863   0.482   7.126  1.4684 -0.7251 -2.7553
 2024SOL    HW217706   0.960   0.550   7.206 -1.4559  1.0687  0.0005
 2025SOL     OW17707   3.339   1.878   4.970 -0.1404  0.3212 -0.4112
 2025SOL    HW117708   3.291   1.921   5.041 -0.1894 -1.8222  0.8648
 2025SOL    HW217709   3.337   1.783   4.987  2.6657  0.1800 -0.8512
 2026SOL     OW17710   2.802   4.672   2.523 -0.0923  0.3376  1.0177
 2026SOL    HW117711   2.783   4.658   2.616  3.4146 -2.1976  1.3074
 2026SOL    HW217712   2.890   4.635   2.525 -0.8836 -1.6087 -0.6142
 2027SOL     OW17713   3.783   1.955   1.559  0.3883 -0.5328  0.8063
 2027SOL    HW117714   3.688   1.949   1.548  0.3264  0.0032  1.0376
 2027SOL    HW217715   3.829   1.886   1.511 -0.0175 -0.0076 -0.3239
 2028SOL     OW17716   1.118   3.866  17.159  0.5737 -0.0058  0.6616
 2028SOL    HW117717   1.145   3.944  17.110 -1.1547 -0.5386 -1.1594
 2028SOL    HW217718   1.198   3.834  17.200  0.1257 -0.4661  1.1787
 2029SOL     OW17719   3.496   2.605  15.455 -0.3568 -0.4898 -0.3275
 2029SOL    HW117720   3.421   2.641  15.502 -0.1811 -0.2781 -0.2067
 2029SOL    HW217721   3.559   2.586  15.525  1.9767  1.3892 -1.8713
 2030SOL     OW17722   3.449   4.332   5.678 -0.7448  0.1267  0.4277
 2030SOL    HW117723   3.464   4.293   5.592 -0.9100  0.2060  0.3626
 2030SOL    HW217724   3.354   4.348   5.672 -0.1096  3.0892 -1.6616
 2031SOL     OW17725   1.920   0.693   5.668 -0.3495 -0.3287  0.5978
 2031SOL    HW117726   1.997   0.637   5.681 -0.1225  0.3426  2.0595
 2031SOL    HW217727   1.851   0.634   5.699  0.6537 -1.5198  0.5534
 2032SOL     OW17728   2.733   0.298   5.550 -0.2153 -0.3342  0.3881
 2032SOL    HW117729   2.661   0.256   5.598 -1.2556  0.7579 -0.2080
 2032SOL    HW217730   2.672   0.342   5.491  0.9621  0.0136 -0.5645
 2033SOL     OW17731   1.654   1.643   5.528 -0.0184  0.6018  0.3542
 2033SOL    HW117732   1.616   1.711   5.583  0.3870  1.0196  0.1168
 2033SOL    HW217733   1.745   1.672   5.525  0.3297 -0.4021  1.2426
 2034SOL     OW17734   2.835   2.311  10.115  0.1253 -0.5578  0.0065
 2034SOL    HW117735   2.744   2.339  10.108 -0.2883 -1.2377  2.8310
 2034SOL    HW217736   2.866   2.308  10.205 -1.5919 -0.8408  0.5807
 2035SOL     OW17737   0.713   0.951   4.833  0.1810  0.2205 -0.3844
 2035SOL    HW117738   0.673   0.897   4.901 -4.3967  1.3233 -2.1830
 2035SOL    HW217739   0.801   0.961   4.868  0.0720 -2.7112  0.7009
 2036SOL     OW17740   0.909   1.779  17.563 -0.2679  0.1362  0.1395
 2036SOL    HW117741   0.820   1.792  17.595 -0.9610 -2.8034 -0.6418
 2036SOL    HW217742   0.946   1.754  17.647 -0.5897 -0.8120 -0.0072
 2037SOL     OW17743   2.292   3.473   6.538  0.0125  0.0639  0.0438
 2037SOL    HW117744   2.336   3.464   6.622 -0.8462 -2.5127  0.2165
 2037SOL    HW217745   2.236   3.395   6.530 -0.1883  0.2341 -0.2303
 2038SOL     OW17746   3.300   1.590   9.339 -0.0926 -0.3017 -0.0089
 2038SOL    HW117747   3.368   1.649   9.373  0.1606 -1.3430  1.2994
 2038SOL    HW217748   3.333   1.584   9.249  3.0180 -2.1670  1.2231
 2039SOL     OW17749   3.530   4.332   9.153 -0.1547  0.7273  0.4986
 2039SOL    HW117750   3.620   4.354   9.128  0.1876  1.9561  2.8692
 2039SOL    HW217751   3.491   4.284   9.080  0.6038 -1.7923  1.7513
 2040SOL     OW17752   2.453   1.909   0.673 -0.2360 -0.0997 -0.3577
 2040SOL    HW117753   2.433   1.985   0.728  0.0087 -0.5866  0.4082
 2040SOL    HW217754   2.431   1.948   0.588  0.4195 -1.8055 -1.3195
 2041SOL     OW17755   2.667   1.263   1.843  0.0028 -0.1057  0.3216
 2041SOL    HW117756   2.726   1.248   1.917 -0.4199  1.1781  0.9238
 2041SOL    HW217757   2.720   1.332   1.803  1.7811 -1.2709  0.6977
 2042SOL     OW17758   0.783   4.083  15.829 -0.1110  0.4047 -0.2279
 2042SOL    HW117759   0.704   4.073  15.776 -1.1998  1.5811  1.1912
 2042SOL    HW217760   0.764   4.172  15.857 -1.6051  0.2696 -0.8381
 2043SOL     OW17761   1.131   3.248   4.150 -0.2194 -0.2085  0.3465
 2043SOL    HW117762   1.210   3.201   4.176 -1.5678 -2.3046  0.6492
 2043SOL    HW217763   1.165   3.337   4.164 -2.9453  0.8615  0.2137
 2044SOL     OW17764   0.771   2.734   9.797 -0.0253  0.2868  0.3947
 2044SOL    HW117765   0.759   2.654   9.746  1.1279  0.9257 -0.8794
 2044SOL    HW217766   0.779   2.797   9.726  0.7230 -0.1871  0.0590
 2045SOL     OW17767   0.836   2.168   6.866 -0.5421 -0.1276 -0.0171
 2045SOL    HW117768   0.911   2.214   6.826  0.1346 -0.0308  1.3606
 2045SOL    HW217769   0.765   2.223   6.833 -0.6769  0.1499  0.7344
 2046SOL     OW17770   2.217   2.371  12.187 -0.1030  0.4335 -0.0140
 2046SOL    HW117771   2.250   2.290  12.225  0.9869  0.9910  0.2484
 2046SOL    HW217772   2.221   2.343  12.095 -1.2052  1.6501 -0.4272
 2047SOL     OW17773   2.887   2.562   5.106  0.4803  0.4477 -0.0053
 2047SOL    HW117774   2.949   2.615   5.156  1.1550  1.3709 -1.8244
 2047SOL    HW217775   2.915   2.581   5.017  1.4169  1.1688  0.4328
 2048SOL     OW17776   4.132   2.724   4.060  0.0772 -0.0257 -0.1386
 2048SOL    HW117777   4.196   2.715   4.131 -0.3711  0.2460  0.3016
 2048SOL    HW217778   4.190   2.703   3.987  1.1929 -1.4071  1.1279
 2049SOL     OW17779   2.669   3.898   5.080 -0.2946 -0.5000 -0.7024
 2049SOL    HW117780   2.655   3.839   5.154 -1.4928 -0.7625 -1.1371
 2049SOL    HW217781   2.597   3.960   5.090  0.9345  0.8392 -0.2484
 2050SOL     OW17782   2.128   1.107   0.070 -0.1128 -0.1890  0.6031
 2050SOL    HW117783   2.148   1.170   0.000 -1.7207 -0.4140 -0.0563
 2050SOL    HW217784   2.090   1.168   0.134  0.5265 -1.8508  2.5456
 2051SOL     OW17785   1.216   3.984   8.635 -0.4109 -0.1056 -0.8019
 2051SOL    HW117786   1.259   3.901   8.658  1.0080  0.9672  0.4629
 2051SOL    HW217787   1.299   4.031   8.628  0.7315 -2.1016 -0.6467
 2052SOL     OW17788   0.875   4.291  12.374 -0.3059 -0.0207  0.1950
 2052SOL    HW117789   0.930   4.241  12.314  0.3269  0.5565  0.2928
 2052SOL    HW217790   0.940   4.302  12.443  0.5068 -0.5640 -0.4926
 2053SOL     OW17791   2.700   4.411  13.970  0.2046  0.0416 -0.4044
 2053SOL    HW117792   2.719   4.372  13.885  1.6444 -1.7305  0.7208
 2053SOL    HW217793   2.779   4.455  14.001  0.1028  0.5833 -0.9034
 2054SOL     OW17794   1.949   1.244   6.419 -0.0451 -0.2742 -0.3822
 2054SOL    HW117795   1.912   1.307   6.480 -0.6188  0.5284 -1.5614
 2054SOL    HW217796   1.901   1.240   6.336  1.9811  1.0431 -1.6141
 2055SOL     OW17797   4.419   0.344   2.674  0.4099 -0.5705  0.4130
 2055SOL    HW117798   4.515   0.344   2.668  0.2759 -1.3370 -1.7190
 2055SOL    HW217799   4.413   0.426   2.723 -0.0896  0.3728 -1.2282
 2056SOL     OW17800   3.563   2.872   8.805  0.1838 -0.7372  0.5864
 2056SOL    HW117801   3.609   2.800   8.762  1.1261  1.1896 -1.6373
 2056SOL    HW217802   3.474   2.849   8.781 -0.1555 -1.1357  2.2054
 2057SOL     OW17803   4.147   4.326  11.954  0.2305  0.4444  0.2382
 2057SOL    HW117804   4.112   4.243  11.985 -0.3397  0.1024 -1.3638
 2057SOL    HW217805   4.206   4.359  12.022 -0.4766  1.3203  0.4380
 2058SOL     OW17806   3.941   4.438  15.861  0.5448 -0.3471 -0.2598
 2058SOL    HW117807   3.948   4.486  15.779  2.6835 -0.1044  0.0724
 2058SOL    HW217808   4.024   4.463  15.901  0.5552 -1.9726  0.7348
 2059SOL     OW17809   4.553   0.803   9.473 -0.1297  0.1664 -0.1748
 2059SOL    HW117810   4.571   0.778   9.382 -0.4776  0.8159 -0.4226
 2059SOL    HW217811   4.563   0.898   9.472 -0.1389  0.1666 -0.9334
 2060SOL     OW17812   1.483   1.182   3.820  0.5437  0.5361 -0.3177
 2060SOL    HW117813   1.443   1.240   3.756  0.8505 -0.9246 -1.8319
 2060SOL    HW217814   1.492   1.101   3.771 -0.6692 -1.1653  2.2777
 2061SOL     OW17815   1.966   1.375   4.367  0.9241 -0.1790 -0.2314
 2061SOL    HW117816   1.938   1.309   4.304 -1.4345 -1.3652  2.0429
 2061SOL    HW217817   1.947   1.315   4.439  1.5352 -3.4465 -2.8297
 2062SOL     OW17818   4.353   2.370  12.942  0.0841 -0.7880 -0.0248
 2062SOL    HW117819   4.319   2.316  13.013 -0.3156 -0.4902  0.0040
 2062SOL    HW217820   4.412   2.429  12.989 -0.0260 -0.5311 -0.2131
 2063SOL     OW17821   1.391   1.251   2.449 -0.1593  0.3214  0.4949
 2063SOL    HW117822   1.451   1.324   2.465  1.5013 -0.7317 -0.8945
 2063SOL    HW217823   1.306   1.289   2.473 -0.0395 -0.3412  1.9931
 2064SOL     OW17824   0.671   4.639   7.821 -0.1419 -0.2171 -0.2200
 2064SOL    HW117825   0.652   4.732   7.827  1.8480 -0.0790  4.0179
 2064SOL    HW217826   0.765   4.636   7.801  0.1009  0.4937  0.8521
 2065SOL     OW17827   2.689   2.347   6.233  0.0912 -0.1229  0.4130
 2065SOL    HW117828   2.709   2.440   6.241 -2.5618  0.2378  2.7274
 2065SOL    HW217829   2.696   2.332   6.139 -0.4212  0.8585  0.2169
 2066SOL     OW17830   0.064   1.581   2.810 -0.2553 -0.0117  0.3380
 2066SOL    HW117831   0.116   1.518   2.760 -1.7484 -2.0359  1.3337
 2066SOL    HW217832   0.080   1.666   2.769 -0.8264  1.2659  2.8170
 2067SOL     OW17833   2.644   3.679   1.763  0.5793  0.1680 -0.6196
 2067SOL    HW117834   2.588   3.718   1.830  1.1970 -0.0164 -0.0013
 2067SOL    HW217835   2.731   3.687   1.802 -0.5619  2.4033  1.4561
 2068SOL     OW17836   1.972   0.372   4.915  0.1123 -0.2503  0.7249
 2068SOL    HW117837   1.959   0.335   5.002 -2.3678 -0.2271  0.3582
 2068SOL    HW217838   2.061   0.342   4.894  1.1964  0.3141  4.5243
 2069SOL     OW17839   2.064   3.394  12.682 -0.2677 -0.4005 -0.1678
 2069SOL    HW117840   2.003   3.456  12.643 -2.8205 -2.5194  0.5079
 2069SOL    HW217841   2.128   3.460  12.710 -1.7145  0.9348 -0.0297
 2070SOL     OW17842   2.680   1.847   6.803  0.2490  0.5469 -1.0634
 2070SOL    HW117843   2.738   1.865   6.877  0.4404  0.1038 -1.1075
 2070SOL    HW217844   2.649   1.936   6.784 -0.4146  0.3417 -0.9398
 2071SOL     OW17845   1.548   1.624   6.051 -0.1749 -0.0226 -0.2381
 2071SOL    HW117846   1.602   1.593   6.124 -0.5626 -0.8272 -0.2810
 2071SOL    HW217847   1.598   1.573   5.987 -1.6457 -0.1705 -1.2744
 2072SOL     OW17848   2.569   1.476   7.786  0.7933  0.0679  0.1761
 2072SOL    HW117849   2.547   1.401   7.730 -1.9400  0.8252  0.2613
 2072SOL    HW217850   2.498   1.499   7.845  0.2559 -1.3956  0.1129
 2073SOL     OW17851   1.578   3.617   7.115  0.0595  0.1711 -0.2403
 2073SOL    HW117852   1.573   3.522   7.107  0.4881  0.1564 -0.3288
 2073SOL    HW217853   1.619   3.633   7.031  0.5633  0.5690  0.0799
 2074SOL     OW17854   0.607   4.024   9.980 -0.0279  0.4186 -0.8128
 2074SOL    HW117855   0.667   4.062   9.916 -0.4016  0.3652 -1.1961
 2074SOL    HW217856   0.577   4.104  10.024  0.7418  0.4272 -0.3079
 2075SOL     OW17857   1.517   3.848   4.164  0.4347  0.4406 -0.4240
 2075SOL    HW117858   1.570   3.787   4.216  0.1531 -1.2240 -2.0614
 2075SOL    HW217859   1.565   3.929   4.179  0.1886  0.2755  1.2335
 2076SOL     OW17860   4.552   4.670   9.458  0.4553 -0.1111  0.1938
 2076SOL    HW117861   4.462   4.649   9.432  0.5834 -0.8471  0.3341
 2076SOL    HW217862   4.547   0.031   9.475  1.6997 -0.2241  1.1537
 2077SOL     OW17863   3.757   4.075  13.809  0.6134 -0.4322 -0.5966
 2077SOL    HW117864   3.791   4.163  13.829  0.2118 -0.2356 -0.7739
 2077SOL    HW217865   3.797   4.067  13.723  1.1887 -1.5905 -0.2242
 2078SOL     OW17866   0.120   2.027  11.083  0.1356 -0.6597 -0.9315
 2078SOL    HW117867   0.151   2.006  11.171  2.2674 -0.0918 -1.5643
 2078SOL    HW217868   0.070   1.947  11.069 -1.0569  0.2742 -2.0183
 2079SOL     OW17869   1.013   3.596   5.519 -0.0978  0.5479 -0.2081
 2079SOL    HW117870   1.080   3.530   5.502 -0.6292 -0.1586  0.4685
 2079SOL    HW217871   1.024   3.643   5.436  0.8437  1.3599  0.3643
 2080SOL     OW17872   0.113   4.242   3.772  0.5187 -0.2064 -0.3707
 2080SOL    HW117873   0.051   4.267   3.840  0.8282 -0.2180 -0.0830
 2080SOL    HW217874   0.158   4.162   3.801  0.1205 -0.3956 -0.2795
 2081SOL     OW17875   0.203   3.248   7.450 -0.4300  0.2090  0.1316
 2081SOL    HW117876   0.242   3.336   7.445 -2.0882  0.9225 -0.0438
 2081SOL    HW217877   0.203   3.218   7.359  1.1861  0.6637 -0.0344
 2082SOL     OW17878   1.433   2.977   9.211  0.3049 -0.0484  0.3670
 2082SOL    HW117879   1.404   3.052   9.262  1.3106  1.2564 -0.9788
 2082SOL    HW217880   1.522   2.949   9.233 -0.2894 -2.7922 -0.7257
 2083SOL     OW17881   3.054   3.022  12.771  0.0893  0.0542  0.2118
 2083SOL    HW117882   3.057   2.946  12.828 -1.5135 -0.2881 -0.1564
 2083SOL    HW217883   3.017   2.987  12.690  2.3811 -2.3302  0.2083
 2084SOL     OW17884   3.000   1.673  16.297 -0.3463 -0.3101  0.0600
 2084SOL    HW117885   3.021   1.593  16.346 -0.9214 -1.3536 -1.4184
 2084SOL    HW217886   2.978   1.648  16.208  2.6402  2.8843 -1.5812
 2085SOL     OW17887   2.345   3.744   5.797  0.6533 -0.7938  0.0558
 2085SOL    HW117888   2.359   3.661   5.842  1.3124 -0.4700  0.4487
 2085SOL    HW217889   2.293   3.710   5.723 -1.9356  1.2203  0.9385
 2086SOL     OW17890   3.184   2.116  11.440  0.5000 -0.0241 -0.6011
 2086SOL    HW117891   3.266   2.157  11.466  0.4778 -0.5937  0.3994
 2086SOL    HW217892   3.151   2.161  11.362 -0.8066  0.5991  0.2941
 2087SOL     OW17893   3.743   0.074  11.804  0.4099  0.5261  0.1116
 2087SOL    HW117894   3.742   0.051  11.896 -1.1294 -1.6265 -0.4285
 2087SOL    HW217895   3.651   0.100  11.799  0.2774 -0.2378 -1.4790
 2088SOL     OW17896   1.230   2.624   1.869  0.2779 -0.1130  0.4459
 2088SOL    HW117897   1.307   2.679   1.884  0.4500  0.4640 -2.5592
 2088SOL    HW217898   1.172   2.653   1.939  3.6217 -0.4141  3.2872
 2089SOL     OW17899   0.541   4.595   6.775 -0.0386 -0.2385  0.7347
 2089SOL    HW117900   0.582   4.508   6.776  0.4744 -0.0066 -0.6997
 2089SOL    HW217901   0.616   4.646   6.807 -1.4218  1.1182  1.8145
 2090SOL     OW17902   0.245   1.570   2.222 -0.0351 -0.2326  0.0127
 2090SOL    HW117903   0.250   1.523   2.139  1.4622 -0.5035  0.2599
 2090SOL    HW217904   0.262   1.663   2.202 -1.9790 -0.3119 -1.9981
 2091SOL     OW17905   0.145   3.070  17.481 -0.3567  0.5127 -0.1520
 2091SOL    HW117906   0.173   2.979  17.471 -0.7246  0.2287  1.4982
 2091SOL    HW217907   0.155   3.083  17.575 -4.3577 -0.0921  0.3868
 2092SOL     OW17908   2.571   3.629  14.187  0.5049 -0.0725 -0.0810
 2092SOL    HW117909   2.483   3.602  14.210  0.0404  0.7430 -0.8899
 2092SOL    HW217910   2.614   3.628  14.273  0.7583 -0.3431 -0.2122
 2093SOL     OW17911   3.743   4.172  15.553 -0.0636 -0.1581 -0.0126
 2093SOL    HW117912   3.676   4.144  15.491 -0.6792  0.5821  0.3104
 2093SOL    HW217913   3.762   4.259  15.519  0.8590 -1.6732 -3.3261
 2094SOL     OW17914   0.066   1.795   8.555 -0.4970 -0.0490  0.0943
 2094SOL    HW117915   0.086   1.807   8.648 -1.2187 -2.4951  0.5637
 2094SOL    HW217916   0.155   1.798   8.521 -1.1286  0.4785 -1.4909
 2095SOL     OW17917   1.804   1.578  10.926  0.1375 -0.1590 -0.0704
 2095SOL    HW117918   1.889   1.553  10.961  0.8015 -0.4965 -1.9696
 2095SOL    HW217919   1.740   1.553  10.994 -0.5648  1.0234 -0.2910
 2096SOL     OW17920   4.524   4.180   7.522 -0.0736  0.1118  0.0986
 2096SOL    HW117921   4.562   4.097   7.492  1.4827  0.3004  1.5060
 2096SOL    HW217922   4.467   4.204   7.450 -0.4341  1.9872  1.0183
 2097SOL     OW17923   0.041   1.492  14.440 -0.7061 -0.3897 -0.2920
 2097SOL    HW117924   4.688   1.450  14.450 -0.8149 -0.0444  0.2039
 2097SOL    HW217925   0.081   1.441  14.369  0.1603  1.0171 -0.8151
 2098SOL     OW17926   0.985   2.336   3.573 -0.1608  0.1133  0.3964
 2098SOL    HW117927   0.926   2.410   3.561  2.3934  2.1383  0.5488
 2098SOL    HW217928   0.942   2.302   3.652 -0.9837  1.9195  0.7307
 2099SOL     OW17929   0.415   1.844   9.127  0.3614 -0.2841  0.3622
 2099SOL    HW117930   0.337   1.797   9.156  0.7993 -0.5470  1.1300
 2099SOL    HW217931   0.445   1.865   9.216 -0.8692  0.1350  0.6798
 2100SOL     OW17932   1.156   2.535   4.973 -0.6604  0.7703  0.0255
 2100SOL    HW117933   1.199   2.512   5.056 -4.1749  1.0938  1.9331
 2100SOL    HW217934   1.072   2.563   5.008 -0.2678  1.1683  0.6519
 2101SOL     OW17935   0.419   0.209   3.730  0.0694  0.3116  0.2308
 2101SOL    HW117936   0.509   0.221   3.699  0.2646 -0.6643  0.4276
 2101SOL    HW217937   0.387   0.231   3.642  1.5654  2.8585  0.3081
 2102SOL     OW17938   1.783   2.499   5.683 -0.5412  0.0918  0.1294
 2102SOL    HW117939   1.769   2.437   5.613  0.9758  3.7305 -3.4000
 2102SOL    HW217940   1.691   2.502   5.709  0.0074 -0.2550  2.1537
 2103SOL     OW17941   3.282   4.462   8.555 -0.3545 -0.0929  0.0667
 2103SOL    HW117942   3.260   4.397   8.623  1.0796 -1.9574 -1.2550
 2103SOL    HW217943   3.263   4.544   8.600 -3.1329 -1.2250  1.0105
 2104SOL     OW17944   0.190   3.235  17.272 -0.3032 -0.4180 -0.2056
 2104SOL    HW117945   0.185   3.194  17.359 -2.0622  4.3808  1.9724
 2104SOL    HW217946   0.097   3.255  17.259 -0.4429 -0.9757 -0.0649
 2105SOL     OW17947   2.746   0.539  12.048  0.4936 -0.0485  0.5200
 2105SOL    HW117948   2.714   0.531  12.138 -2.9711 -0.5164 -0.7514
 2105SOL    HW217949   2.805   0.464  12.040  1.1287  0.2688  2.3686
 2106SOL     OW17950   4.311   0.735  14.722 -0.0878  0.7090  0.3330
 2106SOL    HW117951   4.336   0.715  14.631  1.2586  1.2118  0.5947
 2106SOL    HW217952   4.366   0.813  14.730 -1.5170  1.6803  0.6273
 2107SOL     OW17953   0.142   1.870   7.331  0.5620  0.8576 -0.5870
 2107SOL    HW117954   0.220   1.844   7.380 -0.3980  1.0133  1.0582
 2107SOL    HW217955   0.172   1.946   7.282 -2.0458  0.8528 -2.2057
 2108SOL     OW17956   1.301   4.703   8.260  0.0309 -0.1807 -0.5891
 2108SOL    HW117957   1.307   4.633   8.325  4.9745 -1.1768 -2.1138
 2108SOL    HW217958   1.395   4.719   8.254  0.3017 -1.4796  0.0808
 2109SOL     OW17959   3.540   1.442   1.646  0.0502 -0.4547 -0.4535
 2109SOL    HW117960   3.628   1.468   1.619 -1.0336  0.2117 -3.3547
 2109SOL    HW217961   3.559   1.436   1.739  0.4353  1.4785 -0.4014
 2110SOL     OW17962   1.311   0.269   8.842  0.4446  0.0443  0.3737
 2110SOL    HW117963   1.303   0.182   8.802  0.9544  0.1362  0.0736
 2110SOL    HW217964   1.231   0.280   8.892 -1.1249  0.4547 -2.2252
 2111SOL     OW17965   3.958   3.472   5.742  0.5004  0.2764  0.5453
 2111SOL    HW117966   3.898   3.405   5.774 -0.2263  1.6759  2.1658
 2111SOL    HW217967   3.912   3.506   5.665  0.4293  3.0103  1.7686
 2112SOL     OW17968   1.371   0.652   8.351 -0.2074 -0.5051  1.0028
 2112SOL    HW117969   1.445   0.637   8.409  1.4296  0.4726 -0.8168
 2112SOL    HW217970   1.308   0.586   8.379  2.4373 -2.5689  2.0525
 2113SOL     OW17971   1.490   0.524   5.175  0.1409  0.0243  0.0116
 2113SOL    HW117972   1.541   0.503   5.254  0.2311  0.4364  0.0612
 2113SOL    HW217973   1.541   0.475   5.110  0.6234 -1.5386  1.5451
 2114SOL     OW17974   0.833   1.201  15.345  0.9311 -0.3057  0.3295
 2114SOL    HW117975   0.898   1.255  15.300  1.1480 -0.3872  0.5416
 2114SOL    HW217976   0.851   1.241  15.430  0.9686 -0.8364  0.5732
 2115SOL     OW17977   2.286   0.818   4.181 -0.2058  0.0580 -0.0478
 2115SOL    HW117978   2.274   0.913   4.185 -0.9997 -0.0299 -0.3460
 2115SOL    HW217979   2.226   0.799   4.109  2.1310 -0.0941 -1.9693
 2116SOL     OW17980   2.229   2.658   0.101  0.7240 -0.1196 -0.1478
 2116SOL    HW117981   2.182   2.638   0.182 -0.6730  0.4890 -0.8079
 2116SOL    HW217982   2.184   2.613   0.030 -0.7134  0.9404  0.0920
 2117SOL     OW17983   2.711   0.211  10.961  0.1891 -0.4099 -0.0819
 2117SOL    HW117984   2.708   0.136  11.020 -1.4168 -0.2699  0.0004
 2117SOL    HW217985   2.650   0.182  10.893 -0.3900 -0.6673  0.5474
 2118SOL     OW17986   3.547   1.990   4.555 -0.4622 -0.5434 -0.3417
 2118SOL    HW117987   3.584   1.976   4.468  1.1684 -1.9002  0.5700
 2118SOL    HW217988   3.510   2.078   4.544  3.3371  0.7097 -3.4980
 2119SOL     OW17989   2.591   2.657   4.945 -0.0232  0.4436  0.3374
 2119SOL    HW117990   2.662   2.603   4.911 -1.4506  0.2705 -2.3926
 2119SOL    HW217991   2.616   2.667   5.037 -2.7433 -1.4446  1.2756
 2120SOL     OW17992   3.837   2.530  10.163 -0.4193  0.0742 -0.2297
 2120SOL    HW117993   3.770   2.470  10.131  0.3367 -0.7177 -0.3408
 2120SOL    HW217994   3.911   2.495  10.114  0.8383  3.4855 -0.7753
 2121SOL     OW17995   0.250   3.306   4.189  0.3552  0.2085  0.1055
 2121SOL    HW117996   0.314   3.302   4.260  0.1178 -0.7736  0.2652
 2121SOL    HW217997   0.184   3.370   4.214 -2.2492 -2.4800  0.0574
 2122SOL     OW17998   1.433   1.334  15.365 -0.1785 -0.2106 -0.1951
 2122SOL    HW117999   1.523   1.367  15.373 -0.9096  2.2829 -2.2284
 2122SOL    HW218000   1.433   1.246  15.403  0.8879 -0.6043 -1.0794
 2123SOL     OW18001   3.502   0.971   8.009 -0.0315 -0.1466  0.6925
 2123SOL    HW118002   3.532   0.959   7.918 -0.3359 -0.6159  0.6549
 2123SOL    HW218003   3.571   0.929   8.061  2.0984 -0.4685 -2.3983
 2124SOL     OW18004   4.418   4.635  15.865  0.5009 -0.1207  0.1020
 2124SOL    HW118005   4.450   4.556  15.822  0.4005 -1.2333  2.0866
 2124SOL    HW218006   4.465   4.700  15.813  0.5140  0.5254  0.9088
 2125SOL     OW18007   0.117   2.745   4.047 -0.0026 -0.2838  0.5246
 2125SOL    HW118008   0.035   2.789   4.025  0.0640  0.0285  0.9021
 2125SOL    HW218009   0.112   2.667   3.992  0.5248 -0.5601  0.8671
 2126SOL     OW18010   2.827   3.911   8.721  0.0569 -0.2478 -0.4705
 2126SOL    HW118011   2.774   3.908   8.642 -0.4199 -1.5734 -0.0857
 2126SOL    HW218012   2.804   3.835   8.774  0.7112 -0.9185 -1.1532
 2127SOL     OW18013   0.190   0.478   2.314  0.0074  0.5268  0.0306
 2127SOL    HW118014   0.216   0.468   2.223  0.0770 -1.6269  0.2706
 2127SOL    HW218015   0.110   0.425   2.320 -0.0287  0.7427  1.4354
 2128SOL     OW18016   1.742   0.548   6.449  0.3166 -0.4844 -0.0025
 2128SOL    HW118017   1.707   0.462   6.472  0.4036 -0.4108  0.4164
 2128SOL    HW218018   1.831   0.526   6.423  1.6884  1.4708  2.9009
 2129SOL     OW18019   3.977   2.789   1.957  0.1236  0.2423  0.4237
 2129SOL    HW118020   3.993   2.882   1.940  1.2842 -0.1610 -0.7563
 2129SOL    HW218021   4.009   2.745   1.878 -1.7385  2.0375 -1.3385
 2130SOL     OW18022   3.885   0.098   8.428  0.7634  0.6075  0.2567
 2130SOL    HW118023   3.865   0.011   8.463  0.9487 -0.1841 -1.6130
 2130SOL    HW218024   3.897   0.074   8.336  0.1523  1.2689  0.0046
 2131SOL     OW18025   2.247   2.138   7.857 -0.6286  0.0069 -0.3676
 2131SOL    HW118026   2.332   2.181   7.867  0.0254 -1.3453 -0.0108
 2131SOL    HW218027   2.186   2.211   7.867 -0.2511 -0.0462  2.1975
 2132SOL     OW18028   0.878   0.861   2.564  0.4928  0.5586  0.5315
 2132SOL    HW118029   0.886   0.770   2.535 -3.9896  0.1166  0.6016
 2132SOL    HW218030   0.886   0.854   2.660  0.2584 -0.1841  0.4953
 2133SOL     OW18031   2.176   3.253   5.195 -0.2852  0.0422  0.1027
 2133SOL    HW118032   2.125   3.286   5.121  1.2498 -1.0718 -1.4425
 2133SOL    HW218033   2.259   3.234   5.151 -0.1179  2.1306 -0.4663
 2134SOL     OW18034   2.320   0.553   4.306  0.6075 -0.1620 -0.1034
 2134SOL    HW118035   2.337   0.492   4.234 -0.7634 -1.6177  0.8085
 2134SOL    HW218036   2.285   0.634   4.269 -0.2107  0.0821  1.1970
 2135SOL     OW18037   0.953   4.443   0.208 -0.5329  0.6202  0.7141
 2135SOL    HW118038   0.921   4.491   0.285 -0.3318 -0.5785  1.5550
 2135SOL    HW218039   0.970   4.358   0.249 -0.2622  0.2536 -0.1757
 2136SOL     OW18040   4.056   3.040   3.953 -0.0471  0.0288 -0.3813
 2136SOL    HW118041   3.983   2.986   3.984 -1.7907  1.4375 -2.0571
 2136SOL    HW218042   4.126   3.013   4.013  0.6200  2.6415  0.0077
 2137SOL     OW18043   2.182   4.633  13.407  0.0676 -0.1124  0.2473
 2137SOL    HW118044   2.094   4.649  13.373 -0.1415 -0.0159  0.8300
 2137SOL    HW218045   2.159   4.642  13.500 -1.7008 -1.6128 -0.0266
 2138SOL     OW18046   0.316   3.780   8.221 -0.0944 -0.0710 -0.2861
 2138SOL    HW118047   0.351   3.859   8.261  0.7518  0.5820 -2.3067
 2138SOL    HW218048   0.323   3.708   8.283  0.5425 -1.7903 -2.3616
 2139SOL     OW18049   3.984   3.160   9.805 -0.8796  0.2517 -0.0628
 2139SOL    HW118050   3.970   3.252   9.824 -0.6347  0.3792 -0.5100
 2139SOL    HW218051   3.963   3.121   9.890 -0.6961  1.2504  0.4307
 2140SOL     OW18052   1.103   0.074   4.142 -0.0271 -0.2880  0.2642
 2140SOL    HW118053   1.091   0.061   4.236  0.8209 -0.1394  0.3984
 2140SOL    HW218054   1.035   0.016   4.108 -0.4441 -0.0897  0.7688
 2141SOL     OW18055   4.280   4.701   6.729 -0.8156  0.9019 -0.1229
 2141SOL    HW118056   4.318   4.694   6.641 -0.4421 -2.5689  0.3119
 2141SOL    HW218057   4.299   0.056   6.761  1.2039  2.0119 -4.3092
 2142SOL     OW18058   2.166   2.540   1.971 -0.8966  0.1063 -0.1112
 2142SOL    HW118059   2.196   2.459   2.011  0.1780  0.1618 -0.8267
 2142SOL    HW218060   2.101   2.505   1.910  0.7898 -1.4952 -0.9685
 2143SOL     OW18061   2.152   0.884   2.682 -0.2603 -0.1361  0.4272
 2143SOL    HW118062   2.122   0.953   2.622 -2.5051 -2.1228 -0.7494
 2143SOL    HW218063   2.082   0.818   2.687  2.5874 -3.3617 -2.6515
 2144SOL     OW18064   4.002   1.988  12.920  0.2332  0.4355 -0.1892
 2144SOL    HW118065   3.976   2.062  12.866 -0.3854 -0.0761 -0.6044
 2144SOL    HW218066   4.073   1.954  12.865  2.8389  0.8236  2.9424
 2145SOL     OW18067   4.270   4.460   0.021  0.1759 -0.0880  0.2186
 2145SOL    HW118068   4.362   4.451   0.046  0.3054  1.0222  0.1497
 2145SOL    HW218069   4.275   4.458  17.655  0.2878 -1.3122  0.2506
 2146SOL     OW18070   1.193   0.474   8.431 -0.5314  0.0844  0.0136
 2146SOL    HW118071   1.216   0.382   8.446  0.3493 -0.3083 -3.8171
 2146SOL    HW218072   1.100   0.464   8.453 -0.2811  0.1551  1.1412
 2147SOL     OW18073   1.413   0.909  14.787  0.3554 -0.5225 -0.1574
 2147SOL    HW118074   1.457   0.871  14.711 -0.2596  0.0741 -0.8167
 2147SOL    HW218075   1.323   0.921  14.755  1.1074 -0.8724 -2.4205
 2148SOL     OW18076   0.131   2.313   4.904  0.1760  0.1426  0.3881
 2148SOL    HW118077   0.171   2.314   4.817 -2.0273 -0.1563 -0.6368
 2148SOL    HW218078   0.096   2.224   4.910  1.2890 -0.4422 -1.7093
 2149SOL     OW18079   1.450   2.526   3.134 -0.4131  0.1740  0.2820
 2149SOL    HW118080   1.389   2.513   3.207  0.7311  0.9108  1.3685
 2149SOL    HW218081   1.488   2.611   3.153 -0.2555 -0.0749  1.0936
 2150SOL     OW18082   4.328   2.129  10.322  0.1392 -0.1864  0.0894
 2150SOL    HW118083   4.250   2.074  10.332  0.9178 -1.3793 -0.3819
 2150SOL    HW218084   4.297   2.219  10.311  0.5685  0.1941  2.0405
 2151SOL     OW18085   0.638   4.222   4.742 -0.1749 -0.4575  0.3006
 2151SOL    HW118086   0.644   4.312   4.709  1.5878 -1.1816 -1.3223
 2151SOL    HW218087   0.725   4.221   4.781 -0.2411  2.8562  0.5372
 2152SOL     OW18088   2.919   3.195   6.482  0.9268 -0.0654  0.1399
 2152SOL    HW118089   2.980   3.124   6.463  0.3195 -0.8973  1.2981
 2152SOL    HW218090   2.973   3.256   6.532  1.3883  0.5208 -1.0826
 2153SOL     OW18091   2.051   2.661   5.422 -0.4811 -0.0832 -1.0464
 2153SOL    HW118092   1.986   2.675   5.353  0.3784 -0.1135 -1.8751
 2153SOL    HW218093   2.134   2.680   5.378 -1.3695  2.8124 -1.4962
 2154SOL     OW18094   0.329   1.522   7.285  0.1635  0.1668  0.1835
 2154SOL    HW118095   0.386   1.471   7.227  0.9756  0.5679  0.6351
 2154SOL    HW218096   0.346   1.469   7.362 -0.9743  0.3350  0.5526
 2155SOL     OW18097   0.364   2.794   5.512 -0.1874  0.4369  0.2432
 2155SOL    HW118098   0.424   2.828   5.577 -0.0890 -0.5748  0.6881
 2155SOL    HW218099   0.370   2.849   5.434 -2.0550  0.9303  0.4387
 2156SOL     OW18100   2.895   3.520   5.692  0.1445  0.3243  0.1263
 2156SOL    HW118101   2.988   3.538   5.677  0.1123  0.2937 -0.1075
 2156SOL    HW218102   2.893   3.561   5.779 -0.8198 -0.7091  0.5897
 2157SOL     OW18103   1.026   2.776   7.184  0.4948 -0.0523 -0.1131
 2157SOL    HW118104   0.940   2.786   7.143  0.4705 -0.0026 -0.0500
 2157SOL    HW218105   1.047   2.693   7.141 -0.8762 -0.2269 -0.4481
 2158SOL     OW18106   2.039   0.679   3.390  0.1787 -0.0084  0.2517
 2158SOL    HW118107   2.114   0.628   3.421  1.4627  1.0538 -1.1221
 2158SOL    HW218108   1.972   0.648   3.452  0.2625  2.2681  1.4748
 2159SOL     OW18109   2.225   4.202   2.439 -0.3641  0.1161 -0.1895
 2159SOL    HW118110   2.247   4.295   2.445 -1.1056  0.2903 -0.2446
 2159SOL    HW218111   2.134   4.212   2.465 -0.9672  1.7702 -2.8574
 2160SOL     OW18112   2.875   0.986  12.796  0.4552  0.0590  0.2967
 2160SOL    HW118113   2.954   0.950  12.755  0.5988 -1.0953  1.6102
 2160SOL    HW218114   2.839   1.045  12.730 -2.2314 -2.3878 -0.4194
 2161SOL     OW18115   3.863   3.796   1.967 -0.4612  0.1641  0.0595
 2161SOL    HW118116   3.792   3.797   1.903  0.6341 -0.7056 -1.1530
 2161SOL    HW218117   3.945   3.790   1.918 -0.4833  4.2772 -0.4578
 2162SOL     OW18118   1.617   1.418  12.947 -0.2268  0.6503 -0.0407
 2162SOL    HW118119   1.639   1.502  12.986  1.4694  0.4337 -0.5041
 2162SOL    HW218120   1.642   1.433  12.856 -0.6943  1.2503 -0.0668
 2163SOL     OW18121   1.548   0.245   2.212 -0.3843 -0.2535 -0.4267
 2163SOL    HW118122   1.536   0.150   2.221 -0.6566 -0.0669  1.1115
 2163SOL    HW218123   1.552   0.248   2.116 -0.7128  0.1995 -0.4251
 2164SOL     OW18124   1.953   2.812   4.586 -0.0187  0.3598 -0.5807
 2164SOL    HW118125   1.929   2.721   4.606  1.2538  0.2116  0.2845
 2164SOL    HW218126   1.872   2.855   4.616  0.5050  1.1713 -0.3385
 2165SOL     OW18127   1.271   2.030   5.450  0.1843  0.2744 -0.7273
 2165SOL    HW118128   1.242   2.039   5.541  1.6843  1.2750 -0.3461
 2165SOL    HW218129   1.347   1.975   5.469  2.0376  2.5548 -1.6284
 2166SOL     OW18130   0.935   2.278  13.867  0.5233  0.2537 -0.3616
 2166SOL    HW118131   0.968   2.335  13.937 -1.2442  0.8652 -0.0232
 2166SOL    HW218132   0.919   2.194  13.909  1.9486  0.1076 -0.1366
 2167SOL     OW18133   2.855   2.559  13.325  0.2955  0.8221  0.3246
 2167SOL    HW118134   2.902   2.579  13.407 -0.2361  0.9522  0.5998
 2167SOL    HW218135   2.777   2.519  13.363  0.5596 -1.4864 -1.6192
 2168SOL     OW18136   3.436   2.912  16.541  0.2406 -0.2531  0.0451
 2168SOL    HW118137   3.346   2.884  16.521  0.0792 -0.4309  0.9838
 2168SOL    HW218138   3.466   2.925  16.451 -1.0771  0.7703 -0.2550
 2169SOL     OW18139   2.252   0.672  15.079 -0.0587  0.3657  0.1266
 2169SOL    HW118140   2.302   0.612  15.135  1.2590 -0.2975 -1.7702
 2169SOL    HW218141   2.317   0.701  15.015  0.4501 -1.0395  0.0239
 2170SOL     OW18142   0.209   1.689   9.190  0.4994  0.3975 -0.1191
 2170SOL    HW118143   0.193   1.599   9.163  2.3343  0.0899 -0.2216
 2170SOL    HW218144   0.142   1.711   9.254 -1.3723 -0.9642 -1.6392
 2171SOL     OW18145   3.968   4.510   8.466 -0.1551 -0.1767  0.1068
 2171SOL    HW118146   3.996   4.466   8.386  0.9384 -0.7026  0.7852
 2171SOL    HW218147   3.976   4.445   8.537 -3.2594 -0.4593  0.2318
 2172SOL     OW18148   3.309   0.206   6.824 -0.1712 -0.2528  0.4513
 2172SOL    HW118149   3.269   0.120   6.806  1.7631 -1.1367  0.3405
 2172SOL    HW218150   3.374   0.183   6.890 -0.0899 -0.1552  0.4043
 2173SOL     OW18151   1.077   2.016   7.756 -0.4687 -0.1899  0.8606
 2173SOL    HW118152   1.097   1.929   7.791  0.9259 -0.6301 -0.9860
 2173SOL    HW218153   1.065   1.981   7.668 -1.2743  1.2472  0.4040
 2174SOL     OW18154   1.885   0.713   0.157  0.2437 -0.0696 -0.6565
 2174SOL    HW118155   1.904   0.638   0.101  2.2708  0.2493 -0.3797
 2174SOL    HW218156   1.904   0.781   0.092  1.4389 -3.0232 -3.3845
 2175SOL     OW18157   3.791   0.040   5.990 -0.0343 -0.2552 -0.2452
 2175SOL    HW118158   3.850   0.111   6.015  0.7374 -0.9233 -0.1476
 2175SOL    HW218159   3.774   0.059   5.898 -0.0003 -1.0059 -0.4109
 2176SOL     OW18160   3.378   2.759   3.015  0.2202  0.4208 -0.0268
 2176SOL    HW118161   3.368   2.852   3.034  0.4204  0.3071  0.6362
 2176SOL    HW218162   3.447   2.761   2.948  2.0789  0.2594  1.8911
 2177SOL     OW18163   3.153   4.261   8.168  0.4128 -0.6244 -0.4064
 2177SOL    HW118164   3.212   4.278   8.241  1.1519  0.6466 -1.2953
 2177SOL    HW218165   3.078   4.228   8.217  1.9759  0.6272  2.8085
 2178SOL     OW18166   1.653   3.278   0.784 -0.5030  0.1861 -0.1094
 2178SOL    HW118167   1.671   3.368   0.811 -0.0142 -0.5058  1.8747
 2178SOL    HW218168   1.581   3.254   0.841 -1.3793  1.7142 -0.5744
 2179SOL     OW18169   2.594   1.188   8.439 -0.0203  0.0337  0.4975
 2179SOL    HW118170   2.611   1.279   8.415  0.8364 -0.3301 -0.2634
 2179SOL    HW218171   2.593   1.198   8.534 -2.6531 -1.6131  0.6474
 2180SOL     OW18172   3.837   2.744   4.684  0.0444 -0.0052 -0.2617
 2180SOL    HW118173   3.865   2.696   4.606 -0.1074  1.2647 -1.0946
 2180SOL    HW218174   3.898   2.817   4.691  1.7025 -1.4445  0.0624
 2181SOL     OW18175   2.501   0.795  16.450 -0.3543  0.0013  0.3127
 2181SOL    HW118176   2.534   0.716  16.408 -0.3189 -0.1316  0.5932
 2181SOL    HW218177   2.492   0.847  16.370  0.3529 -1.1202 -0.4952
 2182SOL     OW18178   0.822   3.002   8.646 -1.1975 -0.0766  0.0159
 2182SOL    HW118179   0.825   3.077   8.587  0.7061 -0.6557 -0.6382
 2182SOL    HW218180   0.777   3.042   8.720 -1.3517  0.7449 -0.5223
 2183SOL     OW18181   3.439   2.460  16.852 -0.1073  0.1594  0.2062
 2183SOL    HW118182   3.355   2.459  16.807 -1.4322  0.6241  2.6410
 2183SOL    HW218183   3.441   2.368  16.876 -1.5436 -0.5848 -2.5282
 2184SOL     OW18184   1.806   2.308   8.452 -0.8326  0.5088  0.3534
 2184SOL    HW118185   1.818   2.245   8.381  0.1828  0.5151  0.5198
 2184SOL    HW218186   1.798   2.393   8.408 -2.8744  0.2913  0.3003
 2185SOL     OW18187   0.785   4.512  16.991 -0.2503 -0.3574  0.3623
 2185SOL    HW118188   0.824   4.441  16.942 -1.1898  1.1667 -2.5795
 2185SOL    HW218189   0.772   4.585  16.930  0.3008  0.4582  1.2237
 2186SOL     OW18190   0.281   2.687  12.063 -0.5405 -0.4223 -0.6238
 2186SOL    HW118191   0.302   2.594  12.065  0.5804 -0.1854 -1.3433
 2186SOL    HW218192   0.305   2.706  11.972  1.7186 -0.3576 -0.0289
 2187SOL     OW18193   1.199   1.529   4.127  0.0531  0.5200  0.1241
 2187SOL    HW118194   1.265   1.597   4.136 -1.3738  1.8719  0.5385
 2187SOL    HW218195   1.212   1.483   4.210 -1.7414 -1.5402 -0.7265
 2188SOL     OW18196   3.362   1.114   2.848 -0.6352  0.0838  0.1207
 2188SOL    HW118197   3.381   1.023   2.873 -1.9524  0.1294  1.3341
 2188SOL    HW218198   3.272   1.120   2.880 -0.5505 -3.4293  1.0217
 2189SOL     OW18199   0.744   1.579   3.667 -0.0344 -0.2858 -0.0107
 2189SOL    HW118200   0.655   1.574   3.633  0.1600  1.1056 -0.7056
 2189SOL    HW218201   0.724   1.546   3.755 -2.1802  0.4886 -0.1982
 2190SOL     OW18202   1.917   4.662  13.304  0.3868  0.1173 -0.3228
 2190SOL    HW118203   1.857   4.704  13.365  0.1901  1.1552 -1.2395
 2190SOL    HW218204   1.859   4.667  13.229  1.2651 -2.1629 -1.1718
 2191SOL     OW18205   1.391   1.743   4.123 -0.3889  0.1204 -0.4748
 2191SOL    HW118206   1.461   1.775   4.180 -0.4019  2.8414 -1.9819
 2191SOL    HW218207   1.363   1.825   4.083  0.5979 -0.0218 -1.4497
 2192SOL     OW18208   0.842   0.129   8.798 -0.2108  0.3934  0.3378
 2192SOL    HW118209   0.890   0.138   8.715 -0.3941  0.6650  0.2600
 2192SOL    HW218210   0.754   0.162   8.780 -1.1081 -2.8001 -1.1149
 2193SOL     OW18211   2.743   3.104   5.745 -0.1384 -0.0061 -0.0290
 2193SOL    HW118212   2.786   3.076   5.664 -0.8982  0.8826 -0.7281
 2193SOL    HW218213   2.650   3.096   5.727  0.0101 -0.7496 -0.4850
 2194SOL     OW18214   1.684   3.287   7.930 -0.1500  0.0359 -0.5514
 2194SOL    HW118215   1.692   3.348   8.004  1.2831 -0.5706 -0.2199
 2194SOL    HW218216   1.603   3.246   7.960  0.5337 -0.3396  0.7705
 2195SOL     OW18217   2.992   3.825   6.974  0.0735 -0.1601 -0.1774
 2195SOL    HW118218   3.071   3.815   7.027 -0.4745  1.2931  0.8751
 2195SOL    HW218219   2.926   3.861   7.032 -1.0573 -0.3641 -1.3491
 2196SOL     OW18220   4.228   0.151   2.645  0.9209 -0.0005 -0.0205
 2196SOL    HW118221   4.310   0.201   2.656  0.0415  1.8119 -1.5956
 2196SOL    HW218222   4.177   0.187   2.717 -0.0078 -1.5420  0.0792
 2197SOL     OW18223   1.264   1.773   1.796 -0.3783 -0.6364 -0.4116
 2197SOL    HW118224   1.334   1.771   1.731 -0.3815  0.0528 -0.4341
 2197SOL    HW218225   1.192   1.811   1.746  0.5072  1.2003 -0.2893
 2198SOL     OW18226   3.248   1.232   8.224  0.3984  1.3909 -0.4634
 2198SOL    HW118227   3.243   1.194   8.137  1.3297  0.5141 -0.1383
 2198SOL    HW218228   3.267   1.324   8.204  0.0801  1.4289 -0.5946
 2199SOL     OW18229   4.694   2.571   9.400 -0.4160 -0.2933 -0.0824
 2199SOL    HW118230   4.622   2.594   9.342 -0.9800 -1.0916  0.3054
 2199SOL    HW218231   4.696   2.476   9.407 -2.2730 -0.2762  0.5332
 2200SOL     OW18232   1.486   3.593  17.432  0.3720 -0.5952  0.3288
 2200SOL    HW118233   1.493   3.560  17.522  0.7371  4.0939  2.0644
 2200SOL    HW218234   1.577   3.610  17.409  0.3828  0.6038  1.2426
 2201SOL     OW18235   3.142   2.129   8.980  0.1821  0.2784  0.1229
 2201SOL    HW118236   3.181   2.087   8.903 -0.2476 -0.2571  0.1979
 2201SOL    HW218237   3.212   2.124   9.045 -0.7851 -0.9039  1.0606
 2202SOL     OW18238   2.022   2.381  10.170  0.5047 -0.0449  0.6933
 2202SOL    HW118239   2.001   2.407  10.259 -2.0433 -1.2847  0.4563
 2202SOL    HW218240   2.033   2.288  10.188 -1.3147 -0.4945 -0.4950
 2203SOL     OW18241   2.514   2.179   7.868  0.4392 -0.4543  0.3586
 2203SOL    HW118242   2.544   2.108   7.812 -0.3815 -0.5095  0.0031
 2203SOL    HW218243   2.549   2.257   7.824 -1.9759 -0.0715 -0.8464
 2204SOL     OW18244   3.630   2.357   6.268  0.4487 -0.6800  0.3120
 2204SOL    HW118245   3.618   2.264   6.251  1.7522 -0.6717 -0.6875
 2204SOL    HW218246   3.561   2.395   6.214  0.1837 -0.6187  0.6943
 2205SOL     OW18247   4.491   1.994   4.596  0.0224  1.2988  0.3422
 2205SOL    HW118248   4.517   1.977   4.686  0.6000  0.6851  0.0541
 2205SOL    HW218249   4.518   2.085   4.585  0.7143  0.7442 -2.5863
 2206SOL     OW18250   0.753   2.966   3.966  0.2908 -0.2107 -0.3977
 2206SOL    HW118251   0.727   3.016   3.889 -0.9863  1.2891  0.9823
 2206SOL    HW218252   0.743   3.027   4.039 -0.0103  0.4615 -0.9982
 2207SOL     OW18253   2.670   1.476   8.595 -0.2363 -0.0039  0.4751
 2207SOL    HW118254   2.698   1.565   8.572 -0.2688  0.1295  0.9577
 2207SOL    HW218255   2.579   1.490   8.624 -0.1750 -1.1535  1.1991
 2208SOL     OW18256   1.704   4.231   4.666 -0.4504  0.1183  0.1272
 2208SOL    HW118257   1.727   4.238   4.758  0.9250  0.4941 -0.2469
 2208SOL    HW218258   1.735   4.313   4.629  0.7890 -0.2745  0.3099
 2209SOL     OW18259   0.677   1.325  13.618 -0.2786  0.0184 -0.7706
 2209SOL    HW118260   0.654   1.401  13.672  2.5915  0.3587 -0.0167
 2209SOL    HW218261   0.754   1.363  13.576 -0.2349  0.0993 -0.6165
 2210SOL     OW18262   2.541   2.162   1.799 -0.9568  0.3841 -0.3155
 2210SOL    HW118263   2.543   2.083   1.854 -0.3409  0.1246 -0.7134
 2210SOL    HW218264   2.446   2.166   1.783 -1.0605  0.9937  0.4460
 2211SOL     OW18265   0.699   4.282   1.465  0.0687 -0.5186 -0.1052
 2211SOL    HW118266   0.755   4.229   1.521 -1.8865 -1.7002  0.7549
 2211SOL    HW218267   0.625   4.222   1.454 -1.4203  2.3156 -5.5129
 2212SOL     OW18268   2.952   1.056   2.751 -0.2064  0.6083 -0.2601
 2212SOL    HW118269   2.948   1.030   2.659 -0.1400 -2.6552  0.6509
 2212SOL    HW218270   2.951   0.977   2.805  0.1948  1.0546  0.4166
 2213SOL     OW18271   1.559   4.402   8.700 -0.3219 -0.2367 -0.2275
 2213SOL    HW118272   1.586   4.413   8.791  0.8455 -1.0872 -0.4759
 2213SOL    HW218273   1.630   4.448   8.655  0.6738 -0.9806  0.5955
 2214SOL     OW18274   3.343   0.219   7.431 -0.2535 -0.2464 -0.0678
 2214SOL    HW118275   3.279   0.216   7.502 -2.8764 -0.4123 -2.4761
 2214SOL    HW218276   3.416   0.175   7.475  1.0763  0.6312 -1.3786
 2215SOL     OW18277   3.676   2.332  14.110  0.1597  0.2722  0.1774
 2215SOL    HW118278   3.587   2.314  14.080 -0.0118  0.3410  0.6441
 2215SOL    HW218279   3.659   2.425  14.128 -0.7636 -0.1951  1.7916
 2216SOL     OW18280   3.536   4.213   3.540  0.4054  0.3979  0.2226
 2216SOL    HW118281   3.629   4.208   3.517  1.4008 -0.0885  4.3155
 2216SOL    HW218282   3.500   4.130   3.508  0.5135  1.0943 -1.7435
 2217SOL     OW18283   0.308   2.286   9.859  1.0113  0.0162 -0.7438
 2217SOL    HW118284   0.373   2.355   9.841 -0.6520  1.7247 -0.2460
 2217SOL    HW218285   0.229   2.321   9.818  0.7629 -0.0634 -0.3215
 2218SOL     OW18286   1.331   1.687  13.394 -0.0034  0.0906  0.2524
 2218SOL    HW118287   1.333   1.662  13.486 -1.7480  1.3440  0.6287
 2218SOL    HW218288   1.402   1.629  13.368 -1.1316 -0.8412 -0.7928
 2219SOL     OW18289   2.614   3.939   8.533  0.4082  0.0949 -0.7176
 2219SOL    HW118290   2.672   3.908   8.463  0.1439  2.8727 -2.1768
 2219SOL    HW218291   2.579   4.023   8.506 -0.0605  0.0669 -0.1828
 2220SOL     OW18292   3.438   2.827  15.741  0.0415  0.0023  0.1597
 2220SOL    HW118293   3.409   2.750  15.692 -0.1383  0.1422  0.0480
 2220SOL    HW218294   3.399   2.807  15.826  1.9019 -1.8644  0.5730
 2221SOL     OW18295   2.847   4.286  16.026  0.0293  0.0839 -1.3260
 2221SOL    HW118296   2.925   4.231  16.034  0.0899  0.4643  0.8268
 2221SOL    HW218297   2.796   4.253  16.100 -0.4363  1.0841 -1.2124
 2222SOL     OW18298   2.572   0.846   6.267 -0.0872 -0.1928 -0.0208
 2222SOL    HW118299   2.483   0.822   6.292  0.4673 -0.8772  1.2745
 2222SOL    HW218300   2.598   0.766   6.220 -0.1175 -1.0643  1.4736
 2223SOL     OW18301   2.843   1.600   4.196 -0.0084 -0.3570  0.0229
 2223SOL    HW118302   2.758   1.618   4.236 -0.5147 -1.3090 -0.6224
 2223SOL    HW218303   2.842   1.505   4.200  3.7250 -0.3812  0.4772
 2224SOL     OW18304   3.453   0.562   9.550  0.1849  0.4203  0.3665
 2224SOL    HW118305   3.513   0.492   9.525  0.5141  0.9402 -0.2928
 2224SOL    HW218306   3.473   0.572   9.643  0.3606 -0.1058  0.3826
 2225SOL     OW18307   3.359   3.341   0.255 -0.6079  0.0917 -0.2027
 2225SOL    HW118308   3.418   3.266   0.257 -2.3196 -1.3410 -2.7283
 2225SOL    HW218309   3.353   3.367   0.163 -0.7031  0.5020 -0.0785
 2226SOL     OW18310   0.326   2.274  12.297  0.1363 -0.4709 -0.4828
 2226SOL    HW118311   0.253   2.211  12.295  1.6130 -2.1287 -1.9730
 2226SOL    HW218312   0.397   2.219  12.264  1.7667  0.3984  1.5918
 2227SOL     OW18313   3.850   1.320   4.834 -0.0574 -0.2767 -0.1629
 2227SOL    HW118314   3.930   1.352   4.791  0.2236  0.2037  0.7298
 2227SOL    HW218315   3.778   1.380   4.814  0.7614  0.6943 -0.2281
 2228SOL     OW18316   4.105   2.004   0.362  0.1009 -0.4345 -0.0026
 2228SOL    HW118317   4.017   1.993   0.398  0.8376 -2.3188  1.2148
 2228SOL    HW218318   4.140   2.077   0.413 -0.5110 -0.7493  0.8739
 2229SOL     OW18319   4.174   0.897   1.828 -0.4944  0.2937  0.1452
 2229SOL    HW118320   4.095   0.843   1.835 -0.4552  0.3844  1.2839
 2229SOL    HW218321   4.236   0.829   1.853  2.2927  2.0961 -1.9311
 2230SOL     OW18322   0.824   2.533   7.301  0.0054  0.8408  0.0104
 2230SOL    HW118323   0.797   2.444   7.320  0.6205  0.3662 -1.3846
 2230SOL    HW218324   0.879   2.562   7.374 -0.8965  0.3228  0.8927
 2231SOL     OW18325   1.918   4.627   2.128  0.0058 -0.2051 -0.2911
 2231SOL    HW118326   1.842   4.585   2.087  1.3148  2.5885 -5.6099
 2231SOL    HW218327   1.911   4.720   2.108 -0.5126 -0.2834 -0.4775
 2232SOL     OW18328   4.557   2.317   7.893 -0.0646  0.4176 -0.4146
 2232SOL    HW118329   4.531   2.406   7.916  0.8233  0.7325 -0.6178
 2232SOL    HW218330   4.601   2.301   7.977  0.0122  1.6586 -0.2080
 2233SOL     OW18331   1.607   2.832   1.423 -0.6037  0.0196  0.2061
 2233SOL    HW118332   1.530   2.887   1.403 -0.1217  0.1387 -1.3601
 2233SOL    HW218333   1.657   2.899   1.470 -1.4184 -1.3941  3.0878
 2234SOL     OW18334   3.954   0.261   5.048  0.6293 -0.2757  0.0314
 2234SOL    HW118335   3.940   0.326   4.980  0.1880  0.2745  0.6459
 2234SOL    HW218336   3.865   0.242   5.077 -1.0135  3.3240 -2.7104
 2235SOL     OW18337   3.454   3.203   5.042 -0.2986  0.1005  0.0375
 2235SOL    HW118338   3.389   3.133   5.036  0.0173 -0.1488 -0.4742
 2235SOL    HW218339   3.492   3.182   5.127 -0.1025  2.6428  0.5725
 2236SOL     OW18340   0.669   2.884   3.644  0.3180 -0.9510  0.7312
 2236SOL    HW118341   0.673   2.978   3.660 -0.5745 -0.6896 -0.5939
 2236SOL    HW218342   0.759   2.854   3.641  0.3823 -0.9164  2.1783
 2237SOL     OW18343   2.173   3.759   4.708 -0.0411  0.4943 -0.3994
 2237SOL    HW118344   2.100   3.710   4.670  0.4467  0.1710 -0.9133
 2237SOL    HW218345   2.125   3.821   4.763 -1.0396  2.0303 -3.0166
 2238SOL     OW18346   0.506   1.267   6.031  0.0214  0.5265  0.2225
 2238SOL    HW118347   0.521   1.196   6.093 -1.5153  0.7222  0.8174
 2238SOL    HW218348   0.550   1.235   5.953 -0.0206 -0.5132  0.6298
 2239SOL     OW18349   1.599   2.922   1.105  0.0842 -0.0007  0.6134
 2239SOL    HW118350   1.681   2.928   1.155  1.4418  0.3416 -1.6955
 2239SOL    HW218351   1.603   2.829   1.082 -0.2638  0.0439  0.3737
 2240SOL     OW18352   4.397   0.916  10.760  0.1926 -0.0195  0.3515
 2240SOL    HW118353   4.458   0.858  10.806  2.4078  1.1070 -1.1796
 2240SOL    HW218354   4.316   0.864  10.764  0.1007  0.1213  0.3313
 2241SOL     OW18355   0.829   4.205   1.738  0.0668 -1.0078  0.3751
 2241SOL    HW118356   0.854   4.181   1.827  2.6454  1.2594  0.2775
 2241SOL    HW218357   0.806   4.116   1.714  1.4192 -1.2694  0.0224
 2242SOL     OW18358   0.695   2.909   4.596  0.0965  0.2645  0.8486
 2242SOL    HW118359   0.630   2.895   4.527  3.2457 -0.2280 -1.9963
 2242SOL    HW218360   0.688   2.827   4.645 -1.3088  0.8709  1.6483
 2243SOL     OW18361   3.071   3.266   3.681  0.3583  0.1108 -0.1984
 2243SOL    HW118362   3.160   3.292   3.657  0.4970  0.2253  0.4322
 2243SOL    HW218363   3.056   3.209   3.606 -1.3203 -2.2123  1.8964
 2244SOL     OW18364   1.396   3.192   2.560  0.3745  0.2723  0.3929
 2244SOL    HW118365   1.312   3.146   2.567  1.0110 -0.8113  0.8710
 2244SOL    HW218366   1.405   3.211   2.653 -0.2364  1.0607  0.2914
 2245SOL     OW18367   4.561   4.115   7.794  0.0818 -0.0570 -0.6711
 2245SOL    HW118368   4.546   4.023   7.772  0.1023  0.4685 -2.8612
 2245SOL    HW218369   4.548   4.165   7.714 -1.2707  2.3795  1.0827
 2246SOL     OW18370   1.466   4.203   1.268  0.2534  0.3496  0.0839
 2246SOL    HW118371   1.385   4.154   1.256  0.5184 -0.5447  2.0040
 2246SOL    HW218372   1.529   4.136   1.242 -0.5483  0.5975 -2.4795
 2247SOL     OW18373   2.763   1.488   2.071  0.1570  0.3286 -0.0508
 2247SOL    HW118374   2.684   1.502   2.020  0.5629  3.4148  0.1658
 2247SOL    HW218375   2.835   1.534   2.029 -0.1788 -0.9732 -2.0374
 2248SOL     OW18376   1.751   0.986   8.538 -0.0535  0.7067 -0.0968
 2248SOL    HW118377   1.786   1.015   8.622 -0.7788 -0.7508  0.7018
 2248SOL    HW218378   1.810   1.046   8.491  0.1696 -0.9272 -1.8944
 2249SOL     OW18379   0.915   2.194   2.608  0.4355  0.2823 -0.0426
 2249SOL    HW118380   0.909   2.233   2.521 -0.6971 -2.0377 -1.0118
 2249SOL    HW218381   0.971   2.262   2.645  0.3494  0.8432 -0.9469
 2250SOL     OW18382   0.692   0.160  12.143  0.3901 -0.4731  0.0281
 2250SOL    HW118383   0.684   0.074  12.103 -2.7991 -0.5762  0.9113
 2250SOL    HW218384   0.652   0.149  12.229 -0.0252 -0.0914 -0.1132
 2251SOL     OW18385   3.708   2.027   9.316 -0.2594 -0.1176  0.1173
 2251SOL    HW118386   3.772   2.056   9.251  0.1703 -2.1423 -0.3637
 2251SOL    HW218387   3.739   2.079   9.391  0.6273 -1.2308  0.5190
 2252SOL     OW18388   2.246   3.399   8.671 -0.4919 -0.8624  0.1380
 2252SOL    HW118389   2.314   3.464   8.694 -1.1830  0.6361 -2.0832
 2252SOL    HW218390   2.214   3.374   8.758  0.2195 -2.4517 -0.0697
 2253SOL     OW18391   0.701   2.886   3.223  0.0622 -0.4535 -0.0248
 2253SOL    HW118392   0.624   2.831   3.212 -0.3218 -0.3394  2.0950
 2253SOL    HW218393   0.711   2.935   3.142 -0.6594 -0.9778 -0.4225
 2254SOL     OW18394   2.971   4.276   6.119 -0.1382  0.0916  0.7187
 2254SOL    HW118395   2.934   4.358   6.087  2.9559  0.4556 -1.8759
 2254SOL    HW218396   3.049   4.310   6.162  0.0721  0.3627  0.1215
 2255SOL     OW18397   3.694   0.743  13.726  0.7574  0.2208  0.2416
 2255SOL    HW118398   3.691   0.772  13.817 -1.8642  0.5352  0.0656
 2255SOL    HW218399   3.731   0.655  13.732 -1.3274 -0.6885 -0.1047
 2256SOL     OW18400   4.551   1.715   7.993 -0.2596 -0.1256  0.2826
 2256SOL    HW118401   4.467   1.674   7.972 -0.4115 -0.4228  1.4829
 2256SOL    HW218402   4.543   1.810   7.984 -1.1388 -0.1712  0.6133
 2257SOL     OW18403   0.235   1.967   5.318  0.2566  0.1243 -0.8115
 2257SOL    HW118404   0.189   2.050   5.330 -1.4824 -0.9524 -0.0227
 2257SOL    HW218405   0.315   1.990   5.270 -1.2058 -0.9868 -3.7137
 2258SOL     OW18406   4.363   0.961  10.472 -0.3629 -0.4005  0.6508
 2258SOL    HW118407   4.376   0.962  10.567  0.0918  0.1682  0.5839
 2258SOL    HW218408   4.351   1.056  10.466  1.9702  0.0288  2.4915
 2259SOL     OW18409   1.069   3.559   1.571  0.2882 -0.5005  0.2667
 2259SOL    HW118410   1.152   3.543   1.524 -0.0980 -1.0149 -0.2401
 2259SOL    HW218411   1.046   3.641   1.528 -1.2932 -0.2210  1.6443
 2260SOL     OW18412   4.494   1.119   7.113 -0.6623 -0.0418 -0.0254
 2260SOL    HW118413   4.516   1.030   7.086  0.3875 -0.0601  0.9106
 2260SOL    HW218414   4.562   1.165   7.064 -1.2338 -1.3092 -2.0125
 2261SOL     OW18415   1.646   3.652   4.300  0.6158 -0.1391 -0.3359
 2261SOL    HW118416   1.649   3.563   4.336  0.7279  0.1932  0.4626
 2261SOL    HW218417   1.720   3.688   4.348  0.2870 -0.6514  0.5437
 2262SOL     OW18418   4.574   0.294  15.641 -0.4764  0.1754 -0.4206
 2262SOL    HW118419   4.623   0.301  15.724 -1.0123 -2.4240  0.1084
 2262SOL    HW218420   4.640   0.258  15.581  0.5126 -1.3524  1.5649
 2263SOL     OW18421   0.218   2.575   9.268 -0.0595  0.1064 -0.5892
 2263SOL    HW118422   0.189   2.550   9.180 -3.8467 -1.8266  1.1851
 2263SOL    HW218423   0.135   2.604   9.308 -0.9325  0.4249 -2.6470
 2264SOL     OW18424   3.752   2.984  15.846 -0.2490 -0.2095  0.1783
 2264SOL    HW118425   3.779   2.930  15.772 -0.5342 -1.0498  0.6926
 2264SOL    HW218426   3.772   3.072  15.813  2.2741 -1.9734 -2.9217
 2265SOL     OW18427   4.132   2.042   4.389  0.3421  0.4850  0.4943
 2265SOL    HW118428   4.047   2.030   4.345  1.6539 -0.0126 -1.9040
 2265SOL    HW218429   4.156   2.126   4.349  3.8411  0.0998  1.8555
 2266SOL     OW18430   2.263   0.791  16.868  0.2481  0.1925 -0.1230
 2266SOL    HW118431   2.353   0.803  16.899 -0.2863  2.1132  0.6474
 2266SOL    HW218432   2.283   0.770  16.777  0.4906 -0.1424  0.0038
 2267SOL     OW18433   0.981   4.607   6.772 -0.7335  0.7309 -0.0720
 2267SOL    HW118434   1.053   4.556   6.736  0.6025  1.5164  1.5015
 2267SOL    HW218435   1.029   4.653   6.840 -1.7575 -1.3495  2.0744
 2268SOL     OW18436   1.218   3.271   2.795 -0.3093  0.4259 -1.0001
 2268SOL    HW118437   1.183   3.291   2.881  0.5485 -3.3244  0.1870
 2268SOL    HW218438   1.289   3.335   2.800 -0.9846  0.9972  1.0032
 2269SOL     OW18439   0.168   4.624   9.965 -0.4697  0.0527 -0.3598
 2269SOL    HW118440   0.261   4.615   9.944 -0.5873 -1.0573 -0.3965
 2269SOL    HW218441   0.126   4.586   9.888 -2.9257  1.8105  0.1076
 2270SOL     OW18442   4.147   1.948   5.046 -0.1786  0.1579 -0.5613
 2270SOL    HW118443   4.096   1.972   4.969 -0.7402 -1.3226 -0.6473
 2270SOL    HW218444   4.177   1.862   5.017  2.2252  1.3652 -1.6774
 2271SOL     OW18445   0.110   0.475   5.579 -0.2209  0.1977  0.5715
 2271SOL    HW118446   0.110   0.555   5.632 -1.8616 -0.4673  1.5587
 2271SOL    HW218447   0.028   0.483   5.530 -0.0116  0.0282  0.1916
 2272SOL     OW18448   2.830   2.779   6.343 -0.0643  0.4804 -0.2068
 2272SOL    HW118449   2.785   2.738   6.417  1.0437 -1.9653 -0.8857
 2272SOL    HW218450   2.920   2.754   6.363 -0.2407 -0.0877 -0.1144
 2273SOL     OW18451   1.278   4.482  11.544  0.0415  0.2691 -0.1886
 2273SOL    HW118452   1.322   4.397  11.549  0.9082  0.6929 -0.8125
 2273SOL    HW218453   1.325   4.532  11.610  2.0316 -0.5248 -1.0248
 2274SOL     OW18454   2.977   2.294   2.335  0.2349  0.3344 -0.0924
 2274SOL    HW118455   2.977   2.205   2.300 -0.5034  0.7390 -1.1347
 2274SOL    HW218456   3.001   2.343   2.256 -1.4146  0.4420 -0.5254
 2275SOL     OW18457   3.025   0.397   3.429  0.3374 -0.0824 -0.1950
 2275SOL    HW118458   3.000   0.473   3.481  2.2290  0.4291 -0.0391
 2275SOL    HW218459   3.039   0.328   3.494 -0.4681  0.1238  0.1931
 2276SOL     OW18460   2.719   2.934  16.711  0.0101  0.1779 -0.2004
 2276SOL    HW118461   2.650   2.938  16.645 -1.6204 -2.1211  1.4066
 2276SOL    HW218462   2.690   3.009  16.763  2.0166  1.6940 -1.2326
 2277SOL     OW18463   0.908   0.751   6.517  0.3873 -0.5371 -0.1239
 2277SOL    HW118464   0.952   0.799   6.447 -1.1989 -0.3291 -0.9899
 2277SOL    HW218465   0.974   0.742   6.585 -0.1581  0.6048  0.5614
 2278SOL     OW18466   1.608   0.662   5.999 -0.3125 -0.1140  0.3142
 2278SOL    HW118467   1.641   0.690   6.084  0.4788 -0.0282 -0.0200
 2278SOL    HW218468   1.519   0.698   5.995 -0.4980 -0.3703  2.4408
 2279SOL     OW18469   2.756   4.071   6.863 -0.0602 -0.0490 -0.4105
 2279SOL    HW118470   2.806   4.061   6.782 -0.0499  0.4396 -0.4626
 2279SOL    HW218471   2.720   4.158   6.846  1.5401  0.3192 -1.8963
 2280SOL     OW18472   0.848   0.089   1.281 -0.5472  0.2005 -0.0449
 2280SOL    HW118473   0.916   0.155   1.266  1.2051 -1.3662  1.0145
 2280SOL    HW218474   0.804   0.071   1.198  1.0822 -0.3715 -0.7699
 2281SOL     OW18475   2.441   2.167   3.591  0.1494  0.2818  0.2714
 2281SOL    HW118476   2.483   2.081   3.587  0.1825  0.4387 -2.6318
 2281SOL    HW218477   2.355   2.136   3.620  0.6130  0.9198  2.2978
 2282SOL     OW18478   0.080   2.096   9.930 -0.4865 -0.4556 -0.6825
 2282SOL    HW118479   0.059   2.009   9.896 -1.0396 -0.3961 -0.4974
 2282SOL    HW218480   0.113   2.136   9.850 -3.0181  0.6482 -1.1782
 2283SOL     OW18481   3.579   2.547   2.438 -0.7499  0.1065  0.4856
 2283SOL    HW118482   3.520   2.613   2.403  1.3620  1.7589  0.0345
 2283SOL    HW218483   3.519   2.473   2.450  0.1912 -0.5969  0.8894
 2284SOL     OW18484   4.027   4.703   5.587  0.1562  0.2412 -0.0301
 2284SOL    HW118485   3.998   4.677   5.499  1.5501 -0.1811 -0.3677
 2284SOL    HW218486   4.117   4.728   5.567  0.5072 -1.0898 -0.0614
 2285SOL     OW18487   2.321   2.983   8.164  0.2203 -0.6577 -0.3763
 2285SOL    HW118488   2.237   2.996   8.119 -1.2297 -1.8534  1.9756
 2285SOL    HW218489   2.358   3.071   8.153  0.2138 -0.8618 -1.9705
 2286SOL     OW18490   3.766   0.906   8.320  0.2570  0.1206 -0.7271
 2286SOL    HW118491   3.678   0.875   8.340  0.4699  0.2954  0.4999
 2286SOL    HW218492   3.805   0.937   8.402 -0.6871 -3.0838  0.9045
 2287SOL     OW18493   3.626   1.815   7.007  0.1413 -0.1670  0.1293
 2287SOL    HW118494   3.549   1.871   6.999  0.8740  0.8507  0.3340
 2287SOL    HW218495   3.693   1.874   7.041 -1.5941  1.6941  0.2672
 2288SOL     OW18496   0.321   1.173   3.471 -0.1508  0.1656 -0.0360
 2288SOL    HW118497   0.369   1.191   3.552 -1.6470 -0.7747  1.0702
 2288SOL    HW218498   0.372   1.228   3.412 -0.8710  0.1854 -0.6428
 2289SOL     OW18499   3.278   4.682   9.164  0.2211  0.4274 -0.4987
 2289SOL    HW118500   3.347   4.646   9.220 -0.5050 -0.6400 -0.2872
 2289SOL    HW218501   3.335   0.011   9.117  1.8685  0.0904  1.0458
 2290SOL     OW18502   2.115   3.230   3.244  0.1561 -0.2088  0.2004
 2290SOL    HW118503   2.107   3.284   3.322  2.4159 -2.4406  1.9608
 2290SOL    HW218504   2.101   3.297   3.177 -2.2780  0.1519  1.1083
 2291SOL     OW18505   1.860   1.652   8.052 -0.0773  0.2283  0.1063
 2291SOL    HW118506   1.779   1.601   8.061 -0.5194  0.7281 -1.0914
 2291SOL    HW218507   1.920   1.587   8.013 -1.3536 -0.1218 -1.2953
 2292SOL     OW18508   2.442   1.736   6.168 -0.1850  0.0797  0.1211
 2292SOL    HW118509   2.399   1.796   6.229 -1.0246 -0.4034 -0.0015
 2292SOL    HW218510   2.502   1.797   6.124 -0.2438  0.5666  0.7112
 2293SOL     OW18511   3.888   1.239   3.483  0.3823  0.3281  0.0290
 2293SOL    HW118512   3.968   1.272   3.522  0.9298  2.0487 -2.5459
 2293SOL    HW218513   3.907   1.150   3.453 -0.5198  0.0746  0.1904
 2294SOL     OW18514   1.581   3.199  14.969  0.3252  0.2978 -0.7169
 2294SOL    HW118515   1.531   3.182  15.049  3.2584 -3.3098  0.3562
 2294SOL    HW218516   1.637   3.122  14.958 -0.7701 -0.6439  0.2964
 2295SOL     OW18517   3.847   2.725   0.620 -0.5597  0.2516  0.5970
 2295SOL    HW118518   3.935   2.761   0.628 -0.0620 -0.6450 -0.9503
 2295SOL    HW218519   3.817   2.765   0.702  0.8787  2.4140  0.0650
 2296SOL     OW18520   4.503   0.749   9.188  0.9090 -0.0086 -0.1024
 2296SOL    HW118521   4.543   0.793   9.113 -0.8106  0.1415 -0.9139
 2296SOL    HW218522   4.412   0.767   9.166  1.6012  1.7480 -1.5557
 2297SOL     OW18523   3.477   3.718   2.075 -0.1045 -0.2865  0.2647
 2297SOL    HW118524   3.472   3.745   1.984 -0.2108  2.4990  1.0848
 2297SOL    HW218525   3.390   3.746   2.104 -1.2333 -2.9124 -0.5971
 2298SOL     OW18526   3.276   3.086   5.593  0.0525  0.2440  0.0329
 2298SOL    HW118527   3.367   3.114   5.594 -0.0784  0.6816 -0.3261
 2298SOL    HW218528   3.294   2.993   5.609 -0.0329  0.2474  0.1498
 2299SOL     OW18529   0.321   4.120   3.557  0.1517 -0.3283 -0.7655
 2299SOL    HW118530   0.319   4.035   3.601  0.8909  0.4564  0.8071
 2299SOL    HW218531   0.268   4.172   3.617  0.7557 -1.2643  0.6023
 2300SOL     OW18532   1.213   2.675  14.692 -0.0790 -0.1665  0.1754
 2300SOL    HW118533   1.240   2.583  14.683 -0.0924 -0.4341  2.9177
 2300SOL    HW218534   1.232   2.695  14.784 -0.2896 -1.5833  0.5278
 2301SOL     OW18535   3.746   3.837   7.015 -0.0149 -0.1602  0.2357
 2301SOL    HW118536   3.749   3.922   7.058 -1.3473  0.5468 -1.0693
 2301SOL    HW218537   3.654   3.842   6.988  0.2707  1.7626 -0.3511
 2302SOL     OW18538   4.575   4.629   3.793  0.4218 -0.6843 -0.5367
 2302SOL    HW118539   4.515   4.562   3.825  0.0690  0.6032  1.5039
 2302SOL    HW218540   4.637   4.585   3.735  0.7372 -2.2688  0.9990
 2303SOL     OW18541   0.780   0.394   2.434  0.2304  0.9293 -0.2931
 2303SOL    HW118542   0.722   0.391   2.510  0.1011  2.4833 -0.3243
 2303SOL    HW218543   0.786   0.487   2.410 -0.3683  0.4255 -2.3331
 2304SOL     OW18544   4.242   2.052  12.289 -0.2429  0.0622 -0.1407
 2304SOL    HW118545   4.237   2.038  12.383 -1.1312  0.2224 -0.1572
 2304SOL    HW218546   4.336   2.038  12.277 -0.3096  0.5560 -1.2546
 2305SOL     OW18547   1.569   1.951   3.052 -0.1610 -0.0758 -0.2922
 2305SOL    HW118548   1.520   1.869   3.059  0.9158 -0.6813  0.0916
 2305SOL    HW218549   1.588   1.950   2.958  1.2390 -0.6708  0.0033
 2306SOL     OW18550   1.016   4.467  12.060 -0.1874  0.4025 -0.2105
 2306SOL    HW118551   0.961   4.523  12.114 -0.3229  0.8810 -0.8453
 2306SOL    HW218552   0.948   4.418  12.014  0.9484 -1.5569  0.1894
 2307SOL     OW18553   0.774   2.765   1.325 -0.1945  0.3504  0.6700
 2307SOL    HW118554   0.794   2.689   1.269 -2.5044 -0.8221  1.4069
 2307SOL    HW218555   0.800   2.832   1.262  2.2009 -1.0463  0.1450
 2308SOL     OW18556   4.661   1.850   5.198  0.8136 -0.5896 -0.2024
 2308SOL    HW118557   4.596   1.845   5.269  1.8657  0.0215  0.7917
 2308SOL    HW218558   4.650   1.941   5.169 -0.7889 -0.4393  0.8451
 2309SOL     OW18559   0.778   3.162   4.459 -0.1188 -0.1129 -0.1536
 2309SOL    HW118560   0.783   3.067   4.471  1.7728  0.1366  1.1698
 2309SOL    HW218561   0.749   3.182   4.548 -0.2629  1.0807 -0.4675
 2310SOL     OW18562   4.471   2.070   3.723  0.6592  0.2779 -0.1762
 2310SOL    HW118563   4.394   2.017   3.742  1.3476 -0.5442  0.2808
 2310SOL    HW218564   4.510   2.051   3.808 -0.0168  1.7283  0.4613
 2311SOL     OW18565   1.954   3.771   2.174 -0.4950  0.0597  0.1355
 2311SOL    HW118566   2.020   3.703   2.184 -0.1889  0.4156  0.5403
 2311SOL    HW218567   1.872   3.723   2.174 -0.9941  0.9015 -0.2341
 2312SOL     OW18568   4.273   0.509  13.170  0.3017  0.2396 -0.1595
 2312SOL    HW118569   4.250   0.585  13.117 -0.5986  0.0662 -0.0161
 2312SOL    HW218570   4.304   0.438  13.113 -0.3288  1.2253 -1.7163
 2313SOL     OW18571   1.961   3.252   6.227 -0.2769  0.1618 -0.2325
 2313SOL    HW118572   1.943   3.166   6.264 -0.2373  0.1641 -0.2081
 2313SOL    HW218573   1.870   3.277   6.208 -0.1435 -0.4044 -1.5708
 2314SOL     OW18574   3.007   1.115  12.112  0.4726  0.5024  0.4582
 2314SOL    HW118575   3.021   1.137  12.020  0.5854 -2.9227 -0.3511
 2314SOL    HW218576   3.044   1.028  12.128  1.1618  0.6067 -0.6314
 2315SOL     OW18577   0.516   1.239   8.880 -0.5111  0.1612  0.2017
 2315SOL    HW118578   0.580   1.171   8.857 -2.6899 -2.4847  1.9773
 2315SOL    HW218579   0.566   1.319   8.862  0.6630 -0.5413  0.3469
 2316SOL     OW18580   2.315   1.008   6.948 -0.0975 -0.3699 -0.3003
 2316SOL    HW118581   2.399   1.013   6.903  0.1831 -1.3180  0.1262
 2316SOL    HW218582   2.277   1.092   6.923  3.2772  1.6050  1.1596
 2317SOL     OW18583   4.099   0.252   5.641  0.2613  0.2174 -0.1816
 2317SOL    HW118584   4.178   0.268   5.692 -0.7390  0.5440  1.2393
 2317SOL    HW218585   4.088   0.159   5.659 -0.8360  0.9079  2.6770
 2318SOL     OW18586   3.586   1.073  15.226  0.2061  0.6396 -0.0604
 2318SOL    HW118587   3.615   1.116  15.145 -0.0773 -0.2969 -0.6552
 2318SOL    HW218588   3.549   0.989  15.198 -0.4150  0.7053  0.5438
 2319SOL     OW18589   2.028   1.342   2.650 -0.0719 -0.1728 -0.0776
 2319SOL    HW118590   2.036   1.352   2.555 -1.4648 -0.6978 -0.2591
 2319SOL    HW218591   1.932   1.340   2.656 -0.0912  0.9899 -0.0241
 2320SOL     OW18592   1.399   3.771   0.923 -0.0587 -0.6016 -0.9321
 2320SOL    HW118593   1.453   3.701   0.960 -0.3627 -1.3997 -2.0077
 2320SOL    HW218594   1.469   3.819   0.878 -1.2963  1.4298 -0.6696
 2321SOL     OW18595   1.276   0.262   3.056  0.3619 -0.0392  0.1388
 2321SOL    HW118596   1.254   0.276   3.148  1.5837 -1.6653  0.6812
 2321SOL    HW218597   1.368   0.239   3.064  0.5006  0.1328 -0.9807
 2322SOL     OW18598   1.760   3.561   9.221 -0.0412 -0.1496  0.4957
 2322SOL    HW118599   1.810   3.598   9.149 -1.2173 -2.9130 -1.7413
 2322SOL    HW218600   1.825   3.562   9.292  0.4748 -2.1631  0.0607
 2323SOL     OW18601   0.639   2.670  14.779  0.5236  0.4123  0.1483
 2323SOL    HW118602   0.558   2.648  14.824 -0.2434  1.7755 -0.5473
 2323SOL    HW218603   0.611   2.702  14.693  0.0352  0.1903  0.2294
 2324SOL     OW18604   0.259   0.853   1.659  0.0746  0.4565  0.4753
 2324SOL    HW118605   0.346   0.814   1.669  0.6842  2.2303  2.1010
 2324SOL    HW218606   0.265   0.849   1.564  3.0599  0.8876  0.6265
 2325SOL     OW18607   4.321   4.207   3.663 -0.0701 -0.6735  0.1355
 2325SOL    HW118608   4.346   4.183   3.752 -1.4916  0.1881  0.7806
 2325SOL    HW218609   4.265   4.131   3.649  1.1730 -0.7476 -4.3758
 2326SOL     OW18610   1.665   4.078   8.479  0.3921 -0.3874  0.0822
 2326SOL    HW118611   1.723   4.147   8.449  2.2938 -2.5377 -1.1946
 2326SOL    HW218612   1.721   4.000   8.470  1.4330  0.1631  1.9861
 2327SOL     OW18613   2.506   1.068   7.885 -0.1039  0.2250  0.0180
 2327SOL    HW118614   2.435   1.094   7.943 -0.2562  3.0670 -1.4232
 2327SOL    HW218615   2.463   1.003   7.830 -2.5828  1.4954  0.4567
 2328SOL     OW18616   1.248   1.644   5.386 -0.2764  0.2502  0.0245
 2328SOL    HW118617   1.311   1.621   5.454  0.9885  0.6985 -0.9788
 2328SOL    HW218618   1.299   1.704   5.331 -1.8205  0.1310 -1.5545
 2329SOL     OW18619   1.612   1.141   2.563  0.2426  0.1530 -0.5913
 2329SOL    HW118620   1.652   1.115   2.480 -0.3502  2.8182 -1.7007
 2329SOL    HW218621   1.527   1.165   2.527  0.1818  1.0195  0.1229
 2330SOL     OW18622   4.586   4.175  11.184  0.2927  0.3884  0.5935
 2330SOL    HW118623   4.616   4.247  11.239 -0.7676  1.2386  0.0639
 2330SOL    HW218624   4.493   4.191  11.171  0.1210 -2.5313 -1.7692
 2331SOL     OW18625   2.162   0.208  13.279 -0.8336  0.2914 -0.4025
 2331SOL    HW118626   2.152   0.208  13.374 -1.6556 -0.3253 -0.4917
 2331SOL    HW218627   2.209   0.291  13.270 -0.7151  0.1934 -0.6910
 2332SOL     OW18628   3.084   4.655  17.693  0.1028 -0.1641  0.0831
 2332SOL    HW118629   3.038   4.717   0.020  0.9891  0.2733  0.3351
 2332SOL    HW218630   3.146   4.712  17.648 -2.0862  1.2450 -1.0840
 2333SOL     OW18631   0.708   2.028   3.133 -0.6188 -0.4035 -0.5322
 2333SOL    HW118632   0.774   2.064   3.192 -1.4665 -1.6936  1.2046
 2333SOL    HW218633   0.726   1.934   3.133 -0.6035 -0.3954  0.7075
 2334SOL     OW18634   4.729   1.801  10.272  0.7546  0.5109 -0.2113
 2334SOL    HW118635   4.721   1.855  10.351  2.8569  0.1241  0.2705
 2334SOL    HW218636   4.688   1.720  10.303  2.8614 -1.2458 -2.0518
 2335SOL     OW18637   4.100   0.867   0.398 -0.2825 -0.5849 -0.0126
 2335SOL    HW118638   4.130   0.948   0.440  0.8153 -0.8686 -0.2272
 2335SOL    HW218639   4.185   0.832   0.371  0.3122  0.1463  0.9140
 2336SOL     OW18640   2.220   4.256   7.370  0.3415  0.3920 -0.0915
 2336SOL    HW118641   2.299   4.204   7.387 -0.2280  0.2409  2.0997
 2336SOL    HW218642   2.198   4.219   7.285  0.7591 -2.8421  1.1873
 2337SOL     OW18643   2.391   2.412  17.664  0.2213  0.2596 -0.2104
 2337SOL    HW118644   2.433   2.490  17.629 -0.0144  0.4951  0.0374
 2337SOL    HW218645   2.435   2.341  17.617 -1.5869  0.3268 -2.0073
 2338SOL     OW18646   3.107   1.647  12.272 -0.5833 -0.4242 -0.5781
 2338SOL    HW118647   3.077   1.559  12.293  1.4164 -1.1567 -0.7513
 2338SOL    HW218648   3.193   1.621  12.239  0.4731  1.6727  0.5345
 2339SOL     OW18649   1.397   4.590   8.910 -0.1373 -0.2800  0.7099
 2339SOL    HW118650   1.490   4.588   8.890 -0.0338 -0.9630  1.2518
 2339SOL    HW218651   1.384   4.664   8.969 -1.2098 -0.1950  0.3700
 2340SOL     OW18652   3.397   1.504   2.179 -0.4080  0.1251  0.2686
 2340SOL    HW118653   3.429   1.420   2.211 -1.4554 -1.4003 -2.7035
 2340SOL    HW218654   3.459   1.567   2.215  0.7393 -1.7045  1.4582
 2341SOL     OW18655   0.259   2.279  11.060 -0.1039 -0.2758  0.5649
 2341SOL    HW118656   0.305   2.206  11.103  0.1322 -0.7951 -0.5841
 2341SOL    HW218657   0.184   2.234  11.021  0.8476 -0.5357 -0.9402
 2342SOL     OW18658   1.211   1.355   4.393 -0.6619  0.0546  0.3194
 2342SOL    HW118659   1.300   1.322   4.377 -1.2832 -1.1813 -0.5099
 2342SOL    HW218660   1.157   1.284   4.361 -2.0873  0.4138  1.9655
 2343SOL     OW18661   4.241   1.120  15.525 -0.0244  0.0505 -0.3377
 2343SOL    HW118662   4.291   1.126  15.607 -0.7337  2.0738 -0.0449
 2343SOL    HW218663   4.166   1.069  15.556 -0.2369  0.5825  0.0418
 2344SOL     OW18664   3.332   2.026   5.853 -0.4119 -0.3662 -1.2318
 2344SOL    HW118665   3.307   2.117   5.836  2.7165  1.2354  2.8120
 2344SOL    HW218666   3.363   2.006   5.765 -1.4858 -2.4985 -1.1394
 2345SOL     OW18667   0.758   0.483  17.056  0.1554  0.2942  0.0595
 2345SOL    HW118668   0.742   0.517  17.144 -0.4109  0.4498 -0.1021
 2345SOL    HW218669   0.786   0.566  17.018  3.5121 -1.4562 -1.2833
 2346SOL     OW18670   3.495   0.417  17.347  0.1362  0.4873  0.2053
 2346SOL    HW118671   3.520   0.357  17.417 -0.1062  1.3068  0.9844
 2346SOL    HW218672   3.542   0.497  17.369  1.6685 -0.1217 -0.8015
 2347SOL     OW18673   0.659   0.176   7.217 -0.2199 -0.1443 -0.1975
 2347SOL    HW118674   0.680   0.245   7.280 -0.0916 -0.0073 -0.3904
 2347SOL    HW218675   0.637   0.217   7.134 -1.1962 -1.8161 -0.7608
 2348SOL     OW18676   2.928   0.133  11.277  0.3438  0.2535  0.3323
 2348SOL    HW118677   2.844   0.095  11.250  2.3102 -1.0099 -4.0298
 2348SOL    HW218678   2.992   0.090  11.220  0.9501  2.2392 -0.4673
 2349SOL     OW18679   0.631   1.662  17.395 -0.0012 -0.4859  0.2639
 2349SOL    HW118680   0.642   1.701  17.481  1.8863 -0.5507  0.0463
 2349SOL    HW218681   0.548   1.708  17.388 -0.1898 -1.2564 -2.6262
 2350SOL     OW18682   2.372   2.260  11.987  0.1663 -0.4822  0.3126
 2350SOL    HW118683   2.336   2.222  11.907  0.7022 -0.9455  0.2893
 2350SOL    HW218684   2.454   2.212  11.997  1.1091  1.3531  1.4547
 2351SOL     OW18685   0.664   0.575  17.289 -0.7321  0.5172 -0.2520
 2351SOL    HW118686   0.588   0.630  17.270  1.0580  3.4136  0.9582
 2351SOL    HW218687   0.740   0.633  17.295 -0.1457 -0.1147 -1.4011
 2352SOL     OW18688   4.460   3.985   6.469 -0.0894  0.0923 -0.4423
 2352SOL    HW118689   4.467   3.966   6.375  0.3127 -1.6296 -0.0519
 2352SOL    HW218690   4.395   3.921   6.497 -0.5273 -0.2829 -2.3074
 2353SOL     OW18691   2.823   0.896   7.939  0.2220  0.2951 -0.3362
 2353SOL    HW118692   2.845   0.818   7.991 -1.9535 -0.0435  0.0604
 2353SOL    HW218693   2.792   0.953   8.009 -1.1135 -0.1303 -0.5731
 2354SOL     OW18694   0.646   1.228   4.950 -0.7115  0.0534  0.6181
 2354SOL    HW118695   0.678   1.169   4.881 -1.4901 -0.5486  0.7738
 2354SOL    HW218696   0.728   1.260   4.986 -0.5021  0.5955 -0.3391
 2355SOL     OW18697   3.667   1.591   5.091 -0.1313  0.5046 -0.2349
 2355SOL    HW118698   3.740   1.653   5.087 -0.0012  0.3938  0.5719
 2355SOL    HW218699   3.591   1.644   5.114 -0.9497 -0.3585 -0.9226
 2356SOL     OW18700   1.352   3.295  16.922 -0.2715  0.0315  0.8332
 2356SOL    HW118701   1.292   3.349  16.870 -0.5344  0.6587  1.7835
 2356SOL    HW218702   1.319   3.314  17.010 -0.7432 -2.8231  1.2471
 2357SOL     OW18703   3.677   4.610   8.488  0.1972 -0.6040 -0.0676
 2357SOL    HW118704   3.599   4.606   8.433  0.6802  0.1965 -0.8093
 2357SOL    HW218705   3.702   4.517   8.483 -0.3725 -0.6868 -1.2057
 2358SOL     OW18706   1.696   1.636   0.093  0.3967  0.0881 -0.2652
 2358SOL    HW118707   1.694   1.554   0.045  1.0330 -1.1705  1.8304
 2358SOL    HW218708   1.621   1.686   0.060  1.3622  1.1120 -0.8846
 2359SOL     OW18709   2.381   3.367   0.969 -0.3015  0.0480  0.2364
 2359SOL    HW118710   2.466   3.363   1.013 -0.4905  0.2994  0.6239
 2359SOL    HW218711   2.333   3.297   1.013 -0.7964 -0.7229 -1.5091
 2360SOL     OW18712   3.678   3.219   4.155 -0.2397 -0.1229 -0.0359
 2360SOL    HW118713   3.697   3.274   4.080 -0.3595  0.9711  0.7397
 2360SOL    HW218714   3.607   3.167   4.118 -0.5022  1.3325 -1.5506
 2361SOL     OW18715   4.186   1.968  12.576 -0.0532 -0.1509  0.2410
 2361SOL    HW118716   4.113   2.024  12.601 -0.1326  1.0193 -2.5913
 2361SOL    HW218717   4.207   1.937  12.664 -0.1091 -0.0421  0.2927
 2362SOL     OW18718   4.628   2.604   1.666 -0.0833 -0.2822 -0.4331
 2362SOL    HW118719   4.566   2.555   1.721  0.0452 -0.4270 -0.4172
 2362SOL    HW218720   4.599   2.583   1.577 -1.5801 -0.0168 -0.0088
 2363SOL     OW18721   0.799   3.416   6.190  0.1591 -0.2852  0.2294
 2363SOL    HW118722   0.807   3.333   6.143 -2.3550 -0.6510  0.4446
 2363SOL    HW218723   0.754   3.381   6.267  0.8405  0.0364  0.7809
 2364SOL     OW18724   4.079   3.342   9.324 -0.3348  0.5868 -0.5402
 2364SOL    HW118725   4.095   3.341   9.229  0.4000  0.4810 -0.4116
 2364SOL    HW218726   4.026   3.262   9.326 -0.8227  0.9176 -0.4234
 2365SOL     OW18727   0.980   2.608   2.522 -0.0886 -0.0075 -0.2723
 2365SOL    HW118728   1.060   2.631   2.568  0.1229 -0.3180 -0.4834
 2365SOL    HW218729   0.999   2.530   2.470 -1.9580 -0.5829 -0.0961
 2366SOL     OW18730   1.842   4.251   3.792 -0.2510  0.0931  0.1660
 2366SOL    HW118731   1.861   4.223   3.882  0.7233 -0.9177 -0.3421
 2366SOL    HW218732   1.883   4.337   3.797  1.0808 -0.5573  0.5021
 2367SOL     OW18733   3.086   3.842   7.705  0.2894 -0.3105 -0.2993
 2367SOL    HW118734   3.150   3.770   7.702 -0.0319 -0.4744 -2.7419
 2367SOL    HW218735   3.091   3.863   7.612  0.1927 -0.4291 -0.3319
 2368SOL     OW18736   0.670   1.856   9.027  0.6517 -0.2568 -0.3340
 2368SOL    HW118737   0.702   1.805   9.101  0.4852  1.5179  0.9716
 2368SOL    HW218738   0.575   1.860   9.040  0.7127 -2.2884  0.7389
 2369SOL     OW18739   3.040   0.670   9.336 -0.0140  0.0186 -0.8023
 2369SOL    HW118740   3.027   0.755   9.378  1.0071 -0.8779  1.2838
 2369SOL    HW218741   3.015   0.689   9.245 -4.1112  0.2680  0.3344
 2370SOL     OW18742   2.428   3.773   7.261 -0.7455 -0.2821  0.0101
 2370SOL    HW118743   2.358   3.716   7.228  0.3987 -1.4587 -0.3945
 2370SOL    HW218744   2.489   3.704   7.289 -0.5057 -1.2749 -2.9011
 2371SOL     OW18745   3.161   3.297  13.601  0.7647 -0.7620  0.1286
 2371SOL    HW118746   3.166   3.327  13.691  0.3816 -0.7867  0.1602
 2371SOL    HW218747   3.145   3.380  13.555 -0.0009 -0.8171  0.2969
 2372SOL     OW18748   0.063   2.805   5.865  0.2677  0.3232 -0.1934
 2372SOL    HW118749   0.108   2.890   5.861  0.1389  0.4437  0.9141
 2372SOL    HW218750   0.127   2.740   5.837 -1.0965 -1.8130  1.6544
 2373SOL     OW18751   1.381   0.509   4.749 -0.0516 -0.1778 -0.0101
 2373SOL    HW118752   1.423   0.452   4.685 -4.4013  0.3584 -3.3593
 2373SOL    HW218753   1.306   0.531   4.694 -0.5129 -1.3514  0.1533
 2374SOL     OW18754   2.667   3.494   4.509  0.7641 -0.2939 -0.0576
 2374SOL    HW118755   2.731   3.565   4.501 -0.5110  0.8114 -0.5279
 2374SOL    HW218756   2.655   3.490   4.604 -1.5002  0.2377 -0.2993
 2375SOL     OW18757   4.300   0.452   3.955 -0.2107 -0.4603  0.2057
 2375SOL    HW118758   4.361   0.455   3.881 -0.5383 -0.9283 -0.0827
 2375SOL    HW218759   4.365   0.470   4.023  1.4678  0.2980 -1.5692
 2376SOL     OW18760   0.664   3.321   7.941  0.0416  0.0560  0.2021
 2376SOL    HW118761   0.666   3.228   7.918 -3.0112 -0.2218  1.0080
 2376SOL    HW218762   0.688   3.316   8.033  0.9041  0.2950 -0.0094
 2377SOL     OW18763   0.916   0.761   7.487 -0.3196 -0.4879 -0.1370
 2377SOL    HW118764   0.855   0.753   7.560 -1.2197 -0.7935 -0.9250
 2377SOL    HW218765   0.852   0.759   7.416 -0.4348 -0.9545 -0.0202
 2378SOL     OW18766   2.510   0.390   3.422  0.1191  0.4492 -0.1847
 2378SOL    HW118767   2.604   0.400   3.410  0.0362  0.7500 -0.6167
 2378SOL    HW218768   2.496   0.334   3.346 -0.4389  1.2838 -0.7009
 2379SOL     OW18769   1.321   1.561   5.897  0.2842  0.3839 -0.0662
 2379SOL    HW118770   1.268   1.631   5.934  2.3262  0.0229  3.5209
 2379SOL    HW218771   1.385   1.550   5.967 -1.0379 -1.4691  0.8651
 2380SOL     OW18772   3.381   2.405   7.474 -0.0903  0.3511  0.0491
 2380SOL    HW118773   3.430   2.482   7.501  1.7034 -0.9664  0.5249
 2380SOL    HW218774   3.449   2.338   7.465  1.3466  1.7733  0.2254
 2381SOL     OW18775   2.743   1.353   9.908 -0.2686 -0.4122  0.1028
 2381SOL    HW118776   2.768   1.435   9.949 -0.0948 -1.5742  2.3157
 2381SOL    HW218777   2.741   1.384   9.817  1.6084 -0.5994  0.0124
 2382SOL     OW18778   2.714   2.710  16.076 -0.6869 -0.0773  0.4960
 2382SOL    HW118779   2.677   2.636  16.028 -0.9184 -0.6892  1.6116
 2382SOL    HW218780   2.641   2.771  16.064 -0.6250 -0.6352 -2.6740
 2383SOL     OW18781   0.002   0.067  15.996 -0.6236 -0.5915 -0.4539
 2383SOL    HW118782   4.655   0.120  16.001  0.9778  1.7683 -0.0461
 2383SOL    HW218783   4.696   4.723  16.038 -0.6564  0.1522  0.8501
 2384SOL     OW18784   4.284   4.407  12.190  0.0055  0.3253 -0.0625
 2384SOL    HW118785   4.347   4.455  12.244  0.0011  2.0001 -1.5712
 2384SOL    HW218786   4.220   4.372  12.253 -1.1404  0.3152 -1.2416
 2385SOL     OW18787   3.987   1.138  10.577  0.4936 -0.6511  0.2875
 2385SOL    HW118788   4.017   1.179  10.496 -1.2136  1.5010  0.7394
 2385SOL    HW218789   4.057   1.153  10.640 -0.9687 -0.5134  1.8585
 2386SOL     OW18790   3.695   0.964   4.585  0.2807  0.4164 -0.5744
 2386SOL    HW118791   3.626   0.905   4.555  1.1633 -0.0338 -1.6888
 2386SOL    HW218792   3.647   1.005   4.657  0.2045  1.1870 -1.0692
 2387SOL     OW18793   0.674   3.465  17.475 -0.0333  0.3326 -0.3910
 2387SOL    HW118794   0.626   3.547  17.470  1.6022  1.4009  1.6332
 2387SOL    HW218795   0.662   3.454  17.569 -1.3489  1.5778 -0.4312
 2388SOL     OW18796   1.576   2.576   9.163  0.2951 -0.0513  0.2041
 2388SOL    HW118797   1.611   2.662   9.186  1.3487 -0.8482  1.5252
 2388SOL    HW218798   1.500   2.565   9.221 -1.5978  0.9981 -2.0619
 2389SOL     OW18799   3.716   4.454   7.405  0.3327  0.3969 -0.8220
 2389SOL    HW118800   3.689   4.471   7.496 -0.6262 -2.1674 -0.6089
 2389SOL    HW218801   3.653   4.508   7.358  0.6912  1.5384  0.0127
 2390SOL     OW18802   0.458   1.517   9.111  0.3133  0.1994 -0.3798
 2390SOL    HW118803   0.416   1.594   9.149 -0.5133 -0.2593 -0.3779
 2390SOL    HW218804   0.495   1.483   9.192 -0.2994  1.1912  0.3119
 2391SOL     OW18805   0.722   0.774   7.307 -0.5022 -0.1596 -0.8715
 2391SOL    HW118806   0.640   0.797   7.350 -0.9543  1.6317 -2.6907
 2391SOL    HW218807   0.699   0.710   7.240 -0.9224  1.4611 -2.2538
 2392SOL     OW18808   3.256   3.942   9.828 -0.5511  0.0159 -0.1218
 2392SOL    HW118809   3.347   3.968   9.817  0.1768 -2.0906  0.8390
 2392SOL    HW218810   3.215   3.987   9.754 -1.0351  2.3160  1.5492
 2393SOL     OW18811   3.689   4.108   1.816  0.5946  0.1058 -1.0142
 2393SOL    HW118812   3.645   4.138   1.896 -2.8026  0.9478 -3.1934
 2393SOL    HW218813   3.708   4.193   1.777  2.7044  0.1880  0.1744
 2394SOL     OW18814   1.419   2.469  17.147  0.5097 -0.1073  0.1902
 2394SOL    HW118815   1.407   2.405  17.077  2.0290  0.6154 -0.7332
 2394SOL    HW218816   1.377   2.549  17.116 -0.1227 -1.2559 -1.9259
 2395SOL     OW18817   2.742   0.835   7.670  0.2533  0.3234 -0.5112
 2395SOL    HW118818   2.804   0.898   7.633  1.0826  0.1462  0.5781
 2395SOL    HW218819   2.748   0.866   7.760 -0.2796 -2.8672  0.6094
 2396SOL     OW18820   1.450   4.533   4.818 -0.3274 -0.3124  0.1090
 2396SOL    HW118821   1.468   4.557   4.727  1.5255  1.5645  0.9572
 2396SOL    HW218822   1.501   4.595   4.871  2.2099  1.5175 -4.4959
 2397SOL     OW18823   1.534   0.542   0.179  0.6372  0.2946 -0.0206
 2397SOL    HW118824   1.523   0.635   0.201 -0.7515  0.3778 -1.0281
 2397SOL    HW218825   1.601   0.505   0.236 -1.2394  1.0860  2.6801
 2398SOL     OW18826   1.022   0.209   5.730 -0.4219  0.3159  0.5646
 2398SOL    HW118827   0.991   0.175   5.813 -2.6577  2.1191  0.4716
 2398SOL    HW218828   0.985   0.297   5.734 -1.1768  0.1064 -1.6361
 2399SOL     OW18829   3.371   1.873   6.989 -0.1553 -0.0877 -0.1633
 2399SOL    HW118830   3.341   1.815   7.058  0.2952  1.6301  1.4718
 2399SOL    HW218831   3.296   1.860   6.931 -1.3628  3.1247  0.6654
 2400SOL     OW18832   1.121   4.575   5.991 -0.2015 -0.2939 -0.1943
 2400SOL    HW118833   1.058   4.621   5.935 -0.4991 -0.1982  0.2163
 2400SOL    HW218834   1.067   4.525   6.052  0.4617 -1.1201 -0.2968
 2401SOL     OW18835   0.309   3.241   9.862 -0.1489  0.0813  0.6212
 2401SOL    HW118836   0.230   3.290   9.836  0.4597  1.0174  0.5496
 2401SOL    HW218837   0.372   3.309   9.885  1.1437 -0.0550 -2.4504
 2402SOL     OW18838   1.962   0.165   2.037 -0.0471 -0.0365  0.1456
 2402SOL    HW118839   1.945   0.244   1.986  0.5109  0.4448  0.6958
 2402SOL    HW218840   1.986   0.203   2.121  0.4059 -2.0756  0.9568
 2403SOL     OW18841   2.897   4.368   3.997  0.0700 -0.3342 -0.4125
 2403SOL    HW118842   2.854   4.350   4.080  2.6874 -0.9035  0.8151
 2403SOL    HW218843   2.839   4.329   3.931 -1.4990 -1.0655  1.4271
 2404SOL     OW18844   4.672   4.634  13.091  0.0145 -0.4296 -0.6611
 2404SOL    HW118845   0.011   4.620  13.030  0.8064 -0.8612  0.3728
 2404SOL    HW218846   4.717   4.618  13.174 -1.9321 -4.1698 -0.3176
 2405SOL     OW18847   4.630   0.322   9.795  0.3053  0.1409 -0.0231
 2405SOL    HW118848   4.597   0.269   9.868  2.5803 -0.2661  0.7445
 2405SOL    HW218849   4.699   0.367   9.844 -1.0857  0.1272  1.9559
 2406SOL     OW18850   1.228   2.298  13.665  0.9090 -0.0048 -0.9743
 2406SOL    HW118851   1.190   2.295  13.752  3.2292  1.4365  0.0880
 2406SOL    HW218852   1.223   2.392  13.651  1.2872  0.0211 -0.9324
 2407SOL     OW18853   2.973   3.298  16.684 -0.0590  0.0928 -0.1765
 2407SOL    HW118854   3.033   3.234  16.646 -0.9072 -1.7394  1.5654
 2407SOL    HW218855   2.954   3.259  16.769  0.9766 -1.4870 -0.6715
 2408SOL     OW18856   3.165   3.074  14.065 -0.3409 -0.1485 -0.3960
 2408SOL    HW118857   3.136   3.088  13.975  0.5792  1.9306 -0.3676
 2408SOL    HW218858   3.105   3.003  14.087 -0.5009 -0.6481 -2.4187
 2409SOL     OW18859   3.963   3.767  17.035  0.3353 -0.5975  0.0652
 2409SOL    HW118860   4.029   3.780  16.966 -0.4322  1.0038 -0.3745
 2409SOL    HW218861   4.018   3.716  17.094  0.4419 -2.0745 -1.3111
 2410SOL     OW18862   1.270   1.038   4.550  0.0348  0.1400  0.6671
 2410SOL    HW118863   1.239   1.085   4.472  0.3483  0.2199  0.5924
 2410SOL    HW218864   1.195   1.047   4.609 -1.0879  2.4708 -1.1116
 2411SOL     OW18865   4.618   2.067   2.589 -0.2521 -0.2875 -0.2878
 2411SOL    HW118866   4.619   2.037   2.499 -1.3869  0.9876 -0.7162
 2411SOL    HW218867   4.524   2.057   2.603 -0.6626  2.3605 -1.2845
 2412SOL     OW18868   3.273   0.200   9.550 -0.0779 -0.3338  0.0690
 2412SOL    HW118869   3.224   0.273   9.589 -1.6959 -0.8275 -1.0275
 2412SOL    HW218870   3.358   0.236   9.525 -0.7849  1.8585  0.8381
 2413SOL     OW18871   2.913   2.815  13.731  0.4429  0.7817 -0.0406
 2413SOL    HW118872   2.917   2.891  13.673  0.7790 -1.4993 -3.0403
 2413SOL    HW218873   2.961   2.750  13.679  0.5345  0.8101  0.0101
 2414SOL     OW18874   0.537   2.913   0.700 -0.4912 -0.1785 -0.4105
 2414SOL    HW118875   0.477   2.988   0.693  0.9401  1.0224  0.1581
 2414SOL    HW218876   0.494   2.863   0.770 -1.6598  0.3797 -0.7197
 2415SOL     OW18877   3.503   4.305   0.369  0.0900  0.1791 -0.1118
 2415SOL    HW118878   3.482   4.399   0.364 -0.4589 -0.0655 -2.4319
 2415SOL    HW218879   3.441   4.270   0.305 -0.3060 -1.0186  0.9310
 2416SOL     OW18880   4.661   0.104   2.117 -0.1251 -0.5859  0.3369
 2416SOL    HW118881   4.635   0.024   2.162 -1.5117  0.8123  2.0294
 2416SOL    HW218882   4.592   0.117   2.052  1.0063 -1.6204 -1.0728
 2417SOL     OW18883   4.156   4.276   7.034 -0.0487 -0.3926  0.4021
 2417SOL    HW118884   4.117   4.361   7.052 -1.8149 -1.0441 -0.4208
 2417SOL    HW218885   4.217   4.301   6.965 -0.8324  2.0006  0.5824
 2418SOL     OW18886   1.530   0.492   2.874 -0.3084  0.1148  0.4826
 2418SOL    HW118887   1.572   0.532   2.798  1.0596  2.2203  2.3557
 2418SOL    HW218888   1.535   0.397   2.864 -1.7310 -0.0100  0.9247
 2419SOL     OW18889   3.619   2.783   8.146  0.2768 -0.2610 -0.1749
 2419SOL    HW118890   3.624   2.865   8.196 -3.0538 -1.8152  2.6945
 2419SOL    HW218891   3.698   2.793   8.093  0.2267  0.8267 -0.0484
 2420SOL     OW18892   0.240   0.411   1.730 -0.1248  0.0297 -0.4607
 2420SOL    HW118893   0.163   0.362   1.758 -0.6233  1.3715  0.5273
 2420SOL    HW218894   0.256   0.369   1.645  3.9917  2.7655 -1.0579
 2421SOL     OW18895   2.798   3.682   3.160  0.5905 -0.0366  1.0904
 2421SOL    HW118896   2.768   3.670   3.070  1.7970 -0.3857  0.7345
 2421SOL    HW218897   2.733   3.732   3.209 -0.4690  0.6899 -1.0834
 2422SOL     OW18898   1.914   1.063   6.846  0.1628 -0.4295  0.6111
 2422SOL    HW118899   1.997   1.026   6.815  0.2045  0.3227 -0.1998
 2422SOL    HW218900   1.936   1.157   6.844  2.4571 -0.9262  1.4774
 2423SOL     OW18901   1.933   2.968   9.593  0.0388  0.1398  0.3967
 2423SOL    HW118902   1.891   3.035   9.539  2.5213  1.8719  0.5887
 2423SOL    HW218903   1.991   2.923   9.532 -2.2475  0.1547 -1.8034
 2424SOL     OW18904   3.510   0.028   5.591  0.0926  0.3934  0.1839
 2424SOL    HW118905   3.462   4.704   5.652  0.2192  0.2286  0.1327
 2424SOL    HW218906   3.442   0.094   5.580 -0.0655 -0.0806 -1.7471
 2425SOL     OW18907   3.885   3.411   8.129 -0.3418 -0.6245 -0.4057
 2425SOL    HW118908   3.810   3.417   8.188 -0.4348  2.3779 -0.8077
 2425SOL    HW218909   3.851   3.364   8.053 -1.3081 -0.7607  0.1146
 2426SOL     OW18910   2.370   4.371   6.171  0.4949 -0.8748 -0.7888
 2426SOL    HW118911   2.361   4.313   6.247 -0.3653  0.0453 -0.1954
 2426SOL    HW218912   2.310   4.335   6.107  1.1381 -1.1657 -1.2262
 2427SOL     OW18913   2.180   4.431   8.910  0.6079 -0.4301 -0.2108
 2427SOL    HW118914   2.192   4.436   8.815 -0.4318  0.5072 -0.2836
 2427SOL    HW218915   2.093   4.470   8.915  0.1321 -0.9796 -3.5979
 2428SOL     OW18916   3.747   2.027   7.151  0.4300 -0.6742  0.1901
 2428SOL    HW118917   3.691   2.101   7.125  0.6173 -1.5259 -2.6673
 2428SOL    HW218918   3.709   1.999   7.234 -1.3006  0.2079 -0.3034
 2429SOL     OW18919   1.199   1.849   5.870  0.5988  0.4927 -0.2942
 2429SOL    HW118920   1.211   1.883   5.958 -0.8535 -0.3588  0.2359
 2429SOL    HW218921   1.107   1.827   5.884 -0.0086  2.8041 -0.7421
 2430SOL     OW18922   0.040   0.620   0.262  0.0570 -1.1415 -0.1690
 2430SOL    HW118923   0.029   0.565   0.339 -0.1528  1.1599  1.4596
 2430SOL    HW218924   0.134   0.635   0.269 -0.3638 -0.4629  4.1934
 2431SOL     OW18925   1.684   4.055   2.094  0.0865  0.2868 -0.2366
 2431SOL    HW118926   1.757   4.030   2.150  0.2586  0.8078 -0.2333
 2431SOL    HW218927   1.632   4.107   2.155 -0.5704  2.8469 -2.9734
 2432SOL     OW18928   1.741   3.885   7.822  0.2891  0.8891 -0.1052
 2432SOL    HW118929   1.660   3.936   7.821 -0.5290 -0.3839  1.8587
 2432SOL    HW218930   1.797   3.946   7.775  0.6956  0.2066 -0.4983
 2433SOL     OW18931   3.452   1.988   5.593 -0.1806  0.3159  0.6258
 2433SOL    HW118932   3.543   2.002   5.616 -0.6233  1.4788  1.6421
 2433SOL    HW218933   3.457   1.978   5.498 -3.6114  0.7135  0.4050
 2434SOL     OW18934   3.003   0.671   2.715 -0.6448  0.0836 -0.6579
 2434SOL    HW118935   2.943   0.663   2.641  1.0047  1.1077 -2.0826
 2434SOL    HW218936   3.036   0.581   2.716  0.1999  0.3957  1.1056
 2435SOL     OW18937   2.686   1.658   5.554 -0.3940 -0.3811 -0.1253
 2435SOL    HW118938   2.605   1.687   5.513 -0.9624 -1.1555  0.4731
 2435SOL    HW218939   2.700   1.729   5.617 -1.6657 -1.3816  1.2753
 2436SOL     OW18940   1.310   3.115   9.000  0.4049  0.2679 -1.1362
 2436SOL    HW118941   1.403   3.120   8.977  1.2734 -1.3339  2.0187
 2436SOL    HW218942   1.306   3.052   9.071 -2.6230  1.8763  0.0920
 2437SOL     OW18943   3.107   2.390  12.009  0.0595 -0.0926 -0.3116
 2437SOL    HW118944   3.112   2.297  12.033  0.9598 -0.6289 -2.5962
 2437SOL    HW218945   3.190   2.399  11.962  0.4366  0.8916  0.5324
 2438SOL     OW18946   3.983   3.678   4.608  0.7911  0.3358 -0.3410
 2438SOL    HW118947   4.036   3.686   4.687  2.8847 -0.5387 -1.6721
 2438SOL    HW218948   4.048   3.704   4.543 -0.0889 -2.5710 -2.3820
 2439SOL     OW18949   0.660   4.417   0.038  0.0450  0.1025 -0.0709
 2439SOL    HW118950   0.699   4.351  17.710 -2.5877 -1.7043  0.1874
 2439SOL    HW218951   0.728   4.437   0.103  1.4277 -1.1815 -1.1051
 2440SOL     OW18952   3.865   0.019   8.179  0.1241 -0.0422 -0.2526
 2440SOL    HW118953   3.850   0.079   8.106 -0.5311 -1.5918 -1.3911
 2440SOL    HW218954   3.783   4.702   8.180  1.3382 -2.0018  1.3592
 2441SOL     OW18955   4.449   4.301   2.401  0.4116  0.3146 -0.2783
 2441SOL    HW118956   4.477   4.353   2.476  0.3568  1.0570 -0.7657
 2441SOL    HW218957   4.359   4.335   2.405 -0.5411 -2.1588 -1.2258
 2442SOL     OW18958   0.925   3.816  16.964  0.0619 -0.4585 -0.1832
 2442SOL    HW118959   0.991   3.829  17.033  2.9597 -2.0082 -2.6466
 2442SOL    HW218960   0.977   3.823  16.884 -0.5748 -0.7244 -0.6174
 2443SOL     OW18961   3.717   3.142   8.189  0.2623 -0.5204 -0.9244
 2443SOL    HW118962   3.700   3.200   8.114 -1.9841  0.4298  0.3016
 2443SOL    HW218963   3.758   3.068   8.144  1.6663 -0.7067  0.6752
 2444SOL     OW18964   2.824   0.906   9.171 -0.4217 -0.4361 -0.2573
 2444SOL    HW118965   2.901   0.946   9.130  1.0270 -1.1596  1.7423
 2444SOL    HW218966   2.807   0.836   9.108  2.1421 -1.9507  0.7606
 2445SOL     OW18967   4.138   4.360   2.886  0.3374  0.1086 -0.0052
 2445SOL    HW118968   4.100   4.278   2.853 -1.8942  0.7317  1.0012
 2445SOL    HW218969   4.226   4.339   2.918  0.0678  0.1405  0.7609
 2446SOL     OW18970   4.068   1.699   9.818 -0.0040  0.3981  0.4074
 2446SOL    HW118971   4.040   1.775   9.870  1.7015  0.1481  1.6635
 2446SOL    HW218972   3.983   1.680   9.779  0.2269 -1.1138  0.6430
 2447SOL     OW18973   3.688   0.228   2.389 -0.0131  0.6211  0.1980
 2447SOL    HW118974   3.748   0.274   2.449  0.2885  0.8923 -0.3145
 2447SOL    HW218975   3.742   0.153   2.362  0.7634  0.8177  1.1779
 2448SOL     OW18976   0.382   2.953  13.503 -0.0722 -0.1653 -0.0147
 2448SOL    HW118977   0.328   3.014  13.453 -1.7314 -2.2551 -0.7874
 2448SOL    HW218978   0.323   2.932  13.577 -0.4467 -2.2272 -0.8880
 2449SOL     OW18979   3.414   1.520   3.604  0.2940 -0.0003 -0.2159
 2449SOL    HW118980   3.381   1.492   3.689  1.6010  0.7742  0.5533
 2449SOL    HW218981   3.486   1.578   3.631  1.7015 -1.3699 -1.0103
 2450SOL     OW18982   1.147   0.808   1.016  0.2771 -0.1492  0.3142
 2450SOL    HW118983   1.222   0.840   1.067 -0.2344 -2.0529  2.2579
 2450SOL    HW218984   1.187   0.775   0.936  0.9187  1.8273 -0.1683
 2451SOL     OW18985   3.738   1.532  15.507 -0.3182 -0.8659  0.2453
 2451SOL    HW118986   3.656   1.515  15.553 -2.4939  1.7458 -2.6928
 2451SOL    HW218987   3.710   1.526  15.416  2.4681 -1.8423 -0.5781
 2452SOL     OW18988   4.730   2.432   1.917 -0.1087 -0.7138 -0.6728
 2452SOL    HW118989   0.068   2.411   1.856 -0.0043 -0.6008 -0.5900
 2452SOL    HW218990   0.046   2.497   1.967  0.4796 -1.2983 -0.4866
 2453SOL     OW18991   3.028   2.084   6.083  0.1333  0.3936  0.0193
 2453SOL    HW118992   2.981   2.139   6.021 -0.6609  0.6163  0.8272
 2453SOL    HW218993   3.075   2.025   6.024  1.1398  0.3752  0.8342
 2454SOL     OW18994   3.151   0.351   3.851  0.5349  0.5904  0.3841
 2454SOL    HW118995   3.185   0.415   3.788 -2.1454 -0.6169 -2.3204
 2454SOL    HW218996   3.235   0.319   3.880  0.3007 -0.8049 -0.4946
 2455SOL     OW18997   1.897   3.615   3.211 -0.6499  0.0231 -0.2559
 2455SOL    HW118998   1.948   3.638   3.289  0.1190 -0.4830 -0.6117
 2455SOL    HW218999   1.812   3.586   3.244  0.0672 -1.7770 -0.0020
 2456SOL     OW19000   0.433   2.900   8.216  0.0297  0.6751  0.2761
 2456SOL    HW119001   0.471   2.983   8.188  1.6056 -0.2250 -0.2366
 2456SOL    HW219002   0.375   2.891   8.140 -1.5861  3.1058  1.2414
 2457SOL     OW19003   2.592   0.272   6.102  0.2990 -0.1188  0.1036
 2457SOL    HW119004   2.500   0.287   6.082  1.4889  3.8232 -2.3585
 2457SOL    HW219005   2.636   0.311   6.026  0.4063 -1.9612 -0.7961
 2458SOL     OW19006   2.225   2.938   2.131 -0.0730  0.0525  0.3549
 2458SOL    HW119007   2.285   2.988   2.187 -1.3509  1.5552  0.3843
 2458SOL    HW219008   2.277   2.862   2.107 -0.1191  0.7968 -2.1338
 2459SOL     OW19009   1.965   4.153   8.637  0.8417 -0.4707 -0.0783
 2459SOL    HW119010   1.903   4.089   8.672  0.1832  0.7452  0.9980
 2459SOL    HW219011   1.989   4.194   8.720 -0.8944 -0.7708  0.5629
 2460SOL     OW19012   0.416   4.004   0.125 -0.5032 -0.3836  0.1433
 2460SOL    HW119013   0.498   4.052   0.111  0.9972 -3.2251 -1.0060
 2460SOL    HW219014   0.415   4.018   0.220  0.5646 -0.7156  0.2110
 2461SOL     OW19015   4.648   1.227   6.333  0.2234 -0.0750  0.1443
 2461SOL    HW119016   4.675   1.190   6.249  1.7501 -0.0023  0.6031
 2461SOL    HW219017   4.618   1.153   6.386  0.1157  0.9874  1.5970
 2462SOL     OW19018   3.171   2.309   6.552 -0.0983  0.0098 -0.6632
 2462SOL    HW119019   3.158   2.369   6.478  1.3205  0.3869 -0.6034
 2462SOL    HW219020   3.079   2.290   6.569  0.0086  1.4858  1.6455
 2463SOL     OW19021   0.761   2.521   8.335 -0.2753  0.2303  0.2293
 2463SOL    HW119022   0.708   2.600   8.325 -0.5832  0.3258  2.6407
 2463SOL    HW219023   0.748   2.478   8.251 -0.2218  0.9670 -0.1528
 2464SOL     OW19024   2.119   1.304   9.103 -0.2586  0.1421  0.3290
 2464SOL    HW119025   2.156   1.389   9.076  3.8352 -1.6308  0.2886
 2464SOL    HW219026   2.200   1.264   9.135 -1.4403 -1.6587  0.9874
 2465SOL     OW19027   3.471   0.821   4.569 -0.1913 -0.3257  0.4034
 2465SOL    HW119028   3.447   0.874   4.493 -0.1517  0.2362  0.7835
 2465SOL    HW219029   3.390   0.769   4.567  0.0167 -0.5615 -2.0075
 2466SOL     OW19030   4.613   1.238   8.710  0.5175 -0.1553 -0.3488
 2466SOL    HW119031   4.690   1.182   8.701 -0.6316 -1.6308 -0.9015
 2466SOL    HW219032   4.586   1.189   8.788 -1.5732 -0.0717 -1.0174
 2467SOL     OW19033   3.474   4.689   2.258  0.3603  0.5575 -0.1656
 2467SOL    HW119034   3.468   0.044   2.295 -1.3565  1.4852 -2.6565
 2467SOL    HW219035   3.399   4.680   2.199  1.3602  0.1811 -1.3728
 2468SOL     OW19036   1.007   2.652   6.711 -0.5968 -0.2734 -0.1593
 2468SOL    HW119037   0.913   2.634   6.715 -0.7962  1.2678  2.0546
 2468SOL    HW219038   0.992   2.733   6.662 -1.1798 -0.2489  0.0596
 2469SOL     OW19039   1.938   1.701   5.220  0.0084 -0.1478 -0.1020
 2469SOL    HW119040   1.997   1.703   5.295  0.3676  0.3014 -0.3934
 2469SOL    HW219041   2.001   1.708   5.148  0.7286 -0.6103  0.4797
 2470SOL     OW19042   4.001   3.083   9.275 -0.1790  0.0614 -0.0780
 2470SOL    HW119043   3.927   3.023   9.269 -1.2657  1.5825 -1.6356
 2470SOL    HW219044   4.040   3.052   9.193 -1.6634 -1.6962 -0.1263
 2471SOL     OW19045   0.483   0.463  17.079 -0.9507  0.4177 -0.7130
 2471SOL    HW119046   0.575   0.467  17.053 -0.3392 -1.2327  1.3066
 2471SOL    HW219047   0.480   0.487  17.171 -1.3982 -0.7259 -0.4280
 2472SOL     OW19048   3.758   0.769   3.608  0.0770 -0.0588  0.0652
 2472SOL    HW119049   3.836   0.715   3.598  0.4895  0.5294  0.1308
 2472SOL    HW219050   3.798   0.852   3.586  0.5907 -0.3821 -0.2242
 2473SOL     OW19051   1.838   1.730   4.036 -0.1839  0.4431  0.1833
 2473SOL    HW119052   1.834   1.718   4.130  0.5933 -1.4374 -0.0209
 2473SOL    HW219053   1.797   1.645   4.017  1.6211  0.0765 -2.2427
 2474SOL     OW19054   2.492   1.237   4.064  0.4235  0.3199  0.7224
 2474SOL    HW119055   2.465   1.302   3.999  0.6936 -0.4742 -0.1684
 2474SOL    HW219056   2.548   1.178   4.015  0.9287  2.4003 -1.2209
 2475SOL     OW19057   0.931   4.291   8.552 -0.2764  0.2316  0.0699
 2475SOL    HW119058   0.995   4.338   8.499  0.5704 -0.0233  0.8577
 2475SOL    HW219059   0.981   4.277   8.632 -0.9537 -2.2931  0.0376
 2476SOL     OW19060   4.496   3.055   3.772  0.2094 -0.3075  0.0767
 2476SOL    HW119061   4.496   3.138   3.724 -1.0788  0.7170  1.8150
 2476SOL    HW219062   4.557   3.078   3.843  0.3939 -0.8700  0.0970
 2477SOL     OW19063   0.124   4.544   2.243 -0.1157 -0.0331  0.0995
 2477SOL    HW119064   0.043   4.532   2.293 -0.6096  1.9038 -0.2400
 2477SOL    HW219065   0.161   4.611   2.300 -1.1069  0.6475 -0.0511
 2478SOL     OW19066   2.818   0.524   8.331 -0.2444  0.5879 -0.8270
 2478SOL    HW119067   2.738   0.576   8.320 -0.5918  0.6882  2.2386
 2478SOL    HW219068   2.871   0.593   8.371 -0.1966 -1.1708  2.1331
 2479SOL     OW19069   2.356   0.717  15.849 -0.4262  0.0750 -0.3056
 2479SOL    HW119070   2.414   0.728  15.925 -0.5975  0.9564 -0.3016
 2479SOL    HW219071   2.293   0.653  15.883  0.3339 -1.1705 -1.2448
 2480SOL     OW19072   2.944   2.382   2.668 -0.9622  0.2444  0.4118
 2480SOL    HW119073   3.001   2.337   2.731  0.8728 -1.5172 -2.5239
 2480SOL    HW219074   2.914   2.308   2.615  0.7973 -0.4595  0.3775
 2481SOL     OW19075   4.717   3.345  17.524 -0.3122  0.3323  0.0502
 2481SOL    HW119076   0.062   3.374  17.571  0.9454 -1.2201 -1.0602
 2481SOL    HW219077   0.010   3.259  17.490  0.2201 -0.4360  2.3689
 2482SOL     OW19078   4.182   0.743   7.480 -0.0566 -0.3216 -0.1894
 2482SOL    HW119079   4.198   0.791   7.561  1.3076 -0.4713 -0.3628
 2482SOL    HW219080   4.241   0.669   7.494  2.8724  1.9158 -0.7797
 2483SOL     OW19081   2.627   2.331   5.261  0.7924 -0.2532 -1.1575
 2483SOL    HW119082   2.536   2.335   5.290  1.3142 -2.5400  0.7559
 2483SOL    HW219083   2.666   2.406   5.306 -0.7314 -0.7448  0.9762
 2484SOL     OW19084   1.084   2.688   6.405  0.5485 -0.2241 -0.0464
 2484SOL    HW119085   1.034   2.767   6.427  1.5919 -0.0816  1.7559
 2484SOL    HW219086   1.104   2.711   6.314 -2.4685 -0.0835 -0.6876
 2485SOL     OW19087   1.378   3.516   5.252  0.3311  0.3292  0.4480
 2485SOL    HW119088   1.317   3.515   5.178  1.4121  0.5244 -0.4454
 2485SOL    HW219089   1.460   3.518   5.202 -0.8439 -0.5489 -1.4899
 2486SOL     OW19090   1.711   4.576  12.760 -0.0714 -0.1374  0.2353
 2486SOL    HW119091   1.673   4.577  12.848 -0.5390 -2.1555  0.0616
 2486SOL    HW219092   1.791   4.530  12.783 -0.1379 -1.0347 -1.3749
 2487SOL     OW19093   0.670   3.320   4.007 -0.1706  0.5011  0.0499
 2487SOL    HW119094   0.696   3.271   3.930  2.4542 -1.7899  2.3678
 2487SOL    HW219095   0.624   3.250   4.054  0.2056  0.5912  0.5549
 2488SOL     OW19096   1.054   4.071  17.377 -0.1976 -0.3591 -0.3444
 2488SOL    HW119097   1.140   4.111  17.380 -1.2600  1.8319  0.8479
 2488SOL    HW219098   1.035   4.055  17.285 -1.3225  0.4560 -0.2516
 2489SOL     OW19099   0.416   4.072   1.863  0.4073  0.0914  0.7855
 2489SOL    HW119100   0.500   4.064   1.909  0.6099  0.5939  0.5045
 2489SOL    HW219101   0.379   4.135   1.925  0.0705 -1.1099  1.7930
 2490SOL     OW19102   0.526   4.595   5.071  0.3796 -0.4875  0.2683
 2490SOL    HW119103   0.550   4.505   5.048  0.0269  0.1422 -2.4434
 2490SOL    HW219104   0.434   4.571   5.064  0.2662  0.3212 -0.7906
 2491SOL     OW19105   0.583   0.516   2.154  0.2483 -0.6102 -0.2207
 2491SOL    HW119106   0.651   0.449   2.146 -0.4719 -1.1723 -1.5675
 2491SOL    HW219107   0.543   0.504   2.069  0.3569  0.3024 -0.4062
 2492SOL     OW19108   1.000   4.317   4.629  0.2077  0.3920 -0.3813
 2492SOL    HW119109   0.972   4.294   4.717  1.0887  0.7396 -0.0060
 2492SOL    HW219110   1.078   4.370   4.649  1.1335 -1.3936  0.7876
 2493SOL     OW19111   1.148   2.721   3.221  0.2082 -0.5224  0.0583
 2493SOL    HW119112   1.172   2.629   3.237 -0.2087 -0.4814  0.9158
 2493SOL    HW219113   1.181   2.738   3.133  0.5092  0.3681  0.3459
 2494SOL     OW19114   4.486   4.501  12.636 -0.0039  0.6447  0.4645
 2494SOL    HW119115   4.570   4.484  12.679  0.5081 -0.3546 -0.9457
 2494SOL    HW219116   4.503   4.593  12.617  0.5287  0.5857  0.6328
 2495SOL     OW19117   2.994   2.670   1.112  0.1934  0.0891 -0.6106
 2495SOL    HW119118   2.951   2.749   1.143 -0.6415 -0.1528 -1.1492
 2495SOL    HW219119   3.087   2.691   1.098  0.5923  0.1661  2.1332
 2496SOL     OW19120   3.018   3.587   1.553  0.7683  0.2159  0.3502
 2496SOL    HW119121   3.036   3.585   1.459 -0.9290  0.3496  0.0241
 2496SOL    HW219122   3.092   3.533   1.580  2.5778  2.3516 -0.3724
 2497SOL     OW19123   4.517   1.569   6.746  0.3302  0.3625 -0.3219
 2497SOL    HW119124   4.541   1.566   6.839  0.2941  0.5882 -0.3050
 2497SOL    HW219125   4.585   1.515   6.705 -1.0039 -2.2532  0.9425
 2498SOL     OW19126   2.824   4.583   7.158 -0.1005 -0.0555 -0.1941
 2498SOL    HW119127   2.903   4.556   7.111 -0.0867  0.8780 -0.7145
 2498SOL    HW219128   2.813   4.665   7.110 -3.0257 -1.2616 -1.6032
 2499SOL     OW19129   1.011   0.911   6.888  0.0919 -0.0033 -0.1273
 2499SOL    HW119130   1.015   0.997   6.929 -2.7386  1.6998 -3.4609
 2499SOL    HW219131   1.101   0.912   6.857  0.2499 -0.6622  0.2926
 2500SOL     OW19132   0.224   1.351   2.657  0.2785  0.1266 -0.0645
 2500SOL    HW119133   0.173   1.273   2.636  0.2082  0.0707  0.3178
 2500SOL    HW219134   0.273   1.372   2.577 -1.4131  0.3947 -1.0412
 2501SOL     OW19135   1.076   4.233  17.710  0.2641  0.2394 -0.0848
 2501SOL    HW119136   1.071   4.217  17.616 -0.5347  0.4557 -0.0781
 2501SOL    HW219137   1.082   4.328  17.707 -0.0097  0.2646  0.1561
 2502SOL     OW19138   2.007   4.357   5.500 -0.7732 -0.5836  0.1378
 2502SOL    HW119139   1.984   4.437   5.546  0.7803  1.3444 -2.3909
 2502SOL    HW219140   1.925   4.310   5.510 -0.0068 -2.2310 -1.1955
 2503SOL     OW19141   3.647   4.170   5.809  0.1103 -0.8030 -0.6838
 2503SOL    HW119142   3.605   4.201   5.890 -0.0076 -3.7397  0.3743
 2503SOL    HW219143   3.591   4.212   5.745 -1.0827 -0.6276  0.4774
 2504SOL     OW19144   4.085   3.411   8.841  0.1545  0.2405 -0.8161
 2504SOL    HW119145   4.045   3.484   8.794 -1.6853  0.7882  1.5685
 2504SOL    HW219146   4.011   3.391   8.898  0.3917  2.0554  0.1404
 2505SOL     OW19147   3.665   3.668   6.287 -0.1245 -0.2105  0.4764
 2505SOL    HW119148   3.760   3.675   6.299 -0.0130  0.2248 -0.6448
 2505SOL    HW219149   3.647   3.757   6.256 -0.5514 -1.2806 -2.2784
 2506SOL     OW19150   2.682   2.494   9.582 -0.5337  0.0786  0.0674
 2506SOL    HW119151   2.673   2.589   9.581  0.9668  0.2237  0.1544
 2506SOL    HW219152   2.764   2.488   9.533 -0.9089  0.0976 -0.5721
 2507SOL     OW19153   3.946   2.371   4.052  0.0914  0.1448 -0.2084
 2507SOL    HW119154   3.936   2.452   4.003 -1.1423  0.7632  1.0505
 2507SOL    HW219155   3.894   2.310   4.001 -1.7100  3.0312 -1.8219
 2508SOL     OW19156   4.506   1.806   7.014  0.2252 -0.4646 -0.2669
 2508SOL    HW119157   4.415   1.837   7.011 -0.0045 -1.2458 -1.6045
 2508SOL    HW219158   4.550   1.888   6.994  0.1400 -0.3174  0.1664
 2509SOL     OW19159   0.103   4.508   7.177 -0.1139 -0.2051 -0.0453
 2509SOL    HW119160   0.123   4.526   7.269  0.4992 -3.2546  0.4469
 2509SOL    HW219161   0.011   4.534   7.173 -0.5319 -1.3015  2.1726
 2510SOL     OW19162   0.130   1.572  16.639 -0.0420  0.3869 -0.2757
 2510SOL    HW119163   0.103   1.503  16.579 -1.8418  1.1627 -0.3392
 2510SOL    HW219164   0.167   1.634  16.577 -0.3576 -1.2889 -2.1215
 2511SOL     OW19165   0.371   4.473   2.562  0.8376 -0.0942 -0.1776
 2511SOL    HW119166   0.430   4.546   2.546 -0.7038  1.4536  1.0934
 2511SOL    HW219167   0.301   4.534   2.585 -0.8180 -3.0241  2.5676
 2512SOL     OW19168   4.139   4.706   8.142  0.2150 -0.6093 -0.3258
 2512SOL    HW119169   4.178   4.719   8.228 -1.9569 -1.1589  0.7268
 2512SOL    HW219170   4.048   4.724   8.167  0.5981  1.1070 -0.1595
 2513SOL     OW19171   3.946   0.495   1.860 -0.4280  0.9727 -0.2855
 2513SOL    HW119172   3.934   0.587   1.885  0.1444  0.3035  2.4627
 2513SOL    HW219173   3.957   0.510   1.766 -2.0755  0.8659 -0.4968
 2514SOL     OW19174   4.171   3.550   2.452 -0.3837  0.1274 -0.1524
 2514SOL    HW119175   4.129   3.541   2.537  1.2130  1.2438  0.7620
 2514SOL    HW219176   4.123   3.482   2.405  0.7484  0.3508 -1.6375
 2515SOL     OW19177   3.310   0.103  17.596 -1.0804 -0.4597 -0.9688
 2515SOL    HW119178   3.388   0.052  17.615 -0.6563  0.6831  0.3203
 2515SOL    HW219179   3.297   0.161  17.671 -0.9679 -1.3733 -0.2446
 2516SOL     OW19180   2.819   0.285   8.165 -0.8561 -0.0761 -0.4794
 2516SOL    HW119181   2.810   0.359   8.224 -0.0428  0.2354 -0.7530
 2516SOL    HW219182   2.832   0.328   8.080  3.1383  0.6116  0.4928
 2517SOL     OW19183   3.813   1.512   9.031 -0.5798  0.0189 -0.7308
 2517SOL    HW119184   3.850   1.466   9.106  1.4120  0.7788 -1.2609
 2517SOL    HW219185   3.834   1.454   8.958 -1.2105  0.3079 -1.1403
 2518SOL     OW19186   1.626   0.034  14.997 -0.1570 -0.6756 -0.1487
 2518SOL    HW119187   1.588   0.007  14.913  1.3730  1.2272 -1.4473
 2518SOL    HW219188   1.709   0.061  14.957  0.6016  0.8515  2.5241
 2519SOL     OW19189   2.935   4.055  10.789 -0.2064 -0.1829 -0.2124
 2519SOL    HW119190   2.992   4.089  10.858 -0.0698 -1.0300  0.1023
 2519SOL    HW219191   2.872   4.127  10.785  1.6915  1.4694 -0.5066
 2520SOL     OW19192   3.371   2.527  14.997 -0.3523 -0.5860  0.2135
 2520SOL    HW119193   3.421   2.500  14.920  0.2329  1.4242 -0.1085
 2520SOL    HW219194   3.441   2.572  15.044  0.6112 -2.2982  0.4318
 2521SOL     OW19195   0.384   4.243   1.259  0.0228  0.1639  0.4168
 2521SOL    HW119196   0.339   4.312   1.308  3.1557  0.8853  2.2323
 2521SOL    HW219197   0.360   4.179   1.325 -0.9486 -0.6375 -0.7071
 2522SOL     OW19198   1.594   3.122  15.390  0.1265 -0.7068  0.2981
 2522SOL    HW119199   1.570   3.150  15.479 -0.0214  0.2977 -0.0585
 2522SOL    HW219200   1.509   3.109  15.348 -0.9257  1.6334  1.7178
 2523SOL     OW19201   2.580   1.211   8.711  0.1981  1.2465  0.4572
 2523SOL    HW119202   2.526   1.280   8.748 -1.9186 -0.3510  0.3412
 2523SOL    HW219203   2.644   1.210   8.782 -0.9093  2.8711  1.4480
 2524SOL     OW19204   0.046   0.541  10.868 -0.6959  0.6788 -0.0326
 2524SOL    HW119205   0.044   0.449  10.895 -1.6041  0.5830 -0.4374
 2524SOL    HW219206   0.121   0.575  10.916 -0.0813  0.3732 -0.7554
 2525SOL     OW19207   3.885   2.985   8.950  0.2840 -0.5337  0.2749
 2525SOL    HW119208   3.914   2.922   8.885  0.9260  1.5530 -1.4694
 2525SOL    HW219209   3.850   2.919   9.009 -1.8514  0.7332  0.4551
 2526SOL     OW19210   0.838   2.749   7.600 -0.3152  0.0958 -0.7798
 2526SOL    HW119211   0.844   2.655   7.616 -1.4602  0.2734  0.7110
 2526SOL    HW219212   0.907   2.764   7.535  0.7067  0.3073  0.3506
 2527SOL     OW19213   3.287   4.682  12.825 -0.3486  0.4245  0.2806
 2527SOL    HW119214   3.214   0.008  12.803 -0.2069  1.0069  1.3428
 2527SOL    HW219215   3.298   4.642  12.739  1.4274 -0.8863  1.1222
 2528SOL     OW19216   3.969   1.536   3.144 -0.2356 -0.1599 -0.3695
 2528SOL    HW119217   3.971   1.450   3.103  0.4290  0.0366 -0.7498
 2528SOL    HW219218   4.004   1.587   3.071  1.2321  2.0921  1.9022
 2529SOL     OW19219   0.096   0.796   5.248 -0.0406  0.4483  0.4874
 2529SOL    HW119220   0.127   0.712   5.283 -2.6407 -0.8780 -0.4353
 2529SOL    HW219221   0.085   0.760   5.160 -1.0428  1.2268  0.3017
 2530SOL     OW19222   3.492   3.230   6.562  0.4231  0.0851 -0.3661
 2530SOL    HW119223   3.465   3.321   6.548  1.3900  0.7758  2.2514
 2530SOL    HW219224   3.541   3.232   6.644  0.1996  1.6649 -0.2676
 2531SOL     OW19225   3.247   2.675   8.965 -0.3431  0.1588 -0.4226
 2531SOL    HW119226   3.173   2.631   9.006 -1.3048 -0.2373 -2.6048
 2531SOL    HW219227   3.289   2.723   9.037 -2.4868 -1.7850  2.1133
 2532SOL     OW19228   4.654   3.665   2.992 -0.1484 -0.0311  0.2449
 2532SOL    HW119229   4.711   3.614   3.050 -1.1704 -1.3819  0.0621
 2532SOL    HW219230   4.656   3.606   2.917 -0.3665 -1.7963  1.6248
 2533SOL     OW19231   4.243   1.830   1.738 -0.5235  0.1050 -0.1281
 2533SOL    HW119232   4.149   1.848   1.745 -0.5411  0.3730 -0.9828
 2533SOL    HW219233   4.239   1.735   1.751  1.0970  0.2301  1.2111
 2534SOL     OW19234   1.026   3.274  15.207  0.0103  0.0140  0.3436
 2534SOL    HW119235   0.989   3.345  15.259  0.3307  0.6464 -0.2930
 2534SOL    HW219236   1.066   3.320  15.133  0.2129  1.8241  1.5735
 2535SOL     OW19237   4.153   3.104   2.161 -0.0727  0.1439 -0.0175
 2535SOL    HW119238   4.108   3.086   2.078  0.4378 -0.6916 -0.1169
 2535SOL    HW219239   4.108   3.031   2.201  0.0505 -0.2466 -0.5846
 2536SOL     OW19240   3.885   3.081   6.925 -0.1894 -0.1739  0.1074
 2536SOL    HW119241   3.965   3.129   6.905 -0.8833  1.6333  1.6861
 2536SOL    HW219242   3.925   2.995   6.937 -1.5563 -0.8262 -0.0234
 2537SOL     OW19243   1.740   4.333   2.386 -0.4364  0.2972  0.0047
 2537SOL    HW119244   1.710   4.421   2.408  1.9021  1.3901 -1.1519
 2537SOL    HW219245   1.666   4.311   2.329 -1.4602 -0.0736  1.4930
 2538SOL     OW19246   2.290   3.014   7.454 -0.6213 -0.2085  0.8688
 2538SOL    HW119247   2.366   3.013   7.396  0.8436  1.3318  2.7820
 2538SOL    HW219248   2.303   3.096   7.501 -2.4230  0.5653  0.0235
 2539SOL     OW19249   4.051   0.875   8.236  0.1954 -0.2318  0.8391
 2539SOL    HW119250   4.084   0.939   8.299  0.8751  1.4500 -1.2233
 2539SOL    HW219251   3.975   0.841   8.283 -1.8531  0.3717 -1.9900
 2540SOL     OW19252   2.430   2.823  10.076  0.1946  0.2731  0.7997
 2540SOL    HW119253   2.487   2.887  10.035 -2.4002 -0.2851 -3.7349
 2540SOL    HW219254   2.377   2.888  10.123 -0.6718 -0.1865  0.4740
 2541SOL     OW19255   4.297   3.780   5.901  0.1442  0.1986 -0.1919
 2541SOL    HW119256   4.220   3.724   5.900 -0.7363  1.3942 -0.3457
 2541SOL    HW219257   4.358   3.726   5.850  2.1705  3.1782 -0.9641
 2542SOL     OW19258   2.342   3.871   2.970  0.8272  0.8887 -0.1484
 2542SOL    HW119259   2.408   3.867   2.901 -0.0511  0.2752 -0.9560
 2542SOL    HW219260   2.277   3.930   2.931  0.8581  0.4195 -0.9075
 2543SOL     OW19261   0.436   1.541   1.608  0.1008 -0.2639  0.0685
 2543SOL    HW119262   0.410   1.573   1.522  0.5393 -1.3721 -0.4791
 2543SOL    HW219263   0.509   1.479   1.603  0.9774  0.8684 -1.0844
 2544SOL     OW19264   2.018   1.227   6.049 -0.3155 -0.2871  0.1696
 2544SOL    HW119265   1.981   1.161   5.990  0.5190  0.6560 -1.4331
 2544SOL    HW219266   1.950   1.242   6.113  1.6885  1.2331  1.9404
 2545SOL     OW19267   2.922   3.074   3.931  0.1572 -0.1317  0.1497
 2545SOL    HW119268   2.879   3.158   3.912 -3.0862 -1.7208  0.4981
 2545SOL    HW219269   2.935   3.075   4.026 -0.2744 -0.7231  0.2149
 2546SOL     OW19270   0.112   3.474   1.836 -0.1366 -0.2509 -0.0330
 2546SOL    HW119271   0.187   3.505   1.785 -0.3775  0.4155  0.0170
 2546SOL    HW219272   0.160   3.438   1.910 -1.1207  3.0237  2.2542
 2547SOL     OW19273   1.204   1.739  17.178 -0.2438  0.0836  0.3650
 2547SOL    HW119274   1.175   1.822  17.140  0.3332 -1.3415 -3.1403
 2547SOL    HW219275   1.153   1.675  17.130  0.6704  0.5006 -1.1636
 2548SOL     OW19276   2.706   1.960  11.295  0.7647  0.5846  0.2004
 2548SOL    HW119277   2.789   1.961  11.248  0.2012  0.5571 -0.7933
 2548SOL    HW219278   2.712   1.881  11.350  0.4135  1.9416  2.1878
 2549SOL     OW19279   0.654   0.149  10.292 -0.2931  0.4819  0.0731
 2549SOL    HW119280   0.574   0.110  10.256  0.4693 -1.4835  0.5385
 2549SOL    HW219281   0.690   0.172  10.206 -0.2302  0.1001 -0.0026
 2550SOL     OW19282   1.819   2.147   4.400 -0.2048  0.4819  0.2299
 2550SOL    HW119283   1.822   2.061   4.442  1.1248 -1.3950 -3.6789
 2550SOL    HW219284   1.734   2.185   4.423  0.4133  1.2352  1.2933
 2551SOL     OW19285   4.278   1.494   6.858  0.8706 -0.0658  0.2492
 2551SOL    HW119286   4.276   1.399   6.860  0.2497 -0.0564 -0.0346
 2551SOL    HW219287   4.361   1.511   6.814  0.3568  0.4991 -0.4907
 2552SOL     OW19288   2.057   3.790  11.041 -0.1924 -0.0768 -0.5026
 2552SOL    HW119289   2.140   3.833  11.021 -0.3969  0.1238 -0.9216
 2552SOL    HW219290   2.021   3.813  10.955  0.8991 -1.2470 -1.2855
 2553SOL     OW19291   4.719   1.523  12.364  0.2734  0.0136 -0.3830
 2553SOL    HW119292   4.659   1.563  12.427  0.6191 -1.8591  1.1393
 2553SOL    HW219293   0.016   1.600  12.317  0.6706  0.4809  0.6291
 2554SOL     OW19294   4.487   2.316   9.892  0.1881 -0.4917 -0.5088
 2554SOL    HW119295   4.576   2.350   9.892  0.6701 -1.7008 -1.6905
 2554SOL    HW219296   4.429   2.392   9.880  2.3400  0.9623 -1.6572
 2555SOL     OW19297   2.790   0.857   3.354  0.1777  0.0818 -0.1491
 2555SOL    HW119298   2.842   0.937   3.356 -1.3736  1.0329  2.7278
 2555SOL    HW219299   2.854   0.800   3.312 -0.1277 -1.2108  1.1900
 2556SOL     OW19300   1.564   3.599   8.778  0.1694 -0.4787  0.3684
 2556SOL    HW119301   1.658   3.607   8.761 -0.3795 -2.4210 -3.6874
 2556SOL    HW219302   1.527   3.683   8.750 -2.3225 -1.5597  0.4285
 2557SOL     OW19303   2.824   1.090   6.660  0.0809 -0.3658 -0.1191
 2557SOL    HW119304   2.811   1.021   6.596  0.7813 -0.7674  0.1686
 2557SOL    HW219305   2.790   1.165   6.610 -0.9072 -0.0501  1.0265
 2558SOL     OW19306   2.986   3.504   7.989 -0.0362 -0.3678  0.4000
 2558SOL    HW119307   3.068   3.551   7.978 -0.1226  0.2275  2.1671
 2558SOL    HW219308   3.014   3.413   7.995 -0.8914 -0.7268 -1.0155
 2559SOL     OW19309   2.317   0.513   6.216 -0.3060  0.3218  0.3468
 2559SOL    HW119310   2.406   0.501   6.249 -0.7346 -1.1020  0.9684
 2559SOL    HW219311   2.274   0.447   6.270  0.4885  0.1195  0.7366
 2560SOL     OW19312   4.614   2.943   6.979  0.0970 -0.0467  0.3909
 2560SOL    HW119313   4.621   2.982   7.065  0.1675  0.5218  0.1252
 2560SOL    HW219314   4.625   2.849   6.998  0.1441  0.0758  0.9527
 2561SOL     OW19315   2.421   3.700   8.495  0.5241  0.1833  0.1446
 2561SOL    HW119316   2.426   3.654   8.579 -0.8414  0.5309  0.4182
 2561SOL    HW219317   2.467   3.782   8.511 -2.3832  1.7898  0.2637
 2562SOL     OW19318   2.926   1.716  14.535 -0.2978  0.1617  0.0151
 2562SOL    HW119319   3.001   1.775  14.524 -1.0632  1.2004  0.3258
 2562SOL    HW219320   2.898   1.742  14.623 -0.2162  2.3701 -0.5934
 2563SOL     OW19321   0.063   1.450   3.907  0.0569  0.8036  0.2926
 2563SOL    HW119322   0.046   1.374   3.851 -1.2697 -0.2297  2.1136
 2563SOL    HW219323   4.707   1.478   3.929 -0.3262  0.7122 -1.0823
 2564SOL     OW19324   4.128   2.364   6.260 -0.5512 -0.1879 -0.6009
 2564SOL    HW119325   4.180   2.444   6.266  0.4625 -0.9331  0.5472
 2564SOL    HW219326   4.067   2.391   6.328 -0.4944  2.3534 -1.5680
 2565SOL     OW19327   2.031   4.029   5.690  0.0131  0.1125  0.3645
 2565SOL    HW119328   2.033   3.934   5.673 -0.8345  0.2987 -0.8363
 2565SOL    HW219329   1.957   4.038   5.750  0.5762 -0.5608  1.1579
 2566SOL     OW19330   2.043   4.434  13.202 -0.4357  0.6012 -0.0801
 2566SOL    HW119331   1.985   4.361  13.181 -1.1972  1.6751 -1.6921
 2566SOL    HW219332   1.988   4.504  13.237  0.2309  0.3484  1.4783
 2567SOL     OW19333   3.755   1.677   1.884 -0.3101 -0.4788  0.0984
 2567SOL    HW119334   3.714   1.598   1.849  0.3789 -0.3570 -0.9877
 2567SOL    HW219335   3.691   1.741   1.852  2.2646  2.1635  0.2082
 2568SOL     OW19336   1.933   1.014  13.318  0.1842 -0.0879  0.3677
 2568SOL    HW119337   1.965   0.965  13.394  0.5912 -0.5158 -0.0841
 2568SOL    HW219338   1.910   1.098  13.357  0.5793  0.3501 -0.3483
 2569SOL     OW19339   4.161   0.849  10.302  0.3959 -0.1065 -0.0106
 2569SOL    HW119340   4.239   0.831  10.249  0.8083  1.4859  0.0805
 2569SOL    HW219341   4.209   0.882  10.378  0.4196 -1.2827  0.4878
 2570SOL     OW19342   1.028   4.354  13.741  0.4653  0.0566  0.8207
 2570SOL    HW119343   0.969   4.373  13.668  1.3651  1.2028  0.3760
 2570SOL    HW219344   0.967   4.390  13.805  1.4227  1.9479  0.7026
 2571SOL     OW19345   4.114   0.531   4.419 -0.0667 -0.1658 -0.0960
 2571SOL    HW119346   4.162   0.527   4.501  1.6457 -0.0866 -1.0842
 2571SOL    HW219347   4.040   0.472   4.430 -0.3369 -0.1405 -1.7027
 2572SOL     OW19348   2.252   1.232   5.831  1.0581  0.6978  0.0760
 2572SOL    HW119349   2.236   1.158   5.888 -2.2644  2.6251  1.6320
 2572SOL    HW219350   2.341   1.218   5.798  1.5531  0.3812  1.5540
 2573SOL     OW19351   0.312   2.649  13.504  0.1219 -0.3367 -0.0368
 2573SOL    HW119352   0.405   2.642  13.526  0.9043  1.7578 -2.7198
 2573SOL    HW219353   0.286   2.733  13.544  0.7908 -0.4004  0.5370
 2574SOL     OW19354   4.354   1.778   4.898 -0.2227 -0.6368  0.9222
 2574SOL    HW119355   4.312   1.726   4.830 -0.2547 -0.3088  0.6909
 2574SOL    HW219356   4.358   1.716   4.970 -1.6843  0.1856  1.7186
 2575SOL     OW19357   1.428   1.880   8.534  0.8126 -0.7912  0.2657
 2575SOL    HW119358   1.351   1.842   8.491  0.9654 -0.3910 -0.3521
 2575SOL    HW219359   1.374   1.939   8.587  2.9732  0.0169  1.5560
 2576SOL     OW19360   1.974   3.488   1.491  0.4419  0.0637 -0.6962
 2576SOL    HW119361   1.942   3.535   1.569 -2.3889 -1.5451 -0.8985
 2576SOL    HW219362   2.066   3.514   1.496  0.4003 -0.1786  1.4776
 2577SOL     OW19363   3.912   2.754  16.123 -0.1003  0.0011 -0.0515
 2577SOL    HW119364   3.939   2.822  16.184  1.2326 -1.6996  1.2547
 2577SOL    HW219365   3.818   2.767  16.109  0.3635  1.1821 -1.9747
 2578SOL     OW19366   3.625   2.455  16.606 -0.0931  0.1548 -0.0484
 2578SOL    HW119367   3.572   2.478  16.682  1.9337 -1.7153  1.9640
 2578SOL    HW219368   3.555   2.433  16.545  0.6471  1.4520 -1.3471
 2579SOL     OW19369   1.693   3.003   4.394  0.8740  0.1329 -0.7500
 2579SOL    HW119370   1.726   2.921   4.358 -0.4170 -0.2596 -1.0141
 2579SOL    HW219371   1.610   3.001   4.347  0.7470  0.5449 -0.5480
 2580SOL     OW19372   1.914   0.553   0.774 -0.0623  0.3836 -0.1354
 2580SOL    HW119373   1.946   0.492   0.708  1.0244  2.5291 -1.5944
 2580SOL    HW219374   1.936   0.511   0.857 -2.9178  0.9783  0.9128
 2581SOL     OW19375   4.006   3.482   2.665  0.5174  0.3657  0.1643
 2581SOL    HW119376   4.089   3.445   2.695  0.8117  0.4698 -0.5095
 2581SOL    HW219377   3.947   3.428   2.717 -0.3733  2.0878  0.9486
 2582SOL     OW19378   3.342   3.145   2.236 -0.3401 -0.2832 -0.4413
 2582SOL    HW119379   3.365   3.212   2.172 -0.0860 -0.7389 -0.8317
 2582SOL    HW219380   3.258   3.124   2.195 -0.8769 -0.9309  0.9825
 2583SOL     OW19381   0.617   3.348   6.411 -0.6229 -0.6167 -0.2822
 2583SOL    HW119382   0.618   3.379   6.501 -0.0310 -0.9612 -0.1699
 2583SOL    HW219383   0.525   3.331   6.394 -0.1444 -1.4848 -2.1434
 2584SOL     OW19384   4.598   4.000   2.642  0.4707 -0.1081 -0.5603
 2584SOL    HW119385   4.669   3.937   2.654 -2.0438 -2.6866  0.7175
 2584SOL    HW219386   4.645   4.082   2.657 -0.0681 -0.0710  0.8737
 2585SOL     OW19387   3.686   4.707  10.616 -0.4051  0.6050 -0.1666
 2585SOL    HW119388   3.722   0.042  10.557 -2.0685  0.6318 -1.1391
 2585SOL    HW219389   3.622   0.026  10.665 -2.3020  1.5450 -3.6604
 2586SOL     OW19390   4.360   2.857   6.200  0.2831  0.4720  0.3921
 2586SOL    HW119391   4.441   2.810   6.182  0.0482 -0.0658  0.7197
 2586SOL    HW219392   4.389   2.945   6.176  1.2795  0.1513  0.4517
 2587SOL     OW19393   1.798   0.427  10.046 -0.0362 -0.3797 -0.5225
 2587SOL    HW119394   1.807   0.522  10.056  2.1649 -0.4809 -1.3937
 2587SOL    HW219395   1.861   0.408   9.977 -1.6699 -1.4432 -1.7057
 2588SOL     OW19396   1.072   1.992   7.256 -0.0888 -0.9423  0.4557
 2588SOL    HW119397   1.013   2.055   7.215 -1.8385 -0.2192  4.0763
 2588SOL    HW219398   1.029   1.995   7.341  1.8401  0.7229  1.3676
 2589SOL     OW19399   3.035   0.162   3.644 -0.1453 -0.1600  0.5366
 2589SOL    HW119400   3.038   0.184   3.737  0.1428  0.0384  0.4802
 2589SOL    HW219401   2.978   0.086   3.661 -0.2537 -0.6571 -1.9972
 2590SOL     OW19402   3.316   2.106   5.164  0.0528 -0.0539 -0.7311
 2590SOL    HW119403   3.223   2.101   5.144 -0.2770  0.0545  0.7071
 2590SOL    HW219404   3.350   2.169   5.101 -0.5149  0.7595 -0.2247
 2591SOL     OW19405   1.035   3.501   3.956 -0.8064  0.2541  0.0136
 2591SOL    HW119406   1.006   3.517   3.866  1.1436  2.7981 -0.1694
 2591SOL    HW219407   1.131   3.502   3.951 -0.8044  1.8815  0.4283
 2592SOL     OW19408   1.124   3.979   0.815  0.5648 -0.0051  0.4186
 2592SOL    HW119409   1.159   4.059   0.855 -1.9064  0.5999  1.3211
 2592SOL    HW219410   1.204   3.957   0.766  0.2917 -1.2129  0.5048
 2593SOL     OW19411   4.515   0.878  11.964 -0.5580 -0.1757 -0.1401
 2593SOL    HW119412   4.501   0.901  12.056 -1.6133 -0.2457 -0.2838
 2593SOL    HW219413   4.463   0.941  11.915 -0.3013 -0.7420 -1.1258
 2594SOL     OW19414   2.515   1.056   2.754  0.1567 -0.0201 -0.6291
 2594SOL    HW119415   2.530   1.144   2.718 -1.5621  0.4009 -0.3494
 2594SOL    HW219416   2.510   0.995   2.681  0.4949 -1.7138  0.7728
 2595SOL     OW19417   2.484   2.177   2.145  0.7761  0.0672 -0.8104
 2595SOL    HW119418   2.441   2.262   2.138  1.4006  0.5972  2.0860
 2595SOL    HW219419   2.571   2.188   2.106  1.0327  0.0600 -0.2344
 2596SOL     OW19420   2.549   0.903   3.652  0.0060  0.7621 -0.6205
 2596SOL    HW119421   2.492   0.847   3.704 -0.3617 -0.4342 -2.2845
 2596SOL    HW219422   2.499   0.919   3.572  0.2575  0.8856 -0.7517
 2597SOL     OW19423   0.927   4.168   2.024 -0.4106  0.3039 -0.7843
 2597SOL    HW119424   0.997   4.103   2.029 -0.0440  0.8079  0.4401
 2597SOL    HW219425   0.975   4.239   2.066  0.0910 -0.1171 -0.6373
 2598SOL     OW19426   0.707   0.201   6.193 -0.1279  0.1161 -0.5715
 2598SOL    HW119427   0.735   0.109   6.193 -0.7483 -0.0728  1.1172
 2598SOL    HW219428   0.661   0.208   6.276 -0.3462  1.7547 -0.8457
 2599SOL     OW19429   0.447   0.654   4.756  0.3573  0.1284  0.2131
 2599SOL    HW119430   0.410   0.678   4.841  0.9059 -0.4905  0.6209
 2599SOL    HW219431   0.369   0.610   4.722  1.6664 -0.7222 -1.6898
 2600SOL     OW19432   2.768   3.813  12.702 -0.9586 -0.1257  0.0569
 2600SOL    HW119433   2.745   3.739  12.758  1.1806  0.5418  1.8639
 2600SOL    HW219434   2.849   3.846  12.743 -1.5182  0.1884  0.9056
 2601SOL     OW19435   3.273   4.078   1.943  0.9717  0.4935 -0.2190
 2601SOL    HW119436   3.184   4.113   1.937  0.7661 -0.2179 -1.2834
 2601SOL    HW219437   3.278   4.059   2.037  2.0096 -2.7356 -0.9055
 2602SOL     OW19438   2.990   0.863  14.528 -0.0070  0.0681  0.0474
 2602SOL    HW119439   2.957   0.775  14.543  0.3938  0.1232  1.2190
 2602SOL    HW219440   3.051   0.874  14.601 -0.4204 -1.5855  0.6415
 2603SOL     OW19441   2.246   1.518   8.981  0.2973  0.0697  0.3938
 2603SOL    HW119442   2.341   1.531   8.980  0.6496 -2.6200 -1.3350
 2603SOL    HW219443   2.215   1.603   9.013  2.3196  0.7608  0.5255
 2604SOL     OW19444   3.356   2.860   9.209 -0.2773 -0.1510 -0.4807
 2604SOL    HW119445   3.394   2.772   9.201 -0.6680 -0.5508  2.2959
 2604SOL    HW219446   3.413   2.879   9.284 -0.8580  0.6690 -0.2592
 2605SOL     OW19447   2.228   1.196   0.663  0.3547 -0.3005 -0.4448
 2605SOL    HW119448   2.258   1.209   0.573  0.1243 -2.4011 -0.8250
 2605SOL    HW219449   2.220   1.283   0.703 -0.8667 -0.1011 -1.1388
 2606SOL     OW19450   1.045   3.743   5.283  0.6711  0.4127  0.2422
 2606SOL    HW119451   0.965   3.737   5.232  1.0944  3.1910 -0.7577
 2606SOL    HW219452   1.094   3.797   5.221  0.6485  1.4289  1.1175
 2607SOL     OW19453   1.290   0.979  17.703  0.3148  0.5694  0.1918
 2607SOL    HW119454   1.316   1.071  17.693 -0.0868  0.7716  0.9751
 2607SOL    HW219455   1.201   0.999   0.002 -0.8149 -3.7878 -0.3660
 2608SOL     OW19456   4.476   2.085  10.106  0.3936  0.0992 -0.3160
 2608SOL    HW119457   4.424   2.101  10.185  0.4720 -0.1060 -0.2231
 2608SOL    HW219458   4.434   2.138  10.038 -0.0173 -1.2410 -1.1188
 2609SOL     OW19459   4.326   0.597   9.460 -0.0343  0.3777 -0.7017
 2609SOL    HW119460   4.386   0.671   9.466  1.5179 -1.0640  1.5262
 2609SOL    HW219461   4.312   0.583   9.367 -1.5091 -1.5094 -0.1981
 2610SOL     OW19462   1.514   3.785   2.269 -0.1229  0.7857 -0.3858
 2610SOL    HW119463   1.471   3.773   2.354  0.0682 -1.9587 -0.6574
 2610SOL    HW219464   1.504   3.879   2.256 -2.5577  1.0430  3.2449
 2611SOL     OW19465   2.012   1.289   0.237  0.0424 -0.1561  0.2468
 2611SOL    HW119466   2.002   1.298   0.332  0.7862  0.5605  0.2557
 2611SOL    HW219467   1.920   1.284   0.211  0.4798 -2.6539 -0.8184
 2612SOL     OW19468   4.455   2.455  12.687  0.0614 -0.7881  0.0937
 2612SOL    HW119469   4.403   2.522  12.642  1.3608  0.7527  0.8853
 2612SOL    HW219470   4.424   2.455  12.778 -0.0615  0.8142  0.0497
 2613SOL     OW19471   0.131   4.345   8.165  0.1597 -0.4152 -0.6350
 2613SOL    HW119472   0.102   4.283   8.233  2.4431 -0.0711  0.6381
 2613SOL    HW219473   0.132   4.287   8.089 -2.1101 -0.7553 -0.4283
 2614SOL     OW19474   3.836   0.792   3.274  0.7437  0.1440 -0.1370
 2614SOL    HW119475   3.902   0.734   3.237 -0.0283  0.5285 -2.0870
 2614SOL    HW219476   3.777   0.803   3.200  1.1580  1.2012 -0.3213
 2615SOL     OW19477   2.819   4.672   4.332 -0.0133  0.2785  0.1904
 2615SOL    HW119478   2.865   4.720   4.400  2.2077  0.2674 -1.3044
 2615SOL    HW219479   2.890   4.653   4.270 -1.0186  2.8679 -1.7304
 2616SOL     OW19480   3.506   1.224   9.163 -0.4873  0.7306 -0.5702
 2616SOL    HW119481   3.444   1.151   9.164 -0.2520  0.5292 -0.5790
 2616SOL    HW219482   3.584   1.198   9.114 -0.8357  1.1791 -1.3615
 2617SOL     OW19483   1.716   0.132  12.614 -0.2954  0.6253 -0.2606
 2617SOL    HW119484   1.695   0.040  12.597 -0.0601  0.7492 -1.2624
 2617SOL    HW219485   1.627   0.167  12.616 -0.7293 -0.5408  0.6774
 2618SOL     OW19486   1.145   2.074   6.943 -0.8118 -0.6699  0.2067
 2618SOL    HW119487   1.205   2.123   6.999 -1.4449  2.1087 -1.5324
 2618SOL    HW219488   1.137   2.135   6.869 -1.9217 -0.5180  0.4604
 2619SOL     OW19489   2.365   3.155  12.752  0.0382  0.3515  0.0871
 2619SOL    HW119490   2.297   3.201  12.802 -1.2903  1.8810 -3.0758
 2619SOL    HW219491   2.399   3.094  12.817 -0.8587  0.7623  0.9453
 2620SOL     OW19492   1.986   1.686   4.617  0.2979  0.2014 -0.3681
 2620SOL    HW119493   2.032   1.638   4.685  0.0368 -2.7558 -2.2555
 2620SOL    HW219494   2.055   1.742   4.582  2.1504 -1.2429  0.9370
 2621SOL     OW19495   1.235   3.202   4.912  0.2511  0.2244  0.4372
 2621SOL    HW119496   1.267   3.170   4.996  1.1777  1.2161  0.4521
 2621SOL    HW219497   1.317   3.191   4.864  0.7385  0.0674  1.3127
 2622SOL     OW19498   3.496   2.099  16.487  0.0000 -0.2912 -0.6460
 2622SOL    HW119499   3.562   2.117  16.554  1.4259 -3.6831 -1.1179
 2622SOL    HW219500   3.455   2.185  16.478  0.4767 -0.0763 -0.7724
 2623SOL     OW19501   1.343   0.358  15.131  0.2473  0.6337 -0.1409
 2623SOL    HW119502   1.257   0.316  15.124 -1.3267  3.7379  0.4781
 2623SOL    HW219503   1.346   0.400  15.045 -1.4715 -3.5026 -2.2407
 2624SOL     OW19504   2.223   2.327   1.644  0.2688  0.0964 -0.6604
 2624SOL    HW119505   2.284   2.292   1.579 -0.5201  0.8205 -1.7897
 2624SOL    HW219506   2.236   2.421   1.631  1.8532  0.1323  1.1288
 2625SOL     OW19507   1.010   2.264  14.928  0.0979 -0.1070 -1.1232
 2625SOL    HW119508   1.065   2.210  14.985 -1.7562  0.7763  1.4676
 2625SOL    HW219509   1.021   2.237  14.837  0.5598 -0.5577 -0.9392
 2626SOL     OW19510   4.604   3.297   6.375 -0.1684  0.1443 -0.1398
 2626SOL    HW119511   4.682   3.294   6.319  1.2037 -1.1034  1.8413
 2626SOL    HW219512   4.543   3.294   6.302  1.3874  0.5709 -1.4638
 2627SOL     OW19513   3.544   2.973  14.433 -0.0283 -0.0707  0.0956
 2627SOL    HW119514   3.568   3.058  14.469  2.7193 -0.6500 -0.3867
 2627SOL    HW219515   3.575   2.916  14.504  0.5076 -0.1496 -0.2050
 2628SOL     OW19516   3.420   2.075  15.440 -0.6605  0.6091  0.2458
 2628SOL    HW119517   3.471   2.155  15.426  0.1325  0.0484 -0.0280
 2628SOL    HW219518   3.401   2.080  15.534  0.6276 -3.4946  0.6981
 2629SOL     OW19519   4.668   3.237   3.078 -0.2390 -0.4721  0.3437
 2629SOL    HW119520   0.022   3.198   3.087  0.4015  0.9066  0.1150
 2629SOL    HW219521   4.642   3.188   3.001  1.8286 -0.9010 -0.0740
 2630SOL     OW19522   1.173   4.463   3.445  0.2733 -0.4409  0.0485
 2630SOL    HW119523   1.194   4.555   3.430  1.5948 -0.6479  0.5761
 2630SOL    HW219524   1.137   4.455   3.533 -1.0493 -0.7764 -0.5201
 2631SOL     OW19525   2.466   2.405   3.346  0.3352 -0.0245  0.1726
 2631SOL    HW119526   2.497   2.335   3.403 -1.0420 -0.7557  0.0096
 2631SOL    HW219527   2.371   2.401   3.355  0.2964  0.4040 -0.0188
 2632SOL     OW19528   0.640   0.185   7.890  0.3950  0.6880  0.2260
 2632SOL    HW119529   0.641   0.156   7.982 -0.1603 -2.9732 -0.9184
 2632SOL    HW219530   0.611   0.275   7.901 -0.7789  0.7145 -3.2239
 2633SOL     OW19531   3.374   4.121   7.121  0.1415 -0.0856  0.1417
 2633SOL    HW119532   3.421   4.176   7.184  0.9063  0.2941 -0.7518
 2633SOL    HW219533   3.302   4.097   7.179  0.9839 -0.5488  0.9899
 2634SOL     OW19534   2.481   0.280   8.443  0.3580 -0.0085  0.5063
 2634SOL    HW119535   2.571   0.285   8.474  1.0795 -1.0224 -1.3944
 2634SOL    HW219536   2.444   0.212   8.500  1.2300 -0.2728  0.7489
 2635SOL     OW19537   2.761   0.084   6.302  0.1432 -0.3618  0.1650
 2635SOL    HW119538   2.718   0.109   6.220  2.4706 -1.5795 -1.4508
 2635SOL    HW219539   2.698   0.020   6.336 -2.2731  0.0294 -3.5210
 2636SOL     OW19540   2.417   0.061   4.439 -0.8379  0.0122  0.1591
 2636SOL    HW119541   2.491   0.122   4.437 -0.2791 -0.6902 -0.6097
 2636SOL    HW219542   2.350   0.123   4.409 -1.5176 -1.5989 -1.6979
 2637SOL     OW19543   3.604   2.703   3.505 -0.5663  0.5857  0.3025
 2637SOL    HW119544   3.538   2.715   3.437 -2.1199 -0.0108  1.6950
 2637SOL    HW219545   3.675   2.653   3.464 -0.0434  2.2604 -0.8412
 2638SOL     OW19546   2.607   3.784   8.083  0.1153 -0.5544 -0.4154
 2638SOL    HW119547   2.643   3.696   8.094  0.2721 -0.5481 -0.8985
 2638SOL    HW219548   2.681   3.841   8.103 -1.4147  0.6394  1.8363
 2639SOL     OW19549   0.949   4.635   2.086 -0.2559 -0.2942  0.5320
 2639SOL    HW119550   0.857   4.659   2.097 -0.3337 -0.3452 -0.0142
 2639SOL    HW219551   0.970   4.580   2.161 -1.2517  0.8841  1.6711
 2640SOL     OW19552   4.463   1.353   0.642 -0.2311  0.2896  0.4708
 2640SOL    HW119553   4.380   1.376   0.682 -0.7530  1.3816 -1.2352
 2640SOL    HW219554   4.471   1.413   0.568 -3.9544 -0.6943 -0.7235
 2641SOL     OW19555   2.590   2.439   5.953  0.0211 -0.3976  0.3194
 2641SOL    HW119556   2.683   2.461   5.954 -0.0976  0.0987  0.2952
 2641SOL    HW219557   2.540   2.512   5.915  1.0283 -0.1414 -0.5131
 2642SOL     OW19558   0.679   1.488  11.053  0.2026 -0.0684  0.5104
 2642SOL    HW119559   0.711   1.578  11.045  2.2683 -0.7482  1.2208
 2642SOL    HW219560   0.737   1.442  10.993  0.7128  0.5399  0.5385
 2643SOL     OW19561   1.265   3.154   4.378  0.4047  0.2180 -0.2903
 2643SOL    HW119562   1.179   3.161   4.419 -0.4638  2.4037 -2.5377
 2643SOL    HW219563   1.316   3.218   4.427 -0.1687 -0.7914  1.6202
 2644SOL     OW19564   0.737   2.049   4.171  0.6556 -0.0234  0.2468
 2644SOL    HW119565   0.748   1.966   4.125  0.2061 -0.8009  1.5397
 2644SOL    HW219566   0.679   2.015   4.239 -0.0654 -0.6482 -0.6832
 2645SOL     OW19567   1.224   3.477   4.504  0.1527 -0.4552 -0.4274
 2645SOL    HW119568   1.276   3.401   4.531  0.9651  0.2778  0.0531
 2645SOL    HW219569   1.135   3.457   4.535  0.7080 -3.2108 -0.5656
 2646SOL     OW19570   0.694   0.092   6.551  0.4328  0.3791  0.3324
 2646SOL    HW119571   0.755   0.159   6.581 -0.4587  1.7720 -0.9297
 2646SOL    HW219572   0.751   0.018   6.534  0.5359  0.2128  1.3618
 2647SOL     OW19573   0.404   3.954   5.005 -0.2627 -0.3108 -0.1926
 2647SOL    HW119574   0.439   3.975   5.092  1.8497 -2.2046 -0.5988
 2647SOL    HW219575   0.309   3.959   5.017  0.1038  0.7152  2.3817
 2648SOL     OW19576   4.510   3.112   7.954  0.4329  0.1294  0.2398
 2648SOL    HW119577   4.499   3.206   7.971 -0.8742 -0.1769  1.1695
 2648SOL    HW219578   4.592   3.091   7.999 -1.2265 -2.8002  1.8906
 2649SOL     OW19579   1.460   3.050   7.793  0.5401 -0.0455 -0.5977
 2649SOL    HW119580   1.447   3.086   7.881 -0.9190 -0.7565 -0.5181
 2649SOL    HW219581   1.555   3.040   7.796  0.8221  2.7015  0.1974
 2650SOL     OW19582   3.671   1.171   9.655 -0.4953  0.1905 -0.1608
 2650SOL    HW119583   3.650   1.244   9.713  0.4282 -0.0842  0.5237
 2650SOL    HW219584   3.666   1.214   9.569 -3.2090  0.4875  0.1503
 2651SOL     OW19585   1.523   2.581  15.085  0.2402 -0.1067 -0.1897
 2651SOL    HW119586   1.567   2.638  15.148  0.7446  0.0211 -0.6509
 2651SOL    HW219587   1.583   2.512  15.057 -0.0639 -0.1033 -0.8642
 2652SOL     OW19588   3.369   1.585   3.334  0.3149  1.2539 -0.3407
 2652SOL    HW119589   3.397   1.541   3.414  0.4796 -1.1618 -1.7278
 2652SOL    HW219590   3.274   1.584   3.344  0.3421  2.6610  0.1056
 2653SOL     OW19591   1.282   4.603   0.940 -0.0627 -0.3706  0.0682
 2653SOL    HW119592   1.369   4.615   0.902  0.5771  0.0709  1.6318
 2653SOL    HW219593   1.298   4.530   1.001 -1.0193 -1.3181 -0.8329
 2654SOL     OW19594   1.237   0.367   5.021  0.6943  0.3165 -0.1989
 2654SOL    HW119595   1.200   0.448   4.987 -0.3956 -0.1354 -0.0939
 2654SOL    HW219596   1.299   0.391   5.089  0.2955  0.8780 -0.0380
 2655SOL     OW19597   4.428   2.958  11.317  0.2732 -0.0263 -0.3568
 2655SOL    HW119598   4.435   2.902  11.239 -0.4228 -0.6171  0.0179
 2655SOL    HW219599   4.522   2.970  11.331 -0.3395  2.8003  1.1643
 2656SOL     OW19600   0.730   0.642   4.718  0.2255  0.1890  0.1583
 2656SOL    HW119601   0.782   0.604   4.789 -1.5967 -0.9862  0.8778
 2656SOL    HW219602   0.639   0.642   4.749 -1.3623 -0.0562 -4.5311
 2657SOL     OW19603   3.194   3.905   1.366  0.3240 -0.7784  0.1819
 2657SOL    HW119604   3.249   3.983   1.362 -0.4965 -0.3729 -3.0881
 2657SOL    HW219605   3.246   3.851   1.425  0.0676  0.2414  1.3275
 2658SOL     OW19606   1.504   0.103   3.192  0.4190  0.0214 -0.1283
 2658SOL    HW119607   1.577   0.139   3.142  0.6197  1.2010  1.0147
 2658SOL    HW219608   1.546   0.080   3.274 -1.0216 -2.4359 -0.0702
 2659SOL     OW19609   0.620   4.340  16.374 -0.0263  0.6009 -0.2248
 2659SOL    HW119610   0.535   4.298  16.361 -0.2103  0.5391  1.1104
 2659SOL    HW219611   0.665   4.298  16.301  2.0493  2.0073  0.2266
 2660SOL     OW19612   2.590   2.098   3.299 -0.4444  0.2447 -0.0638
 2660SOL    HW119613   2.654   2.168   3.312  1.3495 -0.8123 -3.2850
 2660SOL    HW219614   2.647   2.022   3.285 -0.7145 -0.4428  2.4774
 2661SOL     OW19615   3.967   2.605   8.491  0.0566 -0.0742  0.4457
 2661SOL    HW119616   3.897   2.567   8.438 -1.1974  0.3027  1.8425
 2661SOL    HW219617   3.972   2.695   8.458 -0.0403 -1.4766 -3.5091
 2662SOL     OW19618   4.649   2.622  10.658 -0.3436 -0.3326 -0.0873
 2662SOL    HW119619   4.679   2.683  10.591  0.5690  1.3452  1.8552
 2662SOL    HW219620   4.574   2.575  10.622  0.1529 -0.0558 -1.4797
 2663SOL     OW19621   3.629   0.489   4.571  0.1377 -0.5318 -0.0704
 2663SOL    HW119622   3.554   0.538   4.607  0.9935  0.7296  0.0049
 2663SOL    HW219623   3.661   0.562   4.517  0.1794 -0.1824  0.4285
 2664SOL     OW19624   4.464   4.102   5.740  0.2246 -0.0866  0.5505
 2664SOL    HW119625   4.461   4.170   5.807 -1.3786 -0.0826  0.4715
 2664SOL    HW219626   4.438   4.154   5.664  2.0215 -2.8752 -1.9618
 2665SOL     OW19627   3.688   3.726   1.753  0.6827 -0.0192  0.2965
 2665SOL    HW119628   3.616   3.782   1.781 -0.2564 -0.7381 -0.6954
 2665SOL    HW219629   3.704   3.761   1.665 -1.5248 -1.2548 -0.5986
 2666SOL     OW19630   4.510   1.852   5.968 -0.3290  0.2074 -0.4043
 2666SOL    HW119631   4.492   1.946   5.971  1.0236  0.4095  2.2257
 2666SOL    HW219632   4.433   1.824   5.919 -0.7544  0.4790  0.1141
 2667SOL     OW19633   4.535   2.738   9.164  0.1615  0.8536  0.0218
 2667SOL    HW119634   4.520   2.728   9.070  1.4591  0.2511 -0.1100
 2667SOL    HW219635   4.445   2.750   9.197  0.3417 -1.5458  1.3512
 2668SOL     OW19636   1.165   3.351  12.219 -0.0059 -0.4414 -0.4100
 2668SOL    HW119637   1.193   3.442  12.212  0.3211 -0.5160 -0.1061
 2668SOL    HW219638   1.207   3.326  12.302  1.7453  1.2957 -0.7609
 2669SOL     OW19639   3.498   2.505   8.179 -0.8744  0.0484 -0.1161
 2669SOL    HW119640   3.473   2.461   8.097  1.3586  2.8357 -2.2813
 2669SOL    HW219641   3.492   2.600   8.166 -0.6611  0.1853  0.8569
 2670SOL     OW19642   3.466   2.508   5.828 -0.2206 -0.0118 -0.2829
 2670SOL    HW119643   3.477   2.601   5.809 -2.7540  0.4026  0.3750
 2670SOL    HW219644   3.558   2.499   5.853  0.1460  0.5126 -1.4090
 2671SOL     OW19645   4.190   4.451   2.494 -0.6115  0.6610 -0.2503
 2671SOL    HW119646   4.157   4.509   2.562  0.6065 -0.1277  1.0083
 2671SOL    HW219647   4.106   4.414   2.468 -1.8645  1.8548  2.1183
 2672SOL     OW19648   0.637   3.911  17.604 -0.2032 -0.2436 -0.1133
 2672SOL    HW119649   0.680   3.949  17.681 -0.5371  1.4491 -0.7682
 2672SOL    HW219650   0.693   3.835  17.588 -2.0603 -1.5956 -0.1783
 2673SOL     OW19651   4.665   4.697   5.913 -0.0799  0.0063  0.1949
 2673SOL    HW119652   4.637   0.054   5.891  0.2499  0.0983  0.1394
 2673SOL    HW219653   4.600   4.648   5.863 -0.6799 -0.6593  1.6340
 2674SOL     OW19654   0.431   1.396   4.824  0.1742 -0.0840  0.5126
 2674SOL    HW119655   0.472   1.310   4.830 -1.0301 -0.8537 -2.6087
 2674SOL    HW219656   0.366   1.389   4.894 -1.2760  0.0914 -0.8210
 2675SOL     OW19657   0.079   1.406  17.012  0.0054 -0.1313  0.0714
 2675SOL    HW119658   0.093   1.361  16.929 -2.6513 -1.9189  0.5882
 2675SOL    HW219659   0.127   1.488  17.000  1.0344 -0.9552 -1.4493
 2676SOL     OW19660   1.214   4.438  17.261 -0.4632 -0.1205 -0.0991
 2676SOL    HW119661   1.231   4.483  17.344  0.5660  2.2624 -1.6114
 2676SOL    HW219662   1.144   4.499  17.239  1.3269  1.9072 -0.1881
 2677SOL     OW19663   3.712   3.371  11.494  0.0228 -0.6316 -0.0587
 2677SOL    HW119664   3.795   3.323  11.485 -1.0259 -2.1448 -1.7258
 2677SOL    HW219665   3.647   3.319  11.447  0.0039 -0.0698 -0.6666
 2678SOL     OW19666   0.778   2.398   4.578 -0.4217  0.1857 -0.4897
 2678SOL    HW119667   0.779   2.368   4.487  1.5715  0.8212 -0.6643
 2678SOL    HW219668   0.832   2.474   4.557 -2.4135  1.9000  0.5825
 2679SOL     OW19669   1.727   0.992   8.153  0.2966  0.2231  0.0791
 2679SOL    HW119670   1.748   0.945   8.072  2.3909  3.4630 -1.2088
 2679SOL    HW219671   1.712   0.923   8.218 -0.0613 -0.2110 -0.4623
 2680SOL     OW19672   2.520   4.343   0.189  0.2979  0.0552 -0.7020
 2680SOL    HW119673   2.477   4.378   0.268 -0.0866  1.1982 -1.4063
 2680SOL    HW219674   2.464   4.268   0.169 -0.1025 -0.5286  2.5603
 2681SOL     OW19675   1.962   0.259   4.469  0.1388 -0.4693  0.8008
 2681SOL    HW119676   2.046   0.251   4.514  0.7045 -0.9902 -0.3248
 2681SOL    HW219677   1.944   0.348   4.496 -0.7984 -0.4207  0.0028
 2682SOL     OW19678   2.055   0.128   7.795 -0.1330  0.6438 -0.1844
 2682SOL    HW119679   2.076   0.157   7.707 -0.8694 -0.7790 -0.8282
 2682SOL    HW219680   1.982   0.069   7.776 -2.2425  3.2203 -0.1428
 2683SOL     OW19681   2.847   0.110   3.951 -0.0160  0.1920 -0.3355
 2683SOL    HW119682   2.865   0.018   3.929 -0.2363 -0.0536  0.5095
 2683SOL    HW219683   2.935   0.144   3.964  0.3015 -0.8276  0.2399
 2684SOL     OW19684   1.437   2.380  15.581 -0.1411  0.2649  0.0962
 2684SOL    HW119685   1.408   2.443  15.515 -0.2072  1.1075  0.9308
 2684SOL    HW219686   1.509   2.332  15.539 -0.6845 -2.2306  2.0121
 2685SOL     OW19687   1.890   0.038   2.519 -0.4461 -0.1684 -0.0368
 2685SOL    HW119688   1.796   0.020   2.511 -0.4178 -0.6907  0.8391
 2685SOL    HW219689   1.923   4.680   2.521  1.6215  0.6762  3.9499
 2686SOL     OW19690   2.272   1.918   6.765  0.2239  0.0101 -0.3021
 2686SOL    HW119691   2.244   1.989   6.707  0.3646  0.0560 -0.3147
 2686SOL    HW219692   2.300   1.852   6.702 -3.0649 -2.6205  1.0260
 2687SOL     OW19693   0.305   3.773   6.352  0.2569 -0.0766  0.2245
 2687SOL    HW119694   0.243   3.726   6.407 -1.9604  1.4043 -0.9995
 2687SOL    HW219695   0.298   3.866   6.374 -1.0875  0.1529 -1.1816
 2688SOL     OW19696   1.465   3.780   7.637 -0.2394  0.3640  0.5190
 2688SOL    HW119697   1.375   3.749   7.628 -0.0417 -0.8181  2.6801
 2688SOL    HW219698   1.449   3.874   7.646 -1.9852  0.0386  0.8848
 2689SOL     OW19699   0.810   3.120   6.414 -0.2777  0.0647  0.5575
 2689SOL    HW119700   0.773   3.112   6.326  0.2065 -0.8746  0.4434
 2689SOL    HW219701   0.755   3.193   6.442 -2.1355 -1.9135  2.1760
 2690SOL     OW19702   2.331   3.376  14.844 -0.3552  0.2877  0.2365
 2690SOL    HW119703   2.386   3.322  14.900  3.1008  2.8055 -0.7296
 2690SOL    HW219704   2.263   3.312  14.823  0.3643 -0.4021  0.0337
 2691SOL     OW19705   0.413   0.311  15.086 -0.0660  0.2942  0.0452
 2691SOL    HW119706   0.337   0.283  15.137  0.7633 -2.1747 -0.0471
 2691SOL    HW219707   0.471   0.235  15.084 -0.6688 -0.1504 -0.8151
 2692SOL     OW19708   1.514   2.652   6.299 -0.5514  0.5494 -0.0181
 2692SOL    HW119709   1.585   2.710   6.326  1.2442 -1.1459 -1.1112
 2692SOL    HW219710   1.450   2.659   6.370  1.6788  1.1922  1.9438
 2693SOL     OW19711   0.998   2.412   5.441  0.1267  0.0408 -0.1977
 2693SOL    HW119712   1.032   2.482   5.496 -1.5799  1.1087 -0.5118
 2693SOL    HW219713   0.907   2.409   5.471  0.4819 -3.8296  0.5566
 2694SOL     OW19714   1.877   4.579   7.196  0.0556  0.2575  0.7964
 2694SOL    HW119715   1.909   4.658   7.240  1.8269 -0.7290  1.2378
 2694SOL    HW219716   1.861   4.518   7.268  0.7603  0.2459  0.9417
 2695SOL     OW19717   0.749   3.668   1.612 -0.3495 -0.8997 -0.3512
 2695SOL    HW119718   0.742   3.573   1.617  5.7528 -1.2319  1.8309
 2695SOL    HW219719   0.835   3.684   1.574 -0.6179  3.4990  0.7896
 2696SOL     OW19720   3.186   2.518   7.880 -0.1259  0.0704 -0.1229
 2696SOL    HW119721   3.280   2.501   7.881  0.1341  0.9693 -5.0721
 2696SOL    HW219722   3.159   2.447   7.821  0.2052  0.4628 -0.7504
 2697SOL     OW19723   1.690   1.476  17.594 -0.1423  0.5061 -0.6190
 2697SOL    HW119724   1.614   1.420  17.578  0.2739 -0.4487  0.6924
 2697SOL    HW219725   1.709   1.474  17.500  1.9936 -2.6028 -0.1039
 2698SOL     OW19726   0.153   3.065   5.899 -0.1878  0.4199 -0.5106
 2698SOL    HW119727   0.068   3.101   5.923 -0.4858 -0.5245 -0.1861
 2698SOL    HW219728   0.206   3.145   5.909  0.7422 -0.0889 -1.3311
 2699SOL     OW19729   3.338   0.713   1.009  0.5320  0.0768  0.0445
 2699SOL    HW119730   3.379   0.796   1.034  1.8526 -0.4507 -0.3797
 2699SOL    HW219731   3.343   0.704   0.914  0.4851 -0.8998  0.1323
 2700SOL     OW19732   3.767   0.177  11.246  0.5098 -0.3900 -0.1955
 2700SOL    HW119733   3.708   0.180  11.321  1.4208  3.5236  0.3475
 2700SOL    HW219734   3.846   0.203  11.294  0.9080 -2.7907  0.4897
 2701SOL     OW19735   3.676   3.568   8.859 -0.0389 -0.0108  0.2182
 2701SOL    HW119736   3.672   3.482   8.901  1.3189 -0.1215  0.1076
 2701SOL    HW219737   3.597   3.560   8.806  0.3307  0.2929 -0.3762
 2702SOL     OW19738   1.280   4.402   5.650 -0.4035 -0.4388  0.2313
 2702SOL    HW119739   1.205   4.461   5.657 -0.9933 -1.1967  0.2464
 2702SOL    HW219740   1.303   4.374   5.738  0.7909  2.9230  1.0094
 2703SOL     OW19741   1.933   3.458   1.213 -0.3821 -0.6553  0.0669
 2703SOL    HW119742   1.939   3.505   1.297 -0.6250  0.7432 -0.6988
 2703SOL    HW219743   2.015   3.409   1.214  0.4929  0.8263  0.7806
 2704SOL     OW19744   0.182   3.622   0.907 -0.2864 -0.6681 -0.1774
 2704SOL    HW119745   0.181   3.641   0.814  0.2917 -1.5272 -0.3526
 2704SOL    HW219746   0.263   3.664   0.936 -0.2536 -0.5409 -0.4545
 2705SOL     OW19747   1.321   3.368  17.413 -0.7446 -0.1628 -0.0985
 2705SOL    HW119748   1.361   3.455  17.421 -2.3378  0.4439  1.1110
 2705SOL    HW219749   1.261   3.368  17.487 -0.2803  1.3996  0.2986
 2706SOL     OW19750   3.520   2.732   1.031 -0.5303 -0.2517 -0.3428
 2706SOL    HW119751   3.597   2.675   1.034  1.0059  1.7539 -1.3887
 2706SOL    HW219752   3.494   2.718   0.940  1.7643 -3.6372 -0.4816
 2707SOL     OW19753   3.042   0.904   2.023  0.1766 -0.4812 -0.1350
 2707SOL    HW119754   2.983   0.831   2.042 -2.1794  1.3024 -0.6625
 2707SOL    HW219755   3.084   0.919   2.108  0.8122 -1.7537 -0.2125
 2708SOL     OW19756   3.378   3.961  10.256 -0.1639 -0.4886 -0.2761
 2708SOL    HW119757   3.450   3.926  10.309  1.2703  1.4891 -0.9130
 2708SOL    HW219758   3.337   4.016  10.322 -0.9898 -0.7724 -0.5570
 2709SOL     OW19759   0.315   4.361  16.605  0.3759  0.0097  0.1205
 2709SOL    HW119760   0.318   4.291  16.540  0.0194  0.4987 -0.4260
 2709SOL    HW219761   0.367   4.320  16.675 -1.4653 -0.7889  1.0291
 2710SOL     OW19762   2.081   0.652  14.488  0.1553  0.5288 -0.1980
 2710SOL    HW119763   2.024   0.728  14.489 -2.4607 -1.4180 -0.2664
 2710SOL    HW219764   2.046   0.612  14.568  1.0824 -1.6449 -0.8703
 2711SOL     OW19765   0.429   0.625   8.496 -0.1758 -0.4008 -0.5768
 2711SOL    HW119766   0.364   0.627   8.566  1.4703 -3.0772  1.0012
 2711SOL    HW219767   0.394   0.574   8.423 -0.0363 -0.2666 -0.7361
 2712SOL     OW19768   3.082   2.896   5.742 -0.4262  0.8987  0.0133
 2712SOL    HW119769   2.991   2.920   5.721 -0.6353  0.7828  0.7946
 2712SOL    HW219770   3.077   2.879   5.836 -2.2591 -0.3061 -0.2920
 2713SOL     OW19771   1.455   1.415   9.181 -0.0320  0.0939  0.2456
 2713SOL    HW119772   1.511   1.398   9.105 -2.0011  0.9227 -1.4070
 2713SOL    HW219773   1.482   1.503   9.207 -1.0461  0.7079 -0.7562
 2714SOL     OW19774   3.115   0.851  12.073 -0.2172 -0.1723  0.1481
 2714SOL    HW119775   3.173   0.778  12.092 -1.5796 -1.0905  0.7936
 2714SOL    HW219776   3.104   0.850  11.978 -1.6081  0.0536  0.2954
 2715SOL     OW19777   3.676   2.187  16.660 -0.6567 -0.1675  0.4563
 2715SOL    HW119778   3.695   2.280  16.668 -3.5917  0.3664  1.4557
 2715SOL    HW219779   3.733   2.150  16.727  0.9164  0.2673 -0.6583
 2716SOL     OW19780   4.384   1.776   8.753  0.0714  0.0180  0.2539
 2716SOL    HW119781   4.337   1.834   8.693 -0.3001 -1.4599 -0.8795
 2716SOL    HW219782   4.445   1.722   8.704  0.6359  0.6459  0.2627
 2717SOL     OW19783   3.273   4.688   8.736  0.3406 -0.3413 -0.8140
 2717SOL    HW119784   3.223   0.008   8.674 -1.5009  0.9180  1.7365
 2717SOL    HW219785   3.353   0.007   8.743  0.1774 -0.2605  0.5484
 2718SOL     OW19786   0.061   3.703   2.256  0.1261  0.0277 -0.1899
 2718SOL    HW119787   4.699   3.710   2.250  0.2291  1.6111 -0.0508
 2718SOL    HW219788   0.097   3.782   2.216  2.7583 -0.7397  0.6156
 2719SOL     OW19789   2.321   3.149   1.377  0.2864  0.4448 -0.6368
 2719SOL    HW119790   2.354   3.122   1.462 -0.2209  1.7425 -0.0196
 2719SOL    HW219791   2.390   3.122   1.317  0.3419 -1.5147  0.3206
 2720SOL     OW19792   0.674   2.119   9.653  0.7379 -0.1720  0.0311
 2720SOL    HW119793   0.611   2.170   9.602  0.8161 -0.0386  0.0682
 2720SOL    HW219794   0.621   2.082   9.724  1.9696 -2.4794 -0.2538
 2721SOL     OW19795   1.817   1.051   3.254 -0.7111 -0.5863  0.1595
 2721SOL    HW119796   1.833   1.071   3.347 -0.5755  2.7722 -0.5736
 2721SOL    HW219797   1.891   0.991   3.248 -0.1265  0.2845 -1.1139
 2722SOL     OW19798   0.114   3.256   6.210 -0.0150 -0.1547  0.2126
 2722SOL    HW119799   0.151   3.171   6.235  0.9673 -0.0860 -1.0232
 2722SOL    HW219800   0.171   3.306   6.269  0.1411 -1.2660  1.0213
 2723SOL     OW19801   1.174   3.339  17.726  0.0246 -0.2590 -0.1728
 2723SOL    HW119802   1.158   3.245  17.728 -2.5513  0.1357 -2.1450
 2723SOL    HW219803   1.085   3.358  17.696  0.1110 -0.9152 -0.8333
 2724SOL     OW19804   0.573   1.947   8.528 -0.1345  0.4074 -0.9125
 2724SOL    HW119805   0.631   2.018   8.504  1.2902  0.2268  2.0306
 2724SOL    HW219806   0.628   1.910   8.597 -0.7445  0.5222 -0.3678
 2725SOL     OW19807   1.611   2.088   0.904 -0.3418  0.1199  0.4195
 2725SOL    HW119808   1.648   2.120   0.822 -0.1904  1.7930  1.1361
 2725SOL    HW219809   1.597   2.003   0.863 -1.8507 -0.5371  2.2507
 2726SOL     OW19810   4.684   1.120   3.189  0.3212 -0.4888 -0.4851
 2726SOL    HW119811   0.016   1.189   3.198 -0.6953  0.4382 -0.2577
 2726SOL    HW219812   4.721   1.080   3.110  0.5653 -0.5763 -0.3246
 2727SOL     OW19813   2.734   4.449   8.528 -0.0204 -0.4838  0.3885
 2727SOL    HW119814   2.737   4.517   8.460 -0.1183 -0.3551  0.5134
 2727SOL    HW219815   2.737   4.365   8.483 -1.9258 -0.7315  0.7178
 2728SOL     OW19816   1.944   1.426   7.890 -0.7218 -0.5428  0.1659
 2728SOL    HW119817   2.030   1.416   7.849 -0.8677 -0.4426 -0.1634
 2728SOL    HW219818   1.910   1.501   7.842 -2.1416  0.1697  2.2920
 2729SOL     OW19819   2.066   1.991   2.197  0.4737 -0.1140 -0.3914
 2729SOL    HW119820   2.029   1.946   2.273 -0.0096 -1.1142 -1.2176
 2729SOL    HW219821   2.020   1.933   2.135 -0.2213 -1.4289  1.3516
 2730SOL     OW19822   0.538   0.848  10.190  0.1316  0.2238 -0.0963
 2730SOL    HW119823   0.630   0.824  10.204  1.0345  3.5771 -0.2608
 2730SOL    HW219824   0.490   0.766  10.188  1.8647 -0.8469  2.5107
 2731SOL     OW19825   4.029   4.571   7.920  0.1454 -0.0359  0.5259
 2731SOL    HW119826   4.066   4.597   8.005 -0.1465 -0.4592  0.7810
 2731SOL    HW219827   4.093   4.602   7.856 -0.6229 -0.6677 -0.5435
 2732SOL     OW19828   3.713   3.461   8.333 -0.4521  0.0973 -0.5135
 2732SOL    HW119829   3.695   3.414   8.415 -0.8912  1.6067  0.2415
 2732SOL    HW219830   3.628   3.502   8.317 -0.0436  0.0451 -2.7184
 2733SOL     OW19831   1.772   4.340   7.468  0.5056 -0.3279 -0.0210
 2733SOL    HW119832   1.858   4.297   7.477  0.5044 -0.1905  0.6509
 2733SOL    HW219833   1.739   4.351   7.557  0.4506 -0.5347 -0.0149
 2734SOL     OW19834   1.677   2.078   8.659 -0.4157 -0.2285  0.2122
 2734SOL    HW119835   1.685   2.104   8.567  0.5996 -0.4975  0.2227
 2734SOL    HW219836   1.755   2.112   8.702 -0.4843  1.9939 -1.4234
 2735SOL     OW19837   3.978   3.425   7.458 -0.1658 -0.2484 -0.0206
 2735SOL    HW119838   4.050   3.369   7.487  0.1784 -0.7931 -1.9950
 2735SOL    HW219839   3.969   3.388   7.371 -1.8444  3.1772 -1.2874
 2736SOL     OW19840   4.018   1.978   4.813  0.6240 -0.2369  0.4260
 2736SOL    HW119841   4.016   1.882   4.813 -2.1594 -0.1851  0.0589
 2736SOL    HW219842   3.924   1.996   4.800  0.8995  0.6183 -0.3451
 2737SOL     OW19843   4.323   0.002  14.756 -0.5360 -0.4103 -0.5033
 2737SOL    HW119844   4.278   4.727  14.672 -0.1904 -1.8562 -0.5572
 2737SOL    HW219845   4.375   0.078  14.731 -0.7645  0.5699  1.9871
 2738SOL     OW19846   0.429   4.183  15.950  0.1876 -0.4289  0.1261
 2738SOL    HW119847   0.348   4.144  15.980  0.4512 -0.0832  1.3041
 2738SOL    HW219848   0.423   4.265  15.999 -0.3798 -0.8225  0.7098
 2739SOL     OW19849   2.892   1.096   1.951 -0.2326  0.5931  0.0207
 2739SOL    HW119850   2.937   1.014   1.970 -1.3181  0.2292  1.1120
 2739SOL    HW219851   2.890   1.144   2.034 -1.0438  0.7116 -0.0631
 2740SOL     OW19852   0.097   3.697   4.423  0.0042 -0.3076 -0.2088
 2740SOL    HW119853   0.111   3.771   4.363  3.0191  0.1674  1.0745
 2740SOL    HW219854   0.077   3.633   4.356  0.3145 -0.1414 -0.4604
 2741SOL     OW19855   1.447   0.242   7.350  0.2757 -0.4775  0.2818
 2741SOL    HW119856   1.407   0.322   7.315  2.6218  0.4520 -0.2591
 2741SOL    HW219857   1.368   0.193   7.375  0.2593 -0.1262  0.9487
 2742SOL     OW19858   2.420   0.319   4.778 -0.2011 -0.9035 -0.2778
 2742SOL    HW119859   2.402   0.391   4.717 -1.3140  0.1721  1.3309
 2742SOL    HW219860   2.515   0.312   4.777 -0.1199  0.1654  0.0486
 2743SOL     OW19861   0.221   3.804   7.135  0.7277  0.3681 -0.4031
 2743SOL    HW119862   0.299   3.845   7.098  0.7456  0.1014 -0.6599
 2743SOL    HW219863   0.201   3.736   7.071  2.7097 -0.6058  0.0033
 2744SOL     OW19864   0.797   1.911   2.547  0.2593  0.3716  0.1400
 2744SOL    HW119865   0.764   1.882   2.632  0.0319 -0.9975 -0.4066
 2744SOL    HW219866   0.796   2.006   2.555  0.6271  0.4319 -0.5250
 2745SOL     OW19867   3.246   3.627  10.247  0.4153 -0.0871 -0.1958
 2745SOL    HW119868   3.230   3.537  10.275 -0.4889  0.8694  2.3907
 2745SOL    HW219869   3.338   3.637  10.273  0.5270  0.2342 -0.7156
 2746SOL     OW19870   3.654   1.756  12.965  0.2757 -0.2005  0.1081
 2746SOL    HW119871   3.650   1.783  12.873 -0.6556 -0.8987 -0.0608
 2746SOL    HW219872   3.601   1.676  12.961  1.1682 -0.8262  0.9098
 2747SOL     OW19873   4.489   0.738   6.235 -0.0457 -1.0808  0.3242
 2747SOL    HW119874   4.433   0.800   6.189  0.3437 -1.2469 -0.3837
 2747SOL    HW219875   4.421   0.690   6.281 -2.6725  0.8580 -1.5457
 2748SOL     OW19876   2.339   3.485   5.937  0.4439  0.1654 -0.0141
 2748SOL    HW119877   2.289   3.423   5.990  0.5706  2.4436  2.7745
 2748SOL    HW219878   2.424   3.461   5.973  1.1688  0.1103 -1.7862
 2749SOL     OW19879   1.395   0.343   7.933  0.2460 -0.7417 -0.3334
 2749SOL    HW119880   1.337   0.304   7.999 -0.6980 -0.5508 -1.0605
 2749SOL    HW219881   1.364   0.433   7.929 -0.0557 -0.8574 -0.5827
 2750SOL     OW19882   3.145   0.522   2.030 -0.6131 -0.0261 -0.0126
 2750SOL    HW119883   3.138   0.429   2.053  2.4896 -0.3020 -0.2502
 2750SOL    HW219884   3.072   0.559   2.080 -1.7633  0.7350 -2.2521
 2751SOL     OW19885   0.212   1.682  14.967  0.5888  0.6031  0.3052
 2751SOL    HW119886   0.231   1.589  14.957 -2.9510 -0.0752 -0.0658
 2751SOL    HW219887   0.178   1.716  14.884  1.8285 -0.0929 -0.4752
 2752SOL     OW19888   2.926   3.288   7.429  0.6018  0.0838  0.3442
 2752SOL    HW119889   2.856   3.346   7.461  0.6670 -0.0976  0.8175
 2752SOL    HW219890   2.956   3.347   7.359  3.0802 -1.0381  0.4600
 2753SOL     OW19891   0.626   2.144   8.988 -0.6587 -0.4440  0.2585
 2753SOL    HW119892   0.665   2.065   9.024  1.2950  0.4300  0.1095
 2753SOL    HW219893   0.629   2.125   8.894  1.7566  1.7112 -0.1344
 2754SOL     OW19894   4.166   0.170   4.313 -0.7808 -0.4095 -0.3394
 2754SOL    HW119895   4.079   0.196   4.282 -0.7411  1.4826  1.1504
 2754SOL    HW219896   4.216   0.162   4.232 -3.0950  0.2333 -1.8400
 2755SOL     OW19897   0.798   0.652   9.708 -0.1228  0.0946  0.8912
 2755SOL    HW119898   0.752   0.660   9.791 -0.3956  0.7652  0.6728
 2755SOL    HW219899   0.757   0.574   9.671 -1.6959  0.9626  0.8018
 2756SOL     OW19900   2.780   4.474  11.473  0.0897  0.0097  0.1807
 2756SOL    HW119901   2.858   4.458  11.525 -0.6341 -0.0799  1.2421
 2756SOL    HW219902   2.717   4.412  11.509  0.2202 -0.2664 -0.0620
 2757SOL     OW19903   2.879   2.604   8.171  0.1166 -0.4462  0.1558
 2757SOL    HW119904   2.960   2.590   8.219  0.2863  3.1882  0.9493
 2757SOL    HW219905   2.918   2.635   8.090 -0.2817 -2.7305 -0.9047
 2758SOL     OW19906   0.812   3.348   8.192  0.0339 -0.0701  0.3206
 2758SOL    HW119907   0.742   3.405   8.222  1.2406  1.2348  0.6867
 2758SOL    HW219908   0.874   3.352   8.265 -0.4028  1.3681  0.6096
 2759SOL     OW19909   2.543   0.758   3.406  0.0191 -0.0504  0.0796
 2759SOL    HW119910   2.557   0.697   3.333 -1.0816 -0.8950  0.5718
 2759SOL    HW219911   2.620   0.812   3.394 -0.5250  0.4900 -0.9753
 2760SOL     OW19912   4.209   0.608  10.977 -0.2378 -0.1475  0.2209
 2760SOL    HW119913   4.279   0.664  11.009  0.8595 -0.4827 -1.5835
 2760SOL    HW219914   4.190   0.659  10.898  1.7444 -2.2199 -1.5886
 2761SOL     OW19915   3.163   0.163  17.358 -0.4117  0.6111  0.4162
 2761SOL    HW119916   3.236   0.191  17.302  0.2597 -1.0236  0.4841
 2761SOL    HW219917   3.207   0.133  17.437 -0.4142  1.0750  0.5967
 2762SOL     OW19918   1.011   1.504   7.614  0.2454  0.1309 -0.2608
 2762SOL    HW119919   0.933   1.467   7.655 -1.2716  0.9420 -2.3843
 2762SOL    HW219920   0.980   1.594   7.614  1.1069  0.4255 -0.2040
 2763SOL     OW19921   1.103   1.786   8.139 -0.2654 -0.3194 -0.2725
 2763SOL    HW119922   1.048   1.851   8.095 -2.6287 -1.6574  0.7006
 2763SOL    HW219923   1.176   1.837   8.172 -0.5930  0.9642 -1.5486
 2764SOL     OW19924   3.238   0.838   3.823  0.3272  0.3492  0.0602
 2764SOL    HW119925   3.248   0.788   3.742  1.7299  1.7119 -0.5909
 2764SOL    HW219926   3.291   0.788   3.885  1.3563 -1.5952 -2.4133
 2765SOL     OW19927   3.973   1.485   7.017 -0.0197  0.4072  0.1377
 2765SOL    HW119928   3.963   1.418   6.949  1.1788  0.6914 -0.3202
 2765SOL    HW219929   3.883   1.505   7.042 -0.8463 -1.5445 -1.2160
 2766SOL     OW19930   0.578   1.272  11.878 -0.6287  0.2423  0.6287
 2766SOL    HW119931   0.508   1.211  11.901 -2.6641  2.2125 -0.3813
 2766SOL    HW219932   0.661   1.238  11.913 -0.1499 -0.3376 -1.0719
 2767SOL     OW19933   4.484   3.906   6.208 -0.3623  0.0099  0.0911
 2767SOL    HW119934   4.494   3.837   6.143 -0.6231  1.6685 -1.6974
 2767SOL    HW219935   4.432   3.971   6.161 -1.4989 -0.9410  0.0544
 2768SOL     OW19936   2.179   0.172   2.843 -0.0944 -0.1356 -0.1580
 2768SOL    HW119937   2.213   0.185   2.755 -0.1496 -0.6298 -0.2536
 2768SOL    HW219938   2.181   0.077   2.834 -0.1935 -0.1127 -0.4266
 2769SOL     OW19939   1.149   0.798   5.768 -0.1099 -0.2437  0.1326
 2769SOL    HW119940   1.074   0.751   5.731  0.0485 -1.5348  1.4704
 2769SOL    HW219941   1.161   0.859   5.694  0.2053  0.2766  0.6144
 2770SOL     OW19942   1.211   4.564  17.500 -0.0520 -0.4502 -0.2230
 2770SOL    HW119943   1.186   4.530  17.586 -1.9747 -0.9899 -0.9890
 2770SOL    HW219944   1.142   4.630  17.497  0.7409  0.3840 -0.1021
 2771SOL     OW19945   4.185   1.721   7.676  0.0309  1.1047 -0.8370
 2771SOL    HW119946   4.116   1.783   7.698 -3.5094 -3.3132  0.5245
 2771SOL    HW219947   4.156   1.691   7.590  3.2666  1.9861 -2.2442
 2772SOL     OW19948   2.737   2.660   7.374 -0.2334  0.5739  0.1442
 2772SOL    HW119949   2.749   2.679   7.281 -1.8200  0.3306 -0.1102
 2772SOL    HW219950   2.729   2.565   7.366 -0.7631  0.5763  0.6930
 2773SOL     OW19951   2.814   2.603  11.415 -0.2621  0.3168  0.3387
 2773SOL    HW119952   2.903   2.568  11.419 -0.0561  0.8457  0.3460
 2773SOL    HW219953   2.812   2.643  11.502  1.2103 -0.3111  0.6589
 2774SOL     OW19954   0.173   3.604   2.661 -0.1986  0.0955 -0.1232
 2774SOL    HW119955   0.145   3.558   2.581  0.3196 -0.7121  0.1515
 2774SOL    HW219956   0.251   3.552   2.680 -0.7934 -1.7394 -2.5769
 2775SOL     OW19957   0.514   3.360   0.268  0.5026  0.1367  0.8682
 2775SOL    HW119958   0.422   3.332   0.262  0.3376  1.1347 -1.3875
 2775SOL    HW219959   0.506   3.403   0.352 -0.3464 -0.3448  1.0418
 2776SOL     OW19960   2.216   0.481   9.160  0.5581 -0.9437  0.0115
 2776SOL    HW119961   2.139   0.467   9.215 -0.5430  0.9589 -1.0477
 2776SOL    HW219962   2.198   0.420   9.088  3.0438 -1.0736 -0.5117
 2777SOL     OW19963   0.847   0.772   7.993 -0.3672  0.3082 -0.6534
 2777SOL    HW119964   0.803   0.743   8.073  0.8313 -2.8513 -1.1653
 2777SOL    HW219965   0.924   0.820   8.023  2.2172 -2.2140 -3.2492
 2778SOL     OW19966   3.890   0.555   6.728 -0.4674 -0.7677 -0.2366
 2778SOL    HW119967   3.853   0.606   6.800  1.3203  1.1633 -0.7093
 2778SOL    HW219968   3.830   0.481   6.716 -1.0611 -0.5195  1.2152
 2779SOL     OW19969   2.173   3.361  14.544 -0.0906 -0.0035  0.5224
 2779SOL    HW119970   2.092   3.411  14.536  0.0138  0.0557 -0.1254
 2779SOL    HW219971   2.139   3.277  14.513 -0.6560  0.4226 -0.0158
 2780SOL     OW19972   2.986   0.141   2.927 -0.3106 -0.1976 -0.2074
 2780SOL    HW119973   3.047   0.158   2.998  0.0150  0.7538 -0.7090
 2780SOL    HW219974   2.942   0.066   2.965  1.1274 -0.2398  1.3583
 2781SOL     OW19975   0.260   0.475   8.364 -0.8243  0.0110  0.0420
 2781SOL    HW119976   0.167   0.464   8.384 -0.5008 -0.9247  1.0430
 2781SOL    HW219977   0.278   0.382   8.347 -0.6649 -0.0139  0.3425
 2782SOL     OW19978   2.950   0.306   5.874  0.2180  0.3287  0.4796
 2782SOL    HW119979   2.855   0.314   5.862  0.2781 -0.9433 -0.8594
 2782SOL    HW219980   2.947   0.347   5.960  1.6899 -1.3258  1.3080
 2783SOL     OW19981   3.751   0.140  12.279  0.3118  0.4297  0.5250
 2783SOL    HW119982   3.768   0.066  12.336  2.5616  0.7376  0.2438
 2783SOL    HW219983   3.785   0.107  12.196 -0.6030  1.8301 -0.4151
 2784SOL     OW19984   2.048   2.644  14.348  0.0388 -0.0622 -0.0940
 2784SOL    HW119985   2.049   2.649  14.253 -2.1380  0.5767 -0.0792
 2784SOL    HW219986   2.134   2.607  14.368  0.0005 -1.1483 -1.9864
 2785SOL     OW19987   3.396   1.591  15.538 -0.3266  0.2415  0.2955
 2785SOL    HW119988   3.408   1.684  15.557  1.6875  0.4135 -1.8548
 2785SOL    HW219989   3.343   1.592  15.459 -0.5993  2.0198  0.4962
 2786SOL     OW19990   4.395   0.526  10.002  0.1158 -1.2484  0.1412
 2786SOL    HW119991   4.486   0.521  10.029  0.0309  0.3314  0.7094
 2786SOL    HW219992   4.406   0.545   9.909  0.4245 -1.9964  0.0246
 2787SOL     OW19993   1.682   1.561  10.685 -0.1641 -0.4269 -0.3892
 2787SOL    HW119994   1.755   1.608  10.645  0.1702 -0.0547  0.6620
 2787SOL    HW219995   1.710   1.580  10.775  2.5821 -1.2997 -1.0789
 2788SOL     OW19996   0.227   3.081   6.491 -0.1597  0.3671 -0.1834
 2788SOL    HW119997   0.179   3.036   6.422  0.6407  1.3560 -1.3844
 2788SOL    HW219998   0.185   3.041   6.567  0.6593 -0.6047 -0.2315
 2789SOL     OW19999   4.307   2.846   5.333 -0.2757 -0.0378 -0.0002
 2789SOL    HW120000   4.217   2.873   5.317 -0.5169  0.2930  1.9328
 2789SOL    HW220001   4.359   2.924   5.314  0.7888  0.0001  3.0967
 2790SOL     OW20002   2.916   4.231  13.963 -1.0668  0.3089 -0.6010
 2790SOL    HW120003   2.996   4.220  14.014  0.6922  0.2842 -3.3514
 2790SOL    HW220004   2.845   4.195  14.016  0.3305  0.2237  1.2220
 2791SOL     OW20005   3.388   4.541   9.538 -0.3074  0.0995 -0.4110
 2791SOL    HW120006   3.342   4.593   9.605 -0.0610 -0.9659  0.5838
 2791SOL    HW220007   3.465   4.518   9.590 -0.9287  2.4922  1.6090
 2792SOL     OW20008   3.467   0.133   2.005  0.1109  0.1101 -0.1603
 2792SOL    HW120009   3.380   0.099   2.025  0.6066 -0.4110  1.0879
 2792SOL    HW220010   3.472   0.194   2.079 -1.4094 -1.0004  0.8526
 2793SOL     OW20011   2.946   4.390   4.462  0.5319 -0.1568 -0.1108
 2793SOL    HW120012   2.906   4.474   4.484  1.4693  0.5122 -0.9530
 2793SOL    HW220013   3.038   4.414   4.459  0.5351 -0.0897  0.4950
 2794SOL     OW20014   2.849   0.379  11.631 -0.2874 -0.3546 -0.2832
 2794SOL    HW120015   2.804   0.348  11.710  1.6065  0.7152  1.2166
 2794SOL    HW220016   2.852   0.300  11.578  0.5655  1.5306 -3.0081
 2795SOL     OW20017   4.261   2.829   8.965 -0.6907  0.5113 -0.2826
 2795SOL    HW120018   4.345   2.810   8.923 -1.1447 -1.1070 -0.4388
 2795SOL    HW220019   4.203   2.764   8.926  0.3857  1.0618 -2.7997
 2796SOL     OW20020   0.347   3.195   0.624 -0.2871  0.1963  0.2992
 2796SOL    HW120021   0.349   3.263   0.692  0.2737  0.2779  0.1998
 2796SOL    HW220022   0.402   3.217   0.549 -1.1351  0.2220 -0.3120
 2797SOL     OW20023   3.571   4.637   4.228  0.0857 -0.3026  0.2546
 2797SOL    HW120024   3.610   4.557   4.264  0.1536 -1.7931 -3.1446
 2797SOL    HW220025   3.593   4.625   4.136 -0.6441  0.5987 -0.0393
 2798SOL     OW20026   3.967   0.728  15.487  0.0463  0.6020 -0.0546
 2798SOL    HW120027   3.887   0.780  15.481 -0.2517  0.3068  1.5350
 2798SOL    HW220028   4.026   0.792  15.446 -0.1998  0.6394 -0.3530
 2799SOL     OW20029   3.326   0.250   5.975  0.3200  0.2194  0.4853
 2799SOL    HW120030   3.250   0.191   5.982  1.0732 -0.9604 -1.2849
 2799SOL    HW220031   3.389   0.204   6.030  1.2292  3.6383  2.2705
 2800SOL     OW20032   4.203   4.696  13.847  0.3217  0.0670 -0.0488
 2800SOL    HW120033   4.164   0.031  13.902 -0.2758  0.4647 -0.9597
 2800SOL    HW220034   4.290   0.004  13.846  0.2865  0.0932 -1.9662
 2801SOL     OW20035   1.178   4.195   2.402 -0.0966  0.4076 -0.2969
 2801SOL    HW120036   1.118   4.122   2.417 -0.0890  0.4008 -0.2998
 2801SOL    HW220037   1.204   4.214   2.492  2.3401 -1.0650 -0.6812
 2802SOL     OW20038   4.157   1.400   7.959 -0.2952 -0.2021 -0.2559
 2802SOL    HW120039   4.062   1.406   7.971 -0.6552 -2.4685 -1.8978
 2802SOL    HW220040   4.166   1.363   7.872  1.3647  1.4243 -0.7700
 2803SOL     OW20041   2.407   3.650   4.833 -0.0413  0.1452  0.2876
 2803SOL    HW120042   2.338   3.672   4.771  1.2020 -0.6481 -1.3687
 2803SOL    HW220043   2.385   3.708   4.906 -1.1738 -1.1073  0.9493
 2804SOL     OW20044   1.982   3.307   5.464  0.0966  0.2503  0.3796
 2804SOL    HW120045   1.909   3.278   5.519 -0.3715  0.9972  0.1489
 2804SOL    HW220046   2.024   3.222   5.447  2.6264  1.0804  2.6097
 2805SOL     OW20047   1.956   1.818   3.599  0.0128  0.4107  0.0004
 2805SOL    HW120048   2.040   1.790   3.563  0.2025 -0.1686  0.8843
 2805SOL    HW220049   1.971   1.805   3.692  2.2126  0.4891 -0.3435
 2806SOL     OW20050   3.291   3.281   8.808 -0.1051  0.5464 -0.0603
 2806SOL    HW120051   3.230   3.335   8.859 -0.0607  0.0143  0.5521
 2806SOL    HW220052   3.237   3.202   8.810 -0.0834  0.5649  1.2431
 2807SOL     OW20053   3.381   1.788   4.692 -0.1291  0.4286 -0.0370
 2807SOL    HW120054   3.363   1.838   4.771 -1.6922 -0.2422  0.0170
 2807SOL    HW220055   3.426   1.859   4.646 -1.0732  2.1418  1.7290
 2808SOL     OW20056   4.240   2.593   7.143 -0.6700  0.5096  0.2013
 2808SOL    HW120057   4.223   2.686   7.158 -1.6391  0.1979  1.0449
 2808SOL    HW220058   4.334   2.593   7.159 -0.8884  3.2302  1.4585
 2809SOL     OW20059   3.411   0.836   9.591  0.1589 -0.6190 -0.6095
 2809SOL    HW120060   3.457   0.772   9.536  1.2559 -0.6672  0.3421
 2809SOL    HW220061   3.429   0.811   9.682  2.3790 -3.0060 -1.7009
 2810SOL     OW20062   3.567   1.869   9.153 -0.3189 -0.3535  0.0258
 2810SOL    HW120063   3.603   1.784   9.178 -2.4011 -0.5536  2.2899
 2810SOL    HW220064   3.599   1.919   9.227  0.6862 -1.8180  0.5769
 2811SOL     OW20065   4.285   1.959   7.053 -0.3766  0.0392  0.1990
 2811SOL    HW120066   4.224   1.885   7.062  0.6590 -0.8028  0.2621
 2811SOL    HW220067   4.254   1.994   6.970 -0.4790  1.2237  0.7373
 2812SOL     OW20068   1.043   0.476  11.995  0.3183 -0.3796 -0.3061
 2812SOL    HW120069   0.961   0.428  12.002  0.6872 -0.8741  0.6436
 2812SOL    HW220070   1.072   0.474  12.086 -0.9539  2.5691  0.1585
 2813SOL     OW20071   4.669   1.432   4.780  0.0154  0.3088 -0.0255
 2813SOL    HW120072   4.637   1.366   4.719  0.0913 -1.3054  1.6691
 2813SOL    HW220073   4.599   1.437   4.844  2.2796 -1.2341  2.5967
 2814SOL     OW20074   2.778   3.874   2.137 -0.3700 -0.1285  0.6072
 2814SOL    HW120075   2.830   3.852   2.214  2.1731  2.2624 -0.4485
 2814SOL    HW220076   2.768   3.966   2.162 -1.4972  0.1976 -1.0268
 2815SOL     OW20077   1.253   0.137   3.915  0.1037 -0.1956  0.4849
 2815SOL    HW120078   1.203   0.212   3.884  2.6634  2.1305  2.0058
 2815SOL    HW220079   1.201   0.107   3.990 -0.9026  2.7204  0.9633
 2816SOL     OW20080   1.279   2.266  12.660  0.1972 -0.2573  0.5942
 2816SOL    HW120081   1.243   2.235  12.577  1.7077  0.7764 -0.4489
 2816SOL    HW220082   1.373   2.258  12.647 -0.0344  0.3215 -1.4589
 2817SOL     OW20083   3.959   0.257   6.060  0.2100  0.7389  0.2054
 2817SOL    HW120084   3.904   0.328   6.095  0.2969  0.8818  0.0549
 2817SOL    HW220085   4.013   0.311   6.002  0.4930  0.4710  0.2247
 2818SOL     OW20086   0.720   4.436  11.124  0.2207 -0.2848  0.5558
 2818SOL    HW120087   0.704   4.353  11.080 -1.5016  0.5553 -0.4330
 2818SOL    HW220088   0.711   4.417  11.217 -0.2507  0.6575  0.7116
 2819SOL     OW20089   1.404   2.021  10.143  0.0790 -0.0327  0.0287
 2819SOL    HW120090   1.319   2.059  10.162 -0.5148 -0.9940 -0.7340
 2819SOL    HW220091   1.427   2.000  10.234 -1.9771 -1.0935  0.2973
 2820SOL     OW20092   0.215   4.509  11.937 -0.2929 -0.2018  0.4190
 2820SOL    HW120093   0.251   4.574  11.876  1.1551  0.1979  1.7038
 2820SOL    HW220094   0.254   4.427  11.906 -1.1628 -0.7675  0.8069
 2821SOL     OW20095   4.187   3.096   3.726 -0.2877 -0.2862 -0.3368
 2821SOL    HW120096   4.125   3.066   3.792  0.7225  0.4212  0.9293
 2821SOL    HW220097   4.260   3.114   3.785  0.7487 -1.8539 -1.1224
 2822SOL     OW20098   0.906   2.061   6.069  0.1045 -0.1033 -0.1272
 2822SOL    HW120099   0.978   2.005   6.097  2.3646  2.3742 -1.0382
 2822SOL    HW220100   0.888   2.114   6.147  1.1772 -0.0895  0.1040
 2823SOL     OW20101   1.968   2.276  15.747 -0.1343 -0.3107 -0.9533
 2823SOL    HW120102   1.907   2.349  15.732 -0.8401 -0.5983  0.5169
 2823SOL    HW220103   1.927   2.208  15.694 -1.7384 -0.8044  0.9139
 2824SOL     OW20104   0.776   1.020   4.536  0.3412 -0.3347 -0.4662
 2824SOL    HW120105   0.722   1.035   4.613  1.4712 -2.0986  0.6883
 2824SOL    HW220106   0.842   0.959   4.570  1.1307 -0.2375 -1.8348
 2825SOL     OW20107   4.021   1.902  13.914 -0.1199 -0.6070 -0.1456
 2825SOL    HW120108   4.000   1.849  13.837 -1.6332 -0.5041  0.1953
 2825SOL    HW220109   4.064   1.971  13.863 -3.0941  1.3172 -0.0748
 2826SOL     OW20110   1.053   0.063  17.510 -0.3036  0.2705 -0.8028
 2826SOL    HW120111   0.984   0.120  17.544 -1.7443 -1.8765 -0.1284
 2826SOL    HW220112   1.099   0.118  17.447  0.3036 -0.1256 -0.7010
 2827SOL     OW20113   2.579   3.312  10.019  0.2561 -0.1838  0.0143
 2827SOL    HW120114   2.658   3.338   9.971  1.0274  0.6571  1.7394
 2827SOL    HW220115   2.527   3.389   9.993 -1.4244 -1.0653  0.7660
 2828SOL     OW20116   0.308   0.908   9.051  0.8163 -0.5975 -0.0128
 2828SOL    HW120117   0.234   0.943   9.099  0.9653  0.8667 -0.8526
 2828SOL    HW220118   0.256   0.886   8.974  4.0536 -2.1081 -1.8105
 2829SOL     OW20119   2.981   3.231   2.943 -0.2374 -0.0181  0.0000
 2829SOL    HW120120   3.022   3.250   2.859  0.5780  0.8944  0.6068
 2829SOL    HW220121   2.889   3.237   2.919  0.3620 -0.3957 -2.4349
 2830SOL     OW20122   3.334   0.767  10.248  0.0838 -0.1451  0.5827
 2830SOL    HW120123   3.384   0.746  10.169 -2.7003  0.6870 -1.4268
 2830SOL    HW220124   3.245   0.767  10.212  0.8492  1.4431 -1.3630
 2831SOL     OW20125   3.980   2.980   5.972  0.4578 -0.1234  0.1549
 2831SOL    HW120126   3.968   2.890   5.943 -3.3846  0.5297 -0.2052
 2831SOL    HW220127   3.951   2.966   6.062  2.0826  0.3619  0.7562
 2832SOL     OW20128   1.501   1.143   1.244 -0.8595  0.6228  0.5107
 2832SOL    HW120129   1.578   1.169   1.295  1.5686 -1.4128 -2.1073
 2832SOL    HW220130   1.525   1.178   1.159 -1.5608 -0.3747 -0.1014
 2833SOL     OW20131   0.076   3.847   5.674 -0.0236  0.1627 -0.0409
 2833SOL    HW120132   0.005   3.834   5.611 -0.4276  0.5974  0.3172
 2833SOL    HW220133   0.143   3.827   5.609  0.6206 -2.3694  1.4216
 2834SOL     OW20134   0.014   3.884   6.612  0.4076  0.2997 -0.4786
 2834SOL    HW120135   4.727   3.902   6.521 -3.0545  1.3127  0.4934
 2834SOL    HW220136   0.058   3.960   6.650  0.1711 -0.2468  0.8958
 2835SOL     OW20137   0.122   4.399   6.645 -0.8370 -0.6688  0.4028
 2835SOL    HW120138   0.053   4.466   6.649  0.9432  1.1299  1.0162
 2835SOL    HW220139   0.189   4.455   6.684  1.4121 -1.5981 -2.2223
 2836SOL     OW20140   0.609   3.769   6.680  0.2857  0.5132 -0.3287
 2836SOL    HW120141   0.602   3.736   6.769  1.4359  1.0512 -0.0338
 2836SOL    HW220142   0.520   3.801   6.669 -0.0715  0.0550  1.3062
 2837SOL     OW20143   3.290   1.065   1.271 -0.1294 -0.0807 -0.0789
 2837SOL    HW120144   3.315   1.116   1.347  0.3332  1.5063 -1.2977
 2837SOL    HW220145   3.244   1.000   1.323 -1.9388 -0.2265 -1.8753
 2838SOL     OW20146   3.913   1.285  15.562 -0.2172  0.0493  0.3133
 2838SOL    HW120147   3.875   1.362  15.604 -0.2207  0.8343 -1.1554
 2838SOL    HW220148   3.853   1.263  15.491 -1.5724  0.8052  1.2352
 2839SOL     OW20149   1.732   0.036  13.136 -0.1890 -0.0777  0.0017
 2839SOL    HW120150   1.724   0.125  13.101 -0.5424 -0.4960 -0.9690
 2839SOL    HW220151   1.667   0.042  13.206 -0.3751  0.0752 -0.1862
 2840SOL     OW20152   4.122   2.352   9.278 -0.3234 -0.4837  0.5255
 2840SOL    HW120153   4.047   2.411   9.271 -0.4149 -0.5386  1.0155
 2840SOL    HW220154   4.064   2.276   9.283 -0.9052 -0.1702 -1.8241
 2841SOL     OW20155   0.988   1.022   4.967 -0.6033  0.0342  0.2772
 2841SOL    HW120156   1.025   0.953   5.022  0.8510  0.0284 -0.7093
 2841SOL    HW220157   1.015   1.101   5.012  0.7007 -1.6234  2.4154
 2842SOL     OW20158   0.287   1.164  10.194  0.8276  0.5348 -0.2579
 2842SOL    HW120159   0.377   1.186  10.167  0.9465  0.6413  0.2261
 2842SOL    HW220160   0.304   1.089  10.252  0.1934 -1.0405 -2.1067
 2843SOL     OW20161   1.569   4.183   2.612  0.2568 -0.5995 -0.8286
 2843SOL    HW120162   1.588   4.229   2.530 -0.7051 -1.1706 -1.3601
 2843SOL    HW220163   1.622   4.106   2.590  0.7944  0.3520 -2.8523
 2844SOL     OW20164   4.024   4.435   4.538  0.0802 -0.4585 -0.3261
 2844SOL    HW120165   3.948   4.480   4.573  1.9340  2.3677  0.0368
 2844SOL    HW220166   3.989   4.346   4.528  1.0137 -1.0478  1.7827
 2845SOL     OW20167   1.461   1.972  13.890 -0.3339  0.3506  0.2677
 2845SOL    HW120168   1.425   2.008  13.809  1.8161 -0.3010 -0.9780
 2845SOL    HW220169   1.379   1.954  13.936 -0.3133 -1.7951 -0.5479
 2846SOL     OW20170   1.606   0.586   2.167 -0.7992  0.4842 -0.0457
 2846SOL    HW120171   1.653   0.561   2.246  1.2954 -0.3656 -1.5568
 2846SOL    HW220172   1.626   0.679   2.158 -1.4429  0.6924  0.6658
 2847SOL     OW20173   2.984   1.665  11.570  0.1250  0.1284  0.0367
 2847SOL    HW120174   3.051   1.729  11.545  0.4896 -0.1442  0.3273
 2847SOL    HW220175   2.922   1.696  11.504 -0.5074  0.0718  0.6098
 2848SOL     OW20176   4.716   2.204   7.058 -0.4964 -0.0212 -0.5505
 2848SOL    HW120177   4.726   2.179   7.150 -1.6058  0.9352 -0.1628
 2848SOL    HW220178   4.708   2.123   7.006 -1.1557 -0.9291  0.9623
 2849SOL     OW20179   1.901   2.798   8.093 -0.1242  0.4897  0.0036
 2849SOL    HW120180   1.859   2.827   8.174  1.1348  0.7997  0.5544
 2849SOL    HW220181   1.982   2.849   8.088  0.5321 -0.7827 -2.1962
 2850SOL     OW20182   2.979   2.656   3.401 -0.5951  0.4625 -0.5142
 2850SOL    HW120183   2.925   2.627   3.475  0.5608 -1.8360 -0.5805
 2850SOL    HW220184   2.918   2.726   3.376 -0.4233  0.8782  0.2260
 2851SOL     OW20185   3.392   1.479   9.092  0.0767  0.5315 -0.3981
 2851SOL    HW120186   3.442   1.405   9.127 -0.5149  0.3296  0.0007
 2851SOL    HW220187   3.385   1.457   8.999  1.6171  3.1575 -1.1433
 2852SOL     OW20188   0.477   3.769   5.760 -0.2908 -0.2058 -0.3818
 2852SOL    HW120189   0.431   3.810   5.834  0.1156  1.3323 -0.9702
 2852SOL    HW220190   0.547   3.724   5.808 -1.3974 -0.7993  0.6902
 2853SOL     OW20191   2.686   0.456   3.893 -0.5306  0.4362 -0.0440
 2853SOL    HW120192   2.659   0.380   3.842  1.6223  0.9883 -2.0285
 2853SOL    HW220193   2.681   0.524   3.825 -1.5122  0.2744 -0.1305
 2854SOL     OW20194   1.240   1.368   2.664  0.4980  0.1241 -0.0116
 2854SOL    HW120195   1.300   1.351   2.736 -1.0787  1.7271  1.6885
 2854SOL    HW220196   1.193   1.447   2.693  1.6081 -0.1406  2.4082
 2855SOL     OW20197   2.360   2.471   5.632 -0.2134 -0.2410  0.3147
 2855SOL    HW120198   2.266   2.455   5.625  0.1257 -2.7223  1.2765
 2855SOL    HW220199   2.363   2.507   5.721 -1.1539 -0.6030  0.4878
 2856SOL     OW20200   2.942   3.051   7.845  0.3010 -0.8121 -0.1027
 2856SOL    HW120201   2.925   2.971   7.795  1.1624 -0.5059 -0.9014
 2856SOL    HW220202   2.866   3.059   7.903  0.0996  0.4981 -0.5526
 2857SOL     OW20203   0.824   4.535  12.220  0.2615  0.3792 -0.5048
 2857SOL    HW120204   0.801   4.606  12.280 -1.5089  0.0129 -0.7588
 2857SOL    HW220205   0.833   4.455  12.272  1.6648  1.5198  1.0116
 2858SOL     OW20206   4.297   3.407   6.891 -0.5914  0.3776 -0.9738
 2858SOL    HW120207   4.370   3.467   6.874 -0.5050  0.4377 -0.3822
 2858SOL    HW220208   4.233   3.456   6.840  0.6170  0.8408 -2.0426
 2859SOL     OW20209   1.407   3.065   0.087 -0.1393  0.0341  0.1254
 2859SOL    HW120210   1.431   3.007   0.015 -0.3426  0.0423  0.0513
 2859SOL    HW220211   1.353   3.001   0.134 -0.4351  0.1262 -0.0914
 2860SOL     OW20212   2.011   1.935   3.867 -0.4584  0.0959  0.1102
 2860SOL    HW120213   1.971   1.862   3.914 -0.5761 -0.2356 -0.4985
 2860SOL    HW220214   2.015   1.994   3.942 -0.0661  1.4129 -0.9523
 2861SOL     OW20215   2.263   4.379   4.632  0.2151 -0.7317 -0.4286
 2861SOL    HW120216   2.248   4.401   4.540  1.3129  0.5219 -0.3194
 2861SOL    HW220217   2.190   4.421   4.678 -0.2936 -0.5546 -1.4030
 2862SOL     OW20218   0.551   1.375   9.573 -0.4479  0.3825  0.0144
 2862SOL    HW120219   0.605   1.304   9.609 -0.8645 -0.7032 -1.5282
 2862SOL    HW220220   0.571   1.363   9.480 -1.9207 -0.0785 -0.2427
 2863SOL     OW20221   3.249   0.396   1.163 -0.0544  0.1362  0.0177
 2863SOL    HW120222   3.331   0.411   1.116 -0.8730  1.1088 -1.1001
 2863SOL    HW220223   3.282   0.343   1.236  0.1833 -0.5022 -0.5564
 2864SOL     OW20224   2.577   0.809   2.928 -0.7665  0.8033  0.2722
 2864SOL    HW120225   2.634   0.863   2.983  0.4953 -1.7521  1.4851
 2864SOL    HW220226   2.570   0.866   2.852 -0.5959  0.4940  0.0257
 2865SOL     OW20227   0.746   3.528  16.965 -0.1470 -0.2994 -0.0587
 2865SOL    HW120228   0.656   3.500  16.981  0.4044 -0.5077  2.7132
 2865SOL    HW220229   0.736   3.620  16.986 -1.4748 -0.3604 -0.4634
 2866SOL     OW20230   1.491   2.096   7.157  0.4668 -0.6624  0.9507
 2866SOL    HW120231   1.433   2.119   7.229  1.2295  1.2112  0.9659
 2866SOL    HW220232   1.459   2.147   7.083  0.1705 -0.9667  0.8639
 2867SOL     OW20233   4.507   1.466  14.455 -0.2352  0.2819 -0.4045
 2867SOL    HW120234   4.474   1.502  14.537 -0.9452  0.6104 -0.8348
 2867SOL    HW220235   4.465   1.511  14.382 -0.5419  1.5123  0.5271
 2868SOL     OW20236   0.113   2.691  14.367  0.2612  0.1591  0.1085
 2868SOL    HW120237   0.075   2.622  14.313  0.7268 -0.6524  0.8247
 2868SOL    HW220238   0.170   2.730  14.301  1.1294 -0.8616  0.2538
 2869SOL     OW20239   4.013   1.083   7.762 -0.0627  0.2314 -0.1752
 2869SOL    HW120240   4.058   1.134   7.830  0.7936 -1.4539  0.5142
 2869SOL    HW220241   4.019   1.145   7.689 -0.2760 -1.0069 -1.2409
 2870SOL     OW20242   3.105   0.100   5.997 -0.2864 -0.6787 -0.1300
 2870SOL    HW120243   3.129   0.061   5.913  2.0204 -3.8687  1.9946
 2870SOL    HW220244   3.023   0.146   5.980  1.2778  3.0479  2.3813
 2871SOL     OW20245   0.913   4.047   4.908  0.1771 -0.0683  0.6090
 2871SOL    HW120246   0.994   4.046   4.858 -1.1859  1.3783 -1.6683
 2871SOL    HW220247   0.917   4.143   4.909  2.2026 -0.1389 -2.4927
 2872SOL     OW20248   2.868   2.288  11.556 -0.5669  0.0252  0.3013
 2872SOL    HW120249   2.777   2.263  11.538 -1.0304  2.1506 -0.2785
 2872SOL    HW220250   2.908   2.322  11.476  0.3215 -1.8304 -0.0557
 2873SOL     OW20251   4.285   1.627   7.923  0.3115 -0.0259 -0.1414
 2873SOL    HW120252   4.249   1.548   7.964  0.4385 -0.5251 -0.9992
 2873SOL    HW220253   4.249   1.620   7.835  0.4076 -2.5872  0.0228
 2874SOL     OW20254   2.334   0.289   3.638  0.0063  1.0128  0.0173
 2874SOL    HW120255   2.393   0.349   3.593 -1.2328  0.7863 -1.8840
 2874SOL    HW220256   2.351   0.209   3.588  0.8022  0.0660  1.7899
 2875SOL     OW20257   4.112   3.483   6.199 -0.4134 -0.1506  0.5032
 2875SOL    HW120258   4.067   3.410   6.241 -0.6305  0.4073  1.2490
 2875SOL    HW220259   4.166   3.443   6.132 -1.2118  1.3576 -1.0518
 2876SOL     OW20260   1.304   0.807   6.496  0.2829 -0.0068 -0.5323
 2876SOL    HW120261   1.398   0.815   6.480  0.6519 -2.3233  0.5201
 2876SOL    HW220262   1.267   0.774   6.415 -0.4392  2.3611 -1.1554
 2877SOL     OW20263   1.001   1.329   2.465  0.0619 -0.1127 -0.2535
 2877SOL    HW120264   0.907   1.328   2.483  0.4329  3.1414  1.9046
 2877SOL    HW220265   1.005   1.342   2.370  0.8365  0.5683 -0.1242
 2878SOL     OW20266   0.929   4.595   8.319  0.0349 -0.0447 -0.0426
 2878SOL    HW120267   1.009   4.556   8.353 -0.0891 -0.1661  0.1107
 2878SOL    HW220268   0.925   4.558   8.231  1.0408 -1.0763  0.3477
 2879SOL     OW20269   0.969   2.124  14.405 -0.7112 -0.3451 -0.5570
 2879SOL    HW120270   1.049   2.155  14.364 -0.3789  2.1950  2.0252
 2879SOL    HW220271   0.912   2.088  14.337 -0.3185  0.3478 -1.2528
 2880SOL     OW20272   2.513   2.407   1.486  0.4370  0.4191  0.5079
 2880SOL    HW120273   2.423   2.436   1.471 -0.6127 -2.7277  0.6593
 2880SOL    HW220274   2.508   2.313   1.474  2.2913  0.4425 -0.3757
 2881SOL     OW20275   4.059   0.256   2.870  0.4962  0.6011 -0.3381
 2881SOL    HW120276   4.109   0.301   2.938 -0.5759  0.3179  0.6352
 2881SOL    HW220277   4.028   0.326   2.813 -1.5430  0.3750  0.4823
 2882SOL     OW20278   4.475   2.435   1.811 -0.1162  0.4469 -0.2576
 2882SOL    HW120279   4.550   2.422   1.869 -0.1684  1.7025  0.0957
 2882SOL    HW220280   4.403   2.433   1.874 -1.5923  1.7441 -1.9063
 2883SOL     OW20281   4.045   1.289   6.507 -0.3767  0.4058  0.0531
 2883SOL    HW120282   4.056   1.223   6.575 -1.4239  0.2490  0.0712
 2883SOL    HW220283   4.006   1.233   6.440  0.9321 -3.3469  2.4327
 2884SOL     OW20284   4.354   4.543   5.473  0.5063  0.1333  0.5447
 2884SOL    HW120285   4.317   4.530   5.386 -0.2647  2.5969  0.5166
 2884SOL    HW220286   4.434   4.490   5.472 -0.0842 -0.7562 -0.0609
 2885SOL     OW20287   1.708   2.868   6.026 -0.2479  0.1619 -0.1121
 2885SOL    HW120288   1.695   2.961   6.006 -0.4687 -0.2698 -2.0127
 2885SOL    HW220289   1.773   2.842   5.961 -0.6389  0.1050 -0.4768
 2886SOL     OW20290   2.792   0.721   6.790  0.2635  0.0391  0.4002
 2886SOL    HW120291   2.880   0.737   6.825  1.1462 -2.0654 -0.8714
 2886SOL    HW220292   2.820   0.731   6.699 -1.5482 -1.4429 -0.3096
 2887SOL     OW20293   3.756   2.152   8.710 -0.1312 -0.2950  0.1183
 2887SOL    HW120294   3.754   2.084   8.777  0.5672  0.2245  0.6659
 2887SOL    HW220295   3.664   2.163   8.687 -0.2047 -2.5671 -0.6826
 2888SOL     OW20296   3.512   1.535   0.710 -0.5838  0.1288 -0.0870
 2888SOL    HW120297   3.592   1.584   0.728 -0.1970  0.0324 -1.5414
 2888SOL    HW220298   3.540   1.472   0.643  3.4104  0.4686  1.2558
 2889SOL     OW20299   1.966   3.840  13.991  0.3399  0.8058  0.1646
 2889SOL    HW120300   1.900   3.821  13.924  1.0379  0.5360 -0.4444
 2889SOL    HW220301   2.034   3.873  13.932  1.0998  1.4112  1.3800
 2890SOL     OW20302   4.263   1.924  17.005  0.3331  0.2596  0.0595
 2890SOL    HW120303   4.201   1.952  17.072 -0.2644  0.7046 -0.6874
 2890SOL    HW220304   4.345   1.904  17.050  0.6685  1.5965  0.0183
 2891SOL     OW20305   0.680   4.238   3.527 -0.1967 -0.7320  0.0267
 2891SOL    HW120306   0.697   4.304   3.459 -0.5911 -1.2212 -0.5437
 2891SOL    HW220307   0.631   4.174   3.476  0.0975 -1.6826  0.9546
 2892SOL     OW20308   0.439   3.853   6.048 -0.4746  0.0529  0.4104
 2892SOL    HW120309   0.451   3.796   6.124  0.2426 -0.4886 -0.1153
 2892SOL    HW220310   0.344   3.850   6.039 -0.5351  2.9373 -0.0725
 2893SOL     OW20311   0.557   4.139  10.905 -0.9205 -0.2529  0.3783
 2893SOL    HW120312   0.589   4.138  10.815  1.3353  1.0680  1.1631
 2893SOL    HW220313   0.484   4.078  10.894 -0.7745 -0.8911  2.9891
 2894SOL     OW20314   0.358   1.082   9.285 -0.4349  0.2550 -0.1930
 2894SOL    HW120315   0.392   1.018   9.222  0.2882  0.8583 -0.4230
 2894SOL    HW220316   0.369   1.039   9.370  1.5370 -0.3799 -0.7628
 2895SOL     OW20317   1.947   3.607  14.520 -0.8378  0.0365 -0.3630
 2895SOL    HW120318   1.986   3.588  14.435 -0.1228 -1.1016  0.2167
 2895SOL    HW220319   1.879   3.541  14.520 -0.5042 -0.3081 -0.3577
 2896SOL     OW20320   3.937   2.536   9.350  0.1213  0.1827  0.2998
 2896SOL    HW120321   3.862   2.515   9.405  0.0283 -0.7276 -0.1889
 2896SOL    HW220322   3.979   2.602   9.406 -1.8315  0.6497  1.2130
 2897SOL     OW20323   3.057   2.337   6.912 -0.1948  0.0739  0.4471
 2897SOL    HW120324   3.083   2.249   6.939  0.7837 -0.1996 -1.3921
 2897SOL    HW220325   3.074   2.390   6.990 -0.5594  1.2491 -0.2752
 2898SOL     OW20326   2.497   4.217   2.181  0.4474  0.1765 -0.7840
 2898SOL    HW120327   2.483   4.292   2.239  0.9259  3.0880 -4.4064
 2898SOL    HW220328   2.462   4.254   2.100  0.1069 -2.3970 -1.8192
 2899SOL     OW20329   2.719   4.564   3.047  0.9348  0.5304  0.5865
 2899SOL    HW120330   2.742   4.562   3.140 -0.3777 -0.1493  0.8955
 2899SOL    HW220331   2.705   4.471   3.029  2.3174  0.3352  0.5079
 2900SOL     OW20332   3.569   4.524  11.058  1.2479  0.4345 -0.0483
 2900SOL    HW120333   3.644   4.477  11.095  1.1659  1.4379  1.3893
 2900SOL    HW220334   3.577   4.609  11.101  0.1007  1.1873 -1.3471
 2901SOL     OW20335   0.954   2.411   8.605  0.5427 -0.5139 -0.0019
 2901SOL    HW120336   0.970   2.318   8.623  1.7723 -0.0826  1.1579
 2901SOL    HW220337   1.029   2.446   8.653 -0.3801 -0.1258  1.1422
 2902SOL     OW20338   4.673   2.122  14.407  0.0478  0.2838  0.2005
 2902SOL    HW120339   4.726   2.051  14.372  0.7820  0.2215  1.4408
 2902SOL    HW220340   4.716   2.133  14.492 -1.4859 -0.6708  1.0931
 2903SOL     OW20341   3.496   2.418  16.148 -0.0060  0.7017 -0.1971
 2903SOL    HW120342   3.468   2.465  16.226  2.4475 -0.5980  1.4660
 2903SOL    HW220343   3.586   2.449  16.142 -0.2889  1.4105 -0.7703
 2904SOL     OW20344   0.533   4.562   6.437  0.4757 -0.3948  0.7544
 2904SOL    HW120345   0.565   4.619   6.507 -0.6211  0.9615  0.1476
 2904SOL    HW220346   0.535   4.478   6.485 -2.0867 -1.1017 -0.3538
 2905SOL     OW20347   2.302   0.915   3.301 -0.3449  0.5137  0.3018
 2905SOL    HW120348   2.370   0.848   3.302  1.8107  2.6876 -1.3960
 2905SOL    HW220349   2.347   0.977   3.359  0.2032  2.4397 -2.1986
 2906SOL     OW20350   4.586   0.263   5.873  0.9079  0.8461 -0.3794
 2906SOL    HW120351   4.533   0.249   5.794  0.1878 -0.9275  0.4180
 2906SOL    HW220352   4.674   0.263   5.835  0.9816  0.4189 -0.2074
 2907SOL     OW20353   4.668   3.241   6.005 -0.1124  0.3306  0.1750
 2907SOL    HW120354   4.719   3.270   6.081  1.8373  0.5508 -1.2173
 2907SOL    HW220355   4.651   3.322   5.957  1.1235  0.8386  0.5886
 2908SOL     OW20356   3.477   3.886   6.986 -0.5497  0.5662  0.4193
 2908SOL    HW120357   3.440   3.957   7.038 -0.8159 -0.2322  1.3139
 2908SOL    HW220358   3.431   3.808   7.017  2.4818 -1.0220  0.9558
 2909SOL     OW20359   1.042   0.619   4.923 -0.5436 -0.8036 -0.2471
 2909SOL    HW120360   1.074   0.569   4.848 -0.6856 -1.2465 -0.0079
 2909SOL    HW220361   1.100   0.695   4.924  0.0012 -1.2644  2.5279
 2910SOL     OW20362   1.169   0.048   5.333  0.0871  0.3227  0.1482
 2910SOL    HW120363   1.114   0.027   5.409  0.9752  0.1362  0.7452
 2910SOL    HW220364   1.249   0.073   5.379  0.4254  0.2532 -0.4063
 2911SOL     OW20365   1.200   3.971   7.232 -0.3500 -0.4270  0.3668
 2911SOL    HW120366   1.148   4.039   7.190 -2.2484 -1.1895  1.5030
 2911SOL    HW220367   1.254   3.961   7.154 -2.8017 -0.9027 -1.2386
 2912SOL     OW20368   2.400   4.595   6.033 -0.6965 -0.3926 -0.2345
 2912SOL    HW120369   2.338   4.655   6.073 -0.6034  0.5223 -1.4463
 2912SOL    HW220370   2.407   4.523   6.095 -0.2342 -0.7806 -0.7311
 2913SOL     OW20371   0.360   0.618  10.186  0.2527  0.2880  0.0512
 2913SOL    HW120372   0.397   0.534  10.160 -0.0531  0.2311 -0.2059
 2913SOL    HW220373   0.267   0.594  10.180  0.6986 -1.0576 -1.5670
 2914SOL     OW20374   3.265   3.760   6.091 -0.5358  0.0511  0.1393
 2914SOL    HW120375   3.188   3.722   6.133  0.5009 -1.3041  0.8254
 2914SOL    HW220376   3.241   3.751   5.999 -0.0791  2.9486 -0.2852
 2915SOL     OW20377   2.283   3.642   2.398 -0.2458  0.7006  0.1659
 2915SOL    HW120378   2.295   3.735   2.418  2.5003  0.2805  0.4761
 2915SOL    HW220379   2.363   3.598   2.426 -0.3093  0.1852 -0.4795
 2916SOL     OW20380   0.673   0.641   6.442 -0.2318  0.0929  0.3124
 2916SOL    HW120381   0.636   0.651   6.530  0.0370  0.6059  0.3670
 2916SOL    HW220382   0.764   0.659   6.464 -0.2481 -0.6414  1.0241
 2917SOL     OW20383   3.250   1.038   4.565  0.4615 -0.2463  0.7373
 2917SOL    HW120384   3.220   1.052   4.655 -1.0297  0.6700  0.1005
 2917SOL    HW220385   3.330   1.086   4.545  0.6761 -0.5289  0.9198
 2918SOL     OW20386   1.585   3.110   5.461  0.1335 -0.6785  0.2089
 2918SOL    HW120387   1.639   3.170   5.513 -1.8945 -1.4443  3.1905
 2918SOL    HW220388   1.583   3.161   5.380  1.0088  0.0557  0.6429
 2919SOL     OW20389   3.622   3.227  12.665  0.0873 -0.3948  0.4549
 2919SOL    HW120390   3.644   3.134  12.675 -0.4708 -0.3405  2.2492
 2919SOL    HW220391   3.669   3.263  12.590 -1.2616 -0.0956 -0.2577
 2920SOL     OW20392   0.448   2.170   4.892 -0.1288 -0.0529  0.0730
 2920SOL    HW120393   0.398   2.099   4.851  1.1019  0.7738 -2.8134
 2920SOL    HW220394   0.493   2.129   4.966 -0.6001  2.4530  1.7471
 2921SOL     OW20395   0.468   2.016   8.138 -0.7599  0.1878  0.6679
 2921SOL    HW120396   0.411   2.076   8.090  2.8330  0.5687 -3.1096
 2921SOL    HW220397   0.544   2.071   8.157 -0.5097  0.2993 -0.6441
 2922SOL     OW20398   2.201   3.549   0.885 -0.3037  0.1475 -0.0914
 2922SOL    HW120399   2.226   3.534   0.794 -0.4306 -0.0357 -0.0978
 2922SOL    HW220400   2.258   3.480   0.920  0.8405 -0.3209 -2.8493
 2923SOL     OW20401   1.207   2.931   1.436 -0.1235 -0.3841 -0.6978
 2923SOL    HW120402   1.281   2.968   1.484 -0.1012 -0.8918 -0.3370
 2923SOL    HW220403   1.249   2.937   1.350  0.7468 -1.0547 -0.3135
 2924SOL     OW20404   4.369   2.850  14.136 -0.2069  0.1202  0.4435
 2924SOL    HW120405   4.330   2.936  14.150 -1.7998 -0.6292  0.5733
 2924SOL    HW220406   4.306   2.794  14.181  0.5931 -0.2017  1.1687
 2925SOL     OW20407   1.478   0.423  16.520 -0.4999 -0.3407 -0.0111
 2925SOL    HW120408   1.570   0.447  16.523  0.0561 -2.6517  1.0688
 2925SOL    HW220409   1.428   0.505  16.521 -0.8076 -0.5547  1.4121
 2926SOL     OW20410   2.321   2.049   3.288  0.0149 -0.8397  1.0157
 2926SOL    HW120411   2.405   2.078   3.322 -0.4355  2.3775 -0.7001
 2926SOL    HW220412   2.334   2.078   3.198 -1.1698 -1.1522  0.7426
 2927SOL     OW20413   4.511   0.972   9.997  0.6350  0.0111 -0.0035
 2927SOL    HW120414   4.428   1.005   9.964  0.8100  0.3921 -0.0604
 2927SOL    HW220415   4.504   1.002  10.087  2.4766  1.9748 -0.5232
 2928SOL     OW20416   3.236   0.556  17.621 -0.2160 -0.5971  0.5531
 2928SOL    HW120417   3.225   0.627  17.558  2.8233 -0.3927  0.2323
 2928SOL    HW220418   3.296   0.594  17.685  1.3352 -1.4290 -0.4013
 2929SOL     OW20419   3.676   1.102   2.973  0.4101 -0.5468  0.2526
 2929SOL    HW120420   3.704   1.132   3.059 -0.5072  2.2308 -0.4127
 2929SOL    HW220421   3.592   1.062   2.997  1.1545 -3.0723 -1.3647
 2930SOL     OW20422   0.003   1.018   9.772  0.5198  0.6188  0.2780
 2930SOL    HW120423   4.688   1.024   9.855 -0.9379 -2.8122 -0.2946
 2930SOL    HW220424   0.093   1.042   9.792  0.3658  0.0362  1.6556
 2931SOL     OW20425   3.546   3.322   2.977  0.0262 -0.2631 -0.0256
 2931SOL    HW120426   3.466   3.346   2.930 -0.9271 -1.8810  0.7652
 2931SOL    HW220427   3.527   3.252   3.039  1.8523 -0.2954  0.5060
 2932SOL     OW20428   2.496   2.466   3.986  0.1756  0.6403 -0.3608
 2932SOL    HW120429   2.493   2.562   3.991  1.0576  0.6369  0.1545
 2932SOL    HW220430   2.587   2.448   3.964 -0.2733 -2.3904  0.3678
 2933SOL     OW20431   0.013   4.439  12.765 -0.5021  0.1628 -0.4613
 2933SOL    HW120432   0.039   4.523  12.804 -1.0254  0.6111 -1.0818
 2933SOL    HW220433   0.092   4.399  12.728  1.3072  0.4937  3.0377
 2934SOL     OW20434   0.005   0.245  10.183  0.3558  0.0383  0.2074
 2934SOL    HW120435   0.006   0.167  10.238  1.0696 -1.4425 -1.9136
 2934SOL    HW220436   4.661   0.233  10.126  0.8838 -1.8474 -0.1034
 2935SOL     OW20437   2.683   0.255   4.747  0.2387  0.5198  0.6585
 2935SOL    HW120438   2.659   0.168   4.716  1.8256  0.3735 -0.1286
 2935SOL    HW220439   2.762   0.226   4.791  0.0396  0.7058  1.1383
 2936SOL     OW20440   3.655   2.273   4.675 -0.0003  0.1721  0.1070
 2936SOL    HW120441   3.609   2.324   4.609 -1.2555 -1.3679 -0.2060
 2936SOL    HW220442   3.697   2.208   4.618  0.7203 -0.3457  1.2065
 2937SOL     OW20443   3.027   1.285   7.263  0.1395 -0.2165  0.1228
 2937SOL    HW120444   2.952   1.334   7.227 -1.1410 -0.6560  2.2056
 2937SOL    HW220445   3.005   1.193   7.254  1.0403 -0.4252  0.1054
 2938SOL     OW20446   2.424   3.667  12.388 -0.1286 -0.8664  0.3991
 2938SOL    HW120447   2.480   3.642  12.462 -0.2064 -2.5424 -0.1270
 2938SOL    HW220448   2.391   3.584  12.354 -2.1276  0.4213 -0.7552
 2939SOL     OW20449   4.480   1.414   4.976 -0.7009 -0.6412  0.1075
 2939SOL    HW120450   4.445   1.464   5.050  2.3038  1.1221  0.3192
 2939SOL    HW220451   4.507   1.342   5.033  1.5712 -0.6433 -0.9982
 2940SOL     OW20452   2.169   1.075  15.879 -0.1874 -0.9271  0.1897
 2940SOL    HW120453   2.263   1.057  15.879  0.2433  1.3680  0.1662
 2940SOL    HW220454   2.171   1.170  15.891 -1.0946 -0.4256 -3.7855
 2941SOL     OW20455   3.813   3.196   5.555  0.0612 -0.1069 -0.7173
 2941SOL    HW120456   3.860   3.254   5.494  1.4881 -0.9393 -0.3791
 2941SOL    HW220457   3.806   3.241   5.639  1.7132 -0.4507 -0.4087
 2942SOL     OW20458   1.634   3.132   3.543  0.6020 -0.0945  0.1799
 2942SOL    HW120459   1.704   3.134   3.608 -0.4554  1.2573  1.2833
 2942SOL    HW220460   1.579   3.060   3.576 -0.0407  0.4720  0.3472
 2943SOL     OW20461   0.267   1.018   7.865 -0.1076 -0.3285  0.7481
 2943SOL    HW120462   0.306   1.091   7.818  0.8454 -1.3892 -0.1274
 2943SOL    HW220463   0.348   0.982   7.903  1.1720  1.0407 -0.7191
 2944SOL     OW20464   2.614   1.555   3.828 -0.3584  0.2940  0.5447
 2944SOL    HW120465   2.550   1.528   3.762  1.1906 -3.2584  0.4953
 2944SOL    HW220466   2.652   1.470   3.851  0.2549  0.0602 -1.3957
 2945SOL     OW20467   1.001   1.421   8.473  0.2084  0.0585 -0.2289
 2945SOL    HW120468   1.045   1.382   8.398  1.2442 -1.1433  1.0208
 2945SOL    HW220469   0.917   1.442   8.432  0.5237 -0.5386 -1.1898
 2946SOL     OW20470   3.787   3.823   5.353  0.0771 -0.5985  0.7490
 2946SOL    HW120471   3.847   3.752   5.373  1.6098  0.1572 -1.1931
 2946SOL    HW220472   3.809   3.889   5.419  0.0853  0.2702 -0.1204
 2947SOL     OW20473   3.199   0.634   8.666  0.1715  0.5403 -0.0446
 2947SOL    HW120474   3.109   0.641   8.697  0.1294 -2.3718  0.4813
 2947SOL    HW220475   3.228   0.564   8.724  2.6545  1.5284 -0.1081
 2948SOL     OW20476   2.484   2.724  17.514 -0.3599 -0.6112 -0.6580
 2948SOL    HW120477   2.547   2.678  17.570  0.6046  1.9378  0.3169
 2948SOL    HW220478   2.400   2.678  17.527 -1.6756  1.3934 -2.0804
 2949SOL     OW20479   2.703   0.417   9.174 -0.1053 -0.0205 -0.0395
 2949SOL    HW120480   2.626   0.473   9.183 -1.3937 -1.9689  1.1236
 2949SOL    HW220481   2.736   0.426   9.264 -0.8519  0.2236  0.2034
 2950SOL     OW20482   3.692   1.523   9.709  0.2072  0.4253  0.3834
 2950SOL    HW120483   3.743   1.588   9.660 -0.6273  0.2151 -0.7723
 2950SOL    HW220484   3.620   1.584   9.720 -0.0266  0.5333 -1.6848
 2951SOL     OW20485   3.905   4.448   6.291 -0.0174 -0.4337 -0.2977
 2951SOL    HW120486   3.864   4.477   6.209  0.4064  0.9627 -0.0077
 2951SOL    HW220487   3.888   4.519   6.352  1.4659 -0.3961  0.0704
 2952SOL     OW20488   0.717   1.302   7.476 -0.2304 -0.3275 -0.0962
 2952SOL    HW120489   0.682   1.247   7.406 -1.2289 -0.7422  0.7109
 2952SOL    HW220490   0.691   1.247   7.550  0.2007 -3.3482 -2.1868
 2953SOL     OW20491   4.104   0.108   3.444 -0.2144  0.2212 -0.3201
 2953SOL    HW120492   4.026   0.058   3.422  0.2887  0.5846 -2.9674
 2953SOL    HW220493   4.148   0.117   3.359  1.0053 -0.0168  0.2894
 2954SOL     OW20494   3.186   1.293   7.740 -0.2358 -0.6059 -0.4261
 2954SOL    HW120495   3.209   1.237   7.666 -0.4988 -1.6502  0.2852
 2954SOL    HW220496   3.272   1.298   7.782 -0.2530  0.7338 -0.5541
 2955SOL     OW20497   2.390   1.910   2.191  0.7275  0.7204 -0.1369
 2955SOL    HW120498   2.375   2.005   2.193  2.2395  0.9305  1.2587
 2955SOL    HW220499   2.315   1.870   2.146  0.0645  1.8653 -0.0523
 2956SOL     OW20500   1.463   2.191   5.633  0.0107  0.5020 -0.1109
 2956SOL    HW120501   1.457   2.285   5.651 -0.0975  0.5298 -0.2943
 2956SOL    HW220502   1.371   2.164   5.639  0.1898 -0.1219 -0.2445
 2957SOL     OW20503   1.293   3.499   4.241  0.1114 -0.2588  0.3374
 2957SOL    HW120504   1.388   3.503   4.247 -0.0165  0.1582  2.1411
 2957SOL    HW220505   1.277   3.483   4.334  1.4309  1.4578  0.8588
 2958SOL     OW20506   1.310   1.181  16.926  0.3179  0.1460  0.3656
 2958SOL    HW120507   1.334   1.122  16.855 -1.0255 -1.0689  0.9334
 2958SOL    HW220508   1.240   1.229  16.881 -1.0034 -4.4079 -2.4081
 2959SOL     OW20509   1.240   0.245   4.758 -0.5110  0.1640 -0.4814
 2959SOL    HW120510   1.192   0.256   4.840  0.6834 -2.2867  0.5488
 2959SOL    HW220511   1.246   0.331   4.717  2.2864 -0.3392 -1.1232
 2960SOL     OW20512   0.596   3.389  11.412  0.0829 -0.4335 -0.3042
 2960SOL    HW120513   0.596   3.347  11.499  0.3969 -1.0482 -0.5996
 2960SOL    HW220514   0.683   3.355  11.392  0.7337  1.0371  0.0473
 2961SOL     OW20515   3.110   0.071   9.929 -0.3204  0.2754  0.3909
 2961SOL    HW120516   3.066   0.116  10.001  3.1980  2.1161  1.3896
 2961SOL    HW220517   3.101   4.711   9.951  0.4795 -0.2250 -1.3411
 2962SOL     OW20518   3.966   2.463  11.295  0.1971  0.2334  0.2923
 2962SOL    HW120519   3.949   2.399  11.364 -0.1073 -1.0829 -1.0163
 2962SOL    HW220520   3.891   2.523  11.295 -0.5109 -0.6688  2.5293
 2963SOL     OW20521   4.546   3.377   0.307 -0.4675  0.5066  0.0154
 2963SOL    HW120522   4.551   3.441   0.237 -2.8494 -0.0794 -0.6792
 2963SOL    HW220523   4.590   3.417   0.382 -2.0071  1.3575  0.4638
 2964SOL     OW20524   1.090   1.898   1.628 -0.0796  0.0905  0.3986
 2964SOL    HW120525   1.009   1.917   1.581 -0.1618 -0.0592  0.4832
 2964SOL    HW220526   1.150   1.947   1.571  0.2849 -1.1911 -0.3146
 2965SOL     OW20527   2.744   2.776   4.041 -0.5380  0.0497 -0.0606
 2965SOL    HW120528   2.650   2.792   4.038 -0.3007  1.7217  1.5193
 2965SOL    HW220529   2.751   2.748   3.950 -1.8882 -1.0333  0.1710
 2966SOL     OW20530   4.489   0.813   2.602  0.0004  0.3120  0.1498
 2966SOL    HW120531   4.499   0.890   2.657  0.1128  0.6173 -0.2972
 2966SOL    HW220532   4.455   0.862   2.527  1.3404  1.3774  0.2431
 2967SOL     OW20533   0.776   2.871   4.262 -0.0449 -0.4502 -0.1257
 2967SOL    HW120534   0.696   2.875   4.209  0.6108 -0.3652 -1.1221
 2967SOL    HW220535   0.824   2.940   4.216  0.4570 -0.9085 -0.2836
 2968SOL     OW20536   1.325   3.690   1.247  0.3227 -0.1065  0.1687
 2968SOL    HW120537   1.334   3.773   1.294 -0.1891  0.4467 -0.7115
 2968SOL    HW220538   1.255   3.715   1.186 -0.3521 -0.2558  0.8858
 2969SOL     OW20539   2.291   3.616   1.133 -0.1718 -0.1043 -0.0441
 2969SOL    HW120540   2.279   3.536   1.183  0.4900 -1.0873 -1.4801
 2969SOL    HW220541   2.253   3.585   1.051 -0.1200 -0.9967  0.2714
 2970SOL     OW20542   2.865   1.839   7.015  0.0338  0.3670 -0.0062
 2970SOL    HW120543   2.873   1.835   7.110  0.0790  0.9992  0.0203
 2970SOL    HW220544   2.936   1.777   6.999 -0.2571  0.2704 -0.8993
 2971SOL     OW20545   3.508   3.043   9.967  1.1830  0.3987 -0.2996
 2971SOL    HW120546   3.458   3.124   9.952 -1.8984 -1.6723 -1.1892
 2971SOL    HW220547   3.551   3.037   9.881  1.0544 -0.2195 -0.3208
 2972SOL     OW20548   3.321   4.067   3.854  0.0599 -0.1204  0.0916
 2972SOL    HW120549   3.273   4.060   3.937  0.2948 -1.9231  0.0874
 2972SOL    HW220550   3.242   4.044   3.804 -0.5945  1.6714  0.3185
 2973SOL     OW20551   3.077   0.407   8.400  0.0054 -0.7288 -0.7368
 2973SOL    HW120552   3.000   0.456   8.370 -0.0698  0.5133  1.5336
 2973SOL    HW220553   3.120   0.470   8.458 -0.1013  0.3925 -1.8675
 2974SOL     OW20554   3.334   2.692  15.960 -0.1614 -0.1308 -0.1613
 2974SOL    HW120555   3.389   2.658  16.030  0.3230 -1.2853 -1.0958
 2974SOL    HW220556   3.248   2.650  15.954 -1.0564  1.1399  3.6265
 2975SOL     OW20557   2.387   1.845   3.817 -0.6087  0.0194  0.0176
 2975SOL    HW120558   2.339   1.767   3.790 -2.4977  1.0669  0.3374
 2975SOL    HW220559   2.428   1.859   3.731 -1.6911  0.0132 -0.4965
 2976SOL     OW20560   0.575   1.177   7.280  0.0638  0.4315  0.2880
 2976SOL    HW120561   0.564   1.260   7.233 -0.3952  0.1264 -0.1381
 2976SOL    HW220562   0.484   1.154   7.299 -0.1213  1.6795  0.9132
 2977SOL     OW20563   0.316   4.525   2.878 -1.0221  0.3343 -0.1599
 2977SOL    HW120564   0.379   4.595   2.891  1.0033 -1.2602 -1.4255
 2977SOL    HW220565   0.246   4.578   2.840 -0.3522  0.3203 -1.3936
 2978SOL     OW20566   1.967   4.160  12.855 -0.4277  0.8392  0.1008
 2978SOL    HW120567   1.919   4.080  12.837  0.6692  0.1730  0.1168
 2978SOL    HW220568   1.972   4.199  12.767  1.1836 -1.3885 -0.8074
 2979SOL     OW20569   1.196   2.153   0.149 -0.2491 -0.0318  0.0515
 2979SOL    HW120570   1.139   2.180   0.077  0.2715  0.5748 -0.1392
 2979SOL    HW220571   1.151   2.072   0.174  1.7927 -1.0170  0.5496
 2980SOL     OW20572   4.162   0.927   6.738 -0.3957  0.1832  0.2843
 2980SOL    HW120573   4.124   0.880   6.664  1.4642  0.4438 -0.8419
 2980SOL    HW220574   4.254   0.905   6.724 -1.4172 -2.6221 -1.9911
 2981SOL     OW20575   0.625   3.700  11.052 -0.2383 -0.6432  0.0561
 2981SOL    HW120576   0.570   3.777  11.067  1.0699  0.8006 -2.7701
 2981SOL    HW220577   0.584   3.656  10.978 -0.6453 -0.1443 -0.0161
 2982SOL     OW20578   3.196   3.676   6.683  0.1353  0.8682 -1.0093
 2982SOL    HW120579   3.162   3.638   6.602 -0.1884  0.0994 -0.5145
 2982SOL    HW220580   3.120   3.688   6.740  2.1840 -0.1632  1.9306
 2983SOL     OW20581   0.784   3.264   5.157 -0.6150  0.2213 -0.6794
 2983SOL    HW120582   0.761   3.347   5.116 -2.0283 -0.6135 -1.5834
 2983SOL    HW220583   0.710   3.211   5.127  0.6453  0.0781 -3.6046
 2984SOL     OW20584   3.110   2.082   6.989  0.5611 -0.2338  0.2544
 2984SOL    HW120585   3.134   2.007   6.934  0.0507  0.0590 -0.3746
 2984SOL    HW220586   3.031   2.046   7.029 -0.2055  2.1494  0.9220
 2985SOL     OW20587   2.350   2.758   4.644  0.2140 -0.6321 -0.1342
 2985SOL    HW120588   2.298   2.796   4.574 -0.4483 -0.0865  0.6554
 2985SOL    HW220589   2.275   2.752   4.704  0.8317 -0.2834  0.6759
 2986SOL     OW20590   2.946   1.199  10.087  0.4136  0.0011  0.2530
 2986SOL    HW120591   2.872   1.235  10.039  0.9021  0.9498  0.2075
 2986SOL    HW220592   3.002   1.163  10.018 -0.1773  1.2894 -0.8805
 2987SOL     OW20593   1.147   1.939   5.193 -0.0016  0.5978  0.7408
 2987SOL    HW120594   1.117   2.029   5.204  1.4788  1.3424 -1.3976
 2987SOL    HW220595   1.155   1.919   5.286  3.1065  0.5050  0.4688
 2988SOL     OW20596   4.621   4.620  14.022  0.4292 -0.2793  0.3430
 2988SOL    HW120597   4.687   4.557  13.993  1.8307 -0.4421  3.8617
 2988SOL    HW220598   4.672   4.701  14.026  1.7854 -1.1261  0.1844
 2989SOL     OW20599   3.687   0.183   0.260  0.1368 -0.2732  0.1499
 2989SOL    HW120600   3.601   0.167   0.301  0.9939 -1.4827  1.4786
 2989SOL    HW220601   3.716   0.093   0.246 -0.0740 -0.3459  0.1720
 2990SOL     OW20602   3.257   2.258   3.375 -0.0330 -0.0722 -0.0173
 2990SOL    HW120603   3.258   2.195   3.303 -2.4652 -1.8019  1.4656
 2990SOL    HW220604   3.196   2.323   3.340 -1.1324 -1.3296 -0.4393
 2991SOL     OW20605   1.347   2.254  16.987  0.2020  0.4570  0.4649
 2991SOL    HW120606   1.413   2.252  16.918 -1.8753 -0.4104 -1.4840
 2991SOL    HW220607   1.279   2.308  16.946  0.6057  0.6399  0.0312
 2992SOL     OW20608   1.678   4.561   8.908 -0.0552 -0.2130  0.0675
 2992SOL    HW120609   1.693   4.486   8.965 -1.8103 -1.0443 -0.5549
 2992SOL    HW220610   1.740   4.625   8.943 -0.0565 -0.9866  1.4776
 2993SOL     OW20611   1.819   3.613   7.786  0.4030  0.3980  0.0863
 2993SOL    HW120612   1.768   3.694   7.793  0.7220  0.6894 -0.9207
 2993SOL    HW220613   1.774   3.577   7.710  1.9688 -0.4363 -0.4530
 2994SOL     OW20614   1.819   3.100   4.158 -0.1882  0.2294  0.2889
 2994SOL    HW120615   1.749   3.074   4.099  0.6492  0.0748 -0.6492
 2994SOL    HW220616   1.767   3.083   4.236 -0.7581  4.3014  0.7923
 2995SOL     OW20617   3.765   0.181   0.526  0.4878  0.2536 -0.2321
 2995SOL    HW120618   3.715   0.208   0.450  1.5761 -1.1370 -1.4449
 2995SOL    HW220619   3.702   0.171   0.597 -0.6116  1.0468 -1.1065
 2996SOL     OW20620   2.370   4.068  14.611  0.0359  0.1425  0.2010
 2996SOL    HW120621   2.371   3.975  14.633 -0.8643  0.1136  0.1021
 2996SOL    HW220622   2.453   4.062  14.564  0.4415  1.8226  0.6835
 2997SOL     OW20623   2.641   1.649   1.839  0.8669  0.5603  0.0932
 2997SOL    HW120624   2.605   1.734   1.863  1.8204  0.4299  2.0356
 2997SOL    HW220625   2.557   1.604   1.838  2.2768 -2.1135 -0.2167
 2998SOL     OW20626   3.038   4.319   4.923 -0.1630  0.6977 -0.4566
 2998SOL    HW120627   2.981   4.244   4.907  0.7756  0.4019 -2.3431
 2998SOL    HW220628   3.025   4.337   5.017  3.4298  0.7876  0.0178
 2999SOL     OW20629   4.496   2.728  10.079 -0.3786  0.4229  0.0224
 2999SOL    HW120630   4.591   2.730  10.087 -0.2842 -1.3332 -0.5786
 2999SOL    HW220631   4.469   2.675  10.154 -2.0707  0.2219 -0.7438
 3000SOL     OW20632   4.089   4.103  13.750  0.2327 -0.0652 -0.1968
 3000SOL    HW120633   4.098   4.163  13.676  0.5797  1.1985  0.8714
 3000SOL    HW220634   4.042   4.162  13.809 -1.3356 -0.7057 -0.8043
 3001SOL     OW20635   0.203   3.775  16.335  0.2025  0.2416 -0.8601
 3001SOL    HW120636   0.216   3.684  16.310  0.1267  0.8083 -2.9735
 3001SOL    HW220637   0.283   3.798  16.383 -0.8704 -0.3767  1.2443
 3002SOL     OW20638   3.257   3.479  16.890  0.1131  0.5053 -0.0747
 3002SOL    HW120639   3.240   3.568  16.859 -0.4894  0.5137  0.2711
 3002SOL    HW220640   3.282   3.494  16.981  0.6909 -1.2010  0.0567
 3003SOL     OW20641   3.435   3.484  12.555  0.0623  0.1799  0.6711
 3003SOL    HW120642   3.449   3.438  12.638  1.5772 -0.8491 -0.1557
 3003SOL    HW220643   3.491   3.433  12.497  0.5346 -0.6546  1.8596
 3004SOL     OW20644   4.664   3.331   5.694  0.0246  0.1290  0.2108
 3004SOL    HW120645   4.730   3.326   5.625 -2.4441  0.0973 -2.1258
 3004SOL    HW220646   4.661   3.242   5.730  1.4204 -0.4236 -1.0050
 3005SOL     OW20647   3.254   2.369   4.729 -0.1951 -0.5837 -0.5775
 3005SOL    HW120648   3.298   2.321   4.659  0.2107 -1.3693  0.2135
 3005SOL    HW220649   3.270   2.460   4.704 -1.6113 -0.4966 -1.1544
 3006SOL     OW20650   1.042   3.060  17.708  0.0415 -0.1208 -0.7765
 3006SOL    HW120651   1.041   2.965  17.718 -2.0977 -0.2929 -2.6645
 3006SOL    HW220652   0.968   3.091   0.030 -0.7112 -2.1707 -0.6288
 3007SOL     OW20653   1.209   0.007   3.329 -0.3879  0.1355  0.4145
 3007SOL    HW120654   1.242   0.097   3.325  1.0943 -0.4467 -0.6336
 3007SOL    HW220655   1.123   0.010   3.289  0.8622  1.4678 -2.1786
 3008SOL     OW20656   0.516   1.392   7.134 -0.4498  0.0103 -0.4258
 3008SOL    HW120657   0.536   1.485   7.121  1.5112 -0.3993 -0.2583
 3008SOL    HW220658   0.539   1.356   7.048 -0.0349 -1.3133  0.2443
 3009SOL     OW20659   4.011   1.030   3.050  0.4823  0.1558 -0.4434
 3009SOL    HW120660   4.035   1.123   3.047 -0.2460  0.3760  0.6111
 3009SOL    HW220661   4.008   1.020   3.145 -3.3231  1.0790 -0.4542
 3010SOL     OW20662   3.629   0.609   7.313 -0.2006 -0.0388  0.0792
 3010SOL    HW120663   3.560   0.544   7.324  0.3349 -1.0093 -2.3984
 3010SOL    HW220664   3.683   0.600   7.392 -2.6575  1.4083  1.9224
 3011SOL     OW20665   1.699   2.183   2.343 -0.2009  0.2440 -0.5217
 3011SOL    HW120666   1.605   2.199   2.343 -0.1704  0.6481  5.8915
 3011SOL    HW220667   1.716   2.162   2.435 -1.1034  0.4662 -0.3122
 3012SOL     OW20668   2.354   0.502   4.565 -0.0221  0.6443 -0.1130
 3012SOL    HW120669   2.316   0.499   4.477 -1.1548 -1.1641  0.4336
 3012SOL    HW220670   2.390   0.590   4.554  0.4083  0.0752 -3.2236
 3013SOL     OW20671   3.664   2.952   3.636  0.0601 -0.4293  0.0980
 3013SOL    HW120672   3.754   2.922   3.649 -0.2891 -1.9940 -1.0167
 3013SOL    HW220673   3.617   2.873   3.607 -2.9268  1.3891 -0.0124
 3014SOL     OW20674   3.955   0.066  17.116 -0.0800  0.5305  0.6679
 3014SOL    HW120675   3.923   0.147  17.156 -0.2095  1.1462 -0.6769
 3014SOL    HW220676   3.954   0.023  17.202 -0.8325  0.1764  0.4841
 3015SOL     OW20677   0.415   2.696   8.623  0.1233 -0.1271  0.1782
 3015SOL    HW120678   0.369   2.702   8.540 -0.8559 -2.8810  0.5384
 3015SOL    HW220679   0.508   2.696   8.602 -0.1070 -1.4342 -0.7914
 3016SOL     OW20680   2.441   2.535   2.501 -0.8645  0.1004  0.6504
 3016SOL    HW120681   2.504   2.497   2.561  0.1386  1.1401  0.2663
 3016SOL    HW220682   2.355   2.521   2.542 -2.8703  0.2666 -3.4548
 3017SOL     OW20683   3.609   1.795   7.949  0.1559 -0.1680 -0.3629
 3017SOL    HW120684   3.689   1.820   7.995  0.4311  2.2598 -2.1788
 3017SOL    HW220685   3.641   1.720   7.899 -1.5159 -1.5205  0.5882
 3018SOL     OW20686   4.592   0.368   4.497 -0.3710 -0.0924 -0.4126
 3018SOL    HW120687   4.500   0.349   4.478 -0.3220 -0.6986 -0.0214
 3018SOL    HW220688   4.632   0.344   4.413 -0.8295 -3.3452  0.3116
 3019SOL     OW20689   1.950   0.429   9.277  0.2612  0.4994  0.0758
 3019SOL    HW120690   1.860   0.435   9.244 -0.4744 -1.9765  1.6426
 3019SOL    HW220691   1.937   0.433   9.372 -1.4417 -3.0321 -0.0328
 3020SOL     OW20692   1.758   4.235   1.878  0.0227 -0.3339 -0.1959
 3020SOL    HW120693   1.842   4.190   1.884  0.0674 -0.3108 -0.6162
 3020SOL    HW220694   1.706   4.181   1.937 -0.5388 -1.4724 -1.7188
 3021SOL     OW20695   0.067   4.193   7.916  0.6746  0.5882  0.3327
 3021SOL    HW120696   4.705   4.201   7.901  1.1303  1.9439 -1.7698
 3021SOL    HW220697   0.096   4.168   7.828  0.9187  0.7798  0.3587
 3022SOL     OW20698   1.357   0.066   3.666 -0.0047 -0.4697 -0.1397
 3022SOL    HW120699   1.291   0.095   3.729  0.0895  0.5116 -0.4990
 3022SOL    HW220700   1.294   0.050   3.595  1.1887 -3.0902 -0.6093
 3023SOL     OW20701   4.530   3.311   9.804  0.1913  0.1179 -1.0436
 3023SOL    HW120702   4.625   3.325   9.804  0.1495  0.3761  0.5955
 3023SOL    HW220703   4.501   3.365   9.730  1.0546  2.1772  0.1286
 3024SOL     OW20704   1.545   2.938   8.226  0.2190  0.0100 -0.3036
 3024SOL    HW120705   1.586   2.966   8.308  0.4915  1.0628 -0.7969
 3024SOL    HW220706   1.480   2.873   8.251 -0.2069  0.6169  0.1690
 3025SOL     OW20707   2.066   1.183   7.481 -0.6262  0.1610 -0.0976
 3025SOL    HW120708   2.003   1.122   7.442  0.1285 -0.0141 -1.0641
 3025SOL    HW220709   2.131   1.201   7.413  1.1159 -0.9879  1.2770
 3026SOL     OW20710   3.500   0.087  10.783 -0.2471  0.0201 -0.6489
 3026SOL    HW120711   3.414   0.126  10.766 -1.2899 -0.9760  2.3528
 3026SOL    HW220712   3.520   0.124  10.869 -0.5419  0.4304 -0.7527
 3027SOL     OW20713   0.190   1.703   1.778 -0.3100 -0.1420 -0.6327
 3027SOL    HW120714   0.154   1.637   1.837  0.5556 -0.4089 -0.4089
 3027SOL    HW220715   0.116   1.761   1.763 -0.5225 -0.4591 -0.8155
 3028SOL     OW20716   3.508   0.749   8.915  0.5849  0.0449  0.1943
 3028SOL    HW120717   3.555   0.685   8.967 -1.1583 -0.5429  1.0424
 3028SOL    HW220718   3.467   0.803   8.983 -1.0344 -0.6593 -0.2058
 3029SOL     OW20719   4.123   3.707  10.716 -0.2060 -0.0694  0.2452
 3029SOL    HW120720   4.094   3.728  10.805 -1.0352  0.5821 -0.1764
 3029SOL    HW220721   4.200   3.654  10.736 -1.6794 -2.9254 -1.6222
 3030SOL     OW20722   4.650   1.466   1.739  0.8578 -0.4313  0.3914
 3030SOL    HW120723   4.663   1.511   1.655 -0.0504 -1.2505 -0.1935
 3030SOL    HW220724   4.559   1.493   1.751  1.0950  0.7959 -0.5999
 3031SOL     OW20725   3.999   4.583   0.794 -0.7631  0.0799 -0.8111
 3031SOL    HW120726   4.061   4.656   0.799  0.1731 -0.6892 -1.1005
 3031SOL    HW220727   3.916   4.628   0.812 -0.4249  0.0342  0.9473
 3032SOL     OW20728   4.321   2.494   6.788  0.1424 -0.1679  0.0128
 3032SOL    HW120729   4.361   2.446   6.860  0.9465 -0.7741 -0.8316
 3032SOL    HW220730   4.231   2.498   6.819 -0.5187  0.4268 -2.0000
 3033SOL     OW20731   2.008   0.880   3.190  0.1283  0.3733 -0.4654
 3033SOL    HW120732   2.098   0.885   3.159  0.8436 -0.6209  1.4889
 3033SOL    HW220733   2.016   0.827   3.269  1.4142  1.5825  0.2076
 3034SOL     OW20734   1.122   1.144   6.947 -0.2530  0.3650  0.8361
 3034SOL    HW120735   1.159   1.208   6.887  2.1761 -0.2427  1.6653
 3034SOL    HW220736   1.077   1.200   7.010  0.5739  0.1237  1.6622
 3035SOL     OW20737   2.115   2.358  11.189  0.6947 -0.0930 -0.0317
 3035SOL    HW120738   2.187   2.350  11.251  1.6309 -1.2502 -1.2634
 3035SOL    HW220739   2.107   2.271  11.151 -1.1341 -0.6694  1.6921
 3036SOL     OW20740   2.682   2.573  17.707 -0.3591 -0.1192 -0.3307
 3036SOL    HW120741   2.604   2.590   0.030  0.5788 -1.2900  1.4367
 3036SOL    HW220742   2.699   2.481  17.728  2.0734  0.1433 -1.2187
 3037SOL     OW20743   1.248   0.816   4.779 -0.0843 -0.4726 -0.5195
 3037SOL    HW120744   1.303   0.877   4.730  2.1841 -1.0275  1.2955
 3037SOL    HW220745   1.315   0.791   4.844  0.4649  1.7098 -0.2259
 3038SOL     OW20746   0.620   2.380   6.001  0.6216  0.3545 -0.1367
 3038SOL    HW120747   0.566   2.306   5.972  1.9121  0.0306 -1.6750
 3038SOL    HW220748   0.600   2.383   6.095 -0.8472  0.8383 -0.4641
 3039SOL     OW20749   2.332   2.073   4.488 -0.1646  0.0891  0.1030
 3039SOL    HW120750   2.356   1.987   4.452 -1.8836  0.5274 -2.0876
 3039SOL    HW220751   2.263   2.054   4.551 -1.4018  2.4189 -0.5500
 3040SOL     OW20752   4.177   3.964  12.474  0.8416  0.0215 -0.6178
 3040SOL    HW120753   4.093   3.999  12.504 -0.2906 -0.2995 -3.4579
 3040SOL    HW220754   4.173   3.988  12.382  2.7542  3.1228  0.1190
 3041SOL     OW20755   0.523   2.373   2.398 -1.0243  0.3389 -0.0625
 3041SOL    HW120756   0.539   2.467   2.398  1.0039 -0.0100  0.6031
 3041SOL    HW220757   0.440   2.361   2.445 -0.1072 -3.7753  0.5365
 3042SOL     OW20758   4.456   3.857   8.624 -0.4108 -0.0630 -0.3110
 3042SOL    HW120759   4.412   3.894   8.701  0.7728  0.4316  0.1329
 3042SOL    HW220760   4.403   3.778   8.618  0.5666 -0.6024 -1.8129
 3043SOL     OW20761   2.880   2.361   9.399 -0.2524  0.1485  0.2888
 3043SOL    HW120762   2.864   2.282   9.450  0.6034  1.9453  3.3218
 3043SOL    HW220763   2.946   2.334   9.335  1.4138  0.1499  2.0326
 3044SOL     OW20764   1.046   3.721   4.149  0.1548 -0.1911  0.4156
 3044SOL    HW120765   1.042   3.689   4.239  1.1163  0.1603  0.5896
 3044SOL    HW220766   1.068   3.636   4.109  1.8340  0.9717 -1.1259
 3045SOL     OW20767   2.337   0.155   7.224 -0.4788 -0.0727  0.0505
 3045SOL    HW120768   2.389   0.120   7.297  2.4005  1.3241 -1.3275
 3045SOL    HW220769   2.402   0.178   7.158  1.6875 -2.3761  1.3816
 3046SOL     OW20770   4.431   0.386   2.251 -0.2124 -0.4366 -0.2165
 3046SOL    HW120771   4.526   0.398   2.238 -1.1611  1.6417 -5.2511
 3046SOL    HW220772   4.421   0.446   2.325 -0.1859  0.4799 -0.9472
 3047SOL     OW20773   2.599   1.942  10.454  0.0286 -0.0517 -0.1636
 3047SOL    HW120774   2.695   1.948  10.452  0.0827  0.1492  3.2559
 3047SOL    HW220775   2.583   2.010  10.388 -1.2851  0.5054  0.7322
 3048SOL     OW20776   2.790   2.518   2.047 -0.8860 -0.3212 -0.5007
 3048SOL    HW120777   2.701   2.507   2.014 -2.0118 -0.6231  2.6102
 3048SOL    HW220778   2.776   2.512   2.142 -2.3330 -1.7493 -0.8013
 3049SOL     OW20779   1.630   0.017   8.707 -0.1816  0.0484  0.5534
 3049SOL    HW120780   1.633   4.689   8.781  1.4212 -0.9438 -0.3293
 3049SOL    HW220781   1.723   0.019   8.686 -0.7187  0.9490 -1.8011
 3050SOL     OW20782   0.180   2.029   6.547  0.4028 -0.1528 -0.7473
 3050SOL    HW120783   0.248   2.023   6.613  1.0223 -0.3518 -1.4018
 3050SOL    HW220784   0.141   2.113   6.568  1.6560  0.7796 -2.1439
 3051SOL     OW20785   0.855   1.509  11.568 -0.0633 -0.0626 -0.2041
 3051SOL    HW120786   0.879   1.423  11.533 -0.3544  1.1119 -3.2505
 3051SOL    HW220787   0.848   1.564  11.491  2.1183  1.2232  0.5068
 3052SOL     OW20788   2.043   3.818   8.671 -0.1088 -0.2640  0.4894
 3052SOL    HW120789   2.077   3.906   8.654  2.4086 -1.3076  0.0452
 3052SOL    HW220790   2.094   3.769   8.606  0.5985  1.4575 -0.2605
 3053SOL     OW20791   2.186   3.830  17.573 -0.1355  0.1318  0.1467
 3053SOL    HW120792   2.161   3.817  17.664 -0.5231 -1.8020 -0.2193
 3053SOL    HW220793   2.259   3.768  17.577 -3.1792 -3.3110  2.5060
 3054SOL     OW20794   0.464   4.522   7.946 -0.1855  0.3320 -0.3191
 3054SOL    HW120795   0.537   4.559   7.896  0.8388 -0.3034  0.6936
 3054SOL    HW220796   0.397   4.582   7.915 -0.0875  0.4778 -0.2489
 3055SOL     OW20797   1.137   2.701   7.908 -0.0404 -0.3264  0.0064
 3055SOL    HW120798   1.045   2.725   7.923  0.1274 -0.0978  0.6250
 3055SOL    HW220799   1.177   2.772   7.957  0.3878 -0.1442 -0.6050
 3056SOL     OW20800   2.371   1.911   9.936 -0.9377  0.4784  0.0844
 3056SOL    HW120801   2.380   1.834   9.879  0.4465 -0.4784  1.6147
 3056SOL    HW220802   2.283   1.946   9.921  0.0674  2.4476 -1.2519
 3057SOL     OW20803   2.688   0.319   5.860  0.2051  0.2083 -0.4017
 3057SOL    HW120804   2.674   0.411   5.841 -2.0041 -0.4008 -1.7552
 3057SOL    HW220805   2.622   0.280   5.802  1.5251 -0.3600 -1.5157
 3058SOL     OW20806   3.860   0.528  11.882  0.2350 -0.5964  0.3326
 3058SOL    HW120807   3.946   0.558  11.913  0.5392  2.1203 -3.0528
 3058SOL    HW220808   3.870   0.467  11.810  2.9861  1.2469 -0.8818
 3059SOL     OW20809   4.098   2.050   1.893  0.0701 -0.2024 -0.1070
 3059SOL    HW120810   4.030   1.984   1.884  0.6735 -1.0208  1.4194
 3059SOL    HW220811   4.093   2.095   1.808  2.9444 -2.1706 -1.3108
 3060SOL     OW20812   2.922   3.572   0.090  0.5846  0.1057 -0.2401
 3060SOL    HW120813   2.925   3.642   0.155  0.5128 -1.9114  1.9407
 3060SOL    HW220814   2.927   3.618   0.006 -1.3754  0.7388 -0.0163
 3061SOL     OW20815   1.154   2.411   7.886  0.4883 -0.3382  0.0398
 3061SOL    HW120816   1.238   2.365   7.891  1.4303  1.4415  0.4577
 3061SOL    HW220817   1.175   2.504   7.890 -0.7804 -0.0584  0.1737
 3062SOL     OW20818   4.120   2.961   8.547 -0.1405 -0.3819 -0.1865
 3062SOL    HW120819   4.102   3.040   8.597  1.1841 -1.3413  1.8133
 3062SOL    HW220820   4.082   2.982   8.462  1.9323  0.0049 -1.0072
 3063SOL     OW20821   4.310   1.497  15.662 -0.1948  0.1286  0.2899
 3063SOL    HW120822   4.345   1.408  15.659 -0.1376  0.1605  0.0331
 3063SOL    HW220823   4.383   1.552  15.635 -0.7519 -0.2768 -2.0305
 3064SOL     OW20824   4.422   1.609  14.676 -0.2105 -0.3575  0.2795
 3064SOL    HW120825   4.406   1.644  14.763  1.0462  0.2885  0.2536
 3064SOL    HW220826   4.436   1.689  14.626 -1.3412 -1.2160 -1.4407
 3065SOL     OW20827   2.195   1.616  16.446  0.9856 -0.6579 -0.1796
 3065SOL    HW120828   2.153   1.651  16.524  2.1033  1.9360 -0.7308
 3065SOL    HW220829   2.249   1.544  16.479  3.6522  1.3722 -0.0355
 3066SOL     OW20830   1.743   0.180   4.034 -0.3972 -0.1965  0.3173
 3066SOL    HW120831   1.663   0.208   4.077  0.9913  1.9401  1.5379
 3066SOL    HW220832   1.719   0.181   3.941  1.3491 -0.4410 -0.1411
 3067SOL     OW20833   1.345   4.341   2.047  0.5370  0.1283  0.2775
 3067SOL    HW120834   1.303   4.350   1.962  0.5020 -1.1087  0.1583
 3067SOL    HW220835   1.268   4.340   2.103  0.4636  1.8634  0.2122
 3068SOL     OW20836   1.904   1.101   7.727  0.1115 -0.2419  0.3318
 3068SOL    HW120837   1.838   1.159   7.764 -0.9729 -0.4486 -1.3061
 3068SOL    HW220838   1.924   1.139   7.641  1.1526 -0.8776  0.2918
 3069SOL     OW20839   3.225   2.992   8.543 -0.2697  0.0171 -0.0372
 3069SOL    HW120840   3.305   3.045   8.544  1.6419 -2.8762 -0.0366
 3069SOL    HW220841   3.256   2.902   8.549  0.7301  0.3288 -0.6244
 3070SOL     OW20842   4.312   1.011   4.046 -0.0487  0.1098 -0.4675
 3070SOL    HW120843   4.328   0.917   4.051  0.1227  0.2043  1.0105
 3070SOL    HW220844   4.380   1.052   4.100  0.1380 -0.0617 -0.5714
 3071SOL     OW20845   2.477   1.623   0.705 -0.1023  0.0443  0.2419
 3071SOL    HW120846   2.466   1.718   0.706 -0.9200 -0.0484  0.9002
 3071SOL    HW220847   2.571   1.616   0.722  0.1604 -0.6066 -1.4770
 3072SOL     OW20848   0.026   1.420   4.468  0.0252 -0.0339  0.2227
 3072SOL    HW120849   4.694   1.418   4.398 -0.2923  0.7144  0.4885
 3072SOL    HW220850   4.723   1.481   4.534  0.9479  2.2934 -1.4639
 3073SOL     OW20851   1.809   1.041  13.842 -0.7965 -0.6322 -0.0886
 3073SOL    HW120852   1.795   1.057  13.935 -1.7857  0.4159 -0.4153
 3073SOL    HW220853   1.875   1.100  13.804  1.4656 -1.5042  2.4813
 3074SOL     OW20854   4.017   0.525   7.529 -0.2154  0.1251  0.1892
 3074SOL    HW120855   3.931   0.567   7.534  0.0282  0.7691 -0.8655
 3074SOL    HW220856   4.063   0.608   7.516  0.1000 -0.2090 -0.8837
 3075SOL     OW20857   0.106   0.583  13.659 -0.2980 -0.0768  0.0104
 3075SOL    HW120858   0.079   0.618  13.744  2.7750  0.1181  0.8798
 3075SOL    HW220859   0.142   0.653  13.606 -1.6402  0.4004 -0.2665
 3076SOL     OW20860   1.505   0.269   6.847  0.1285 -0.7106 -0.3391
 3076SOL    HW120861   1.424   0.258   6.797 -1.1418  2.1845  1.0574
 3076SOL    HW220862   1.513   0.361   6.874  2.0609 -1.2683  0.9516
 3077SOL     OW20863   3.760   2.467   6.502  0.2109 -0.5790 -0.2813
 3077SOL    HW120864   3.708   2.411   6.444  0.6080 -1.3768  0.1300
 3077SOL    HW220865   3.840   2.416   6.493  0.6783  0.1654 -0.2984
 3078SOL     OW20866   4.630   0.555   0.815 -0.7398 -0.6638  0.0535
 3078SOL    HW120867   4.691   0.611   0.768 -0.7020 -0.5647  0.2209
 3078SOL    HW220868   4.588   0.504   0.745  2.6771 -0.2497 -2.2545
 3079SOL     OW20869   0.742   3.434   3.643  0.1303 -0.0769 -0.1364
 3079SOL    HW120870   0.817   3.383   3.674  1.4342  1.5778 -0.5360
 3079SOL    HW220871   0.758   3.516   3.691 -0.4143  0.7825 -1.4292
 3080SOL     OW20872   1.661   2.149  11.134  0.0128 -0.4562 -0.7385
 3080SOL    HW120873   1.731   2.085  11.125 -0.9489 -1.8432  1.5833
 3080SOL    HW220874   1.587   2.095  11.106  0.6912 -1.9247  0.3206
 3081SOL     OW20875   2.468   4.066   1.156  0.2654  0.0697  0.2669
 3081SOL    HW120876   2.421   4.013   1.092  0.6431  0.5544 -0.4127
 3081SOL    HW220877   2.482   4.149   1.111 -2.2128 -0.2452 -1.0716
 3082SOL     OW20878   0.007   3.111   8.859  0.4455 -0.6128  0.1938
 3082SOL    HW120879   0.033   3.019   8.855 -1.1431 -1.1795  2.7633
 3082SOL    HW220880   4.703   3.128   8.945 -1.0928  1.2955 -0.8411
 3083SOL     OW20881   0.877   1.474   4.447  0.1709 -0.4197 -0.0338
 3083SOL    HW120882   0.963   1.498   4.481  0.0553 -1.5526  1.0452
 3083SOL    HW220883   0.835   1.560   4.438  3.4278  1.2375  0.6997
 3084SOL     OW20884   0.445   3.614  10.881  0.7109  0.5526  0.6426
 3084SOL    HW120885   0.381   3.555  10.842  0.3458 -0.2433  2.4825
 3084SOL    HW220886   0.515   3.602  10.816 -0.1521 -0.0413 -0.1690
 3085SOL     OW20887   4.079   3.480   9.579 -0.4737  0.2504  0.6077
 3085SOL    HW120888   4.066   3.393   9.541 -1.8965  1.1228 -0.9178
 3085SOL    HW220889   4.022   3.474   9.656 -0.1841 -0.7911  0.7388
 3086SOL     OW20890   2.969   3.546   2.299 -0.1432 -0.1432  0.0581
 3086SOL    HW120891   2.982   3.451   2.299  2.8164  0.2737 -1.5112
 3086SOL    HW220892   3.042   3.574   2.355  1.4789 -1.3768 -1.4560
 3087SOL     OW20893   0.188   2.467   4.103 -0.1238 -0.0496  0.2463
 3087SOL    HW120894   0.094   2.446   4.107  0.2468 -1.5552  1.4057
 3087SOL    HW220895   0.211   2.417   4.025 -0.9542 -0.1629  0.0727
 3088SOL     OW20896   1.292   3.658  14.576 -0.2093  0.2809 -0.0771
 3088SOL    HW120897   1.263   3.589  14.516 -0.6653 -0.9800  1.5786
 3088SOL    HW220898   1.209   3.672  14.622  1.1029  2.4410  1.5862
 3089SOL     OW20899   2.674   0.628   6.093  0.0875 -0.1801  0.0186
 3089SOL    HW120900   2.769   0.613   6.094 -0.3299 -2.8870 -0.8167
 3089SOL    HW220901   2.648   0.633   6.001 -0.3506  0.7988  0.1962
 3090SOL     OW20902   1.564   3.218   8.969 -0.6582 -0.2613 -0.3630
 3090SOL    HW120903   1.636   3.184   8.917  1.6851  2.3116  1.1746
 3090SOL    HW220904   1.596   3.207   9.059  1.1490 -2.0360 -1.2193
 3091SOL     OW20905   3.837   4.565   6.537  0.0584 -0.2474 -0.4130
 3091SOL    HW120906   3.844   4.570   6.632 -1.4576  0.0598 -0.3144
 3091SOL    HW220907   3.776   4.493   6.526 -1.7214  1.1918  0.1165
 3092SOL     OW20908   0.506   3.107   0.183 -0.0232 -0.0903 -0.2960
 3092SOL    HW120909   0.532   3.198   0.192 -0.2268 -0.1070  0.4136
 3092SOL    HW220910   0.421   3.114   0.225  0.2480  1.2103  0.0143
 3093SOL     OW20911   1.621   3.546   6.279 -0.0119 -0.4703 -0.6208
 3093SOL    HW120912   1.631   3.622   6.222  0.4737  1.4155  1.9551
 3093SOL    HW220913   1.553   3.582   6.337  0.0779  0.4390 -1.0777
 3094SOL     OW20914   2.929   0.677   8.081 -0.4380 -0.4821  0.4350
 3094SOL    HW120915   2.868   0.604   8.074 -0.1715 -0.7728  1.2124
 3094SOL    HW220916   2.967   0.672   8.168 -0.0671  1.7683  0.4143
 3095SOL     OW20917   0.240   2.672   8.411  0.1088  0.6675  0.2196
 3095SOL    HW120918   0.192   2.751   8.436  1.6959  1.9325 -0.6863
 3095SOL    HW220919   0.198   2.605   8.464  2.6754 -0.9862  0.1665
 3096SOL     OW20920   0.585   2.201  13.649  0.3074 -0.1021 -0.2672
 3096SOL    HW120921   0.498   2.237  13.629 -0.0768  0.6618  2.7377
 3096SOL    HW220922   0.572   2.154  13.731 -1.2346 -0.5043 -0.7402
 3097SOL     OW20923   3.319   0.516   4.828 -0.2650  0.2179 -0.5005
 3097SOL    HW120924   3.227   0.488   4.830 -0.3113  0.3610 -0.6611
 3097SOL    HW220925   3.324   0.570   4.749  0.2499  0.5652 -0.2302
 3098SOL     OW20926   2.567   0.093   0.382 -0.2411  0.1483  0.3004
 3098SOL    HW120927   2.617   0.174   0.371 -1.2108  0.6803 -0.2086
 3098SOL    HW220928   2.600   0.062   0.466 -0.1119  1.0081  0.5733
 3099SOL     OW20929   2.215   2.206   8.366  0.4495 -0.5354  0.5501
 3099SOL    HW120930   2.201   2.253   8.449  1.2510 -2.0500  1.5401
 3099SOL    HW220931   2.187   2.120   8.396  0.9550 -0.2835  1.7806
 3100SOL     OW20932   0.395   3.808   7.975 -0.0818 -0.4974 -0.1088
 3100SOL    HW120933   0.453   3.732   7.975  0.5339 -0.0177 -1.9962
 3100SOL    HW220934   0.356   3.815   8.063  0.1978 -0.0476 -0.0226
 3101SOL     OW20935   1.263   4.158  16.056  0.7463  0.1221 -0.0304
 3101SOL    HW120936   1.304   4.217  15.992  1.9885  0.1754  0.8057
 3101SOL    HW220937   1.174   4.162  16.022  1.3857 -2.2330 -2.0605
 3102SOL     OW20938   0.778   0.557   4.475 -0.0038 -0.6108  0.4069
 3102SOL    HW120939   0.826   0.494   4.529 -0.8245 -0.5672  1.1901
 3102SOL    HW220940   0.748   0.623   4.538 -0.1404  1.6535 -2.0260
 3103SOL     OW20941   1.578   2.208   3.671 -0.6476  0.1527 -0.0117
 3103SOL    HW120942   1.648   2.178   3.614  0.3024 -1.4715  2.0030
 3103SOL    HW220943   1.562   2.298   3.643 -4.5343 -0.3655  0.4865
 3104SOL     OW20944   1.755   3.429  15.202  0.3004  0.2573 -0.0624
 3104SOL    HW120945   1.789   3.465  15.284  1.4818  1.4194 -1.0577
 3104SOL    HW220946   1.661   3.426  15.219  0.3401 -1.6499 -0.2631
 3105SOL     OW20947   0.027   4.704  12.096  0.2461 -0.1898  0.4858
 3105SOL    HW120948   4.679   4.666  12.059  0.3267  0.2546 -0.1361
 3105SOL    HW220949   0.100   4.674  12.043  0.3456  0.4929  0.2384
 3106SOL     OW20950   0.153   0.606   7.704 -0.0235  0.3718 -0.1339
 3106SOL    HW120951   0.205   0.637   7.778 -1.4496  2.7471 -0.1464
 3106SOL    HW220952   0.066   0.613   7.744 -0.4975 -3.1730 -0.5145
 3107SOL     OW20953   4.258   2.719   0.349  0.3184  0.3238 -0.3621
 3107SOL    HW120954   4.228   2.650   0.409  1.7590  0.2087  0.2302
 3107SOL    HW220955   4.173   2.752   0.321 -0.4231 -2.1730 -1.0246
 3108SOL     OW20956   2.566   2.491   4.372  0.1860  0.0161 -0.1888
 3108SOL    HW120957   2.603   2.575   4.344  1.0053 -0.1366  0.4259
 3108SOL    HW220958   2.492   2.477   4.314 -0.1913 -0.8869  0.5218
 3109SOL     OW20959   2.156   0.924   3.621  0.4926  0.0562 -0.0479
 3109SOL    HW120960   2.188   0.834   3.628 -1.1727 -0.4625  0.8018
 3109SOL    HW220961   2.115   0.932   3.535 -0.7340 -2.9899  0.2471
 3110SOL     OW20962   0.518   3.542   0.496 -0.4664 -0.0400 -0.1515
 3110SOL    HW120963   0.545   3.633   0.484 -0.8833 -0.0029 -0.8206
 3110SOL    HW220964   0.592   3.519   0.551 -1.6710  0.1757  1.5931
 3111SOL     OW20965   2.636   1.871   3.917 -0.5484  0.1779 -0.4989
 3111SOL    HW120966   2.689   1.792   3.911 -1.2680 -0.1707 -2.2438
 3111SOL    HW220967   2.550   1.850   3.882 -0.6393 -0.7435  0.2777
 3112SOL     OW20968   0.008   4.533   8.616 -0.5948 -0.3711  0.4593
 3112SOL    HW120969   0.084   4.589   8.597 -1.7722  1.7011  1.8422
 3112SOL    HW220970   4.708   4.509   8.529 -1.2307 -0.2937  0.6782
 3113SOL     OW20971   1.368   0.352   2.439 -0.0466  0.2760  0.4717
 3113SOL    HW120972   1.275   0.356   2.414 -0.0587 -0.9985  0.3142
 3113SOL    HW220973   1.406   0.351   2.351 -1.7578  2.2340 -0.2808
 3114SOL     OW20974   1.687   4.614   5.574 -0.3600  0.2925 -0.2766
 3114SOL    HW120975   1.639   4.548   5.624  0.8019 -1.4516 -1.4543
 3114SOL    HW220976   1.635   4.622   5.494 -0.4945 -0.9014 -0.3158
 3115SOL     OW20977   1.552   0.936  13.742  0.0933 -0.1254 -0.6262
 3115SOL    HW120978   1.638   0.953  13.781  0.3480  1.0173 -1.6720
 3115SOL    HW220979   1.535   1.020  13.699 -0.1393  1.8954  3.3642
 3116SOL     OW20980   0.650   2.589   3.762  0.7074  0.1928 -0.2171
 3116SOL    HW120981   0.587   2.599   3.690  1.3954  0.4729 -0.7781
 3116SOL    HW220982   0.733   2.571   3.718  1.3518 -0.1919  1.1565
 3117SOL     OW20983   3.837   4.707   7.822 -0.6762 -0.2874  0.1564
 3117SOL    HW120984   3.857   0.047   7.881 -0.4000  1.1745 -1.6935
 3117SOL    HW220985   3.909   4.647   7.843 -1.1334  0.2301  3.0741
 3118SOL     OW20986   2.677   4.187   5.197  0.1922 -0.4125  0.0978
 3118SOL    HW120987   2.633   4.273   5.195 -0.7125 -0.8582  0.7016
 3118SOL    HW220988   2.599   4.135   5.181 -0.2737  0.7361 -1.4273
 3119SOL     OW20989   3.912   0.369   3.725  0.1406 -0.1920 -0.1224
 3119SOL    HW120990   3.958   0.453   3.731 -0.1812  0.0080 -0.4927
 3119SOL    HW220991   3.953   0.314   3.793 -1.6588 -0.7688  0.4889
 3120SOL     OW20992   2.688   2.026  16.384  0.1480  0.9956 -0.5727
 3120SOL    HW120993   2.744   1.949  16.393 -2.3826 -0.6534  0.8302
 3120SOL    HW220994   2.730   2.077  16.453 -1.5144 -0.0041  1.1815
 3121SOL     OW20995   2.668   4.652   8.919 -0.1014  0.5303  0.3982
 3121SOL    HW120996   2.684   4.559   8.935  1.0373  0.9785  1.8527
 3121SOL    HW220997   2.751   4.672   8.875 -0.7412 -2.4304 -2.1735
 3122SOL     OW20998   0.125   1.896   7.854 -0.3628 -0.4141 -0.6424
 3122SOL    HW120999   0.069   1.846   7.795  0.4035  2.9091 -4.2132
 3122SOL    HW221000   0.190   1.937   7.796  1.9524 -2.8004  0.2510
 3123SOL     OW21001   4.015   3.102   0.596  0.1327  0.1523  0.0118
 3123SOL    HW121002   4.055   3.168   0.653  1.2771 -1.1469  0.7140
 3123SOL    HW221003   3.973   3.159   0.532 -1.7952  0.4124  1.4805
 3124SOL     OW21004   4.627   4.638   4.322  0.4596  0.3576 -0.4457
 3124SOL    HW121005   4.659   4.557   4.360  1.7037  0.8348 -0.4832
 3124SOL    HW221006   4.702   4.656   4.265  0.0464  0.1247 -1.0553
 3125SOL     OW21007   1.066   2.931   0.911  0.3429  0.6066 -0.3682
 3125SOL    HW121008   1.000   2.999   0.891  0.0479  0.1899 -0.8183
 3125SOL    HW221009   1.032   2.860   0.857  0.9606 -0.5250  0.7502
 3126SOL     OW21010   4.070   1.283   2.235  0.6385  0.2403 -0.1428
 3126SOL    HW121011   4.133   1.267   2.165  0.5048  0.6201 -0.3510
 3126SOL    HW221012   4.106   1.229   2.305  3.1958  0.9486 -0.9352
 3127SOL     OW21013   2.060   3.920   7.438 -0.4163 -0.1901  0.2010
 3127SOL    HW121014   2.065   3.835   7.394  2.7853 -0.2786  0.7272
 3127SOL    HW221015   2.147   3.925   7.479 -1.1793 -0.6245  1.8675
 3128SOL     OW21016   3.998   4.557  12.093 -0.0797  0.3759 -0.7236
 3128SOL    HW121017   4.051   4.480  12.112 -1.8093 -0.6109  0.0977
 3128SOL    HW221018   4.064   4.626  12.098  2.4440 -2.2479  2.1225
 3129SOL     OW21019   0.410   3.762   2.196  0.3719  0.2424 -0.0373
 3129SOL    HW121020   0.505   3.762   2.203  0.3321 -2.1776  0.3831
 3129SOL    HW221021   0.393   3.843   2.246 -2.4199  1.5235 -3.0833
 3130SOL     OW21022   4.268   3.488   3.871 -0.6927 -0.3135 -0.1548
 3130SOL    HW121023   4.292   3.579   3.889 -0.0738 -0.3507 -0.8124
 3130SOL    HW221024   4.204   3.485   3.942  0.3665  0.2795  0.8316
 3131SOL     OW21025   1.864   1.637   2.714 -0.1475  0.1933 -0.1632
 3131SOL    HW121026   1.942   1.665   2.762 -0.0696 -0.1445 -0.0898
 3131SOL    HW221027   1.896   1.638   2.624 -0.1959 -0.9796 -0.1951
 3132SOL     OW21028   1.021   1.789   3.255  0.0295  0.6096  0.3119
 3132SOL    HW121029   0.941   1.766   3.208 -0.7652 -1.2567  2.5523
 3132SOL    HW221030   0.991   1.835   3.334  1.8192 -2.0894  2.5537
 3133SOL     OW21031   2.479   0.377  14.967 -0.3951 -0.1408 -0.0495
 3133SOL    HW121032   2.447   0.417  14.886 -1.2416  1.5873  1.1267
 3133SOL    HW221033   2.470   0.282  14.958  0.7306 -0.2634  0.1795
 3134SOL     OW21034   2.917   3.602   2.669 -0.0827  0.2905  0.5277
 3134SOL    HW121035   2.938   3.513   2.699 -0.4608  0.2692  0.7219
 3134SOL    HW221036   2.979   3.654   2.720 -0.1404 -1.8792  2.8324
 3135SOL     OW21037   1.730   2.818   2.093 -0.2484  0.4004  0.6488
 3135SOL    HW121038   1.811   2.774   2.068  0.1008  1.8419 -0.7363
 3135SOL    HW221039   1.743   2.900   2.047  1.3094  0.1958  0.7210
 3136SOL     OW21040   4.337   4.505   6.130 -0.5001  0.0947 -0.1193
 3136SOL    HW121041   4.276   4.552   6.073  2.6674  2.2181 -1.7440
 3136SOL    HW221042   4.273   4.442   6.164 -0.2315 -0.5915 -0.9085
 3137SOL     OW21043   3.269   2.642  15.606  0.1410  0.6282 -0.0070
 3137SOL    HW121044   3.189   2.653  15.555 -0.0212  0.7141  0.2648
 3137SOL    HW221045   3.248   2.554  15.639  1.2620  0.4367  0.2074
 3138SOL     OW21046   0.391   2.716   5.021  0.2416  0.6981 -0.2597
 3138SOL    HW121047   0.315   2.659   5.028 -0.4841  1.4439 -2.0015
 3138SOL    HW221048   0.391   2.726   4.926 -0.5324  1.5946 -0.1649
 3139SOL     OW21049   0.423   2.538   9.806  0.6274 -0.0967 -0.3438
 3139SOL    HW121050   0.354   2.554   9.742  1.6906  1.8145 -1.0198
 3139SOL    HW221051   0.507   2.547   9.761  0.6707 -4.2714 -1.0861
 3140SOL     OW21052   4.504   2.255   8.238  0.2901  0.7679 -0.4910
 3140SOL    HW121053   4.531   2.232   8.327 -0.0368  1.1596 -0.2926
 3140SOL    HW221054   4.558   2.331   8.218 -1.7924  2.3410 -0.1878
 3141SOL     OW21055   2.959   1.700   5.453  0.4416  0.0270  0.4608
 3141SOL    HW121056   2.985   1.618   5.496 -1.9188  0.2476  2.3044
 3141SOL    HW221057   2.865   1.684   5.445 -0.0635  3.9570 -1.2060
 3142SOL     OW21058   4.705   3.218  12.831 -0.4029 -0.0347  0.0662
 3142SOL    HW121059   4.700   3.296  12.775  1.4611  0.5756  0.7150
 3142SOL    HW221060   4.714   3.138  12.779  1.4643  1.1041 -1.4058
 3143SOL     OW21061   3.263   0.744   5.202 -0.2998 -0.5328  0.2244
 3143SOL    HW121062   3.202   0.767   5.272  1.8901 -0.1781  2.0063
 3143SOL    HW221063   3.231   0.798   5.130 -0.6387  0.8285  1.3852
 3144SOL     OW21064   1.720   4.209  14.779 -0.0350  0.6550  0.2610
 3144SOL    HW121065   1.797   4.186  14.832  0.0894 -0.4990 -0.4240
 3144SOL    HW221066   1.724   4.304  14.782 -0.4535  0.5956  2.7468
 3145SOL     OW21067   0.210   3.314  16.165 -0.6012 -0.0931 -0.2963
 3145SOL    HW121068   0.218   3.270  16.080  1.3155  0.4327 -0.3711
 3145SOL    HW221069   0.187   3.233  16.211 -2.5850 -0.1922 -1.4505
 3146SOL     OW21070   2.967   4.650   6.543 -0.1878 -0.2594  0.3471
 3146SOL    HW121071   3.054   4.640   6.505 -0.5608 -1.9638 -0.0587
 3146SOL    HW221072   2.919   4.626   6.463 -0.0855 -1.0649  0.5298
 3147SOL     OW21073   0.906   2.734   1.048 -0.2624  0.2377  0.1677
 3147SOL    HW121074   0.977   2.790   1.079  0.5511 -0.7049  0.0115
 3147SOL    HW221075   0.846   2.794   1.004 -0.6089 -0.6695 -0.6141
 3148SOL     OW21076   1.979   3.194   7.028 -0.6798 -0.2531 -0.1893
 3148SOL    HW121077   2.021   3.142   7.096 -2.0463  0.2983  1.0816
 3148SOL    HW221078   1.890   3.162   7.012 -0.9326  1.5206 -2.4198
 3149SOL     OW21079   3.326   2.685   5.063 -0.4900  0.4007 -0.4646
 3149SOL    HW121080   3.274   2.609   5.036 -0.5097  0.5351 -0.8119
 3149SOL    HW221081   3.415   2.648   5.062 -0.7052 -0.1535  0.7330
 3150SOL     OW21082   3.712   2.053   6.828 -0.7468  0.0105  0.5646
 3150SOL    HW121083   3.704   2.148   6.819 -1.5002 -0.1737 -0.6384
 3150SOL    HW221084   3.626   2.030   6.864  0.3660 -1.6969  2.1447
 3151SOL     OW21085   2.072   0.276   7.458  0.0712  0.5122  0.1586
 3151SOL    HW121086   2.077   0.219   7.381  2.1678  0.3513  0.4346
 3151SOL    HW221087   1.982   0.309   7.459 -0.5172 -1.1333  1.7440
 3152SOL     OW21088   1.393   4.420   7.128  0.6618  0.2547 -0.0048
 3152SOL    HW121089   1.484   4.415   7.159  0.0518  0.8741  1.9195
 3152SOL    HW221090   1.384   4.342   7.073 -0.0410  0.4033 -0.1014
 3153SOL     OW21091   3.683   3.629   5.655 -0.6238  0.4926  0.1656
 3153SOL    HW121092   3.661   3.712   5.697  0.4283  0.7804  0.1627
 3153SOL    HW221093   3.605   3.574   5.652  0.8744 -1.5709 -1.3673
 3154SOL     OW21094   0.325   4.384   5.051  0.1869  0.0191  0.3291
 3154SOL    HW121095   0.232   4.368   5.064  0.0305  0.0382 -0.7233
 3154SOL    HW221096   0.349   4.333   5.128 -3.5645 -2.0045  0.1772
 3155SOL     OW21097   0.368   0.410   8.728  0.0365 -0.6151 -0.1147
 3155SOL    HW121098   0.286   0.459   8.725 -0.8603 -2.0975  0.1639
 3155SOL    HW221099   0.345   0.350   8.657 -0.0410 -0.3299 -0.3325
 3156SOL     OW21100   0.309   4.058  14.865 -0.3380  0.0210  0.0371
 3156SOL    HW121101   0.246   4.124  14.836  1.5331  1.9459  0.3195
 3156SOL    HW221102   0.248   3.985  14.872  0.4234 -0.5965  0.2530
 3157SOL     OW21103   3.090   1.690   6.636  0.6778 -0.6734 -0.0498
 3157SOL    HW121104   3.043   1.710   6.555  0.1531 -1.1038  0.1500
 3157SOL    HW221105   3.177   1.674   6.600  1.2296  0.2066  0.8821
 3158SOL     OW21106   3.477   2.918  16.276  0.0677  0.3090  0.5173
 3158SOL    HW121107   3.392   2.903  16.235  1.5718 -0.4600 -2.2808
 3158SOL    HW221108   3.525   2.914  16.194  0.5948  0.1465  0.8342
 3159SOL     OW21109   0.639   2.351   8.790  0.7661  0.5002  0.2651
 3159SOL    HW121110   0.649   2.305   8.873 -0.1288  1.2376  0.7871
 3159SOL    HW221111   0.684   2.434   8.801  0.2005  0.8423  0.0406
 3160SOL     OW21112   0.263   4.376   5.988  0.1207 -0.5125 -0.1183
 3160SOL    HW121113   0.256   4.428   6.069 -2.8774  1.7770 -1.8635
 3160SOL    HW221114   0.173   4.375   5.956 -0.5989  0.2606  1.8387
 3161SOL     OW21115   2.968   0.983   6.030  0.3181 -0.0685 -0.0198
 3161SOL    HW121116   3.037   1.049   6.036 -0.3168  0.5887  0.0062
 3161SOL    HW221117   2.893   1.028   5.992 -0.3590 -0.3448  0.9757
 3162SOL     OW21118   1.093   3.065  14.265  0.4025 -0.1518 -0.2187
 3162SOL    HW121119   1.061   3.027  14.347  1.4172  0.9779  0.6987
 3162SOL    HW221120   1.067   3.155  14.283 -0.5912 -1.0521  2.8681
 3163SOL     OW21121   4.131   2.705   8.033  0.0061  0.1718 -0.5511
 3163SOL    HW121122   4.171   2.646   7.969  1.2805  0.7740 -0.3148
 3163SOL    HW221123   4.130   2.642   8.105  0.0101  1.3860  0.5035
 3164SOL     OW21124   0.705   1.058   8.803  0.3311  0.6278 -0.0536
 3164SOL    HW121125   0.706   0.970   8.840  2.7485  0.8838  0.4941
 3164SOL    HW221126   0.784   1.058   8.749 -1.1678 -1.5819 -2.2678
 3165SOL     OW21127   4.667   3.635  14.343 -0.4751 -0.3869 -0.3891
 3165SOL    HW121128   0.015   3.670  14.381 -0.9806  0.7742 -0.3820
 3165SOL    HW221129   4.702   3.561  14.293  2.0557 -0.3903  1.3550
 3166SOL     OW21130   3.591   3.381  11.008 -0.6888 -0.3979 -0.7978
 3166SOL    HW121131   3.525   3.370  11.076 -0.1282 -2.4300 -0.5735
 3166SOL    HW221132   3.672   3.396  11.056 -0.4380  2.5669 -2.1424
 3167SOL     OW21133   0.890   3.471   2.766  1.1132  0.3418 -0.1659
 3167SOL    HW121134   0.900   3.518   2.684  0.2356  2.0226  0.7004
 3167SOL    HW221135   0.900   3.539   2.833 -0.4260  1.1723 -0.8048
 3168SOL     OW21136   1.169   3.332   8.969 -1.1490  0.6636 -0.1303
 3168SOL    HW121137   1.210   3.246   8.975 -0.6341  0.9640  0.5804
 3168SOL    HW221138   1.233   3.361   8.905 -0.8235  1.6081  0.6170
 3169SOL     OW21139   3.689   1.157  14.993  0.7124 -0.2173 -0.1960
 3169SOL    HW121140   3.756   1.224  14.978 -1.6433  2.3262  0.6065
 3169SOL    HW221141   3.640   1.176  14.913 -2.0986  3.8359  2.4427
 3170SOL     OW21142   4.355   0.306   0.965 -0.0889 -0.1778 -0.3040
 3170SOL    HW121143   4.363   0.299   0.870  3.3645 -0.1375 -0.0375
 3170SOL    HW221144   4.304   0.233   0.999  0.5135 -2.6040 -4.5901
 3171SOL     OW21145   3.678   0.083   6.646 -0.0075  0.5175  0.3005
 3171SOL    HW121146   3.676   0.109   6.554  0.6152 -0.3539  0.0386
 3171SOL    HW221147   3.705   0.167   6.683 -0.5027  0.6144  0.4486
 3172SOL     OW21148   1.507   3.771   1.503 -0.0791 -0.2584  0.0521
 3172SOL    HW121149   1.516   3.681   1.534  2.5123 -0.1626 -0.3819
 3172SOL    HW221150   1.596   3.800   1.480  0.1380 -1.9841 -1.2347
 3173SOL     OW21151   4.042   3.844  16.686 -0.4398  0.4454  0.0397
 3173SOL    HW121152   4.040   3.924  16.633 -0.7306  1.1820  1.1674
 3173SOL    HW221153   4.091   3.881  16.760 -0.7668 -1.3124  1.1330
 3174SOL     OW21154   2.667   4.291   5.946 -0.3968  0.1198  0.0057
 3174SOL    HW121155   2.635   4.380   5.958 -1.7249 -0.3380 -0.1438
 3174SOL    HW221156   2.727   4.321   5.878  0.4910  1.0595  1.2052
 3175SOL     OW21157   2.455   0.338   2.788  0.5148  0.2822 -0.1028
 3175SOL    HW121158   2.377   0.337   2.844  0.9921 -0.9468  0.5324
 3175SOL    HW221159   2.475   0.432   2.783 -2.1961  0.8211 -0.5022
 3176SOL     OW21160   4.167   2.268   3.344  0.0234  0.1383  0.1505
 3176SOL    HW121161   4.145   2.183   3.304 -3.4248  1.8874 -1.6854
 3176SOL    HW221162   4.255   2.288   3.312 -0.3851 -1.8465 -2.2491
 3177SOL     OW21163   1.790   4.507   4.550  0.0232 -0.4585  0.2902
 3177SOL    HW121164   1.790   4.596   4.516 -2.3227 -0.6168 -0.1397
 3177SOL    HW221165   1.861   4.482   4.490 -0.5459 -3.4306  0.8444
 3178SOL     OW21166   4.249   2.402   1.977 -0.0900 -0.2418 -0.2178
 3178SOL    HW121167   4.213   2.478   2.024  1.6091  1.1365 -1.1633
 3178SOL    HW221168   4.228   2.325   2.029 -0.9972  0.9385  1.1713
 3179SOL     OW21169   3.815   0.862   0.510  0.3248  0.4396  0.3299
 3179SOL    HW121170   3.907   0.864   0.482  0.6358  0.6405  1.3521
 3179SOL    HW221171   3.825   0.850   0.605 -0.9299  2.8185  0.7699
 3180SOL     OW21172   1.984   3.324   4.169 -0.3927  0.0920  0.0134
 3180SOL    HW121173   1.946   3.370   4.244  1.8054  0.3061  0.9672
 3180SOL    HW221174   1.939   3.240   4.161  1.2862 -0.6750 -1.2405
 3181SOL     OW21175   3.443   1.412   2.952 -0.7403 -0.2209 -0.1849
 3181SOL    HW121176   3.423   1.358   3.029  1.9595 -1.3453 -0.2635
 3181SOL    HW221177   3.504   1.484   2.968 -1.6677  0.2142  1.3627
 3182SOL     OW21178   0.927   4.686   7.725  0.5324 -0.3477 -0.0226
 3182SOL    HW121179   0.888   4.712   7.641  0.4510  2.1336  0.7743
 3182SOL    HW221180   0.981   0.029   7.744 -1.2418  0.8884  0.1706
 3183SOL     OW21181   2.967   3.147  13.842  0.1507  0.6205 -0.4897
 3183SOL    HW121182   2.902   3.097  13.891 -0.2581  2.3871  0.7663
 3183SOL    HW221183   2.927   3.124  13.758 -1.1446  1.2532 -0.0525
 3184SOL     OW21184   2.702   0.947   8.711  0.0082 -0.2135 -0.2298
 3184SOL    HW121185   2.663   1.033   8.728 -1.0692 -0.7682  0.0555
 3184SOL    HW221186   2.665   0.901   8.635 -2.8328  2.4678 -0.4747
 3185SOL     OW21187   3.440   2.394   7.931  0.1254  0.0459  0.1854
 3185SOL    HW121188   3.529   2.384   7.899  0.3461 -0.4496  0.9429
 3185SOL    HW221189   3.415   2.305   7.957  0.0379 -0.4095 -1.4409
 3186SOL     OW21190   1.040   4.475   8.882 -0.4505  0.7226 -0.6072
 3186SOL    HW121191   0.981   4.538   8.924  0.6415 -0.2916  2.4845
 3186SOL    HW221192   0.992   4.453   8.802 -1.8556  1.5101  0.0169
 3187SOL     OW21193   0.158   3.595   6.966  0.4951 -0.3150 -0.4804
 3187SOL    HW121194   0.177   3.507   6.934  4.1937  0.3811 -0.1080
 3187SOL    HW221195   0.075   3.621   6.924  0.1103 -1.6056 -0.5156
 3188SOL     OW21196   3.235   3.051   6.887  1.4155 -0.4015 -0.1624
 3188SOL    HW121197   3.274   3.076   6.804  1.1540  1.3238  0.2275
 3188SOL    HW221198   3.236   2.955   6.892  3.6295 -0.4452 -1.6113
 3189SOL     OW21199   0.239   0.383   4.379  0.1380 -0.7009 -0.0599
 3189SOL    HW121200   0.313   0.417   4.329 -0.0087 -0.3984 -0.0692
 3189SOL    HW221201   0.200   0.312   4.328  1.8002 -1.5640 -0.1270
 3190SOL     OW21202   1.234   1.796   7.843 -0.3002  0.3847 -0.3418
 3190SOL    HW121203   1.326   1.809   7.862 -0.0601 -1.4106 -0.3092
 3190SOL    HW221204   1.224   1.713   7.890 -0.1699  1.2904  1.3093
 3191SOL     OW21205   2.020   0.226   3.745 -0.0263 -0.1916  1.0643
 3191SOL    HW121206   1.949   0.236   3.809  1.0187  1.9023  1.8735
 3191SOL    HW221207   2.024   0.130   3.742 -2.6759 -0.2863  0.4985
 3192SOL     OW21208   3.000   2.278   7.826  0.5078  0.1911 -0.5723
 3192SOL    HW121209   2.990   2.191   7.865  0.4175  0.3608 -0.2137
 3192SOL    HW221210   2.996   2.337   7.901  1.4749  0.5259 -0.7767
 3193SOL     OW21211   3.227   1.125   8.929  0.1601  0.3067  0.1210
 3193SOL    HW121212   3.267   1.093   9.010 -0.2640 -1.8256 -0.5221
 3193SOL    HW221213   3.206   1.043   8.883 -1.6155  1.9886 -2.1034
 3194SOL     OW21214   3.409   3.157   8.449  0.6215  0.1597  0.0604
 3194SOL    HW121215   3.354   3.227   8.485  1.3178  0.2575  0.9417
 3194SOL    HW221216   3.376   3.150   8.359  1.3205  2.7470 -0.4182
 3195SOL     OW21217   3.607   4.267  12.741 -0.1321  0.0650  0.8711
 3195SOL    HW121218   3.518   4.232  12.750 -0.8892  1.8016  0.1552
 3195SOL    HW221219   3.596   4.293  12.649 -1.2611  0.2703  1.0647
 3196SOL     OW21220   0.936   1.509   6.366 -0.7908  0.0357  0.0453
 3196SOL    HW121221   0.902   1.587   6.321  1.0470  0.5781 -0.3878
 3196SOL    HW221222   0.942   1.545   6.454  0.9895 -2.1734  0.8161
 3197SOL     OW21223   1.055   1.646  15.582 -0.0410  0.0171 -0.2250
 3197SOL    HW121224   1.121   1.576  15.579 -1.3014 -1.2309  1.4008
 3197SOL    HW221225   1.107   1.723  15.560 -1.9016  0.7916 -1.7954
 3198SOL     OW21226   2.403   0.469  13.130  0.0086  0.5848  0.1195
 3198SOL    HW121227   2.481   0.524  13.132 -0.0927  0.7916 -2.4189
 3198SOL    HW221228   2.405   0.445  13.223 -0.7163 -1.0476 -0.2777
 3199SOL     OW21229   1.038   4.013  13.177  0.2918  0.7286 -0.0299
 3199SOL    HW121230   1.012   4.105  13.170 -0.5618  0.4874 -0.0152
 3199SOL    HW221231   1.068   4.016  13.268  0.2564 -1.5279  0.0385
 3200SOL     OW21232   1.398   4.627   6.140  0.3939 -0.3646 -0.5416
 3200SOL    HW121233   1.420   4.676   6.061 -0.5956 -0.8302 -1.1026
 3200SOL    HW221234   1.304   4.618   6.122 -0.0071  2.7079 -0.0611
 3201SOL     OW21235   3.577   0.679   2.888 -0.4541 -0.3678 -0.1204
 3201SOL    HW121236   3.541   0.763   2.915  1.4308  0.0698  1.0173
 3201SOL    HW221237   3.658   0.677   2.940  0.2807  1.2213 -1.2386
 3202SOL     OW21238   1.787   0.611   4.824  0.2358 -0.2864 -0.5117
 3202SOL    HW121239   1.819   0.521   4.823 -0.4471 -0.5306 -0.4092
 3202SOL    HW221240   1.829   0.649   4.901  0.5084 -2.2801  0.3198
 3203SOL     OW21241   0.605   3.569   6.040  0.1687  0.3074  0.0492
 3203SOL    HW121242   0.518   3.535   6.056  0.0350 -0.1493 -1.7395
 3203SOL    HW221243   0.658   3.502   6.083 -0.8322 -1.2590 -1.2074
 3204SOL     OW21244   3.731   3.757   4.222  0.1748  0.2246  0.2861
 3204SOL    HW121245   3.731   3.849   4.252  2.2194  1.2810 -3.0806
 3204SOL    HW221246   3.788   3.721   4.290  0.2655  0.0903  0.1365
 3205SOL     OW21247   3.349   0.613   5.480  0.8255  0.1136 -0.3593
 3205SOL    HW121248   3.323   0.569   5.399  0.7153 -0.0870 -0.2157
 3205SOL    HW221249   3.403   0.543   5.516 -0.7207 -0.3208  1.0952
 3206SOL     OW21250   1.892   2.655   1.223 -0.0774 -0.7143 -0.0092
 3206SOL    HW121251   1.806   2.618   1.241  0.4708 -2.0731 -0.1546
 3206SOL    HW221252   1.867   2.745   1.201 -1.3102 -1.7879 -3.0804
 3207SOL     OW21253   1.604   1.554  12.538  0.6240  0.1462 -0.0531
 3207SOL    HW121254   1.670   1.545  12.468  0.9450  0.3404  0.2261
 3207SOL    HW221255   1.656   1.513  12.607  0.6599  0.6146  0.1990
 3208SOL     OW21256   2.623   4.269   3.936  0.3612 -0.3110 -0.0066
 3208SOL    HW121257   2.556   4.337   3.934 -0.4632 -1.1252 -0.3911
 3208SOL    HW221258   2.576   4.200   3.983 -0.0037  1.0213  1.5625
 3209SOL     OW21259   4.044   1.768   3.336 -0.2585 -0.2082  0.3334
 3209SOL    HW121260   3.994   1.733   3.261  0.7277 -1.4853  0.2628
 3209SOL    HW221261   4.115   1.799   3.279 -0.2015 -1.4732 -0.3008
 3210SOL     OW21262   1.359   2.346  12.233  0.4506  0.3898 -0.4535
 3210SOL    HW121263   1.385   2.407  12.302  1.0742  1.1422 -1.3534
 3210SOL    HW221264   1.296   2.295  12.284  0.9501  2.3271  2.0722
 3211SOL     OW21265   0.510   0.772   6.232 -0.8214  0.1121 -0.2240
 3211SOL    HW121266   0.458   0.692   6.221 -0.5460  0.0128 -0.8177
 3211SOL    HW221267   0.565   0.743   6.305 -0.0089  1.0723 -0.4535
 3212SOL     OW21268   2.046   1.735   5.514  0.2277 -0.7409 -0.2565
 3212SOL    HW121269   2.002   1.652   5.496  0.5792 -1.0649  0.3794
 3212SOL    HW221270   1.970   1.779   5.554 -1.9594 -3.9901 -0.8554
 3213SOL     OW21271   1.279   4.298   4.080 -0.0383 -0.2910  0.3188
 3213SOL    HW121272   1.214   4.319   4.147 -0.5590 -1.4405  0.1852
 3213SOL    HW221273   1.349   4.362   4.091 -1.3860  1.0652  0.8805
 3214SOL     OW21274   2.849   2.100  17.654 -0.0884  0.3531  0.1093
 3214SOL    HW121275   2.930   2.061  17.687 -0.4062  1.3165  2.0061
 3214SOL    HW221276   2.859   2.081  17.560 -0.0680  1.2314 -0.0602
 3215SOL     OW21277   4.475   3.051   2.475  0.0311  0.2690  0.0784
 3215SOL    HW121278   4.435   2.967   2.496 -0.5758  0.3293 -0.8018
 3215SOL    HW221279   4.519   3.069   2.558 -0.0434  0.3654  0.0978
 3216SOL     OW21280   2.459   1.679   3.476 -0.0132  0.1686  0.4594
 3216SOL    HW121281   2.500   1.639   3.400  1.4638  0.1913  1.2444
 3216SOL    HW221282   2.405   1.607   3.507 -0.6614  1.1351  1.6057
 3217SOL     OW21283   3.440   2.472   8.931  0.1089 -0.2541 -0.4816
 3217SOL    HW121284   3.414   2.383   8.957 -0.1189  0.0384  0.2996
 3217SOL    HW221285   3.360   2.523   8.918 -0.1257 -0.6712 -0.6634
 3218SOL     OW21286   3.225   1.932   9.320  0.3093  0.5922  0.0700
 3218SOL    HW121287   3.133   1.905   9.330  0.6319 -0.7870 -0.7292
 3218SOL    HW221288   3.230   1.900   9.230 -0.8176  0.6003 -0.0053
 3219SOL     OW21289   4.212   1.695   7.047 -0.4600 -0.1038 -0.0216
 3219SOL    HW121290   4.124   1.672   7.016  1.0027 -0.1583 -4.0525
 3219SOL    HW221291   4.268   1.623   7.019  0.0422 -0.4385  1.8409
 3220SOL     OW21292   4.345   1.790   9.177  0.0359  0.0087 -0.3691
 3220SOL    HW121293   4.330   1.731   9.251  2.4422  1.3101  1.1722
 3220SOL    HW221294   4.368   1.722   9.114 -1.2872 -1.2844  0.5544
 3221SOL     OW21295   3.256   0.207  10.778  0.4188 -0.0427  0.6130
 3221SOL    HW121296   3.193   0.225  10.849  0.7569 -0.5605  1.0455
 3221SOL    HW221297   3.210   0.245  10.704  1.4058 -0.6333 -0.2970
 3222SOL     OW21298   1.038   3.066   2.675  0.1181 -0.0581 -0.3702
 3222SOL    HW121299   0.967   3.010   2.707  0.4020  0.7041  1.6165
 3222SOL    HW221300   1.053   3.121   2.752 -1.5435  1.1452 -0.9014
 3223SOL     OW21301   3.012   3.627   5.287  0.0311  0.3745 -0.0222
 3223SOL    HW121302   3.082   3.574   5.248 -1.3242 -2.3927  1.2702
 3223SOL    HW221303   3.050   3.668   5.364  1.0543 -1.8028  0.6381
 3224SOL     OW21304   1.684   0.537   9.116 -0.5225 -0.2608 -0.9235
 3224SOL    HW121305   1.680   0.458   9.063 -0.1832 -0.9120 -0.0001
 3224SOL    HW221306   1.683   0.598   9.043 -1.0153 -0.1693 -0.8403
 3225SOL     OW21307   3.899   3.217   3.828 -0.3627 -0.0791 -0.5477
 3225SOL    HW121308   3.820   3.162   3.826 -0.1396 -0.4541  0.7311
 3225SOL    HW221309   3.957   3.183   3.896 -0.2871 -3.3957 -2.2606
 3226SOL     OW21310   3.518   1.384   6.902 -0.2695 -0.3726 -0.3783
 3226SOL    HW121311   3.527   1.424   6.989  1.9148 -0.9136 -0.3692
 3226SOL    HW221312   3.568   1.305   6.921  0.1521 -0.4975 -2.0478
 3227SOL     OW21313   4.414   1.205   5.792  0.3360 -0.0581  0.3614
 3227SOL    HW121314   4.436   1.138   5.728 -0.2279 -0.7566  0.8935
 3227SOL    HW221315   4.373   1.272   5.738 -0.6595 -1.6595 -0.8849
 3228SOL     OW21316   2.748   0.522  14.898  0.7072  0.1553  0.3097
 3228SOL    HW121317   2.741   0.567  14.982  2.8098  0.8421  0.1264
 3228SOL    HW221318   2.695   0.443  14.909 -0.6940  0.9373 -0.8339
 3229SOL     OW21319   3.820   1.762   0.363 -0.3855  0.2616  0.3724
 3229SOL    HW121320   3.728   1.743   0.380 -0.6607  1.5345  0.2634
 3229SOL    HW221321   3.827   1.841   0.416 -2.6510  0.2594  0.6523
 3230SOL     OW21322   0.761   1.091   7.861 -0.3422  0.4119 -0.6613
 3230SOL    HW121323   0.842   1.041   7.856 -0.1444  0.6756 -0.1368
 3230SOL    HW221324   0.736   1.079   7.953  0.4203  0.9222 -0.3861
 3231SOL     OW21325   1.023   3.723   6.912  0.5080  0.2808 -0.5251
 3231SOL    HW121326   0.991   3.812   6.927  2.4541  0.8971 -0.0390
 3231SOL    HW221327   1.101   3.743   6.861  0.3332 -1.3784 -1.4186
 3232SOL     OW21328   2.797   2.747  11.165  0.2679  0.0417  0.3210
 3232SOL    HW121329   2.824   2.690  11.237  4.4152  1.5826 -0.0026
 3232SOL    HW221330   2.785   2.835  11.200 -0.3331  0.0701  0.0471
 3233SOL     OW21331   0.799   3.869   5.092  0.3639 -0.1340 -0.6422
 3233SOL    HW121332   0.797   3.921   5.172  0.4348  1.3662 -1.6281
 3233SOL    HW221333   0.811   3.939   5.028 -2.1137  0.5911 -0.3023
 3234SOL     OW21334   1.489   0.671  13.048  0.2832  0.0321  0.0758
 3234SOL    HW121335   1.577   0.665  13.085  0.0705 -0.9893  0.4124
 3234SOL    HW221336   1.431   0.676  13.124 -2.0999  0.3004 -1.7443
 3235SOL     OW21337   2.546   3.618  12.617 -0.1040 -0.5866  0.3401
 3235SOL    HW121338   2.562   3.547  12.679  0.7636 -0.1857  0.5792
 3235SOL    HW221339   2.505   3.682  12.676  2.4265 -0.5427  2.0127
 3236SOL     OW21340   2.920   3.210   1.083  0.7719 -0.1122  0.1718
 3236SOL    HW121341   2.874   3.164   1.013  2.1420 -1.6750  0.3081
 3236SOL    HW221342   2.984   3.251   1.025  0.6706 -2.2245 -1.3979
 3237SOL     OW21343   2.048   1.532  16.233 -1.1572  0.3994 -0.0520
 3237SOL    HW121344   2.096   1.530  16.315 -1.9219  0.1670  0.3954
 3237SOL    HW221345   2.072   1.620  16.204  1.0462  0.1789  1.1150
 3238SOL     OW21346   1.171   2.136   4.265  0.0233 -0.2490 -0.3136
 3238SOL    HW121347   1.205   2.200   4.327  3.5575 -0.4017 -2.1060
 3238SOL    HW221348   1.139   2.187   4.190  0.5281  0.0187 -0.3436
 3239SOL     OW21349   0.176   2.307   3.851 -0.0936 -0.7763 -0.2395
 3239SOL    HW121350   0.269   2.304   3.872  0.0253  3.1760 -0.0905
 3239SOL    HW221351   0.176   2.219   3.815  1.9514  0.6193 -3.7182
 3240SOL     OW21352   2.259   2.548   1.505 -0.2880 -0.2690 -0.0932
 3240SOL    HW121353   2.288   2.634   1.474  0.1580 -0.5517 -0.4577
 3240SOL    HW221354   2.179   2.553   1.454 -0.5260 -3.2849  0.0296
 3241SOL     OW21355   2.364   1.443   5.561  0.7675  0.1252 -0.3137
 3241SOL    HW121356   2.424   1.376   5.592  1.7513  1.0617 -0.1948
 3241SOL    HW221357   2.376   1.511   5.628  1.5458 -1.8539  1.5510
 3242SOL     OW21358   4.100   2.733   9.472  0.8891 -0.2955  0.3218
 3242SOL    HW121359   4.070   2.807   9.527  1.8384  0.6001 -0.3713
 3242SOL    HW221360   4.154   2.771   9.403 -0.5784  0.2472 -0.5498
 3243SOL     OW21361   1.663   1.608  11.985 -0.6367  0.8757  0.4632
 3243SOL    HW121362   1.587   1.666  11.994 -2.6947 -1.6996 -0.3911
 3243SOL    HW221363   1.634   1.553  11.912  1.2483 -0.4458  0.7208
 3244SOL     OW21364   0.605   4.128   2.033  0.5679 -0.0420  0.0736
 3244SOL    HW121365   0.697   4.122   2.059  1.1614  1.1480 -1.7275
 3244SOL    HW221366   0.597   4.223   2.032  3.6199  0.2369  1.6250
 3245SOL     OW21367   0.754   4.460   7.418 -0.2241  0.5408  0.3985
 3245SOL    HW121368   0.746   4.417   7.333  0.6278  0.4707  0.3499
 3245SOL    HW221369   0.724   4.549   7.398  2.2836  1.3467  0.2556
 3246SOL     OW21370   3.443   0.455   6.768 -0.3431 -0.1176 -0.7754
 3246SOL    HW121371   3.398   0.373   6.787 -0.6414  0.5596  1.4633
 3246SOL    HW221372   3.424   0.502   6.849  2.9460 -0.2449  0.0752
 3247SOL     OW21373   3.451   1.166  13.098 -0.3755  0.2752 -0.0932
 3247SOL    HW121374   3.498   1.248  13.111 -0.9475  0.5834  0.0521
 3247SOL    HW221375   3.383   1.167  13.165  0.0570  0.3783  0.3395
 3248SOL     OW21376   0.621   1.329   0.227  0.3692 -0.5271 -0.3446
 3248SOL    HW121377   0.558   1.308   0.159  1.0881 -1.9858 -0.5495
 3248SOL    HW221378   0.569   1.347   0.306 -0.2105 -0.7610 -0.6752
 3249SOL     OW21379   0.489   1.631   9.390 -0.5514  0.2683  0.2474
 3249SOL    HW121380   0.498   1.645   9.484  0.0802 -1.4073  0.4459
 3249SOL    HW221381   0.396   1.607   9.396 -0.5941 -0.0364 -1.5730
 3250SOL     OW21382   4.364   0.765  10.172 -0.5283  0.0245  0.0808
 3250SOL    HW121383   4.365   0.708  10.096 -2.2036 -1.7595  1.3962
 3250SOL    HW221384   4.449   0.739  10.205 -0.1841  0.0206 -0.8060
 3251SOL     OW21385   3.232   2.763  13.797  0.1103  0.0402 -0.4475
 3251SOL    HW121386   3.166   2.783  13.863  0.7736  1.8592 -0.3537
 3251SOL    HW221387   3.260   2.851  13.773  0.3801 -0.5043 -2.1160
 3252SOL     OW21388   0.139   4.040   3.182  0.4533  0.0130  0.1189
 3252SOL    HW121389   0.133   3.988   3.102 -1.0124  2.6271 -1.4926
 3252SOL    HW221390   0.220   4.089   3.169  0.0730  0.8419  0.8218
 3253SOL     OW21391   4.333   2.657   3.429 -0.1671 -0.0768 -0.2364
 3253SOL    HW121392   4.390   2.650   3.353 -0.7962 -2.0329 -0.5182
 3253SOL    HW221393   4.354   2.746   3.459 -1.5758  0.3534 -0.5392
 3254SOL     OW21394   0.208   2.232   3.125 -0.0055  0.0241  0.0822
 3254SOL    HW121395   0.116   2.240   3.151  0.5578  0.5525  1.9638
 3254SOL    HW221396   0.235   2.152   3.170 -3.0849 -0.9106  0.2410
 3255SOL     OW21397   3.089   0.125   8.017  0.1553  0.6678 -0.7040
 3255SOL    HW121398   3.144   0.107   7.941 -0.7713 -2.1177 -0.7172
 3255SOL    HW221399   3.012   0.165   7.977  1.2013  3.1991 -0.1795
 3256SOL     OW21400   2.267   3.204   4.160 -0.2553 -0.4799 -0.1715
 3256SOL    HW121401   2.201   3.268   4.134  1.7507  1.9905  0.8098
 3256SOL    HW221402   2.327   3.210   4.086 -1.3658  1.3402 -0.9064
 3257SOL     OW21403   1.097   2.696   6.145  0.4909  0.5153 -0.1798
 3257SOL    HW121404   1.122   2.706   6.053  2.0606 -0.6317  0.1230
 3257SOL    HW221405   1.017   2.643   6.142  0.3815  0.5654  2.4038
 3258SOL     OW21406   0.317   1.594   4.477 -0.1941  0.0901 -0.6454
 3258SOL    HW121407   0.285   1.542   4.551  1.6009  1.6008  1.2029
 3258SOL    HW221408   0.407   1.571   4.456  0.2635 -0.1533  1.5753
 3259SOL     OW21409   1.426   0.110   5.971 -0.0734  0.0405 -0.1672
 3259SOL    HW121410   1.337   0.115   5.936  1.1493  0.9261 -3.1584
 3259SOL    HW221411   1.466   0.108   5.884  2.1436 -0.9546  0.8727
 3260SOL     OW21412   2.306   0.827  13.474  0.0456  0.2287 -0.4139
 3260SOL    HW121413   2.352   0.904  13.506 -0.6142  0.2274  0.5661
 3260SOL    HW221414   2.294   0.770  13.550  1.4699 -0.1555 -0.4852
 3261SOL     OW21415   3.920   2.091   3.408 -0.4753 -0.0516 -0.6182
 3261SOL    HW121416   3.962   2.006   3.397 -0.6544 -0.3753  1.1586
 3261SOL    HW221417   3.997   2.145   3.388 -0.1918 -0.9393 -1.9224
 3262SOL     OW21418   2.470   1.720   3.001 -0.5284 -0.5588 -0.2728
 3262SOL    HW121419   2.521   1.669   3.064  0.4555  0.5748 -0.1552
 3262SOL    HW221420   2.381   1.708   3.033 -0.4201 -0.3882  0.0826
 3263SOL     OW21421   2.467   2.641  10.268 -0.1757 -0.5787 -0.0667
 3263SOL    HW121422   2.384   2.660  10.310 -0.1461 -0.2254 -0.1669
 3263SOL    HW221423   2.453   2.685  10.184  0.8899  0.3415  0.2491
 3264SOL     OW21424   1.751   4.328   9.565 -0.6693 -0.2829  0.3942
 3264SOL    HW121425   1.776   4.420   9.577  0.2680 -0.4810 -0.0749
 3264SOL    HW221426   1.742   4.316   9.471 -0.3415  1.8687  0.0707
 3265SOL     OW21427   2.376   0.992   0.777 -0.2495 -0.0869  0.3488
 3265SOL    HW121428   2.428   1.062   0.816  1.4693  0.5121 -3.0398
 3265SOL    HW221429   2.319   1.047   0.723  1.6458  1.8289  0.3359
 3266SOL     OW21430   3.616   3.884  11.681 -0.1728  0.0625 -0.2863
 3266SOL    HW121431   3.569   3.801  11.673  0.7057 -0.3249 -1.3150
 3266SOL    HW221432   3.557   3.940  11.630  0.6292  0.0708 -1.1975
 3267SOL     OW21433   1.795   3.520   6.475  0.2053 -0.0591 -0.1417
 3267SOL    HW121434   1.747   3.489   6.552  0.8147  0.8767  0.6187
 3267SOL    HW221435   1.737   3.510   6.400  1.0614 -1.9999 -0.5390
 3268SOL     OW21436   3.710   0.273  17.494 -0.0908 -0.8208  0.1098
 3268SOL    HW121437   3.753   0.348  17.535  0.7185  0.3793 -2.9265
 3268SOL    HW221438   3.658   0.240  17.568  0.0530 -0.1215  0.5224
 3269SOL     OW21439   4.060   2.557   3.413  0.5176  0.1840  0.3846
 3269SOL    HW121440   4.091   2.477   3.372  1.3364  1.2493 -1.0766
 3269SOL    HW221441   4.142   2.605   3.408 -0.6127  2.4175  3.2154
 3270SOL     OW21442   0.611   2.486   3.022  0.1563  0.2879 -0.4448
 3270SOL    HW121443   0.628   2.416   2.960 -0.6764  0.3546 -0.7432
 3270SOL    HW221444   0.517   2.474   3.036  0.4644 -0.9434  0.6006
 3271SOL     OW21445   3.115   1.722   0.770 -0.3683  0.3736 -0.4876
 3271SOL    HW121446   3.039   1.719   0.829  0.0918 -1.8301  0.0239
 3271SOL    HW221447   3.134   1.815   0.767 -0.9374  0.5158  0.1565
 3272SOL     OW21448   1.591   3.461   4.750 -0.4994  0.2545 -0.4337
 3272SOL    HW121449   1.570   3.529   4.814  0.2727  0.3255 -0.2554
 3272SOL    HW221450   1.658   3.418   4.802 -1.7610 -2.0228 -0.6872
 3273SOL     OW21451   0.268   0.315  10.746 -0.2423  0.4219 -0.4429
 3273SOL    HW121452   0.252   0.224  10.773  2.7979  0.1216  0.3264
 3273SOL    HW221453   0.362   0.307  10.763 -0.3951 -2.2214 -0.7432
 3274SOL     OW21454   1.117   4.565  11.077  0.7236  0.1297 -0.0429
 3274SOL    HW121455   1.105   4.472  11.092 -2.0280  0.3795 -0.6351
 3274SOL    HW221456   1.159   4.591  11.159 -1.7156  0.2549  1.1801
 3275SOL     OW21457   0.923   2.503   1.288  0.4163 -0.5741 -0.0724
 3275SOL    HW121458   0.988   2.557   1.333 -0.5672  0.2250  0.4168
 3275SOL    HW221459   0.876   2.455   1.356 -0.0758  0.8987  0.6523
 3276SOL     OW21460   2.122   0.773   8.325  0.6622 -0.4231 -0.0877
 3276SOL    HW121461   2.083   0.811   8.246 -0.0993 -0.8873  0.0653
 3276SOL    HW221462   2.129   0.852   8.379 -0.8349  0.3551 -1.0519
 3277SOL     OW21463   2.534   4.406   3.441 -0.0277  0.2092  0.3869
 3277SOL    HW121464   2.545   4.333   3.381 -0.6899 -1.6680  2.5553
 3277SOL    HW221465   2.488   4.476   3.395  0.9136 -0.6183 -1.8352
 3278SOL     OW21466   2.844   0.434   7.012  0.3833 -0.1951 -0.4370
 3278SOL    HW121467   2.938   0.420   7.017  0.3250 -0.4582 -0.1208
 3278SOL    HW221468   2.817   0.423   7.103  0.1220 -1.7929 -0.7148
 3279SOL     OW21469   1.059   0.602   2.725  0.3354  0.6437  0.3875
 3279SOL    HW121470   1.096   0.558   2.801  0.6911  0.5192  0.1428
 3279SOL    HW221471   0.964   0.603   2.734  0.4286  0.1587  1.4207
 3280SOL     OW21472   4.393   3.333   4.833 -0.0148  0.2300 -0.3010
 3280SOL    HW121473   4.347   3.262   4.877 -0.5022  0.4144 -0.5086
 3280SOL    HW221474   4.356   3.317   4.747 -2.0133 -0.0009  0.6159
 3281SOL     OW21475   1.298   1.365   7.653 -0.4472  0.4891  0.2257
 3281SOL    HW121476   1.265   1.403   7.735  1.3396  0.9749  0.7101
 3281SOL    HW221477   1.237   1.399   7.588 -0.6137  0.0424  0.1463
 3282SOL     OW21478   3.091   0.159   4.229  0.4625  0.3194 -0.0938
 3282SOL    HW121479   3.088   0.067   4.204  0.8590  0.8482 -2.1172
 3282SOL    HW221480   3.058   0.173   4.318 -0.1114 -1.8943  0.0376
 3283SOL     OW21481   2.826   1.345   5.956 -0.0273 -0.5096 -0.0641
 3283SOL    HW121482   2.812   1.440   5.949 -0.3680 -0.5330  0.2818
 3283SOL    HW221483   2.871   1.332   6.039  0.6686 -0.7898 -0.4859
 3284SOL     OW21484   3.987   1.848  16.373 -0.5622 -0.8034  0.1334
 3284SOL    HW121485   3.893   1.860  16.388  0.0834  1.6777  2.0690
 3284SOL    HW221486   3.993   1.795  16.293 -0.1987  0.3297 -0.5889
 3285SOL     OW21487   3.037   1.442  16.410  0.4974  0.5646 -0.0756
 3285SOL    HW121488   2.998   1.370  16.460 -0.9638  0.4206 -1.4241
 3285SOL    HW221489   3.127   1.410  16.412  1.1702  2.5630  2.3385
 3286SOL     OW21490   0.784   0.642  11.841 -0.5399  0.3176  0.1534
 3286SOL    HW121491   0.802   0.618  11.932 -0.3814 -0.6641 -0.1425
 3286SOL    HW221492   0.701   0.689  11.848 -0.8805 -0.3776  0.7200
 3287SOL     OW21493   2.010   1.846   2.955 -0.0117 -0.2527  0.7288
 3287SOL    HW121494   2.005   1.911   2.885 -0.6975 -2.5585 -1.3419
 3287SOL    HW221495   1.976   1.908   3.020  1.2301  0.7765  0.3765
 3288SOL     OW21496   2.052   3.390  15.199 -0.1849 -0.0460 -0.1533
 3288SOL    HW121497   1.995   3.362  15.128 -0.0852  1.7585 -0.9494
 3288SOL    HW221498   1.983   3.406  15.263 -0.6375  0.5321 -0.7909
 3289SOL     OW21499   1.870   2.120   3.619 -0.3329 -0.7627 -0.5855
 3289SOL    HW121500   1.913   2.177   3.555  1.5559 -0.2727  1.1294
 3289SOL    HW221501   1.925   2.043   3.606  0.6619 -0.1299 -0.1192
 3290SOL     OW21502   2.255   4.415  16.406  0.4288  0.5525 -0.8571
 3290SOL    HW121503   2.200   4.454  16.339 -0.8724 -1.2605 -0.8614
 3290SOL    HW221504   2.263   4.327  16.368 -1.6357 -0.2613  0.6325
 3291SOL     OW21505   3.553   2.031   4.930 -0.2788  0.1009  0.2169
 3291SOL    HW121506   3.499   2.110   4.926  1.5524  1.4527  2.2604
 3291SOL    HW221507   3.491   1.969   4.969 -1.4124  0.4351 -1.0411
 3292SOL     OW21508   0.511   0.751   9.128 -0.1249  0.1965  0.5432
 3292SOL    HW121509   0.493   0.664   9.091  1.5649  1.3412 -3.0027
 3292SOL    HW221510   0.435   0.802   9.100  1.4028  2.1080 -0.1316
 3293SOL     OW21511   3.257   0.993  14.388 -0.1586  0.1278 -0.0437
 3293SOL    HW121512   3.222   1.035  14.310  1.6562 -0.3986 -1.1537
 3293SOL    HW221513   3.193   0.923  14.401  1.2165 -1.4110 -1.5168
 3294SOL     OW21514   0.199   2.012  12.214 -0.3199 -0.7153  0.2417
 3294SOL    HW121515   0.248   2.007  12.132  1.4887 -0.2090  1.3020
 3294SOL    HW221516   0.109   1.994  12.187 -0.0700 -0.5049 -0.7254
 3295SOL     OW21517   4.585   2.224  17.694 -0.3013 -0.1503 -0.2601
 3295SOL    HW121518   4.647   2.151  17.690 -2.0963 -1.7092  0.3397
 3295SOL    HW221519   4.537   2.207  17.612  0.5409 -1.5051 -0.4722
 3296SOL     OW21520   1.480   3.459   2.794  0.1597  0.8200  0.0480
 3296SOL    HW121521   1.499   3.370   2.824 -2.4075 -0.0485 -0.9382
 3296SOL    HW221522   1.533   3.516   2.850  1.1661  0.0920 -0.1671
 3297SOL     OW21523   0.475   3.882   1.317 -0.0923  0.0207  0.2607
 3297SOL    HW121524   0.523   3.860   1.396 -0.2794  0.8159  0.5909
 3297SOL    HW221525   0.414   3.944   1.357  0.6666  0.9135  0.0208
 3298SOL     OW21526   2.422   1.541   8.659 -0.2976 -0.0750 -0.6969
 3298SOL    HW121527   2.368   1.464   8.643 -0.2530 -0.0049 -1.1893
 3298SOL    HW221528   2.402   1.574   8.747  1.0080 -2.6660  0.5680
 3299SOL     OW21529   3.286   0.585   4.563  0.1306  0.0164  0.0977
 3299SOL    HW121530   3.296   0.501   4.519  0.4784  0.0418  0.1292
 3299SOL    HW221531   3.195   0.604   4.540 -0.3242 -2.1472  0.1999
 3300SOL     OW21532   1.319   3.083  11.311 -0.3530  0.0803  0.2210
 3300SOL    HW121533   1.342   2.990  11.320  1.2797  0.5755  1.1549
 3300SOL    HW221534   1.347   3.097  11.221  1.0049  0.9562  0.7814
 3301SOL     OW21535   2.142   3.816   0.124 -0.3127 -0.9468  0.0468
 3301SOL    HW121536   2.095   3.750   0.175  1.6040 -0.6799  2.1325
 3301SOL    HW221537   2.077   3.886   0.114  2.6020  1.4756 -2.0378
 3302SOL     OW21538   3.591   0.474   9.811  0.2045  0.1097 -0.7521
 3302SOL    HW121539   3.639   0.549   9.777  2.2738  1.0705  4.2283
 3302SOL    HW221540   3.661   0.409   9.807  0.4193  0.2678  0.4866
 3303SOL     OW21541   4.262   2.965   4.195  0.5690 -0.3569  0.6055
 3303SOL    HW121542   4.280   2.953   4.288  0.9485 -0.2852  0.5435
 3303SOL    HW221543   4.281   3.059   4.185 -2.8514 -0.0093 -2.7510
 3304SOL     OW21544   0.455   0.388   3.350  0.0273 -0.4352  0.3913
 3304SOL    HW121545   0.512   0.435   3.411 -0.0153  1.2203 -0.8323
 3304SOL    HW221546   0.505   0.308   3.335  0.9941  0.5604 -1.6728
 3305SOL     OW21547   2.918   3.188   4.778  0.5494  0.4219 -0.5864
 3305SOL    HW121548   2.911   3.225   4.866  1.0724 -1.3205  0.1715
 3305SOL    HW221549   2.978   3.115   4.792 -1.7416 -1.9176 -2.9049
 3306SOL     OW21550   0.630   4.378  17.152  0.4328 -0.1580  0.0830
 3306SOL    HW121551   0.599   4.450  17.207  1.7380  0.9717 -0.6694
 3306SOL    HW221552   0.690   4.434  17.103  0.6493  0.2068  0.7568
 3307SOL     OW21553   4.524   4.294   5.094 -0.0602 -0.1228  0.5326
 3307SOL    HW121554   4.474   4.375   5.099  2.8278  1.5994  1.6151
 3307SOL    HW221555   4.463   4.240   5.145 -3.1862  1.6956 -1.3661
 3308SOL     OW21556   3.158   4.539   8.956  0.1907 -0.2320 -1.2134
 3308SOL    HW121557   3.177   4.610   9.018 -0.4626 -1.4620  0.4008
 3308SOL    HW221558   3.191   4.585   8.879  1.1035 -0.1693 -0.7904
 3309SOL     OW21559   0.409   2.694  11.496  0.6269 -0.2039  0.0887
 3309SOL    HW121560   0.360   2.701  11.414  1.3557  0.1807 -0.3110
 3309SOL    HW221561   0.493   2.662  11.463  0.1039 -0.4467 -1.0114
 3310SOL     OW21562   3.644   1.379  12.867  0.2109 -0.0369 -0.2827
 3310SOL    HW121563   3.600   1.304  12.828  0.3019 -0.4926  0.4887
 3310SOL    HW221564   3.571   1.411  12.920 -0.4645 -2.0304 -0.0126
 3311SOL     OW21565   0.685   2.778  17.653 -0.0903 -0.2947 -0.6188
 3311SOL    HW121566   0.661   2.808   0.010  3.9359 -0.2758  0.5216
 3311SOL    HW221567   0.657   2.686  17.655  2.6866 -1.1348  0.7411
 3312SOL     OW21568   2.614   1.007   3.173  0.2597  0.2675  0.3343
 3312SOL    HW121569   2.672   0.944   3.216  0.1997 -1.4083 -2.0637
 3312SOL    HW221570   2.562   1.036   3.248 -0.0269  0.8341 -0.0794
 3313SOL     OW21571   0.291   4.085   1.463 -0.1284 -0.4747  0.1413
 3313SOL    HW121572   0.220   4.133   1.506  1.8666  0.4819  2.3312
 3313SOL    HW221573   0.281   4.009   1.521  1.0358  0.4524  1.5323
 3314SOL     OW21574   3.096   1.422   0.389 -0.1144 -0.6122  0.1907
 3314SOL    HW121575   3.144   1.440   0.470  0.9552 -0.9921 -0.3640
 3314SOL    HW221576   3.115   1.509   0.352 -0.4883 -0.9895 -0.8707
 3315SOL     OW21577   4.264   4.045   6.022  0.6083  0.3520  0.6135
 3315SOL    HW121578   4.285   4.121   5.967 -0.7651  0.8580  0.7652
 3315SOL    HW221579   4.275   3.973   5.960 -0.3480  1.0303 -0.3462
 3316SOL     OW21580   1.644   0.460   1.479 -0.0683  0.0785 -0.0759
 3316SOL    HW121581   1.619   0.497   1.394  0.9196  1.6584  0.3222
 3316SOL    HW221582   1.715   0.398   1.460  0.0567  0.1614  0.1278
 3317SOL     OW21583   3.357   0.259  13.508 -0.9653 -0.2760  0.1492
 3317SOL    HW121584   3.357   0.340  13.557  2.4898 -0.5399  0.5661
 3317SOL    HW221585   3.302   0.283  13.433  0.1886 -0.4670 -0.7642
 3318SOL     OW21586   3.337   4.402   2.882 -0.7659 -0.5171  0.2270
 3318SOL    HW121587   3.307   4.418   2.972 -0.4747  2.0437 -0.1205
 3318SOL    HW221588   3.392   4.480   2.868  0.6804 -1.5914 -0.0524
 3319SOL     OW21589   4.356   3.764   2.782  0.2886 -0.7579 -0.2096
 3319SOL    HW121590   4.440   3.724   2.804  0.6842  0.0155 -0.3228
 3319SOL    HW221591   4.328   3.718   2.702 -3.3151 -0.9332  1.1437
 3320SOL     OW21592   1.432   2.603  15.416 -0.3100  0.4849 -0.3966
 3320SOL    HW121593   1.367   2.659  15.459 -2.1867 -2.2959  0.3978
 3320SOL    HW221594   1.494   2.671  15.389  0.9702 -0.2364  0.7432
 3321SOL     OW21595   1.858   3.094   3.286  0.1263  0.5880 -0.1278
 3321SOL    HW121596   1.922   3.165   3.282  0.0557  0.7654  1.7291
 3321SOL    HW221597   1.906   3.030   3.235 -1.7443 -0.7921 -0.1595
 3322SOL     OW21598   0.265   3.908   1.691 -0.1496 -0.4044 -0.4957
 3322SOL    HW121599   0.300   3.826   1.724  2.3395  0.8576  0.0244
 3322SOL    HW221600   0.301   3.965   1.760  0.2208 -1.5445  0.2498
 3323SOL     OW21601   3.635   2.138  11.278  0.5362  0.0179 -0.7834
 3323SOL    HW121602   3.599   2.050  11.261 -2.0109  0.7804  0.7101
 3323SOL    HW221603   3.725   2.131  11.247  0.8781  1.4350 -0.1115
 3324SOL     OW21604   0.601   3.602   4.750 -0.0146 -0.4747 -0.0883
 3324SOL    HW121605   0.678   3.658   4.748 -1.0886  0.9403 -1.8734
 3324SOL    HW221606   0.539   3.670   4.777 -0.9375 -0.5776 -1.9594
 3325SOL     OW21607   1.236   3.494  16.765  0.2159 -0.1112  0.1485
 3325SOL    HW121608   1.244   3.582  16.729 -0.3076 -0.1444 -0.0605
 3325SOL    HW221609   1.140   3.498  16.773  0.0842  2.8432 -3.0194
 3326SOL     OW21610   0.062   1.532   1.498 -0.1122 -0.5268  0.7085
 3326SOL    HW121611   0.135   1.576   1.542  1.3621 -1.5886 -0.6658
 3326SOL    HW221612   0.093   1.442   1.499 -0.8886 -0.7960  0.6318
 3327SOL     OW21613   1.688   0.445  12.410  0.1880 -0.0569  1.0598
 3327SOL    HW121614   1.662   0.413  12.497 -1.8018 -0.3012  0.3790
 3327SOL    HW221615   1.781   0.466  12.422  0.6008 -1.6477  0.7259
 3328SOL     OW21616   4.242   3.875  13.760  0.3131 -0.0699  0.8151
 3328SOL    HW121617   4.285   3.880  13.846 -0.3697  0.3593  1.1311
 3328SOL    HW221618   4.166   3.933  13.759  0.2377 -0.1878 -0.5413
 3329SOL     OW21619   2.774   4.471   2.288 -0.3888 -0.5426  0.0052
 3329SOL    HW121620   2.757   4.533   2.358  0.2042 -1.5630  1.0539
 3329SOL    HW221621   2.717   4.511   2.222  1.4032  1.2539 -0.4916
 3330SOL     OW21622   1.307   0.500  14.627  0.9121  0.4865 -0.3965
 3330SOL    HW121623   1.228   0.511  14.574  0.3570 -0.3737  0.2784
 3330SOL    HW221624   1.353   0.583  14.611  1.3114  0.0073 -1.7703
 3331SOL     OW21625   0.461   3.861   4.477 -0.0259  0.3399  0.1615
 3331SOL    HW121626   0.496   3.945   4.509  1.2569 -0.4135  0.7142
 3331SOL    HW221627   0.443   3.826   4.565  1.0742  1.8610  0.9885
 3332SOL     OW21628   1.135   4.458  10.780  0.2034 -0.1984 -0.4506
 3332SOL    HW121629   1.162   4.490  10.866 -2.2066  1.9567 -0.4888
 3332SOL    HW221630   1.046   4.432  10.804  0.1939  2.5124  2.4913
 3333SOL     OW21631   1.513   3.110   5.076  0.5926  0.0146  0.3338
 3333SOL    HW121632   1.536   3.185   5.131 -1.7847  0.9341  0.0883
 3333SOL    HW221633   1.443   3.072   5.131 -0.5052  1.8975  0.2440
 3334SOL     OW21634   1.058   2.559   5.774 -0.9629 -0.5498 -0.0705
 3334SOL    HW121635   1.090   2.561   5.685  0.4395  0.0827  0.4498
 3334SOL    HW221636   1.106   2.611   5.839 -1.1015  1.1086 -1.2742
 3335SOL     OW21637   1.637   1.785  13.789 -0.0961 -0.0930 -0.4800
 3335SOL    HW121638   1.577   1.846  13.831  0.4479 -0.8759  1.4167
 3335SOL    HW221639   1.653   1.823  13.703 -0.5862  0.7341 -0.1982
 3336SOL     OW21640   1.881   2.858  13.183 -0.3348 -0.3039  0.4565
 3336SOL    HW121641   1.856   2.848  13.275 -0.7396  0.5241  0.4420
 3336SOL    HW221642   1.943   2.789  13.163 -1.4122 -0.6484 -1.6674
 3337SOL     OW21643   0.212   3.141   2.200  0.0002 -0.0843 -0.1076
 3337SOL    HW121644   0.135   3.116   2.252  0.1042 -2.6029 -1.1494
 3337SOL    HW221645   0.270   3.168   2.271  1.8607  0.0166 -1.6559
 3338SOL     OW21646   1.754   1.454   3.364 -0.1698  0.7451  0.7327
 3338SOL    HW121647   1.761   1.527   3.302 -1.1927  2.8454  3.0795
 3338SOL    HW221648   1.802   1.395   3.307 -1.0238  0.0472  0.7408
 3339SOL     OW21649   3.758   3.458   1.805  0.2086 -0.3101  0.7953
 3339SOL    HW121650   3.841   3.440   1.761 -1.1616  0.0121 -1.9866
 3339SOL    HW221651   3.738   3.551   1.794 -0.0381 -0.4538 -0.0021
 3340SOL     OW21652   0.482   0.428   4.253 -0.0512 -0.8682 -0.2767
 3340SOL    HW121653   0.527   0.511   4.237 -0.8870 -0.3334  0.1351
 3340SOL    HW221654   0.479   0.390   4.166 -0.2742  0.3742 -0.8114
 3341SOL     OW21655   4.114   1.967  10.360  0.2674 -0.2002 -0.1654
 3341SOL    HW121656   4.164   1.899  10.405 -0.2505  0.0569  0.7938
 3341SOL    HW221657   4.038   1.972  10.417  0.4139 -0.7286  0.0717
 3342SOL     OW21658   2.143   4.147   4.071  0.3532 -0.5863  0.3039
 3342SOL    HW121659   2.171   4.159   3.980  0.3303  1.0794  0.5072
 3342SOL    HW221660   2.050   4.130   4.061 -0.0532  0.9027  1.4928
 3343SOL     OW21661   2.566   4.056   7.764  0.0897 -0.4845 -0.5217
 3343SOL    HW121662   2.511   4.019   7.833  0.1012 -0.6008 -0.5757
 3343SOL    HW221663   2.655   4.042   7.793  0.6883  1.5081 -1.3505
 3344SOL     OW21664   0.786   2.773   6.448  0.1213 -0.3534  0.4162
 3344SOL    HW121665   0.730   2.771   6.370 -1.5028 -0.4003  1.5700
 3344SOL    HW221666   0.742   2.849   6.486 -0.1015 -0.6106  0.6749
 3345SOL     OW21667   4.196   4.037   4.806 -0.1283  0.0169 -0.1322
 3345SOL    HW121668   4.124   3.976   4.793  0.5312 -0.9559  0.7515
 3345SOL    HW221669   4.267   3.976   4.825 -1.2555 -1.2566 -0.0408
 3346SOL     OW21670   1.219   3.350  16.317 -0.5548  0.2869  0.0262
 3346SOL    HW121671   1.310   3.373  16.338 -0.1194 -0.8517 -0.5692
 3346SOL    HW221672   1.178   3.337  16.402 -3.8188 -0.7822 -1.7167
 3347SOL     OW21673   4.701   1.465   3.337 -0.0785 -0.4835 -0.1329
 3347SOL    HW121674   4.705   1.550   3.295 -1.6446 -0.2487  0.1775
 3347SOL    HW221675   0.035   1.414   3.290 -0.2992 -1.6641  0.8214
 3348SOL     OW21676   0.427   3.234  17.584 -0.2810  0.9812 -0.0534
 3348SOL    HW121677   0.386   3.290  17.519  1.3750  2.1069 -0.1240
 3348SOL    HW221678   0.485   3.291  17.634  2.8946 -0.9009 -1.6499
 3349SOL     OW21679   1.617   4.322   4.053 -0.0815 -0.5908 -0.3174
 3349SOL    HW121680   1.564   4.372   4.115  0.2157 -1.3205  0.5176
 3349SOL    HW221681   1.587   4.368   3.975  0.7495 -0.7146 -0.7130
 3350SOL     OW21682   4.350   2.198   8.802  0.6613 -0.0710 -0.0793
 3350SOL    HW121683   4.304   2.172   8.881  1.4564  0.8830  0.6958
 3350SOL    HW221684   4.404   2.271   8.832 -1.4830  1.4613  0.0576
 3351SOL     OW21685   2.528   3.060   4.616 -0.2255 -0.0983 -0.6451
 3351SOL    HW121686   2.611   3.105   4.598 -0.2858  0.1935 -0.1986
 3351SOL    HW221687   2.557   3.015   4.695  0.0133 -1.9807 -1.8013
 3352SOL     OW21688   1.784   0.508   5.825  0.7558  0.0091 -0.0362
 3352SOL    HW121689   1.718   0.556   5.875  0.2565  1.6964 -2.3101
 3352SOL    HW221690   1.850   0.479   5.889 -0.3539  0.4645  1.3240
 3353SOL     OW21691   3.032   3.767   8.909 -0.3964 -0.2119  0.2354
 3353SOL    HW121692   3.094   3.827   8.868  0.7297 -0.4922  1.4883
 3353SOL    HW221693   2.948   3.790   8.870  1.3335  3.3599 -1.3749
 3354SOL     OW21694   3.923   2.933   4.975 -0.1961 -0.3654  0.1256
 3354SOL    HW121695   3.929   2.847   5.017 -1.8748 -0.8642 -0.6701
 3354SOL    HW221696   3.970   2.923   4.893 -0.5278  0.3932 -0.1552
 3355SOL     OW21697   1.867   2.312   9.445  0.0029 -0.4927 -0.4034
 3355SOL    HW121698   1.777   2.284   9.425 -0.3636 -0.9810  1.9937
 3355SOL    HW221699   1.910   2.255   9.381  1.3462  0.6224 -0.4965
 3356SOL     OW21700   3.189   0.162   6.249  0.6783 -0.0101  0.4073
 3356SOL    HW121701   3.137   0.229   6.294  1.3653  1.3454 -0.8236
 3356SOL    HW221702   3.146   0.138   6.167 -0.1098 -0.4047  0.9332
 3357SOL     OW21703   3.821   1.992  15.426 -0.1055 -0.3281  0.3200
 3357SOL    HW121704   3.787   2.052  15.492 -0.0887  0.5317 -0.4586
 3357SOL    HW221705   3.883   1.932  15.468 -0.6405 -1.4454 -0.4981
 3358SOL     OW21706   2.001   0.889  17.715  0.2755  0.0611  0.0610
 3358SOL    HW121707   2.002   0.966   0.042  2.4725  1.2431 -1.5650
 3358SOL    HW221708   2.038   0.908  17.629  0.4859 -0.1928  0.0952
 3359SOL     OW21709   0.281   2.478  12.500 -0.0220 -0.0384  0.0734
 3359SOL    HW121710   0.297   2.393  12.461 -0.1273  0.9071 -2.0471
 3359SOL    HW221711   0.226   2.446  12.572  1.1990 -0.0899  0.9843
 3360SOL     OW21712   4.268   2.046   9.042  0.4522  0.1876  0.0999
 3360SOL    HW121713   4.185   2.004   9.021  0.5491 -1.1998  2.4084
 3360SOL    HW221714   4.315   1.966   9.066 -2.0702 -1.0554  0.8600
 3361SOL     OW21715   3.578   0.768   0.561  0.2430  0.1390 -0.0071
 3361SOL    HW121716   3.668   0.792   0.538  1.2387 -0.9777  2.7399
 3361SOL    HW221717   3.570   0.834   0.629 -0.3600  1.4605 -1.3719
 3362SOL     OW21718   1.100   3.107  17.447  0.5903 -0.6486  0.3288
 3362SOL    HW121719   1.099   3.090  17.541  1.0438 -0.2738  0.4044
 3362SOL    HW221720   1.007   3.121  17.430  0.9912  0.6937 -0.7729
 3363SOL     OW21721   3.680   4.724  12.722 -0.8740 -0.4747  0.3026
 3363SOL    HW121722   3.614   0.028  12.663 -2.1337  0.6493  2.4201
 3363SOL    HW221723   3.622   4.686  12.788 -0.0311 -0.9470  0.7835
 3364SOL     OW21724   3.009   2.862   1.496  0.1678  0.3053 -0.3289
 3364SOL    HW121725   2.996   2.957   1.501  1.5278  0.4989 -0.2032
 3364SOL    HW221726   2.956   2.820   1.564  0.7517 -0.7067 -0.4936
 3365SOL     OW21727   2.863   1.626   2.330  0.0100 -0.1492 -0.3343
 3365SOL    HW121728   2.836   1.591   2.245  3.0483 -1.9445 -0.5278
 3365SOL    HW221729   2.951   1.654   2.306  0.6863 -1.6876  0.3514
 3366SOL     OW21730   0.329   1.038   2.795 -0.2532  0.2496  0.0129
 3366SOL    HW121731   0.421   1.061   2.806  0.9443 -3.2153 -2.8702
 3366SOL    HW221732   0.284   1.116   2.830 -0.2730 -0.9507  2.6963
 3367SOL     OW21733   3.344   2.786   5.723  0.5307  0.6124  0.4310
 3367SOL    HW121734   3.344   2.702   5.676 -0.6339  1.1432 -0.4939
 3367SOL    HW221735   3.252   2.811   5.715 -0.6261 -3.2457  1.7892
 3368SOL     OW21736   0.135   3.459  10.059  0.2198  0.4961 -0.1842
 3368SOL    HW121737   0.128   3.421  10.146 -0.5365  0.2837 -0.3408
 3368SOL    HW221738   0.125   3.551  10.082 -0.0494 -0.0803  2.0089
 3369SOL     OW21739   4.260   2.932  11.555 -0.6000 -0.6665 -0.2010
 3369SOL    HW121740   4.317   2.983  11.612  0.3582 -1.5050 -0.4047
 3369SOL    HW221741   4.301   2.948  11.470  2.2895 -1.1874  1.0934
 3370SOL     OW21742   1.149   4.258   3.134  0.3960 -0.0367 -0.2248
 3370SOL    HW121743   1.205   4.197   3.087  0.8315  0.8518 -0.8466
 3370SOL    HW221744   1.166   4.228   3.223 -1.8405  0.7393  0.4686
 3371SOL     OW21745   4.222   0.706   5.397  0.2850 -0.2740 -0.6272
 3371SOL    HW121746   4.194   0.795   5.420  1.8393 -0.7736  3.3102
 3371SOL    HW221747   4.149   0.678   5.343  1.2429 -0.1110 -2.0126
 3372SOL     OW21748   3.984   2.926   6.461 -0.2281  0.2645 -0.5418
 3372SOL    HW121749   3.995   3.021   6.467 -0.7757  0.2470  0.8749
 3372SOL    HW221750   3.907   2.920   6.517  0.0874  1.3427  0.0225
 3373SOL     OW21751   3.689   0.272   5.111  0.2064 -0.3415  0.5823
 3373SOL    HW121752   3.622   0.325   5.067  2.0126  1.5361  0.1118
 3373SOL    HW221753   3.666   0.293   5.201 -0.7623  0.4798  0.1439
 3374SOL     OW21754   0.999   3.182   3.189 -0.4156 -0.4183 -0.4002
 3374SOL    HW121755   0.958   3.209   3.271 -1.3718 -1.6499 -0.4646
 3374SOL    HW221756   1.030   3.095   3.216 -1.3858 -0.9335 -0.9326
 3375SOL     OW21757   1.792   3.403   3.487  0.1739  0.5438  0.1908
 3375SOL    HW121758   1.753   3.484   3.455  1.1719  0.5744 -0.9609
 3375SOL    HW221759   1.714   3.350   3.500  2.6731 -2.5886  2.4084
 3376SOL     OW21760   2.075   3.048   4.282 -0.2701  0.2794  0.0734
 3376SOL    HW121761   2.020   3.024   4.207  1.6586  0.8019 -1.5047
 3376SOL    HW221762   2.147   3.096   4.241 -0.1083  0.8659  1.0494
 3377SOL     OW21763   4.451   2.167   5.227  0.2155 -0.4818  0.7744
 3377SOL    HW121764   4.434   2.073   5.236 -0.3083 -0.4621 -0.1039
 3377SOL    HW221765   4.401   2.204   5.300  0.3315  0.8611  0.1729
 3378SOL     OW21766   3.467   4.158   2.805  0.0953  0.2830  0.4647
 3378SOL    HW121767   3.560   4.177   2.811  0.3957 -1.4616  1.3991
 3378SOL    HW221768   3.430   4.244   2.823 -1.3485 -0.6623  2.0669
 3379SOL     OW21769   0.751   4.211   2.378 -0.4314 -0.3634 -0.5714
 3379SOL    HW121770   0.675   4.158   2.401  0.3140 -1.4702 -0.6808
 3379SOL    HW221771   0.817   4.176   2.438 -0.1008  1.1628 -0.0280
 3380SOL     OW21772   0.752   0.978   8.390  0.0862 -0.2637  0.4048
 3380SOL    HW121773   0.795   0.923   8.456  0.2791  1.1709  1.4598
 3380SOL    HW221774   0.666   0.988   8.431  0.3314 -1.9234  1.3325
 3381SOL     OW21775   2.857   3.282  15.689 -0.6510 -0.3449 -0.1000
 3381SOL    HW121776   2.789   3.263  15.624 -2.3695  0.9487  1.3173
 3381SOL    HW221777   2.864   3.377  15.683 -1.7846 -0.3112 -0.9746
 3382SOL     OW21778   4.157   3.137   1.420 -0.0315 -0.2414  0.2748
 3382SOL    HW121779   4.076   3.170   1.383  0.6331 -0.4780 -1.3729
 3382SOL    HW221780   4.205   3.220   1.423 -1.2871  0.4936  0.1527
 3383SOL     OW21781   1.241   2.254   9.134 -0.1534 -0.2831 -0.0347
 3383SOL    HW121782   1.149   2.245   9.156 -0.5999  0.4776 -1.5944
 3383SOL    HW221783   1.282   2.168   9.149 -0.5919 -0.5988 -0.6740
 3384SOL     OW21784   0.956   0.205   8.556  0.4750  0.4607  0.0464
 3384SOL    HW121785   0.953   0.294   8.590 -0.5128 -0.2672  1.8943
 3384SOL    HW221786   1.049   0.196   8.534  0.6022  1.3483  0.2512
 3385SOL     OW21787   2.783   4.665   0.184  0.2405  0.0186  0.1186
 3385SOL    HW121788   2.707   4.724   0.183 -0.0688 -0.3586  1.1647
 3385SOL    HW221789   2.853   4.721   0.150 -1.0139  1.5152 -0.0093
 3386SOL     OW21790   3.030   2.947   9.568 -0.0833  0.3193 -0.3423
 3386SOL    HW121791   3.013   2.989   9.484 -0.2982 -1.3241 -1.1174
 3386SOL    HW221792   2.978   2.996   9.632 -0.7943 -0.5071 -0.2835
 3387SOL     OW21793   1.843   0.088  14.857  0.0654 -0.1185 -0.0530
 3387SOL    HW121794   1.935   0.063  14.848 -0.1162 -1.9272  2.8864
 3387SOL    HW221795   1.819   0.109  14.767  4.2847 -1.5590 -1.5282
 3388SOL     OW21796   1.369   1.378   3.646  0.2696 -0.3614  0.1760
 3388SOL    HW121797   1.291   1.373   3.590  0.5382 -0.0189 -0.2237
 3388SOL    HW221798   1.321   1.413   3.721 -1.9179 -1.1259 -0.8331
 3389SOL     OW21799   3.371   4.433   3.417  0.0328 -0.7654  0.0379
 3389SOL    HW121800   3.433   4.361   3.402 -0.8196 -1.8957  1.9615
 3389SOL    HW221801   3.393   4.450   3.508  2.2916 -0.7761 -0.5096
 3390SOL     OW21802   0.404   2.799  10.356 -0.2368 -0.8618  0.2493
 3390SOL    HW121803   0.481   2.764  10.312  2.0188  0.9626  2.7578
 3390SOL    HW221804   0.449   2.871  10.399  1.5159 -0.8458 -1.6215
 3391SOL     OW21805   1.914   1.016   0.348  0.1251 -0.1695 -0.4951
 3391SOL    HW121806   1.943   0.993   0.436  0.6502  0.7663 -0.4209
 3391SOL    HW221807   1.974   0.966   0.293 -0.8936  0.3290 -2.0464
 3392SOL     OW21808   1.864   3.590  12.863 -0.3361  0.5439  0.0483
 3392SOL    HW121809   1.844   3.609  12.771  2.5420 -0.4224 -0.7953
 3392SOL    HW221810   1.783   3.548  12.892 -0.8366  1.4318 -0.0432
 3393SOL     OW21811   3.891   4.480   6.800  0.1858 -0.2682 -0.0783
 3393SOL    HW121812   3.953   4.443   6.862 -1.0696 -3.0748 -0.4955
 3393SOL    HW221813   3.819   4.482   6.864 -0.9361 -1.8018 -1.2816
 3394SOL     OW21814   0.398   4.056   2.260  0.6367 -0.3478 -0.0849
 3394SOL    HW121815   0.365   4.142   2.287 -0.7156 -0.6223 -0.8746
 3394SOL    HW221816   0.439   4.080   2.177  1.2504  1.8760  0.8576
 3395SOL     OW21817   0.838   4.561   5.878 -0.6334 -0.4550  0.3599
 3395SOL    HW121818   0.770   4.505   5.915 -0.0732 -0.5315  1.2472
 3395SOL    HW221819   0.786   4.626   5.830  0.6504 -0.4412 -1.0039
 3396SOL     OW21820   3.927   0.295   7.721  0.3511  0.0571 -0.1638
 3396SOL    HW121821   3.963   0.378   7.690  0.5294  0.6896  1.7067
 3396SOL    HW221822   4.008   0.245   7.713 -0.2690 -1.2045  1.3942
 3397SOL     OW21823   3.946   2.367   9.620 -0.4638  0.1327  0.5285
 3397SOL    HW121824   4.017   2.415   9.578  0.6618 -2.0456 -0.0266
 3397SOL    HW221825   3.886   2.440   9.637 -0.1243  0.8971 -1.6324
 3398SOL     OW21826   0.308   0.040   1.814 -0.1541  0.0598 -0.2161
 3398SOL    HW121827   0.294   0.037   1.908 -0.4850 -0.4763 -0.2854
 3398SOL    HW221828   0.217   0.057   1.791 -0.5520 -1.2379  0.4526
 3399SOL     OW21829   0.756   3.965   1.659  0.8716  0.3450  0.0381
 3399SOL    HW121830   0.769   3.959   1.565 -0.7951  2.1569 -0.2906
 3399SOL    HW221831   0.713   3.886   1.693 -0.0377  0.8563  0.0546
 3400SOL     OW21832   3.535   0.635   3.572 -0.2513 -0.2693  0.4134
 3400SOL    HW121833   3.571   0.594   3.493  1.5044  3.3893 -0.6600
 3400SOL    HW221834   3.608   0.684   3.609 -1.3709 -0.9018  3.3931
 3401SOL     OW21835   3.764   0.676   9.655 -0.1730 -0.1298  0.1627
 3401SOL    HW121836   3.703   0.745   9.682 -2.2729 -0.9936 -2.2960
 3401SOL    HW221837   3.849   0.712   9.678 -0.9652  0.5649  2.0086
 3402SOL     OW21838   2.356   1.022   8.954 -0.0194  0.1157 -0.5650
 3402SOL    HW121839   2.429   0.981   9.000 -0.9403 -0.4500  0.4187
 3402SOL    HW221840   2.320   1.082   9.020 -1.1455  0.0960 -1.1646
 3403SOL     OW21841   1.457   2.203   2.431  0.4145  0.5650  0.5695
 3403SOL    HW121842   1.382   2.145   2.419  0.3065  0.4920  1.6634
 3403SOL    HW221843   1.458   2.202   2.526 -1.5128  1.8493  0.6005
 3404SOL     OW21844   4.115   3.925   8.167 -0.5707  0.2475 -0.2137
 3404SOL    HW121845   4.197   3.940   8.214 -2.0525  4.2894  1.0605
 3404SOL    HW221846   4.080   3.858   8.225 -1.2548  0.2532 -0.6195
 3405SOL     OW21847   3.381   1.951  15.187 -0.0934 -0.3202  0.1462
 3405SOL    HW121848   3.387   1.982  15.278  1.2727 -3.3639  1.1122
 3405SOL    HW221849   3.392   2.037  15.148  1.1502 -0.7206 -0.3973
 3406SOL     OW21850   4.543   1.950  17.301 -0.1597  0.1500 -0.4867
 3406SOL    HW121851   4.496   1.898  17.366 -0.8638  0.4344 -0.7582
 3406SOL    HW221852   4.526   1.895  17.224 -0.6509  0.0344 -0.2971
 3407SOL     OW21853   1.473   0.998   8.549 -0.1410  0.1037 -0.1564
 3407SOL    HW121854   1.439   0.999   8.639  0.4333 -2.7115  0.1026
 3407SOL    HW221855   1.568   0.996   8.553 -0.1618  0.1026  0.3374
 3408SOL     OW21856   4.686   0.395   2.672 -0.7142 -0.6330 -0.3826
 3408SOL    HW121857   4.683   0.489   2.656  0.4778 -0.4900  0.2014
 3408SOL    HW221858   0.047   0.385   2.654 -0.2926  0.2935  1.3343
 3409SOL     OW21859   0.302   3.313   2.413 -0.0208 -0.0447 -0.0318
 3409SOL    HW121860   0.308   3.401   2.377  0.9287  0.0086  0.2546
 3409SOL    HW221861   0.251   3.341   2.489  0.0628  1.6327 -0.6136
 3410SOL     OW21862   3.222   3.490   9.148 -0.2654 -0.0111  0.1659
 3410SOL    HW121863   3.239   3.398   9.131 -0.7411  0.0039 -0.3881
 3410SOL    HW221864   3.301   3.533   9.114 -0.1446 -1.6354 -1.5643
 3411SOL     OW21865   0.666   3.791  17.092  0.2766  0.3475 -0.3874
 3411SOL    HW121866   0.700   3.823  17.175  1.2937  2.0647 -1.4622
 3411SOL    HW221867   0.747   3.805  17.043  0.6854 -1.4429 -0.2409
 3412SOL     OW21868   4.620   2.819   7.393  0.5274  0.2456  0.1441
 3412SOL    HW121869   4.532   2.846   7.421  0.2407  0.8727 -1.3431
 3412SOL    HW221870   4.616   2.823   7.297  1.1243  0.4770  0.1280
 3413SOL     OW21871   2.916   2.923  14.123 -0.1553  0.3080 -0.7296
 3413SOL    HW121872   2.834   2.972  14.131  0.6220  1.5186 -0.0859
 3413SOL    HW221873   2.880   2.841  14.090  0.7838 -0.4886  0.2324
 3414SOL     OW21874   2.567   3.796   3.280 -0.2271 -0.4160 -0.5021
 3414SOL    HW121875   2.476   3.786   3.254 -0.9237  0.8272  1.4519
 3414SOL    HW221876   2.558   3.883   3.320 -0.6530  0.1805 -1.8907
 3415SOL     OW21877   3.961   4.629   4.808  0.0546  0.3438 -0.2870
 3415SOL    HW121878   3.906   4.708   4.809  0.4289  0.5855  0.9310
 3415SOL    HW221879   4.044   4.657   4.771  0.7594 -2.3638 -0.7352
 3416SOL     OW21880   0.377   1.693   3.001 -0.2846 -0.1593 -0.4147
 3416SOL    HW121881   0.283   1.686   3.019  0.1045  0.8551  2.0496
 3416SOL    HW221882   0.407   1.781   3.025 -1.0904 -0.0725  0.3171
 3417SOL     OW21883   2.662   1.570  17.398  0.1810  0.1711  0.1778
 3417SOL    HW121884   2.704   1.635  17.342  2.7620 -0.6758  1.1695
 3417SOL    HW221885   2.575   1.608  17.412 -0.2273 -0.8102  0.2791
 3418SOL     OW21886   3.471   3.589   3.791 -0.2239 -0.3852  0.1511
 3418SOL    HW121887   3.487   3.506   3.835 -2.2297 -2.0633 -2.3040
 3418SOL    HW221888   3.512   3.648   3.854 -2.6242  0.0659  1.2744
 3419SOL     OW21889   3.891   0.557   6.397  0.4172  0.0185  0.7724
 3419SOL    HW121890   3.932   0.543   6.312 -0.2690  0.6481  0.3319
 3419SOL    HW221891   3.916   0.472   6.433  0.4367 -0.9811 -1.5925
 3420SOL     OW21892   3.217   1.531   5.747 -0.2012  0.1297  0.4734
 3420SOL    HW121893   3.205   1.525   5.652 -0.9805  0.7035  0.5352
 3420SOL    HW221894   3.251   1.445   5.773 -2.0235 -0.4319  0.9916
 3421SOL     OW21895   2.839   2.550  16.280  0.6005 -0.3818 -0.3657
 3421SOL    HW121896   2.793   2.628  16.249 -0.3143 -0.7579  0.0210
 3421SOL    HW221897   2.766   2.509  16.327  2.0330 -2.1783  0.2841
 3422SOL     OW21898   4.500   1.378   8.389  0.4708  0.0230  0.5978
 3422SOL    HW121899   4.594   1.395   8.389  0.9662 -2.6097  1.2952
 3422SOL    HW221900   4.477   1.418   8.305 -2.5908  1.7567  2.2607
 3423SOL     OW21901   1.187   1.885   8.947  0.1553 -0.3379 -0.4426
 3423SOL    HW121902   1.134   1.809   8.921 -0.2705  0.3266 -1.5293
 3423SOL    HW221903   1.266   1.840   8.975  2.5471  2.5349 -2.6481
 3424SOL     OW21904   2.928   4.556  15.436 -0.1417  0.1518 -0.0185
 3424SOL    HW121905   2.883   4.632  15.473  0.4271  0.5278 -0.0980
 3424SOL    HW221906   3.012   4.600  15.421 -0.9709  1.5080 -0.6401
 3425SOL     OW21907   3.812   2.516   8.283  0.1375  0.1365  0.1125
 3425SOL    HW121908   3.805   2.560   8.199  0.2165 -2.1737 -1.0953
 3425SOL    HW221909   3.718   2.504   8.297 -0.6372  3.4717 -2.4466
 3426SOL     OW21910   2.414   4.499   9.218  0.2733 -0.3739  0.1583
 3426SOL    HW121911   2.402   4.593   9.207 -3.5769 -0.6826  1.6406
 3426SOL    HW221912   2.503   4.498   9.253 -0.4963 -2.1684  2.0418
 3427SOL     OW21913   3.068   3.963   8.039 -0.1306 -0.3224  0.5881
 3427SOL    HW121914   3.123   3.967   8.118  0.2433  0.2528  0.2959
 3427SOL    HW221915   3.115   3.923   7.966 -0.0468 -0.2316  0.5922
 3428SOL     OW21916   2.366   3.930   6.249  0.5225  0.0822  0.0496
 3428SOL    HW121917   2.320   3.850   6.273 -0.1364  1.2615  2.7006
 3428SOL    HW221918   2.390   3.918   6.157 -4.5288 -0.7506 -1.1995
 3429SOL     OW21919   0.799   2.692  17.020 -0.1181  0.2412  0.5735
 3429SOL    HW121920   0.717   2.670  17.064  0.0640  2.4529  2.0147
 3429SOL    HW221921   0.784   2.672  16.928  0.2990 -3.7083  1.3818
 3430SOL     OW21922   3.742   4.236   5.175 -0.0557 -0.0636  0.3625
 3430SOL    HW121923   3.682   4.298   5.215  1.5492  1.1299  0.8880
 3430SOL    HW221924   3.810   4.301   5.163  1.0934 -1.2234  0.6033
 3431SOL     OW21925   1.364   2.298   6.947 -0.4186  0.0479  0.0013
 3431SOL    HW121926   1.336   2.369   7.005  1.4050 -0.5739  1.6513
 3431SOL    HW221927   1.352   2.326   6.857 -0.6485  0.5977  0.1976
 3432SOL     OW21928   4.461   0.598   4.641 -0.4458  0.6171  0.7408
 3432SOL    HW121929   4.477   0.677   4.692  0.2132  0.6276  0.5132
 3432SOL    HW221930   4.544   0.551   4.649 -0.2528  0.3791 -2.7174
 3433SOL     OW21931   0.125   2.867  10.351  0.5053 -0.0261  0.1397
 3433SOL    HW121932   0.098   2.907  10.434  0.3751  0.3823 -0.1017
 3433SOL    HW221933   0.216   2.844  10.369  0.6224  0.5625  0.2925
 3434SOL     OW21934   4.584   4.118   8.802 -0.6463  0.3439  0.3750
 3434SOL    HW121935   4.635   4.112   8.882  0.2731  2.2220 -0.0795
 3434SOL    HW221936   4.655   4.134   8.740 -0.7462  2.3150  0.7688
 3435SOL     OW21937   0.538   2.047   4.593  0.4824  0.5549  0.5355
 3435SOL    HW121938   0.569   2.092   4.672 -0.6150 -0.3988  1.5065
 3435SOL    HW221939   0.479   1.983   4.632 -0.4578  0.1271 -1.6057
 3436SOL     OW21940   3.889   2.736   5.845  0.1767 -0.6977  0.1576
 3436SOL    HW121941   3.905   2.770   5.757 -1.5204  0.5323  0.3258
 3436SOL    HW221942   3.880   2.643   5.823  1.5651 -0.6287 -0.6994
 3437SOL     OW21943   3.002   0.574   5.128  0.7407  0.1286 -0.5676
 3437SOL    HW121944   3.043   0.627   5.060 -0.4160  1.5029 -0.1847
 3437SOL    HW221945   3.041   0.604   5.210 -0.5396  0.3526 -0.0439
 3438SOL     OW21946   3.992   1.543   8.481 -0.2227  0.3100  0.3080
 3438SOL    HW121947   3.913   1.500   8.451  0.5852  0.1850 -1.6279
 3438SOL    HW221948   3.954   1.575   8.563 -0.6382  1.9766 -0.5259
 3439SOL     OW21949   0.583   1.394  17.293 -0.7122  0.1519 -0.3624
 3439SOL    HW121950   0.598   1.437  17.209 -1.9907  1.6580  0.1797
 3439SOL    HW221951   0.583   1.469  17.353 -0.3076  0.4453 -0.7290
 3440SOL     OW21952   0.342   3.230   1.751  0.7194  0.2541 -0.0015
 3440SOL    HW121953   0.270   3.191   1.800  0.0105 -0.2060 -1.4115
 3440SOL    HW221954   0.340   3.164   1.682  0.8259  0.5059 -0.2452
 3441SOL     OW21955   0.978   1.197   5.908 -0.3326 -0.6348 -0.0667
 3441SOL    HW121956   1.015   1.183   5.996 -1.2388 -1.4795  0.1713
 3441SOL    HW221957   0.917   1.264   5.938  2.4738  2.8795 -2.3312
 3442SOL     OW21958   4.477   2.758   9.788  0.0397  0.0514 -0.1393
 3442SOL    HW121959   4.489   2.810   9.867 -0.4489  1.3880 -0.9455
 3442SOL    HW221960   4.439   2.820   9.726  0.2722  0.8038  0.4732
 3443SOL     OW21961   4.027   0.268   8.995  0.5630 -0.2598  0.4091
 3443SOL    HW121962   4.018   0.329   9.069  0.0340  0.0065  0.1264
 3443SOL    HW221963   3.945   0.218   9.003 -2.0969  3.6839 -2.1871
 3444SOL     OW21964   0.235   1.746  16.459  0.1526 -0.1500  0.0083
 3444SOL    HW121965   0.217   1.706  16.375 -0.8492 -1.6477  0.9355
 3444SOL    HW221966   0.330   1.756  16.453 -0.0193  1.7011  0.2830
 3445SOL     OW21967   4.505   2.653   5.868  0.4817 -0.0654 -0.2835
 3445SOL    HW121968   4.418   2.692   5.874  0.5285  0.0190 -0.1379
 3445SOL    HW221969   4.545   2.692   5.791  1.3734  0.9490  0.6959
 3446SOL     OW21970   3.711   3.705   2.190 -0.5571 -0.1867 -0.0758
 3446SOL    HW121971   3.755   3.728   2.108 -0.7686  0.1651 -0.0924
 3446SOL    HW221972   3.619   3.706   2.161 -1.4602  1.4307  2.7867
 3447SOL     OW21973   1.523   1.215   7.525  0.2721 -0.6446  0.1170
 3447SOL    HW121974   1.459   1.286   7.523 -0.2474 -1.1588 -1.7143
 3447SOL    HW221975   1.500   1.184   7.613 -1.7322  0.8309  0.1072
 3448SOL     OW21976   3.164   3.875   3.725  0.2932 -0.2528 -0.2836
 3448SOL    HW121977   3.069   3.884   3.714  0.6264  1.5262 -1.6590
 3448SOL    HW221978   3.205   3.896   3.641 -0.6294 -1.5805 -1.0503
 3449SOL     OW21979   3.656   0.132   4.369 -0.1007  0.3272 -0.0700
 3449SOL    HW121980   3.604   0.056   4.342  1.2830 -0.9714  0.8963
 3449SOL    HW221981   3.729   0.122   4.309 -0.3441  2.3406 -0.7024
 3450SOL     OW21982   1.748   1.845   3.427 -0.7383  0.5307 -0.2299
 3450SOL    HW121983   1.752   1.940   3.430  3.6315  0.4666 -4.2297
 3450SOL    HW221984   1.811   1.825   3.495 -0.7156  0.7494 -0.1876
 3451SOL     OW21985   3.999   1.831   0.679  0.1003  0.2634  0.2215
 3451SOL    HW121986   3.978   1.751   0.726  0.5017  1.1694  1.9346
 3451SOL    HW221987   4.064   1.798   0.617 -1.0090 -1.2649 -0.1122
 3452SOL     OW21988   1.086   0.827   6.031  0.9876 -0.1940 -0.5184
 3452SOL    HW121989   1.114   0.834   5.940  1.2054 -0.5208 -0.4787
 3452SOL    HW221990   0.998   0.794   6.011  1.1123  0.0931 -1.5280
 3453SOL     OW21991   0.516   0.154   4.412 -0.0825 -0.0281  0.1638
 3453SOL    HW121992   0.446   0.196   4.463 -1.0223  1.7302 -2.5881
 3453SOL    HW221993   0.550   0.223   4.356 -0.3454 -0.6655 -0.7791
 3454SOL     OW21994   0.206   1.135   4.947 -0.3537 -0.1483 -0.5611
 3454SOL    HW121995   0.187   1.228   4.963 -1.5142 -0.4727 -0.0829
 3454SOL    HW221996   0.239   1.126   4.858 -0.3182  0.8222 -0.6461
 3455SOL     OW21997   2.533   1.048  17.025 -0.0561 -0.2230  0.6229
 3455SOL    HW121998   2.471   1.080  16.959  1.1332 -0.1596 -0.4712
 3455SOL    HW221999   2.555   0.962  16.989  4.1054  1.4250 -0.8292
 3456SOL     OW22000   4.548   4.335  17.038  0.2033  0.0646 -0.5075
 3456SOL    HW122001   4.574   4.422  17.069  0.7654 -0.2540 -0.0878
 3456SOL    HW222002   4.599   4.323  16.958  2.3222 -0.1231  0.8533
 3457SOL     OW22003   4.697   4.451   3.611 -0.1925  0.1464 -0.4408
 3457SOL    HW122004   0.013   4.372   3.637 -0.1595  0.3987  0.2729
 3457SOL    HW222005   0.019   4.490   3.543  3.7145 -0.1198  2.4786
 3458SOL     OW22006   2.047   0.749   9.505 -0.4893  0.4430 -0.0471
 3458SOL    HW122007   2.061   0.844   9.512 -0.4467  0.3462  1.2989
 3458SOL    HW222008   2.084   0.740   9.418 -0.6229 -1.3285  0.0881
 3459SOL     OW22009   0.939   2.895  15.339  0.3671  0.4063 -0.0453
 3459SOL    HW122010   0.844   2.889  15.347  0.2010  1.5689 -1.2416
 3459SOL    HW222011   0.956   2.817  15.288  1.4408  0.6436 -0.0503
 3460SOL     OW22012   0.047   1.112   5.823 -0.0963 -0.4966  0.0608
 3460SOL    HW122013   0.076   1.202   5.805  0.3563  0.0259  3.2897
 3460SOL    HW222014   0.005   1.092   5.740 -1.9008  0.8624  0.6516
 3461SOL     OW22015   0.927   2.425  16.830  0.1742  0.3205 -0.1092
 3461SOL    HW122016   0.876   2.354  16.870  0.9991 -0.6971 -0.8709
 3461SOL    HW222017   0.890   2.426  16.741 -0.0227 -4.8733 -0.1005
 3462SOL     OW22018   2.881   3.202   7.006  0.1343  0.2172  0.0601
 3462SOL    HW122019   2.858   3.159   6.924 -0.4811 -0.4272  0.5725
 3462SOL    HW222020   2.918   3.281   6.968 -1.1529  0.9977  0.4258
 3463SOL     OW22021   3.403   3.850  14.467 -0.1177  0.4289 -1.0118
 3463SOL    HW122022   3.480   3.794  14.454 -0.1329  0.0530  0.4975
 3463SOL    HW222023   3.348   3.811  14.535 -1.4749  0.8723 -1.8670
 3464SOL     OW22024   2.330   1.345   6.161  0.6520  0.3869 -0.2831
 3464SOL    HW122025   2.411   1.311   6.123 -0.6338 -1.6719 -1.1516
 3464SOL    HW222026   2.267   1.279   6.135  0.9697  0.9816 -2.5486
 3465SOL     OW22027   1.007   0.615   2.300  0.4466  0.1701  0.0536
 3465SOL    HW122028   1.008   0.599   2.206  1.7600 -0.5849  0.1991
 3465SOL    HW222029   0.932   0.674   2.306  1.7623  1.4985  3.6489
 3466SOL     OW22030   4.404   3.915   4.995  0.6989  0.3085 -0.7506
 3466SOL    HW122031   4.472   3.979   4.974 -0.9201  2.2207 -0.1664
 3466SOL    HW222032   4.360   3.946   5.074  0.3179  2.4998 -1.7933
 3467SOL     OW22033   4.490   3.035   5.987 -0.1723  0.0964  0.1870
 3467SOL    HW122034   4.542   3.037   5.906 -0.2644  0.1146  0.1285
 3467SOL    HW222035   4.537   3.113   6.018 -3.2226  1.6265  0.8879
 3468SOL     OW22036   0.060   0.721   5.703 -0.4420 -0.5659 -0.1416
 3468SOL    HW122037   4.697   0.727   5.712 -0.4862  3.0330 -3.0340
 3468SOL    HW222038   0.093   0.731   5.792 -4.8903  2.2593  1.1681
 3469SOL     OW22039   4.438   2.614   6.524  0.1546  0.1033 -0.5646
 3469SOL    HW122040   4.495   2.537   6.519 -0.5504 -0.2528 -3.2772
 3469SOL    HW222041   4.391   2.605   6.607  1.0364  2.4985  0.1889
 3470SOL     OW22042   3.784   4.642   8.746 -0.1092  0.6545 -0.0293
 3470SOL    HW122043   3.748   4.559   8.778  0.2741  1.7005  3.1167
 3470SOL    HW222044   3.730   4.644   8.667 -1.4251 -0.4524  0.8417
 3471SOL     OW22045   3.259   3.523   7.101 -0.3738  0.2175 -0.0678
 3471SOL    HW122046   3.252   3.433   7.068 -0.9385  0.0499  0.5176
 3471SOL    HW222047   3.238   3.508   7.193  1.8860  1.4080  0.6410
 3472SOL     OW22048   3.185   1.716   2.828 -0.8103 -0.8030  0.1861
 3472SOL    HW122049   3.192   1.639   2.771 -1.9656 -0.6383 -0.1649
 3472SOL    HW222050   3.196   1.674   2.913 -0.5576  1.6088  1.3387
 3473SOL     OW22051   3.629   1.409   1.902 -0.5504  0.6555 -0.4399
 3473SOL    HW122052   3.688   1.338   1.928 -1.5582 -0.5968 -1.6064
 3473SOL    HW222053   3.571   1.408   1.978 -3.1634 -0.0351 -2.4709
 3474SOL     OW22054   2.322   0.320   4.155  1.2849 -0.0990  0.0364
 3474SOL    HW122055   2.258   0.263   4.199 -0.2615  1.7332  0.1754
 3474SOL    HW222056   2.305   0.291   4.065 -0.1690 -0.7194  0.5039
 3475SOL     OW22057   3.208   2.652   7.079  0.1344  0.8292 -0.0317
 3475SOL    HW122058   3.280   2.699   7.122  0.5458  1.0486 -0.9549
 3475SOL    HW222059   3.136   2.712   7.096  1.2077  1.3174  2.7754
 3476SOL     OW22060   0.349   1.539   0.870  0.3447  1.2034  0.2898
 3476SOL    HW122061   0.300   1.551   0.789  0.4695 -1.5491 -0.1818
 3476SOL    HW222062   0.334   1.449   0.899  1.8642  0.9974  0.4044
 3477SOL     OW22063   4.029   2.048   2.394  0.3964 -0.0405 -0.1384
 3477SOL    HW122064   4.098   2.035   2.459  0.3523  1.0719  0.1308
 3477SOL    HW222065   4.014   2.142   2.393  0.3760 -0.0200  1.7789
 3478SOL     OW22066   4.557   4.723   3.481 -0.3660 -0.7204  0.2110
 3478SOL    HW122067   4.637   4.706   3.532 -0.6157  0.6713  1.0646
 3478SOL    HW222068   4.501   4.714   3.558  1.9861 -0.8826  1.9328
 3479SOL     OW22069   4.261   1.123   5.028 -0.2129 -0.1441 -0.1372
 3479SOL    HW122070   4.237   1.038   5.066 -0.7599  0.3955  0.7159
 3479SOL    HW222071   4.203   1.177   5.082 -1.3355  0.2001 -1.6723
 3480SOL     OW22072   1.896   2.654  17.003 -0.0896  0.0101 -0.4891
 3480SOL    HW122073   1.889   2.742  17.041 -3.0818 -0.0809 -0.7642
 3480SOL    HW222074   1.917   2.604  17.081 -2.8262  0.7409  0.7380
 3481SOL     OW22075   1.084   0.339   3.792 -0.0029 -0.2961  0.0226
 3481SOL    HW122076   1.001   0.311   3.832  0.0826 -0.6892 -0.0742
 3481SOL    HW222077   1.067   0.419   3.741  0.6316 -0.0596  0.1902
 3482SOL     OW22078   1.849   1.409   6.641 -0.5375  0.5723 -0.3608
 3482SOL    HW122079   1.798   1.337   6.678  1.2738 -0.5494 -0.0143
 3482SOL    HW222080   1.822   1.480   6.700  1.4006  1.6282 -0.7260
 3483SOL     OW22081   1.162   0.562   5.270  0.4161 -0.4688  0.1369
 3483SOL    HW122082   1.156   0.576   5.176  0.0201 -1.6211 -0.0039
 3483SOL    HW222083   1.164   0.646   5.317 -1.4851  0.7357 -1.9635
 3484SOL     OW22084   0.339   4.128   8.209 -0.5940 -0.1095 -0.3534
 3484SOL    HW122085   0.337   4.188   8.134 -0.3881 -0.2582 -0.4764
 3484SOL    HW222086   0.247   4.111   8.229 -0.4306  0.0273  0.4902
 3485SOL     OW22087   2.426   2.804   8.588  0.4388  0.1628  0.1559
 3485SOL    HW122088   2.504   2.755   8.612 -1.5689 -3.9196 -1.4981
 3485SOL    HW222089   2.458   2.851   8.511  1.0737 -1.7716 -0.7760
 3486SOL     OW22090   4.706   0.014  10.333 -1.3308  0.1596  0.4174
 3486SOL    HW122091   4.639   4.717  10.394 -0.1062  1.2112  2.2727
 3486SOL    HW222092   0.056   4.726  10.377 -1.8878  0.2846  1.5233
 3487SOL     OW22093   4.507   0.817   7.076  0.1261 -0.2468 -0.0883
 3487SOL    HW122094   4.479   0.804   6.985  2.0037 -2.3259 -0.3799
 3487SOL    HW222095   4.600   0.840   7.081 -0.0185  0.6255 -1.4517
 3488SOL     OW22096   4.138   3.973   5.382  0.3721  0.5282  0.1760
 3488SOL    HW122097   4.056   3.970   5.432  0.9514  0.7846  1.1390
 3488SOL    HW222098   4.199   3.967   5.456  0.9523 -0.1162 -0.3613
 3489SOL     OW22099   4.538   1.210   5.145  0.5139  0.1475  0.2290
 3489SOL    HW122100   4.602   1.140   5.130  2.1902  1.7102  0.0467
 3489SOL    HW222101   4.469   1.159   5.187 -1.2129  1.9736 -0.3629
 3490SOL     OW22102   2.747   4.299  11.816 -0.2665  0.2674 -0.2198
 3490SOL    HW122103   2.779   4.211  11.834 -1.4833  0.3403  2.3491
 3490SOL    HW222104   2.687   4.276  11.745 -0.7582  1.2940 -0.1342
 3491SOL     OW22105   3.975   2.810   4.424  0.1535  0.3109  0.1705
 3491SOL    HW122106   3.980   2.905   4.430  4.1771  0.3025 -3.1598
 3491SOL    HW222107   3.903   2.801   4.362 -0.6950 -1.9950  1.4692
 3492SOL     OW22108   2.139   0.232   8.403 -0.4146  0.1322  0.0361
 3492SOL    HW122109   2.158   0.254   8.312  1.6863 -0.8023  0.2524
 3492SOL    HW222110   2.148   0.322   8.432 -0.9242 -0.0079  0.6150
 3493SOL     OW22111   4.420   3.034  15.770 -0.1691  0.7945  0.0555
 3493SOL    HW122112   4.334   2.995  15.753 -0.0375 -0.6198  2.7265
 3493SOL    HW222113   4.415   3.051  15.864  0.9509  0.3571  0.1939
 3494SOL     OW22114   1.969   0.163   9.203 -0.0309  0.0537 -0.2132
 3494SOL    HW122115   2.060   0.178   9.227 -0.2581  1.3067 -0.1521
 3494SOL    HW222116   1.938   0.253   9.215  0.9417  0.1570  1.4049
 3495SOL     OW22117   1.868   2.927   1.234  0.2612  0.1614  0.4523
 3495SOL    HW122118   1.850   3.007   1.184  3.2866 -0.7207 -2.0835
 3495SOL    HW222119   1.891   2.969   1.316 -0.5292  2.3003 -0.4073
 3496SOL     OW22120   0.124   0.617   4.236 -0.1768  0.4485  0.4987
 3496SOL    HW122121   0.192   0.685   4.232 -1.2003  1.5618  1.8666
 3496SOL    HW222122   0.150   0.560   4.308  0.5924  0.0148 -0.1150
 3497SOL     OW22123   0.897   3.673   2.946 -0.4307  0.1253  0.2885
 3497SOL    HW122124   0.881   3.588   2.986 -1.2749  0.2195  0.1444
 3497SOL    HW222125   0.816   3.719   2.965 -0.9596  0.0853 -1.7996
 3498SOL     OW22126   3.718   3.036   3.885 -0.3370 -0.3727  0.2611
 3498SOL    HW122127   3.774   2.966   3.920  0.2629  0.3020  0.6607
 3498SOL    HW222128   3.720   3.009   3.793  1.5871 -0.0491  0.1949
 3499SOL     OW22129   0.938   4.413   3.244  0.3618 -0.1258 -0.5300
 3499SOL    HW122130   0.989   4.371   3.175  1.2216  0.0695 -0.0212
 3499SOL    HW222131   1.011   4.430   3.304 -1.7546  0.9630  1.7426
 3500SOL     OW22132   3.843   0.096   8.933 -0.2446  0.2278  0.3301
 3500SOL    HW122133   3.850   0.037   8.858  1.3994  0.6388  0.1442
 3500SOL    HW222134   3.870   0.039   9.006  0.0270  0.5502  0.4824
 3501SOL     OW22135   3.497   1.338   5.445 -0.1212  0.7708  0.1040
 3501SOL    HW122136   3.485   1.307   5.535 -2.2453 -0.3758 -0.5847
 3501SOL    HW222137   3.587   1.371   5.440  0.2090 -0.4518 -2.2075
 3502SOL     OW22138   0.614   3.035   8.862 -0.6950 -1.2931  0.0008
 3502SOL    HW122139   0.632   2.944   8.884  0.8355 -1.0143 -0.0634
 3502SOL    HW222140   0.522   3.028   8.886 -1.6366  3.0007 -2.4234
 3503SOL     OW22141   3.516   1.642   5.577  0.3627 -0.8806  0.7003
 3503SOL    HW122142   3.442   1.595   5.540 -0.5627  2.0439 -1.1385
 3503SOL    HW222143   3.576   1.569   5.593  2.3025  0.7746  0.9813
 3504SOL     OW22144   1.673   1.912   5.285 -0.0984  0.0779  0.1689
 3504SOL    HW122145   1.751   1.874   5.324 -0.2806 -0.2135  0.2530
 3504SOL    HW222146   1.621   1.917   5.366  0.6672  0.7004  0.6197
 3505SOL     OW22147   4.345   4.068   2.563  0.2623 -0.1972  0.4044
 3505SOL    HW122148   4.336   3.973   2.560 -0.8518 -0.1012  0.5451
 3505SOL    HW222149   4.440   4.073   2.573  0.2542  1.5229 -0.3722
 3506SOL     OW22150   3.272   2.713   8.289 -0.7678 -0.3733  0.2962
 3506SOL    HW122151   3.221   2.634   8.307  0.3778 -1.0092  0.8096
 3506SOL    HW222152   3.199   2.773   8.274 -1.3954 -1.3261 -0.4769
 3507SOL     OW22153   2.506   1.255   9.950  0.1567  0.5038  0.5127
 3507SOL    HW122154   2.587   1.306   9.948  0.7280 -0.4295 -0.1649
 3507SOL    HW222155   2.520   1.205   9.870 -0.8124  0.1094  0.5868
 3508SOL     OW22156   0.554   3.595   7.998 -0.3706 -0.2943  0.3868
 3508SOL    HW122157   0.577   3.547   8.078  0.0225 -0.5668  0.1148
 3508SOL    HW222158   0.545   3.516   7.944 -0.6415  1.7352 -2.5533
 3509SOL     OW22159   0.511   3.284   7.092 -0.3543  0.4089  0.2446
 3509SOL    HW122160   0.541   3.214   7.035 -2.7284  0.9693 -1.7344
 3509SOL    HW222161   0.553   3.259   7.174 -0.4545 -0.4102  0.0404
 3510SOL     OW22162   3.303   4.513   0.353 -0.6580  0.0379 -0.0984
 3510SOL    HW122163   3.248   4.462   0.412 -1.5525  1.1882  0.0657
 3510SOL    HW222164   3.333   4.590   0.402  0.1978 -0.5312  0.2816
 3511SOL     OW22165   2.000   0.088   3.062  0.1784  0.2522 -0.9275
 3511SOL    HW122166   2.077   0.087   3.004  0.3677 -0.5812 -0.6528
 3511SOL    HW222167   1.972   0.179   3.055  0.5642  0.4334 -0.2008
 3512SOL     OW22168   1.619   1.847   7.134  0.2948 -0.5275  0.2216
 3512SOL    HW122169   1.654   1.906   7.066  1.0131 -0.4577  0.6560
 3512SOL    HW222170   1.619   1.904   7.210  1.0286 -0.6139  0.2876
 3513SOL     OW22171   0.176   2.705   6.569 -0.2208  0.6096 -0.6061
 3513SOL    HW122172   0.144   2.711   6.659  0.2152  1.3320 -0.4991
 3513SOL    HW222173   0.098   2.668   6.528  0.7406 -1.0655 -0.9135
 3514SOL     OW22174   1.779   1.377  15.648  0.1049 -0.1726 -0.0383
 3514SOL    HW122175   1.773   1.335  15.734 -0.5556 -1.9988 -0.9870
 3514SOL    HW222176   1.873   1.394  15.645 -0.3057  2.4929  2.0241
 3515SOL     OW22177   0.845   0.329   2.929  0.6189 -0.4274 -0.3683
 3515SOL    HW122178   0.934   0.361   2.919  0.0980  0.9296 -0.6319
 3515SOL    HW222179   0.815   0.309   2.840  2.3669 -1.2583 -0.7726
 3516SOL     OW22180   2.307   2.018   8.650  0.5173  0.6988 -0.5036
 3516SOL    HW122181   2.324   2.071   8.728 -2.7400  0.8469  0.1143
 3516SOL    HW222182   2.212   2.010   8.642  0.5695  0.7486 -1.1680
 3517SOL     OW22183   1.862   0.262   7.123  0.2642  0.0933 -0.0551
 3517SOL    HW122184   1.957   0.254   7.118  0.3814  0.7423  1.1453
 3517SOL    HW222185   1.853   0.209   7.044  1.8388  0.5683 -0.5561
 3518SOL     OW22186   1.913   2.580   9.384 -0.0098  0.5006  0.2400
 3518SOL    HW122187   1.917   2.568   9.289 -0.2998 -0.5578  0.3505
 3518SOL    HW222188   1.875   2.498   9.417 -0.5248  0.0668 -1.4102
 3519SOL     OW22189   0.146   0.843   2.742  0.5603 -0.3469  0.3571
 3519SOL    HW122190   0.210   0.778   2.771  1.5550  0.8207  0.7803
 3519SOL    HW222191   0.196   0.922   2.721 -0.9880  0.3597 -0.6528
 3520SOL     OW22192   1.466   2.300   8.955 -0.4678  0.5144  0.4249
 3520SOL    HW122193   1.413   2.277   9.031  0.9832 -2.2685  0.6245
 3520SOL    HW222194   1.519   2.221   8.946 -0.7828  0.1584  1.6930
 3521SOL     OW22195   3.457   0.832  15.070 -0.1866  0.0194  0.0293
 3521SOL    HW122196   3.401   0.755  15.068  1.4839 -1.2613  1.8806
 3521SOL    HW222197   3.431   0.889  14.998 -2.9129 -0.3313  0.7349
 3522SOL     OW22198   3.115   0.913   9.595 -0.5456  0.6277 -0.2731
 3522SOL    HW122199   3.188   0.968   9.569  0.5413 -1.2648 -1.2016
 3522SOL    HW222200   3.143   0.890   9.684  3.8348  0.8903 -1.6349
 3523SOL     OW22201   2.954   0.763   6.239 -0.2033 -0.6258  0.2013
 3523SOL    HW122202   3.030   0.710   6.213  0.1751 -0.1259  0.2737
 3523SOL    HW222203   2.965   0.838   6.181 -2.2786 -0.6856 -0.2486
 3524SOL     OW22204   1.580   4.281   3.242  0.4845  0.2918  0.0829
 3524SOL    HW122205   1.496   4.260   3.202 -0.3825  1.5626  1.2578
 3524SOL    HW222206   1.575   4.285   3.337  1.0641 -2.2969  0.2178
 3525SOL     OW22207   1.510   2.923   3.641  0.2940  0.7520 -0.2637
 3525SOL    HW122208   1.448   2.954   3.707 -0.4575  2.5358 -1.8283
 3525SOL    HW222209   1.535   2.840   3.682 -2.3112  0.0394 -0.0977
 3526SOL     OW22210   1.187   3.360   6.317  0.1096  0.0779 -0.2066
 3526SOL    HW122211   1.142   3.433   6.274 -0.0050  0.5750  0.7715
 3526SOL    HW222212   1.132   3.287   6.288  1.2663 -0.5274 -0.8388
 3527SOL     OW22213   0.596   4.577  17.363 -0.0900 -0.7899  0.3166
 3527SOL    HW122214   0.637   4.644  17.308 -0.5725  2.1581  3.4752
 3527SOL    HW222215   0.677   4.550  17.407 -0.2973 -0.9347  0.6063
 3528SOL     OW22216   3.072   2.662   6.489 -0.4464  0.6165 -0.9034
 3528SOL    HW122217   3.097   2.589   6.433 -1.9928 -1.1012  0.6752
 3528SOL    HW222218   3.047   2.620   6.571  2.3363 -0.8960 -0.8492
 3529SOL     OW22219   3.109   1.908   1.090  0.1569  0.1334 -0.1905
 3529SOL    HW122220   3.095   1.854   1.169 -0.2828 -1.5608 -1.4236
 3529SOL    HW222221   3.063   1.859   1.021  0.9656  0.1478 -0.7356
 3530SOL     OW22222   4.004   1.596  15.665  0.5935  0.7161 -0.1847
 3530SOL    HW122223   4.091   1.557  15.663  0.9125  1.4380 -0.3568
 3530SOL    HW222224   3.957   1.545  15.599  1.3470  1.1673 -1.0695
 3531SOL     OW22225   0.163   3.360   2.858  0.4902  0.4353  0.1021
 3531SOL    HW122226   0.200   3.377   2.944 -1.8084  4.2058  0.3541
 3531SOL    HW222227   0.242   3.375   2.806  0.0643 -0.0822 -0.6874
 3532SOL     OW22228   4.142   4.332   6.222  0.1941  0.6245  1.0598
 3532SOL    HW122229   4.104   4.308   6.138  0.5771 -2.4995  1.7901
 3532SOL    HW222230   4.062   4.374   6.255 -1.1103 -1.8354  1.0199
 3533SOL     OW22231   2.549   1.593   3.217  0.0716  0.3670 -0.4226
 3533SOL    HW122232   2.638   1.558   3.216 -0.2078 -0.4272  1.4796
 3533SOL    HW222233   2.503   1.513   3.190  0.6153  0.8298 -2.7370
 3534SOL     OW22234   4.060   1.701   2.930 -0.2210 -0.3709  0.1343
 3534SOL    HW122235   4.106   1.774   2.889 -2.1818  1.3239  0.9537
 3534SOL    HW222236   4.101   1.627   2.885 -0.2875  0.4396 -1.2549
 3535SOL     OW22237   4.181   1.364   7.696  0.1383  0.3679 -0.1076
 3535SOL    HW122238   4.200   1.435   7.635 -0.6133  1.1702  0.6006
 3535SOL    HW222239   4.225   1.289   7.656  1.5916  0.7243  0.8275
 3536SOL     OW22240   1.001   1.150  16.809 -0.1273  0.1793 -0.0843
 3536SOL    HW122241   1.050   1.219  16.763  0.2944 -0.4955 -0.6399
 3536SOL    HW222242   1.075   1.095  16.834  1.8380  2.8761  0.1554
 3537SOL     OW22243   3.894   0.760   1.843 -0.3631 -0.2299 -0.2360
 3537SOL    HW122244   3.839   0.827   1.884 -1.5394  0.4190 -2.8888
 3537SOL    HW222245   3.824   0.712   1.799  0.4237 -1.4912 -0.1017
 3538SOL     OW22246   3.581   3.232   1.809  0.0496  0.1242 -0.8582
 3538SOL    HW122247   3.628   3.223   1.727  0.2035 -2.0435 -0.5319
 3538SOL    HW222248   3.640   3.288   1.858  1.5864 -1.0437 -1.3882
 3539SOL     OW22249   2.433   1.097  13.563  0.2670 -0.0387  0.0217
 3539SOL    HW122250   2.459   1.141  13.482  0.9255 -1.3934 -0.5087
 3539SOL    HW222251   2.512   1.099  13.617  0.5445  1.8024 -0.4659
 3540SOL     OW22252   0.837   4.195   4.432  0.4463 -0.4645 -0.3980
 3540SOL    HW122253   0.875   4.250   4.500 -0.6712 -1.0359  0.7032
 3540SOL    HW222254   0.891   4.116   4.429 -0.0882 -0.8857  0.8722
 3541SOL     OW22255   4.602   4.576   1.931  0.2986  0.0626  0.3760
 3541SOL    HW122256   4.567   4.544   2.014  1.4241 -1.3077  0.3181
 3541SOL    HW222257   4.553   4.656   1.912  0.7880 -0.4132 -3.0470
 3542SOL     OW22258   4.281   3.735   5.225 -0.1109  0.0284 -0.7607
 3542SOL    HW122259   4.221   3.721   5.152  1.2709 -0.2569 -1.8420
 3542SOL    HW222260   4.286   3.649   5.269 -1.7152  1.4992  2.3332
 3543SOL     OW22261   3.857   2.067  11.125 -0.1242 -0.3282 -0.0738
 3543SOL    HW122262   3.863   2.098  11.034 -0.2905 -1.5109 -0.4920
 3543SOL    HW222263   3.950   2.058  11.147  0.0803 -0.0238 -0.8045
 3544SOL     OW22264   2.573   4.295   4.518  0.8068  0.1317 -0.0747
 3544SOL    HW122265   2.581   4.383   4.556 -1.7533  0.1635  0.3990
 3544SOL    HW222266   2.482   4.274   4.538  2.2160 -2.0863  3.9839
 3545SOL     OW22267   2.192   1.743   7.744  0.1771 -0.1638 -0.2595
 3545SOL    HW122268   2.150   1.826   7.720  1.2608  0.5934  0.4333
 3545SOL    HW222269   2.137   1.678   7.701  0.2181  0.2586 -0.9555
 3546SOL     OW22270   1.470   3.763   4.519  0.2646 -0.6826  0.2801
 3546SOL    HW122271   1.536   3.768   4.588  1.6864 -0.8468 -1.0596
 3546SOL    HW222272   1.531   3.747   4.447 -0.0820 -1.7347  0.2206
 3547SOL     OW22273   4.156   2.537  13.972 -0.1579 -0.1721 -0.8187
 3547SOL    HW122274   4.139   2.452  14.011  0.4318  0.4378  0.7603
 3547SOL    HW222275   4.168   2.504  13.883  0.2560 -0.0349 -0.8112
 3548SOL     OW22276   4.566   1.657   8.593  0.3437  0.4647 -1.1684
 3548SOL    HW122277   4.655   1.689   8.575  0.6918  0.2074  0.0651
 3548SOL    HW222278   4.538   1.636   8.504 -1.9678 -0.4173 -0.2391
 3549SOL     OW22279   3.221   1.186   9.383  0.1023 -0.3696 -0.0981
 3549SOL    HW122280   3.182   1.105   9.352 -1.0999  1.1652 -2.6420
 3549SOL    HW222281   3.275   1.155   9.456 -0.7020 -0.0148  0.6408
 3550SOL     OW22282   0.055   4.615   6.328  0.0433  0.2490 -0.4808
 3550SOL    HW122283   4.714   4.609   6.267 -0.7937 -1.3579  0.6798
 3550SOL    HW222284   0.037   4.695   6.378  0.9334 -0.5043  1.0425
 3551SOL     OW22285   0.843   4.699   7.150 -0.3068 -0.0746 -0.4293
 3551SOL    HW122286   0.788   0.019   7.208 -0.2304 -0.4756  0.0083
 3551SOL    HW222287   0.922   0.019   7.140  0.0880 -0.7443 -0.8211
 3552SOL     OW22288   2.269   2.281   1.003 -0.1981 -0.1233 -0.0266
 3552SOL    HW122289   2.176   2.282   1.024 -0.5505  2.1537 -1.6182
 3552SOL    HW222290   2.315   2.296   1.086 -1.2083  0.1197  0.4807
 3553SOL     OW22291   1.452   3.631  12.831 -0.0852  0.2748  0.3382
 3553SOL    HW122292   1.477   3.602  12.919 -1.1704  1.0907  0.9171
 3553SOL    HW222293   1.374   3.578  12.815  0.6722 -0.2960 -1.5158
 3554SOL     OW22294   2.044   1.567   3.012 -0.3341 -0.6789 -0.0521
 3554SOL    HW122295   2.010   1.656   3.019 -1.1431 -1.1347  1.8092
 3554SOL    HW222296   1.975   1.503   2.994 -0.9671  0.3745 -1.3863
 3555SOL     OW22297   1.003   1.022   8.949 -0.2839 -0.3170 -0.0775
 3555SOL    HW122298   0.911   1.008   8.971  0.4173 -0.0154  3.0699
 3555SOL    HW222299   1.053   0.981   9.019 -1.3991  0.1354  0.9806
 3556SOL     OW22300   1.350   3.277   3.810 -0.2844  0.5693 -0.3998
 3556SOL    HW122301   1.388   3.337   3.746 -2.3980  1.7832 -0.5462
 3556SOL    HW222302   1.314   3.336   3.877  0.6410  0.1538  0.4734
 3557SOL     OW22303   4.720   2.119  10.187  0.6939 -0.0569  0.2930
 3557SOL    HW122304   4.633   2.114  10.147 -0.3131 -0.3267  2.5079
 3557SOL    HW222305   0.042   2.136  10.110 -0.9888  0.8027 -0.7136
 3558SOL     OW22306   3.530   0.724   5.887 -0.0115 -0.4894  0.1386
 3558SOL    HW122307   3.499   0.793   5.946  2.4469 -0.0276  0.8954
 3558SOL    HW222308   3.466   0.655   5.904 -1.6091  1.5958  2.6098
 3559SOL     OW22309   3.754   3.057   3.308 -0.1803  0.1202 -0.1377
 3559SOL    HW122310   3.784   2.973   3.343 -0.8964  0.4135  1.1762
 3559SOL    HW222311   3.837   3.104   3.311  0.6077 -1.2502 -0.4736
 3560SOL     OW22312   2.147   2.519   9.536  0.1228 -0.0987  0.4123
 3560SOL    HW122313   2.111   2.571   9.608 -0.2211  1.4192 -0.8588
 3560SOL    HW222314   2.076   2.514   9.472  0.3464  0.2554  0.1360
 3561SOL     OW22315   2.024   1.304   5.376  0.2703 -0.0273  0.4301
 3561SOL    HW122316   2.079   1.269   5.446  0.5351 -1.4664 -0.5041
 3561SOL    HW222317   2.007   1.223   5.328 -0.9852  2.0334 -2.5438
 3562SOL     OW22318   2.672   0.899   2.464 -0.1575 -0.0144 -0.5292
 3562SOL    HW122319   2.667   0.993   2.450 -0.7677 -0.3402 -2.4735
 3562SOL    HW222320   2.595   0.889   2.520  0.0383 -1.1263 -0.4579
 3563SOL     OW22321   3.179   2.415  15.966 -0.0148  0.1705 -0.1834
 3563SOL    HW122322   3.116   2.366  16.020  0.8906 -2.1945 -1.2548
 3563SOL    HW222323   3.162   2.508  15.981 -1.4577  0.1947 -1.8884
 3564SOL     OW22324   1.218   3.661  14.307  0.0251 -0.2962 -0.5847
 3564SOL    HW122325   1.297   3.711  14.326 -0.9185  1.2331 -0.7451
 3564SOL    HW222326   1.192   3.703  14.225  3.0883  1.5752 -0.5564
 3565SOL     OW22327   1.616   0.247   5.094 -0.2956  0.5098 -0.5598
 3565SOL    HW122328   1.628   0.307   5.020 -0.6897  1.4434  0.1404
 3565SOL    HW222329   1.678   0.282   5.157 -1.9354 -0.5640  1.6243
 3566SOL     OW22330   1.603   4.204   6.768  0.6098 -0.2137  0.0543
 3566SOL    HW122331   1.658   4.129   6.792 -0.0293 -0.6190  0.2686
 3566SOL    HW222332   1.635   4.239   6.685  0.3146 -2.6479 -1.0842
 3567SOL     OW22333   0.985   0.004   5.550 -0.7929  0.3312  0.4465
 3567SOL    HW122334   0.900   0.019   5.510  0.0950  2.9070 -0.5025
 3567SOL    HW222335   1.006   0.080   5.605 -0.8943  1.2491 -0.7928
 3568SOL     OW22336   2.449   0.849   5.839 -0.2744  0.0363  0.0420
 3568SOL    HW122337   2.386   0.912   5.875 -0.1032  0.4283 -0.3482
 3568SOL    HW222338   2.417   0.770   5.883 -2.6255  1.9058  1.7228
 3569SOL     OW22339   1.745   2.603   3.403 -0.0767  0.5695  0.4933
 3569SOL    HW122340   1.752   2.698   3.395  1.1434  0.4546  0.2431
 3569SOL    HW222341   1.723   2.584   3.311  0.1567  0.3066  0.4895
 3570SOL     OW22342   1.887   2.345   7.967 -0.0842 -0.9136 -0.4236
 3570SOL    HW122343   1.913   2.291   8.042  2.8689  0.3410 -0.5346
 3570SOL    HW222344   1.968   2.393   7.949 -1.6458  1.6027 -0.7413
 3571SOL     OW22345   4.058   1.764  10.164  0.5509  0.1476 -0.5013
 3571SOL    HW122346   4.134   1.730  10.117  1.9801  0.0242  1.8743
 3571SOL    HW222347   4.088   1.846  10.203  4.6970 -1.8774  0.6323
 3572SOL     OW22348   1.916   0.988   8.765 -0.5156 -0.2845 -0.0575
 3572SOL    HW122349   1.888   0.987   8.857  1.3398 -1.2816  0.5026
 3572SOL    HW222350   1.954   0.901   8.763 -0.7657 -0.4073  0.4759
 3573SOL     OW22351   1.038   0.337   1.857  0.3016  0.0597  0.4350
 3573SOL    HW122352   0.968   0.276   1.833 -0.4277  1.5041 -1.1333
 3573SOL    HW222353   1.064   0.364   1.769  2.9740 -0.4879  1.0515
 3574SOL     OW22354   1.093   4.263   6.388  0.6635 -0.4401  0.3273
 3574SOL    HW122355   1.043   4.196   6.342 -0.7822 -0.0509  1.3387
 3574SOL    HW222356   1.184   4.238   6.372  1.2827  2.1067 -0.1091
 3575SOL     OW22357   2.286   2.140   1.814  0.3097 -0.0979  0.1495
 3575SOL    HW122358   2.254   2.198   1.745 -2.1289  0.4675  1.7850
 3575SOL    HW222359   2.209   2.091   1.841  2.1788 -2.1622  1.7422
 3576SOL     OW22360   0.685   0.122   8.162  0.2807 -0.0734  0.4385
 3576SOL    HW122361   0.611   0.064   8.178 -0.3026  0.5012 -0.1756
 3576SOL    HW222362   0.720   0.128   8.251  0.4490 -3.5554  0.5869
 3577SOL     OW22363   0.996   3.196   8.035 -0.7331  0.7417  0.2328
 3577SOL    HW122364   0.950   3.113   8.023  0.4059 -0.0441  1.2759
 3577SOL    HW222365   0.940   3.245   8.094  0.3950  2.4618 -0.1161
 3578SOL     OW22366   3.271   3.502   5.197  0.5258 -0.8338 -0.3344
 3578SOL    HW122367   3.308   3.487   5.111  0.4803  1.8615 -0.8325
 3578SOL    HW222368   3.311   3.588   5.212 -1.9454  0.2870  0.0021
 3579SOL     OW22369   3.549   0.903   0.806 -0.5102  0.2397 -0.8899
 3579SOL    HW122370   3.484   0.943   0.748 -1.5970 -1.2885 -0.7222
 3579SOL    HW222371   3.521   0.945   0.887  0.3048  1.1224 -1.0703
 3580SOL     OW22372   3.455   2.134  11.056 -0.1016 -0.0040  0.4973
 3580SOL    HW122373   3.487   2.136  10.966  0.8806 -0.8962  0.8214
 3580SOL    HW222374   3.537   2.150  11.104  0.1172 -2.2614  0.8909
 3581SOL     OW22375   2.590   4.046  14.474 -0.0785 -0.2854 -0.8289
 3581SOL    HW122376   2.607   3.952  14.473 -0.4776 -0.3779  0.5236
 3581SOL    HW222377   2.676   4.080  14.450  0.0697  1.0138  1.4738
 3582SOL     OW22378   1.224   0.512   5.926  0.5127 -0.1262 -0.3831
 3582SOL    HW122379   1.282   0.588   5.932 -0.4978  0.7461 -1.4742
 3582SOL    HW222380   1.197   0.517   5.834  2.6593  0.4000 -0.9874
 3583SOL     OW22381   0.221   2.596   8.878  0.1770 -0.7574 -0.3448
 3583SOL    HW122382   0.257   2.541   8.947 -1.7402 -0.6662  0.7148
 3583SOL    HW222383   0.300   2.628   8.835 -0.0546  2.2731  1.4987
 3584SOL     OW22384   0.293   3.573   2.341  0.2624 -0.6255 -0.0806
 3584SOL    HW122385   0.339   3.645   2.300 -1.0367  1.4441  2.1159
 3584SOL    HW222386   0.205   3.609   2.337  1.3213  1.8428 -1.0677
 3585SOL     OW22387   1.403   2.378   3.969 -0.2038  0.2115  0.2008
 3585SOL    HW122388   1.369   2.414   3.886 -3.0205 -2.7809  0.0591
 3585SOL    HW222389   1.343   2.390   4.043 -2.3190  1.2842 -1.6795
 3586SOL     OW22390   3.169   0.464   7.737  0.0146  0.4377  0.0787
 3586SOL    HW122391   3.214   0.455   7.821 -1.2630  0.1886  0.7280
 3586SOL    HW222392   3.120   0.545   7.753 -1.5339  0.0164 -2.5990
 3587SOL     OW22393   4.399   1.697   0.777 -0.1587 -0.3298  0.2563
 3587SOL    HW122394   4.384   1.757   0.850  1.6263 -1.1103  1.2563
 3587SOL    HW222395   4.495   1.690   0.775 -0.0189  1.4678  0.6262
 3588SOL     OW22396   1.151   3.567   7.834 -0.1736 -0.0211  0.0689
 3588SOL    HW122397   1.180   3.630   7.768 -2.8431  0.0801 -1.0467
 3588SOL    HW222398   1.208   3.491   7.824 -0.4025 -0.2843  0.7428
 3589SOL     OW22399   1.437   2.699   2.489  0.0682 -0.1784  0.0856
 3589SOL    HW122400   1.472   2.627   2.437 -0.8478 -0.3523 -0.2854
 3589SOL    HW222401   1.362   2.732   2.441  0.2133 -0.5836 -0.4099
 3590SOL     OW22402   3.611   2.867   0.249 -0.0210 -0.1934 -0.2584
 3590SOL    HW122403   3.543   2.802   0.231  0.8736 -1.1988  0.0241
 3590SOL    HW222404   3.682   2.819   0.292 -0.0387 -0.7225 -0.8182
 3591SOL     OW22405   1.458   1.841  17.144 -0.3559  0.2411  0.0310
 3591SOL    HW122406   1.408   1.919  17.122  1.5898  0.6321 -2.9664
 3591SOL    HW222407   1.387   1.788  17.182 -0.6067  0.7563  0.2704
 3592SOL     OW22408   4.458   1.227   2.342  0.0122  0.3267  0.3005
 3592SOL    HW122409   4.439   1.236   2.248  0.6301  0.7145  0.2131
 3592SOL    HW222410   4.549   1.249   2.359 -0.7428  3.1575  0.6310
 3593SOL     OW22411   3.564   1.609   3.150  0.2403 -0.2574 -0.5224
 3593SOL    HW122412   3.498   1.606   3.219 -0.0856  1.4479 -0.7534
 3593SOL    HW222413   3.632   1.556   3.190  1.6740  2.1724  0.2656
 3594SOL     OW22414   4.054   3.129   7.391  0.0289 -0.4335 -0.5851
 3594SOL    HW122415   3.971   3.087   7.368 -0.7918  0.4922  0.6835
 3594SOL    HW222416   4.101   3.120   7.308  0.5019  0.0115 -0.3665
 3595SOL     OW22417   2.641   1.910   6.063 -0.1993  0.0076  0.3171
 3595SOL    HW122418   2.639   1.980   5.999  0.0580 -0.2670  0.0100
 3595SOL    HW222419   2.693   1.946   6.135  0.2279  0.4008 -0.1884
 3596SOL     OW22420   2.339   2.094   0.840  0.5270  0.1366  0.1845
 3596SOL    HW122421   2.308   2.137   0.760 -1.7680 -2.0938 -0.1477
 3596SOL    HW222422   2.317   2.170   0.895  0.4123  0.5915 -0.4892
 3597SOL     OW22423   0.613   0.625   6.709 -0.5385 -0.9654  0.0426
 3597SOL    HW122424   0.662   0.707   6.717 -0.8675 -1.0528  2.9962
 3597SOL    HW222425   0.559   0.631   6.787  1.7399  1.1905  1.4810
 3598SOL     OW22426   1.540   1.373   6.540 -0.3244 -1.1490 -0.5479
 3598SOL    HW122427   1.603   1.301   6.544  1.2670  0.2753 -0.0836
 3598SOL    HW222428   1.552   1.405   6.629  0.0184  0.6277 -1.2248
 3599SOL     OW22429   1.201   3.326  17.132 -0.1896 -0.1157 -0.1022
 3599SOL    HW122430   1.106   3.326  17.129 -0.2623  1.1352  2.3601
 3599SOL    HW222431   1.212   3.284  17.218  0.6975  1.4915  0.5751
 3600SOL     OW22432   1.554   4.026   4.765 -0.1485 -0.1432 -0.3512
 3600SOL    HW122433   1.579   4.089   4.698  1.6403 -2.4124 -1.8183
 3600SOL    HW222434   1.460   4.012   4.750 -0.2472  0.0421  0.1178
 3601SOL     OW22435   1.867   1.731  11.856 -0.2094  0.0265 -0.0859
 3601SOL    HW122436   1.811   1.664  11.894  0.2429  0.3067  1.0835
 3601SOL    HW222437   1.901   1.689  11.777  2.3463  0.4008  0.8031
 3602SOL     OW22438   1.943   4.095  14.877 -0.5642  0.0634 -0.0744
 3602SOL    HW122439   1.945   4.010  14.920  0.0813 -0.1555 -0.5365
 3602SOL    HW222440   1.996   4.075  14.800 -0.5950  0.1399 -0.1154
 3603SOL     OW22441   2.300   2.765  15.313 -0.1696 -0.2970 -0.2880
 3603SOL    HW122442   2.316   2.671  15.310 -3.4864 -0.8198 -1.3333
 3603SOL    HW222443   2.358   2.791  15.241  0.3859  0.3229  0.3808
 3604SOL     OW22444   1.571   0.150   1.939  0.0759  0.0785 -0.1833
 3604SOL    HW122445   1.613   0.200   1.868 -0.2358 -1.1124 -1.1989
 3604SOL    HW222446   1.560   0.071   1.886  2.2050 -1.7448  2.1154
 3605SOL     OW22447   4.185   4.389   0.328 -0.9590  0.5083 -0.9901
 3605SOL    HW122448   4.218   4.405   0.239 -0.1700  1.6893 -0.4845
 3605SOL    HW222449   4.103   4.347   0.303 -0.9101 -0.0188 -0.2396
 3606SOL     OW22450   0.832   3.958   7.435 -0.0580 -0.2454  0.0043
 3606SOL    HW122451   0.812   3.869   7.406 -0.1173 -0.1795 -0.1587
 3606SOL    HW222452   0.824   4.003   7.351  0.3457 -2.6650 -1.3550
 3607SOL     OW22453   2.852   4.486   7.397 -0.0885  0.6125 -0.0234
 3607SOL    HW122454   2.852   4.561   7.457 -3.0493  0.3596  0.2972
 3607SOL    HW222455   2.829   4.538   7.320 -0.2670  1.9796  0.9616
 3608SOL     OW22456   1.125   0.414  12.248  0.1241  0.7617  0.2387
 3608SOL    HW122457   1.055   0.366  12.292  0.3185  1.8248  1.7042
 3608SOL    HW222458   1.199   0.354  12.238 -0.4657  0.3410 -1.7137
 3609SOL     OW22459   3.244   4.616  16.866 -0.0518  0.3646  0.7246
 3609SOL    HW122460   3.245   4.521  16.867 -0.6682  0.3389 -1.0187
 3609SOL    HW222461   3.189   4.615  16.787  0.7317 -1.0847  0.1980
 3610SOL     OW22462   3.572   3.477   2.714 -0.8113 -0.6357  0.4649
 3610SOL    HW122463   3.552   3.424   2.791  0.6711  1.1274  2.0510
 3610SOL    HW222464   3.590   3.422   2.638 -1.3209  2.3904 -1.8519
 3611SOL     OW22465   2.324   2.193  12.362 -0.4229 -0.3252 -0.0388
 3611SOL    HW122466   2.384   2.120  12.381  0.9987  0.5990 -0.9393
 3611SOL    HW222467   2.352   2.258  12.427  2.3652 -0.9572 -0.5991
 3612SOL     OW22468   4.363   4.250   7.254 -0.5063 -0.0056 -0.0133
 3612SOL    HW122469   4.326   4.337   7.270  1.7008  0.7946  0.7089
 3612SOL    HW222470   4.306   4.229   7.180  1.0968  2.5285 -1.9723
 3613SOL     OW22471   0.576   3.591   7.188 -0.2061  0.2417  0.3550
 3613SOL    HW122472   0.556   3.498   7.182 -0.0726  0.2297  0.1017
 3613SOL    HW222473   0.515   3.622   7.255 -1.0542  0.5776 -0.5718
 3614SOL     OW22474   2.305   4.044  12.599 -0.3821 -0.4015  0.2608
 3614SOL    HW122475   2.287   4.137  12.616  0.8608 -0.0098 -0.5750
 3614SOL    HW222476   2.247   4.030  12.524 -0.2515 -0.0725  0.1001
 3615SOL     OW22477   2.322   0.290   6.035 -0.1501 -0.0999  0.1240
 3615SOL    HW122478   2.305   0.361   6.097  1.3508 -0.9460  1.4970
 3615SOL    HW222479   2.262   0.225   6.072 -1.2368  0.9090  0.1257
 3616SOL     OW22480   2.604   3.481   4.783 -0.1174 -0.0339  0.4578
 3616SOL    HW122481   2.671   3.538   4.821  0.0020 -0.9610  1.6725
 3616SOL    HW222482   2.527   3.538   4.788 -0.9380 -1.2014  1.1954
 3617SOL     OW22483   2.860   0.822   2.903  0.0183  0.3436  0.1109
 3617SOL    HW122484   2.862   0.756   2.973  0.6297 -0.9095 -1.0767
 3617SOL    HW222485   2.887   0.755   2.839 -0.8313 -0.4865  0.6228
 3618SOL     OW22486   2.367   0.420  13.396 -0.2958 -0.6943 -0.0157
 3618SOL    HW122487   2.418   0.451  13.471  1.0799 -1.1877 -0.7599
 3618SOL    HW222488   2.278   0.409  13.429 -0.0037  3.1331  2.0589
 3619SOL     OW22489   2.305   2.167  15.712  0.0737 -0.0247 -0.3415
 3619SOL    HW122490   2.271   2.096  15.766 -0.4957  1.8092  1.6748
 3619SOL    HW222491   2.352   2.118  15.644 -0.3358  0.2342 -0.8197
 3620SOL     OW22492   3.047   2.477  10.063  0.0650 -0.2421 -0.3009
 3620SOL    HW122493   3.025   2.534  10.137  1.7578  0.3412 -0.2557
 3620SOL    HW222494   2.968   2.425  10.051  1.6013 -2.2104 -1.8151
 3621SOL     OW22495   2.657   1.111  13.711  0.1453  0.5178  0.6406
 3621SOL    HW122496   2.745   1.077  13.722  0.2818  0.6906  0.0872
 3621SOL    HW222497   2.633   1.090  13.802  1.7166  2.0823  1.4007
 3622SOL     OW22498   0.299   4.268   9.031  0.6753 -0.3539 -0.0638
 3622SOL    HW122499   0.390   4.296   9.042  1.1831 -2.3887  0.8341
 3622SOL    HW222500   0.289   4.275   8.936  1.5251  0.8201 -0.0726
 3623SOL     OW22501   3.488   1.498  14.979 -0.0695 -0.1762  0.1116
 3623SOL    HW122502   3.497   1.559  15.052  2.6798  2.1167 -2.1451
 3623SOL    HW222503   3.393   1.507  14.973 -0.0250  1.1955  1.4380
 3624SOL     OW22504   0.486   2.856   4.223  0.5751 -0.3594 -0.1109
 3624SOL    HW122505   0.415   2.795   4.241  2.3714 -2.4070  0.1767
 3624SOL    HW222506   0.475   2.893   4.311  1.2587  0.3298 -0.3108
 3625SOL     OW22507   3.339   1.864   3.314  0.0037  0.2376 -0.0772
 3625SOL    HW122508   3.246   1.854   3.296 -0.1012 -0.5550  0.8708
 3625SOL    HW222509   3.377   1.777   3.300  1.4265  0.6034  1.4632
 3626SOL     OW22510   1.032   4.004   4.366 -0.2438 -0.7303 -0.7063
 3626SOL    HW122511   1.095   3.941   4.330  0.8719 -0.8032  1.3420
 3626SOL    HW222512   1.075   4.088   4.355  0.3507 -0.5382  2.8217
 3627SOL     OW22513   2.265   0.677   4.823  0.0673  0.3685 -0.2560
 3627SOL    HW122514   2.314   0.758   4.806 -0.4170  0.3384 -1.8118
 3627SOL    HW222515   2.213   0.664   4.744 -0.3397  0.7740 -0.0505
 3628SOL     OW22516   2.920   1.766   0.938  0.4730 -0.0329  0.2457
 3628SOL    HW122517   2.843   1.822   0.928 -0.3205 -1.1744  0.0452
 3628SOL    HW222518   2.871   1.685   0.930  1.3568 -0.3720 -1.8516
 3629SOL     OW22519   3.460   0.177  13.085 -0.0116  0.0220  0.2392
 3629SOL    HW122520   3.384   0.180  13.143  1.1778 -0.5318  1.8086
 3629SOL    HW222521   3.424   0.215  13.005  2.1732  0.9227 -0.3357
 3630SOL     OW22522   2.187   2.967  13.554  0.5394  1.0239 -0.1362
 3630SOL    HW122523   2.198   3.015  13.472 -1.9834  0.3016 -0.8903
 3630SOL    HW222524   2.277   2.942  13.577  0.9595  0.9654 -1.8004
 3631SOL     OW22525   3.212   1.267   5.871 -0.0891  0.0159 -0.3770
 3631SOL    HW122526   3.124   1.238   5.896 -0.3820  2.4282  1.3889
 3631SOL    HW222527   3.248   1.185   5.839  0.1144 -0.6849  1.6104
 3632SOL     OW22528   1.533   4.283  17.005  0.6086 -0.1464  0.4947
 3632SOL    HW122529   1.525   4.190  17.027 -0.0284 -0.0693  0.5896
 3632SOL    HW222530   1.440   4.303  16.994  0.6067 -0.0176  0.7260
 3633SOL     OW22531   2.200   2.275   4.013  0.1585 -0.4413  0.0091
 3633SOL    HW122532   2.291   2.247   4.011  0.2207 -0.3099  0.9348
 3633SOL    HW222533   2.187   2.289   3.919 -1.4419 -1.8394  0.0209
 3634SOL     OW22534   3.857   2.384   1.874  0.4451  0.5671 -0.3861
 3634SOL    HW122535   3.898   2.362   1.958 -0.1463 -1.9879 -0.7522
 3634SOL    HW222536   3.843   2.303   1.824  0.4035  0.6459 -0.5019
 3635SOL     OW22537   0.043   0.404   0.031 -0.6930  0.3959 -0.1008
 3635SOL    HW122538   0.032   0.488   0.076 -0.8248 -0.5159  1.5461
 3635SOL    HW222539   0.060   0.427  17.669  1.6759  0.9794  0.4755
 3636SOL     OW22540   2.612   3.217   9.701 -1.0281  0.0808  0.1775
 3636SOL    HW122541   2.555   3.232   9.626 -0.1448  1.4403 -0.2096
 3636SOL    HW222542   2.655   3.302   9.709 -2.6071  0.8317  0.6102
 3637SOL     OW22543   1.010   3.288   6.844 -0.1564  0.3626 -0.9566
 3637SOL    HW122544   1.036   3.319   6.757  0.5242 -0.2552 -0.9689
 3637SOL    HW222545   0.971   3.359   6.895  0.5577  1.0601 -1.3746
 3638SOL     OW22546   2.956   3.586   8.354 -0.1882  0.3409  0.3407
 3638SOL    HW122547   2.908   3.506   8.376  1.8818 -0.6063  1.4128
 3638SOL    HW222548   3.022   3.544   8.298 -0.3309  0.6609 -0.0713
 3639SOL     OW22549   1.006   1.637   9.157 -0.0742  0.7613 -0.5027
 3639SOL    HW122550   1.084   1.605   9.111 -0.6685  1.6569 -2.1472
 3639SOL    HW222551   0.952   1.559   9.166 -0.4903  1.0664 -0.3586
 3640SOL     OW22552   3.820   0.628   3.018 -0.4186 -0.0977 -0.0540
 3640SOL    HW122553   3.909   0.610   3.049 -1.9273 -3.3364  2.2403
 3640SOL    HW222554   3.843   0.692   2.950 -2.3520 -0.1409 -0.7418
 3641SOL     OW22555   0.132   3.665   8.075 -0.8809 -0.5411  0.0039
 3641SOL    HW122556   0.082   3.744   8.060  0.0138  0.4003  1.9303
 3641SOL    HW222557   0.205   3.699   8.128  0.7943 -2.7029 -0.9308
 3642SOL     OW22558   3.356   3.764   5.240  0.0579  0.5308 -0.5018
 3642SOL    HW122559   3.395   3.715   5.312  1.2625  2.6510  0.2800
 3642SOL    HW222560   3.403   3.847   5.246  2.1391 -0.7673  0.9387
 3643SOL     OW22561   2.254   1.465   5.335  0.5598 -0.3369  0.4121
 3643SOL    HW122562   2.282   1.470   5.426  0.9794  1.8910  0.1514
 3643SOL    HW222563   2.167   1.425   5.338  1.1351 -1.8573 -2.5286
 3644SOL     OW22564   2.900   1.754   3.819  0.9036 -0.1657 -0.0573
 3644SOL    HW122565   2.939   1.760   3.906  1.9083 -0.2304 -0.5044
 3644SOL    HW222566   2.904   1.660   3.800  0.2384 -0.1344 -0.3548
 3645SOL     OW22567   1.308   2.694  14.953 -0.1959  0.2895  0.4180
 3645SOL    HW122568   1.379   2.650  15.000 -1.7010 -0.7573  1.7135
 3645SOL    HW222569   1.333   2.779  14.990 -1.2001  1.1012 -0.7566
 3646SOL     OW22570   1.372   4.353   3.730 -0.0690 -0.0944 -0.1763
 3646SOL    HW122571   1.437   4.422   3.745 -1.5557  1.3319 -0.3313
 3646SOL    HW222572   1.290   4.400   3.715 -0.4334 -0.4806  0.6050
 3647SOL     OW22573   1.782   0.125   4.801 -0.5000  0.1559  0.0124
 3647SOL    HW122574   1.720   0.156   4.867 -1.2646 -0.4454 -0.4280
 3647SOL    HW222575   1.867   0.160   4.828  0.2730 -0.9182 -1.0247
 3648SOL     OW22576   1.972   3.619   4.566  0.1810 -0.3034 -0.0147
 3648SOL    HW122577   1.952   3.539   4.519  2.1938 -0.0950 -1.2066
 3648SOL    HW222578   1.965   3.681   4.493  0.8942 -1.7322 -1.2834
 3649SOL     OW22579   3.933   0.970   3.624 -0.4043  0.0343  0.4700
 3649SOL    HW122580   3.990   0.913   3.676  1.9469  1.7288 -0.2424
 3649SOL    HW222581   3.929   1.043   3.687 -0.3094  0.0169  0.4955
 3650SOL     OW22582   2.917   0.113  11.547  0.8828 -0.0276  0.5268
 3650SOL    HW122583   2.976   0.059  11.494 -0.9357 -2.4960  0.9864
 3650SOL    HW222584   2.841   0.115  11.489  2.2561 -1.6031 -1.3417
 3651SOL     OW22585   0.307   3.404   3.138 -0.7155  0.0862  0.2245
 3651SOL    HW122586   0.392   3.431   3.104 -0.6466  2.0693  1.9641
 3651SOL    HW222587   0.333   3.347   3.210 -1.7349 -0.3312  0.2682
 3652SOL     OW22588   2.835   0.951   9.526 -0.8125 -0.1713  0.1013
 3652SOL    HW122589   2.924   0.947   9.560 -0.1168 -1.4519 -1.8940
 3652SOL    HW222590   2.803   1.033   9.563 -1.1382 -0.5977  0.7585
 3653SOL     OW22591   1.595   2.958   4.002 -0.1057  0.0233 -0.5383
 3653SOL    HW122592   1.543   2.964   4.082  0.8257  1.1906 -0.0289
 3653SOL    HW222593   1.521   2.960   3.941  1.0368 -1.2383 -1.9674
 3654SOL     OW22594   2.502   2.920   8.373  0.6104 -0.5763 -0.2965
 3654SOL    HW122595   2.434   2.935   8.308  2.8558 -0.8471 -2.6989
 3654SOL    HW222596   2.578   2.900   8.318  0.0025 -0.5886 -1.1154
 3655SOL     OW22597   0.900   0.326   8.277 -0.2087  0.1156 -0.0957
 3655SOL    HW122598   0.846   0.270   8.332 -1.1476  1.1554  0.0464
 3655SOL    HW222599   0.985   0.288   8.299 -0.0926 -0.9240 -2.3498
 3656SOL     OW22600   1.131   4.725  12.442 -0.4408  0.4249 -0.5763
 3656SOL    HW122601   1.138   0.083  12.473 -1.1037 -0.1637  1.2811
 3656SOL    HW222602   1.043   4.732  12.405 -1.3176  0.1330  1.4975
 3657SOL     OW22603   1.895   1.176   4.173  0.3705 -0.2515  0.7356
 3657SOL    HW122604   1.801   1.190   4.159  0.4194  0.9303  1.5210
 3657SOL    HW222605   1.923   1.138   4.090 -1.3198  0.4046 -0.1417
 3658SOL     OW22606   2.573   0.967  16.661 -0.4747 -0.9065 -0.5920
 3658SOL    HW122607   2.532   0.920  16.589 -0.3775 -0.8314 -0.6948
 3658SOL    HW222608   2.533   0.925  16.737  0.0135  0.0704  0.2103
 3659SOL     OW22609   1.053   1.542   5.250 -0.5094 -0.2238  0.0457
 3659SOL    HW122610   1.125   1.581   5.299 -1.6092  0.7302  0.9209
 3659SOL    HW222611   1.097   1.500   5.176  0.4614 -0.1492  0.5836
 3660SOL     OW22612   0.095   3.071  16.904  0.1973  0.7510 -0.4833
 3660SOL    HW122613   0.152   3.021  16.963 -1.3499  0.7162  0.9778
 3660SOL    HW222614   0.112   3.040  16.815 -1.2732 -0.5582 -0.2884
 3661SOL     OW22615   0.630   0.295   4.734 -0.0333 -0.2301 -0.0865
 3661SOL    HW122616   0.641   0.295   4.829  1.9764  0.2962 -0.3154
 3661SOL    HW222617   0.538   0.318   4.740  0.4092  0.8061  2.7372
 3662SOL     OW22618   0.894   4.545  10.906 -0.4733  0.1114  0.1170
 3662SOL    HW122619   0.842   4.526  10.984 -0.9611  0.8636 -0.0227
 3662SOL    HW222620   0.980   4.568  10.939  0.5922  1.0816 -3.2906
 3663SOL     OW22621   2.258   2.708   9.903  0.6739  0.0595  0.1472
 3663SOL    HW122622   2.334   2.718   9.961  2.1861 -0.6667 -1.6910
 3663SOL    HW222623   2.293   2.743   9.822  2.1402  0.3190  0.8919
 3664SOL     OW22624   0.018   3.919   2.943  0.0875  0.0527  0.0266
 3664SOL    HW122625   0.019   3.825   2.956 -2.4374  0.3645  2.2965
 3664SOL    HW222626   4.659   3.939   2.960  0.0495 -0.7441  0.7249
 3665SOL     OW22627   0.544   3.117   5.093  0.0827  0.1975 -0.3516
 3665SOL    HW122628   0.509   3.154   5.174 -1.5543 -1.8628 -0.1056
 3665SOL    HW222629   0.494   3.169   5.030 -1.8601 -1.3171 -0.0849
 3666SOL     OW22630   4.084   1.907   1.396 -0.2220  0.6136  0.5280
 3666SOL    HW122631   4.070   1.994   1.433  0.7528  0.9023  0.1984
 3666SOL    HW222632   4.168   1.878   1.430 -0.5451 -0.5428  0.3675
 3667SOL     OW22633   3.499   0.700   7.949  0.3840 -0.2293 -0.2654
 3667SOL    HW122634   3.492   0.677   8.041 -0.6359 -0.5954 -0.4397
 3667SOL    HW222635   3.442   0.632   7.913 -0.6875  0.8034 -0.5071
 3668SOL     OW22636   3.898   2.537  17.391  0.2142 -0.1310  0.4566
 3668SOL    HW122637   3.994   2.535  17.387  0.2606  1.5780  0.4915
 3668SOL    HW222638   3.878   2.619  17.437 -0.9048 -0.1681  0.0157
 3669SOL     OW22639   1.493   4.597   5.369 -0.0843 -0.3068 -0.8505
 3669SOL    HW122640   1.444   4.554   5.299 -0.6303 -0.0418 -0.6309
 3669SOL    HW222641   1.491   4.683   5.327  4.1846 -1.4412 -3.3875
 3670SOL     OW22642   1.510   2.101   4.495  0.0996  0.4102  0.3317
 3670SOL    HW122643   1.452   2.171   4.467 -0.7261 -0.2486  0.4126
 3670SOL    HW222644   1.485   2.076   4.583 -0.7842 -1.1820 -0.3776
 3671SOL     OW22645   0.868   2.432  10.994  0.4293 -0.2797 -0.1646
 3671SOL    HW122646   0.791   2.437  10.938  1.4166  1.2719 -1.3738
 3671SOL    HW222647   0.903   2.519  10.972  0.0953  0.7320  3.2698
 3672SOL     OW22648   2.163   1.416   6.667  0.0297 -0.8616  0.4608
 3672SOL    HW122649   2.085   1.468   6.654  0.7106  0.4132  1.5018
 3672SOL    HW222650   2.213   1.456   6.595 -1.0758  2.6326  1.6568
 3673SOL     OW22651   1.058   0.898  17.189  0.2990 -0.4029 -0.1218
 3673SOL    HW122652   1.049   0.993  17.185  0.4668 -0.3192  1.4015
 3673SOL    HW222653   1.029   0.873  17.101 -1.7250  1.7178 -0.0443
 3674SOL     OW22654   1.919   1.139   8.379 -0.0674  0.4585  0.6233
 3674SOL    HW122655   2.002   1.115   8.337 -1.9767 -0.9771 -2.3164
 3674SOL    HW222656   1.861   1.126   8.304  0.4233  3.4758 -0.2613
 3675SOL     OW22657   3.066   4.554   7.045 -0.3253 -0.1734  0.1312
 3675SOL    HW122658   3.108   4.468   7.042  0.5108  0.2193  0.6465
 3675SOL    HW222659   3.121   4.607   7.102 -1.1792  1.9505 -1.0048
 3676SOL     OW22660   1.904   3.725   3.731 -0.3241 -0.8697  0.6647
 3676SOL    HW122661   1.987   3.704   3.774 -0.2745 -1.4636  0.2821
 3676SOL    HW222662   1.917   3.820   3.729  0.8045 -1.0177  0.9187
 3677SOL     OW22663   2.928   1.547  16.020  0.8432 -0.5537  0.4245
 3677SOL    HW122664   2.857   1.611  16.027  0.9009 -0.4739  0.2778
 3677SOL    HW222665   2.996   1.603  15.983  1.5890 -0.1336  2.4730
 3678SOL     OW22666   4.524   2.637   3.216 -1.1149 -0.4791 -0.1422
 3678SOL    HW122667   4.610   2.605   3.243  0.0141  1.1077 -1.8713
 3678SOL    HW222668   4.541   2.717   3.166 -0.8527 -0.4647 -0.0287
 3679SOL     OW22669   1.338   4.025   4.593  0.0556  0.1759  0.3896
 3679SOL    HW122670   1.313   4.090   4.528  1.2413  0.6807  0.4434
 3679SOL    HW222671   1.326   3.951   4.534 -1.3548 -0.3168  1.2754
 3680SOL     OW22672   1.847   4.558   7.905 -0.0737  0.3887 -0.1011
 3680SOL    HW122673   1.789   4.629   7.878 -0.9447  0.1885  1.2047
 3680SOL    HW222674   1.783   4.492   7.932  0.9085 -0.8148 -0.6958
 3681SOL     OW22675   3.987   0.760  11.128 -0.3585  0.2705  0.0346
 3681SOL    HW122676   3.997   0.803  11.043  0.3111  2.1883  1.0961
 3681SOL    HW222677   4.077   0.767  11.161  0.2947  0.2199 -1.7203
 3682SOL     OW22678   3.728   3.377   7.627  0.6845 -0.2289 -0.2537
 3682SOL    HW122679   3.791   3.404   7.559  1.0898  0.8210  0.5282
 3682SOL    HW222680   3.666   3.450   7.625 -0.7105 -1.4521 -0.8358
 3683SOL     OW22681   0.373   2.502   3.410 -0.4207 -0.0470  0.1489
 3683SOL    HW122682   0.343   2.455   3.488 -2.0013 -0.8564 -0.9538
 3683SOL    HW222683   0.419   2.578   3.445 -0.8536  1.3773 -2.4028
 3684SOL     OW22684   3.546   0.236  11.673 -0.1404  0.0536  0.9460
 3684SOL    HW122685   3.526   0.260  11.583  0.3549 -0.9902  0.5561
 3684SOL    HW222686   3.581   0.320  11.701  1.7554 -0.5802  0.5052
 3685SOL     OW22687   2.280   2.334   4.691  0.1918 -0.2467  0.0751
 3685SOL    HW122688   2.195   2.299   4.665  0.0076 -0.3903  0.8599
 3685SOL    HW222689   2.330   2.268   4.643 -3.4729 -1.9588 -1.4067
 3686SOL     OW22690   2.261   2.405   5.116 -0.1316 -0.3932 -0.0188
 3686SOL    HW122691   2.317   2.396   5.039  0.5650  0.4560  0.3973
 3686SOL    HW222692   2.273   2.499   5.128  1.0120 -0.4974 -0.3776
 3687SOL     OW22693   1.272   2.069   8.717 -0.3146 -0.2050 -0.0992
 3687SOL    HW122694   1.221   2.147   8.738  0.9806  0.7965 -0.6474
 3687SOL    HW222695   1.284   2.032   8.805  3.1923  1.0347 -0.0494
 3688SOL     OW22696   4.633   2.388   8.876 -0.4029  0.1644 -0.0076
 3688SOL    HW122697   4.651   2.294   8.869  1.3513  0.5920 -1.1443
 3688SOL    HW222698   4.620   2.390   8.971 -1.6251 -0.1895 -0.1629
 3689SOL     OW22699   1.335   0.981   4.039 -0.1772 -0.1602  0.2904
 3689SOL    HW122700   1.334   0.901   3.987 -0.0415  0.4176 -0.5984
 3689SOL    HW222701   1.350   1.051   3.976  0.0156  2.1632  2.8835
 3690SOL     OW22702   4.380   4.377  10.442 -0.1793  0.0228 -0.2348
 3690SOL    HW122703   4.420   4.462  10.421 -0.2805  0.1428  0.0668
 3690SOL    HW222704   4.445   4.316  10.407  0.5910  0.2901  0.7520
 3691SOL     OW22705   3.322   1.020  14.922  0.3849 -0.4237  0.1819
 3691SOL    HW122706   3.260   1.081  14.962  0.2916 -1.2383  1.2838
 3691SOL    HW222707   3.391   1.077  14.889  0.5480 -0.1270  1.0294
 3692SOL     OW22708   0.490   1.295  15.974 -0.4518 -0.0880  0.2968
 3692SOL    HW122709   0.529   1.308  16.061 -0.2032  2.1843 -0.1579
 3692SOL    HW222710   0.409   1.345  15.985  0.4020  1.5189 -0.7358
 3693SOL     OW22711   0.296   0.905  16.439 -0.0437 -0.4833 -0.3398
 3693SOL    HW122712   0.354   0.848  16.490  0.9509 -0.2771 -1.2396
 3693SOL    HW222713   0.268   0.848  16.368 -0.0735 -1.2543  0.2908
 3694SOL     OW22714   2.373   0.715   8.070 -0.1738 -0.0781  0.5096
 3694SOL    HW122715   2.421   0.700   7.989 -0.9434  0.8384 -0.1163
 3694SOL    HW222716   2.292   0.756   8.038  0.8587  0.8693 -0.8753
 3695SOL     OW22717   2.879   0.056   9.561 -0.3550 -0.2579  0.5193
 3695SOL    HW122718   2.829   0.051   9.479  0.5388 -1.9330  0.0849
 3695SOL    HW222719   2.970   0.062   9.533 -0.5925 -0.5014 -0.3109
 3696SOL     OW22720   1.275   2.415  15.283 -0.0202 -0.0073 -0.3620
 3696SOL    HW122721   1.258   2.448  15.194  0.5289 -1.7128 -1.0914
 3696SOL    HW222722   1.354   2.463  15.309  0.9031 -0.3872 -2.5205
 3697SOL     OW22723   3.432   1.305   7.867 -0.7773 -0.5195 -0.1674
 3697SOL    HW122724   3.454   1.397   7.884 -0.4175 -0.7198  0.4366
 3697SOL    HW222725   3.505   1.270   7.917 -0.7107  0.6944  0.6022
 3698SOL     OW22726   0.415   0.097  15.504  0.0526 -0.1627  0.1293
 3698SOL    HW122727   0.395   0.185  15.471  2.4919  0.3245 -0.1131
 3698SOL    HW222728   0.492   0.122  15.555  0.7692  1.7271 -1.8771
 3699SOL     OW22729   2.581   1.071   9.686 -0.7521  0.5891  0.0913
 3699SOL    HW122730   2.602   1.140   9.624  3.0389  0.2495  0.9992
 3699SOL    HW222731   2.507   1.025   9.646 -0.4891  1.5070 -1.4337
 3700SOL     OW22732   3.587   1.815   5.384  0.2268 -0.1176 -0.2539
 3700SOL    HW122733   3.561   1.759   5.458  1.9177  1.3877  1.4634
 3700SOL    HW222734   3.519   1.776   5.329  0.0523 -0.9006  0.5172
 3701SOL     OW22735   3.073   4.683  15.246  0.2687 -0.1092  0.4128
 3701SOL    HW122736   3.131   4.625  15.198  2.4509  1.3508  1.2726
 3701SOL    HW222737   3.116   0.037  15.251 -2.6350  1.3273  0.3901
 3702SOL     OW22738   3.840   3.171   2.416  0.1247 -0.1187 -0.1345
 3702SOL    HW122739   3.921   3.221   2.425  0.9078 -1.3131 -0.4530
 3702SOL    HW222740   3.864   3.101   2.477  0.8835  0.2060 -0.0623
 3703SOL     OW22741   0.162   1.763   8.830  0.4296  0.0914 -0.0061
 3703SOL    HW122742   0.257   1.775   8.831  0.1392  2.2842  1.4120
 3703SOL    HW222743   0.142   1.669   8.827  0.1143  0.1719 -0.4585
 3704SOL     OW22744   2.244   2.385   6.218 -0.1256 -0.2305  0.6717
 3704SOL    HW122745   2.295   2.420   6.290  0.7761 -1.4722  0.6469
 3704SOL    HW222746   2.243   2.455   6.153 -0.2733 -2.3151 -1.6143
 3705SOL     OW22747   2.424   2.764   5.780 -0.4121  0.9095  0.3291
 3705SOL    HW122748   2.417   2.794   5.871  2.4414 -1.2530  1.2828
 3705SOL    HW222749   2.331   2.765   5.759 -0.4133  0.8684  0.3305
 3706SOL     OW22750   2.857   2.457  15.863  0.1643 -0.0953 -0.0852
 3706SOL    HW122751   2.844   2.380  15.808 -0.0285 -0.6145  0.6902
 3706SOL    HW222752   2.770   2.478  15.896 -0.4131  0.3984 -1.9576
 3707SOL     OW22753   1.178   1.717   6.433  0.0977 -0.0755 -0.1796
 3707SOL    HW122754   1.263   1.704   6.391 -0.0130 -3.2571  0.6382
 3707SOL    HW222755   1.171   1.643   6.493 -4.0686  1.9081  1.7434
 3708SOL     OW22756   2.550   0.132   9.163  0.1120 -0.3272  0.0362
 3708SOL    HW122757   2.593   0.215   9.143  3.2724 -1.7107  1.1101
 3708SOL    HW222758   2.613   0.095   9.225 -0.8437 -1.9910  0.0267
 3709SOL     OW22759   2.598   0.224  11.937 -0.0484 -0.4995 -0.4597
 3709SOL    HW122760   2.524   0.181  11.979 -2.1361 -0.4345 -4.0505
 3709SOL    HW222761   2.651   0.154  11.901 -2.9782 -3.1879  0.4585
 3710SOL     OW22762   1.917   2.757   6.216 -0.3529 -0.1421 -0.5655
 3710SOL    HW122763   1.880   2.676   6.252 -0.7921  0.2609 -0.1004
 3710SOL    HW222764   1.905   2.761   6.121 -1.4515  3.4085 -0.2624
 3711SOL     OW22765   2.763   0.557   3.067 -0.1118 -0.0952  0.5827
 3711SOL    HW122766   2.810   0.490   3.016 -1.5802 -0.6035 -0.0879
 3711SOL    HW222767   2.690   0.499   3.088  0.3019 -0.1587  1.8265
 3712SOL     OW22768   1.816   4.490   6.529 -0.3429  0.1463  0.2556
 3712SOL    HW122769   1.740   4.432   6.523  0.8925 -1.6800  2.2487
 3712SOL    HW222770   1.856   4.464   6.612 -0.1665  1.1911  0.4986
 3713SOL     OW22771   2.022   4.568   4.700 -0.4163 -0.6963  0.0812
 3713SOL    HW122772   1.958   4.562   4.629  0.5758  0.7430 -0.9291
 3713SOL    HW222773   1.966   4.538   4.771  0.2292  2.2021  1.8033
 3714SOL     OW22774   0.070   0.476   3.313  0.1653  0.6532  0.1268
 3714SOL    HW122775   4.711   0.470   3.284  0.3967 -2.5049  0.0523
 3714SOL    HW222776   0.098   0.385   3.310  0.3255  0.6584  1.5132
 3715SOL     OW22777   3.818   1.270  13.388 -0.1889 -0.6060  0.7581
 3715SOL    HW122778   3.871   1.329  13.334 -0.4874 -1.5620 -0.5453
 3715SOL    HW222779   3.866   1.188  13.395 -0.9843 -1.1933 -0.7712
 3716SOL     OW22780   0.744   3.081   6.150 -0.2088 -0.1915 -0.4283
 3716SOL    HW122781   0.761   2.988   6.137 -0.0058 -0.2109 -0.0312
 3716SOL    HW222782   0.764   3.101   6.059 -1.6965 -0.4983 -0.8133
 3717SOL     OW22783   0.600   3.449  17.729 -0.5059  0.3535  0.0059
 3717SOL    HW122784   0.602   3.390   0.075  0.2192  0.5945  0.1818
 3717SOL    HW222785   0.571   3.533   0.033  1.6435  0.5964  1.2619
 3718SOL     OW22786   1.413   1.844   9.103  0.0570 -0.2642 -0.0903
 3718SOL    HW122787   1.426   1.772   9.165 -0.2648 -2.5789 -2.6993
 3718SOL    HW222788   1.483   1.831   9.039  1.9764  2.5350  1.4251
 3719SOL     OW22789   3.057   2.647  15.995 -0.8842 -0.4142  0.3485
 3719SOL    HW122790   2.962   2.647  15.988 -0.9917 -1.7644  1.6472
 3719SOL    HW222791   3.076   2.715  15.930 -0.4024 -1.1673 -0.2995
 3720SOL     OW22792   4.607   1.788   4.766  0.2295  0.3049  0.8746
 3720SOL    HW122793   4.678   1.830   4.814  0.5326  0.9188 -0.1167
 3720SOL    HW222794   4.540   1.800   4.834 -0.0082 -1.0559  0.8795
 3721SOL     OW22795   0.845   3.186   0.183  0.3044  0.0263 -0.3684
 3721SOL    HW122796   0.830   3.143   0.267 -1.0348 -0.1483 -0.6957
 3721SOL    HW222797   0.858   3.274   0.219 -3.2620  1.1414 -1.7592
 3722SOL     OW22798   1.440   1.656   0.008 -0.3720 -0.0819  0.2820
 3722SOL    HW122799   1.373   1.722  17.722  0.8105  1.7830  3.0139
 3722SOL    HW222800   1.480   1.652  17.651  1.6875  0.6878  1.1865
 3723SOL     OW22801   1.646   3.632   3.774  0.0860  0.0787  0.6104
 3723SOL    HW122802   1.598   3.677   3.843  1.0678  0.5810  0.9700
 3723SOL    HW222803   1.724   3.687   3.771  0.5233 -0.6258 -0.8656
 3724SOL     OW22804   0.539   4.339   7.099  0.0760 -0.3273  0.1382
 3724SOL    HW122805   0.446   4.317   7.100 -0.2067  0.8613 -1.3299
 3724SOL    HW222806   0.534   4.429   7.130 -2.4677 -0.0565 -1.1577
 3725SOL     OW22807   1.474   2.978   2.350  0.1260 -0.0402 -0.5965
 3725SOL    HW122808   1.520   2.904   2.390 -0.2970  0.8573  1.5818
 3725SOL    HW222809   1.415   2.993   2.423  1.8480  0.5872  0.6865
 3726SOL     OW22810   2.557   0.581   8.215 -0.6203  0.4123 -0.0291
 3726SOL    HW122811   2.500   0.642   8.168 -0.7228  1.6548  1.6883
 3726SOL    HW222812   2.513   0.559   8.296  1.2301 -2.0308  0.3161
 3727SOL     OW22813   0.181   4.095   9.227 -0.0413 -0.7779  0.2255
 3727SOL    HW122814   0.226   4.166   9.182  0.4609 -1.6663 -0.6826
 3727SOL    HW222815   0.232   4.021   9.194 -1.0887 -0.4667 -2.0959
 3728SOL     OW22816   2.202   0.676  10.376 -0.5870  0.0982  0.4979
 3728SOL    HW122817   2.133   0.613  10.396 -1.1686  1.1974  1.8840
 3728SOL    HW222818   2.215   0.722  10.459 -0.3362 -2.1059  1.6712
 3729SOL     OW22819   2.137   3.789   8.939  0.5213  0.8763  0.4338
 3729SOL    HW122820   2.135   3.882   8.962 -0.2815  0.8729  0.3866
 3729SOL    HW222821   2.102   3.796   8.851  0.5698  0.3207  0.3691
 3730SOL     OW22822   3.004   1.912   5.617  0.3735  0.3702  0.4649
 3730SOL    HW122823   3.024   1.991   5.568 -2.1055  0.2168 -0.7676
 3730SOL    HW222824   2.982   1.847   5.550 -1.0339  2.6239 -1.2436
 3731SOL     OW22825   0.213   2.260   5.221 -0.4012  0.1896  0.5712
 3731SOL    HW122826   0.188   2.294   5.135  0.9526 -0.9788 -0.2770
 3731SOL    HW222827   0.126   2.257   5.261 -0.0522 -1.6318  1.2023
 3732SOL     OW22828   2.590   1.632   2.727 -0.1060  0.6778  0.9808
 3732SOL    HW122829   2.509   1.642   2.676 -0.2027  0.3061  1.0637
 3732SOL    HW222830   2.551   1.643   2.814 -0.6080 -0.9462  0.9546
 3733SOL     OW22831   1.109   2.186  17.625 -0.0109 -0.4565  1.0041
 3733SOL    HW122832   1.091   2.140  17.543 -1.2395 -0.7828  1.4610
 3733SOL    HW222833   1.178   2.243  17.591 -1.2268  1.2096  1.3198
 3734SOL     OW22834   1.306   2.317   4.444  0.3986 -0.3146  0.5397
 3734SOL    HW122835   1.369   2.358   4.504  0.5781  0.4181 -0.1481
 3734SOL    HW222836   1.220   2.342   4.478  1.2396  1.8302  1.1135
 3735SOL     OW22837   2.231   3.504   2.854  0.1787 -0.4474  0.1754
 3735SOL    HW122838   2.274   3.501   2.940  0.3558  0.8576  0.1213
 3735SOL    HW222839   2.315   3.512   2.810  0.0263  0.7063  0.0970
 3736SOL     OW22840   0.316   2.422   5.662 -0.2508  0.0287 -0.6599
 3736SOL    HW122841   0.406   2.442   5.636  0.5104 -2.0228  0.4253
 3736SOL    HW222842   0.315   2.327   5.648  0.7709 -0.2679  1.3332
 3737SOL     OW22843   3.615   0.814  17.631 -0.0440 -0.3493 -0.1704
 3737SOL    HW122844   3.560   0.856  17.696 -0.6650  0.4996 -1.2563
 3737SOL    HW222845   3.684   0.879  17.622  1.6147 -1.8777  1.3935
 3738SOL     OW22846   4.494   1.864   9.635  0.1537 -0.4353 -0.6151
 3738SOL    HW122847   4.501   1.876   9.540  2.1530 -1.1459 -0.5472
 3738SOL    HW222848   4.438   1.936   9.665  2.9142  0.7442  1.7666
 3739SOL     OW22849   3.363   1.007  11.971 -0.3948 -0.1767 -0.0510
 3739SOL    HW122850   3.290   1.040  11.918  0.2516  2.0671  0.4621
 3739SOL    HW222851   3.353   0.912  11.968  0.4607 -0.2326 -0.9901
 3740SOL     OW22852   1.127   2.035   6.531 -0.9492  0.0950  0.3794
 3740SOL    HW122853   1.058   1.972   6.512 -0.2264 -0.1072 -1.6375
 3740SOL    HW222854   1.115   2.049   6.625 -0.0144 -0.4330  0.5768
 3741SOL     OW22855   2.250   1.352   8.722  0.6167  1.2044 -0.2970
 3741SOL    HW122856   2.221   1.393   8.803 -0.6409 -0.9029  0.3343
 3741SOL    HW222857   2.168   1.307   8.703  0.3452  1.5547  0.0584
 3742SOL     OW22858   0.798   3.670   3.756  0.6099 -0.0326 -0.3015
 3742SOL    HW122859   0.781   3.702   3.844  0.6954  0.5361 -0.4902
 3742SOL    HW222860   0.894   3.673   3.760  0.6652 -2.3756  0.4692
 3743SOL     OW22861   4.699   0.401   7.009 -0.1566 -0.3228 -0.0157
 3743SOL    HW122862   4.629   0.337   7.015 -0.8575  0.5405  0.9177
 3743SOL    HW222863   4.684   0.438   7.096 -0.5270  1.0414 -0.6490
 3744SOL     OW22864   1.643   1.892  13.269  0.4715  0.0676  0.6427
 3744SOL    HW122865   1.655   1.830  13.197  1.5307  2.1477 -0.9816
 3744SOL    HW222866   1.655   1.978  13.228 -0.2361  0.7518  1.8753
 3745SOL     OW22867   1.100   2.665   5.523 -0.0740  0.3901  0.0565
 3745SOL    HW122868   1.166   2.711   5.471 -0.4582  2.4314  1.4066
 3745SOL    HW222869   1.022   2.708   5.490 -0.7756 -0.9256  0.0018
 3746SOL     OW22870   1.740   2.731   6.857  0.4107  0.7011 -0.1848
 3746SOL    HW122871   1.691   2.765   6.932  0.5796 -0.8218  0.6008
 3746SOL    HW222872   1.830   2.762   6.867  1.0094 -1.5980  1.4525
 3747SOL     OW22873   3.606   1.439   4.108  0.2958  0.1956 -0.9476
 3747SOL    HW122874   3.557   1.452   4.027  0.2586 -0.5563 -1.0421
 3747SOL    HW222875   3.666   1.375   4.070  0.1812 -1.3605  1.5627
 3748SOL     OW22876   0.965   3.760   6.427 -0.2826  0.0551  0.4686
 3748SOL    HW122877   0.886   3.706   6.437 -0.1189 -0.2942 -0.1369
 3748SOL    HW222878   0.931   3.839   6.469 -3.0944 -0.8171 -0.1627
 3749SOL     OW22879   1.316   0.315  13.759 -0.4451  0.3506 -0.0064
 3749SOL    HW122880   1.233   0.351  13.727 -1.0059 -1.1670 -0.2628
 3749SOL    HW222881   1.376   0.387  13.741 -0.6321  0.6136  0.4162
 3750SOL     OW22882   2.112   2.881   0.265  0.1605  0.5663  0.0207
 3750SOL    HW122883   2.141   2.884   0.173  0.1990  0.2546  0.0230
 3750SOL    HW222884   2.020   2.857   0.265 -0.4613  2.9372 -1.0684
 3751SOL     OW22885   1.552   0.663   6.564  0.6756  0.6462 -0.2993
 3751SOL    HW122886   1.569   0.639   6.655 -0.2279  2.6350  0.3938
 3751SOL    HW222887   1.613   0.605   6.519  0.3012 -0.5997  0.7794
 3752SOL     OW22888   2.781   0.166  16.369  0.0436 -0.8201  0.0930
 3752SOL    HW122889   2.868   0.144  16.404 -0.2378 -2.0558  0.0236
 3752SOL    HW222890   2.771   0.116  16.288  1.5432 -1.3882  0.2550
 3753SOL     OW22891   4.052   4.052   3.335 -0.3036 -0.1918 -0.2521
 3753SOL    HW122892   4.086   4.000   3.262 -1.0004 -0.1564 -0.5996
 3753SOL    HW222893   4.015   3.984   3.391 -0.5524  0.9858  1.0116
 3754SOL     OW22894   3.758   1.975   4.757  0.3132 -0.4155 -0.1173
 3754SOL    HW122895   3.689   1.982   4.691 -0.3083 -0.2192  0.5589
 3754SOL    HW222896   3.712   2.011   4.833 -1.7707  1.0138 -2.0531
 3755SOL     OW22897   1.456   4.026  17.128  0.1003 -0.0674 -0.0062
 3755SOL    HW122898   1.530   3.965  17.122  0.6652  0.5148  1.0018
 3755SOL    HW222899   1.386   3.964  17.108  2.4300 -2.9056  0.6820
 3756SOL     OW22900   4.217   4.447  10.980  0.2354  0.4015 -0.5132
 3756SOL    HW122901   4.245   4.439  10.889 -0.5887 -0.6479 -0.6624
 3756SOL    HW222902   4.179   4.363  11.003  1.1071 -0.2155 -1.3586
 3757SOL     OW22903   0.533   2.822   7.615 -0.8191 -0.0441  0.0628
 3757SOL    HW122904   0.567   2.733   7.613 -0.1992  0.1716  1.0867
 3757SOL    HW222905   0.607   2.874   7.584  0.5472 -2.0177  0.0632
 3758SOL     OW22906   2.810   1.343   1.282 -0.0964  0.3999 -0.2789
 3758SOL    HW122907   2.785   1.430   1.314  0.5346  0.3087  0.4580
 3758SOL    HW222908   2.866   1.310   1.353  2.5933  1.7429 -1.7770
 3759SOL     OW22909   3.927   2.792   7.105 -0.5091 -0.1941  0.6530
 3759SOL    HW122910   4.000   2.780   7.165  0.7991 -1.0598 -1.1052
 3759SOL    HW222911   3.961   2.763   7.020 -0.8125  2.0673 -0.2496
 3760SOL     OW22912   0.291   0.120  14.840 -0.5048  0.5999  0.2298
 3760SOL    HW122913   0.231   0.132  14.766  0.2906  0.7698 -0.3906
 3760SOL    HW222914   0.237   0.126  14.918  2.3929  1.0355  2.2115
 3761SOL     OW22915   0.084   1.908  17.391  0.0749  0.5514  0.6238
 3761SOL    HW122916   0.081   1.929  17.298  0.8685  0.0607  0.4825
 3761SOL    HW222917   4.726   1.878  17.397  0.2600 -0.2386 -0.4495
 3762SOL     OW22918   2.771   0.334   3.340  0.2205 -0.1173 -0.2891
 3762SOL    HW122919   2.789   0.303   3.251 -0.3160 -2.4071  0.3907
 3762SOL    HW222920   2.860   0.352   3.369 -0.0785 -1.1589  1.2369
 3763SOL     OW22921   2.042   3.148  14.453  0.2610  0.1307 -0.3467
 3763SOL    HW122922   1.963   3.163  14.401 -0.8424 -2.2014  0.6788
 3763SOL    HW222923   2.021   3.061  14.487  0.4372  0.8514  1.6244
 3764SOL     OW22924   1.605   3.553  12.631 -0.1092  0.1392 -0.6464
 3764SOL    HW122925   1.559   3.474  12.662 -1.4188  0.8794 -0.7166
 3764SOL    HW222926   1.562   3.615  12.689 -1.7309 -0.4960 -1.1581
 3765SOL     OW22927   3.902   4.096  12.545 -0.0787  0.3840  0.0542
 3765SOL    HW122928   3.869   4.053  12.624  0.4737  0.1654  0.1653
 3765SOL    HW222929   3.915   4.185  12.577 -1.5773  0.3166  0.8461
 3766SOL     OW22930   1.031   2.851  17.320  0.4773 -0.3352 -0.4634
 3766SOL    HW122931   1.072   2.916  17.378  1.6620 -0.7086 -0.8786
 3766SOL    HW222932   0.945   2.890  17.309 -0.5160 -2.0624  1.3438
 3767SOL     OW22933   3.458   0.410   5.054  0.4922 -0.8095  0.2987
 3767SOL    HW122934   3.431   0.424   4.963  0.3734 -0.8014  0.3354
 3767SOL    HW222935   3.433   0.318   5.057 -3.7356  0.4717  3.3546
 3768SOL     OW22936   3.470   3.465   5.686  0.4100 -0.5960 -0.0055
 3768SOL    HW122937   3.458   3.456   5.591 -2.1361  3.1208 -0.0559
 3768SOL    HW222938   3.387   3.423   5.710  0.7926 -0.2505  1.8691
 3769SOL     OW22939   3.283   1.176   1.728 -0.3071 -0.1443 -0.0468
 3769SOL    HW122940   3.294   1.224   1.810 -0.1330  0.0329 -0.1738
 3769SOL    HW222941   3.188   1.163   1.727 -0.1596 -1.1957 -0.1700
 3770SOL     OW22942   0.472   3.366   6.825  0.1523  0.5311  0.0279
 3770SOL    HW122943   0.434   3.286   6.789  1.0407  1.0152 -1.9656
 3770SOL    HW222944   0.458   3.361   6.920 -0.5379 -1.4110 -0.1666
 3771SOL     OW22945   0.104   3.723   7.641 -0.1159 -0.3755  0.3320
 3771SOL    HW122946   0.114   3.656   7.709  1.9525 -1.1331 -0.7171
 3771SOL    HW222947   0.070   3.660   7.577  0.2231  0.9005 -1.0993
 3772SOL     OW22948   0.950   1.439   6.960 -0.1730  0.1097  0.1415
 3772SOL    HW122949   0.955   1.497   6.884  0.5337 -1.8422 -1.2978
 3772SOL    HW222950   1.022   1.473   7.013 -0.4109 -0.7427  1.0072
 3773SOL     OW22951   0.288   2.137   6.261  0.2449 -0.1197  0.0234
 3773SOL    HW122952   0.381   2.116   6.268 -0.1718 -2.0536 -0.2062
 3773SOL    HW222953   0.274   2.113   6.353 -0.7917 -0.5072 -0.2384
 3774SOL     OW22954   4.278   0.473   4.927  0.1554  0.1586  0.1895
 3774SOL    HW122955   4.287   0.562   4.961  0.4395  0.0068  0.5185
 3774SOL    HW222956   4.252   0.484   4.836 -0.2616 -0.9223  0.1691
 3775SOL     OW22957   2.879   1.863  16.477  0.3248  0.0748 -0.1464
 3775SOL    HW122958   2.861   1.804  16.550  0.6502  0.9438  0.6339
 3775SOL    HW222959   2.908   1.796  16.414 -0.6899 -0.6400  0.1453
 3776SOL     OW22960   2.060   4.593  12.618 -0.0090 -0.3532  0.4789
 3776SOL    HW122961   1.998   4.585  12.545 -2.5617  2.1382  2.3715
 3776SOL    HW222962   2.105   4.674  12.596  0.5458 -0.8201 -0.0954
 3777SOL     OW22963   2.550   0.887  14.403 -0.0238  0.0180 -0.1926
 3777SOL    HW122964   2.610   0.818  14.428  2.2720  2.1019  0.0338
 3777SOL    HW222965   2.469   0.836  14.408 -0.2886  0.5240  0.7189
 3778SOL     OW22966   1.090   1.333  16.162  0.6761 -0.4993 -0.6033
 3778SOL    HW122967   1.009   1.302  16.120  0.5758 -0.8383 -0.1574
 3778SOL    HW222968   1.095   1.429  16.160 -2.9450 -0.3037 -0.4703
 3779SOL     OW22969   0.033   4.383  16.555 -0.0401 -0.1896  0.0598
 3779SOL    HW122970   0.024   4.320  16.627  0.5284  1.4001  1.5212
 3779SOL    HW222971   0.128   4.391  16.562 -0.4505  2.9882  1.7060
 3780SOL     OW22972   2.962   2.150  15.797 -0.3822 -0.5314  0.1521
 3780SOL    HW122973   2.868   2.139  15.810 -0.5789 -0.1499 -1.0031
 3780SOL    HW222974   2.990   2.127  15.886  0.1724  0.2043  0.1621
 3781SOL     OW22975   0.708   0.983   5.593 -0.2778  0.4506  0.3859
 3781SOL    HW122976   0.680   1.004   5.504  0.4225 -1.2868 -0.2514
 3781SOL    HW222977   0.782   1.044   5.602  1.9350 -2.1275 -0.2676
 3782SOL     OW22978   3.961   3.811   7.219 -0.5456  0.3115 -0.0414
 3782SOL    HW122979   4.033   3.801   7.157 -1.7254  3.6867 -1.9220
 3782SOL    HW222980   3.889   3.785   7.162  0.4041 -2.2159 -0.1232
 3783SOL     OW22981   4.210   1.579   1.865 -0.0434  0.5922 -0.1590
 3783SOL    HW122982   4.302   1.594   1.886 -0.3708  0.2697  1.5276
 3783SOL    HW222983   4.167   1.610   1.944  0.0524 -1.0816  0.5540
 3784SOL     OW22984   3.825   1.502   5.872 -0.1728 -0.7839 -1.4442
 3784SOL    HW122985   3.770   1.506   5.950  3.0210  0.6714  0.7457
 3784SOL    HW222986   3.909   1.538   5.901  0.1386 -2.2493 -0.5146
 3785SOL     OW22987   0.577   2.083   5.622 -0.4726 -0.3219  0.8329
 3785SOL    HW122988   0.545   2.017   5.685 -0.5348  0.3182  1.4716
 3785SOL    HW222989   0.533   2.162   5.652 -0.2978  0.4704 -1.0346
 3786SOL     OW22990   2.530   0.794   8.505 -0.2297 -0.0543  0.0551
 3786SOL    HW122991   2.458   0.852   8.531 -1.4205 -1.4799 -0.0802
 3786SOL    HW222992   2.490   0.707   8.501  0.4615 -0.3153 -1.3960
 3787SOL     OW22993   2.530   4.023   2.542 -0.2241 -0.0543  0.4262
 3787SOL    HW122994   2.462   4.030   2.476 -0.1635 -0.7125  0.2929
 3787SOL    HW222995   2.593   4.089   2.514 -0.8259  0.3951  0.1554
 3788SOL     OW22996   2.871   2.133   8.840 -0.5418  0.5675  0.5237
 3788SOL    HW122997   2.920   2.213   8.859 -0.6439  0.6482  0.4415
 3788SOL    HW222998   2.915   2.077   8.904  0.0027  0.3690 -0.0171
 3789SOL     OW22999   0.387   2.985   3.026 -0.4113 -0.2153 -0.1145
 3789SOL    HW123000   0.407   2.997   2.933  0.9132 -2.2625 -0.0849
 3789SOL    HW223001   0.409   2.892   3.034  0.7928  0.1204  0.6007
 3790SOL     OW23002   2.598   4.554   7.614 -0.4844 -0.1700  0.3505
 3790SOL    HW123003   2.581   4.462   7.634 -1.6756 -0.3888 -1.6550
 3790SOL    HW223004   2.526   4.571   7.552 -2.8476  2.3958  3.8145
 3791SOL     OW23005   1.093   4.343   2.184  0.3510 -0.2396  0.3096
 3791SOL    HW123006   1.025   4.401   2.219  0.0707  0.3293 -1.2081
 3791SOL    HW223007   1.114   4.291   2.262 -1.5956 -1.2498  0.1771
 3792SOL     OW23008   3.428   2.066   2.283  1.3702 -0.3294 -0.2305
 3792SOL    HW123009   3.520   2.059   2.309  0.8796  0.7289  1.7704
 3792SOL    HW223010   3.448   2.043   2.192  0.4335 -0.0428 -0.5083
 3793SOL     OW23011   0.713   0.954   9.757  0.1442 -0.2747 -0.7902
 3793SOL    HW123012   0.751   0.904   9.685 -0.1905 -1.1150 -0.3733
 3793SOL    HW223013   0.619   0.936   9.756  0.3988 -1.6463 -0.2276
 3794SOL     OW23014   0.629   0.342   4.992  0.4256  0.1602 -0.3709
 3794SOL    HW123015   0.592   0.365   5.077  0.9600  2.1283 -0.6628
 3794SOL    HW223016   0.673   0.426   4.975  1.0926 -0.3070 -0.9416
 3795SOL     OW23017   3.059   3.494  13.421  0.0408  0.0487  0.1907
 3795SOL    HW123018   3.121   3.495  13.349 -1.6091  0.2167 -1.2289
 3795SOL    HW223019   2.977   3.523  13.381  0.5202  0.0792 -0.7477
 3796SOL     OW23020   3.490   1.414   7.178  0.0744 -0.8536  0.3490
 3796SOL    HW123021   3.486   1.452   7.265  2.3118 -1.9236  0.9220
 3796SOL    HW223022   3.401   1.380   7.168  0.4116 -1.4965 -0.6050
 3797SOL     OW23023   1.105   0.840   5.127 -0.3754 -0.6923  0.0199
 3797SOL    HW123024   1.183   0.786   5.116  0.1645  0.4783 -1.9399
 3797SOL    HW223025   1.133   0.912   5.184 -0.2429 -0.1223 -0.7549
 3798SOL     OW23026   2.091   2.094  11.110 -0.3110 -0.3671 -0.3232
 3798SOL    HW123027   2.107   2.025  11.174  0.7532  0.5457  0.3793
 3798SOL    HW223028   2.170   2.107  11.058 -0.9403 -0.2545 -1.2586
 3799SOL     OW23029   1.006   1.353  17.079  0.5091  0.0831 -0.3131
 3799SOL    HW123030   0.984   1.360  17.172 -0.1781  1.0136 -0.5545
 3799SOL    HW223031   1.092   1.312  17.092  0.2285 -0.3752  0.1105
 3800SOL     OW23032   2.965   0.739   8.359 -0.1065  0.1194 -0.3756
 3800SOL    HW123033   2.900   0.809   8.359  2.5171  2.5980  0.6870
 3800SOL    HW223034   3.037   0.768   8.415 -0.0225 -0.4920 -0.1731
 3801SOL     OW23035   0.379   1.935   3.990 -0.0794 -0.3020  0.2408
 3801SOL    HW123036   0.345   2.017   4.027  2.3488  1.3699 -1.1912
 3801SOL    HW223037   0.318   1.867   4.017  0.5846 -0.2782  1.7731
 3802SOL     OW23038   0.893   3.240   1.727  0.6858  0.1360  0.6369
 3802SOL    HW123039   0.958   3.179   1.764  0.1159 -0.3392  0.8539
 3802SOL    HW223040   0.934   3.261   1.643  0.4876 -2.0396 -0.0124
 3803SOL     OW23041   2.987   3.314   0.124  0.1516  0.1980  0.2565
 3803SOL    HW123042   2.966   3.405   0.147 -0.0165 -0.2981  2.0103
 3803SOL    HW223043   2.905   3.285   0.085  0.3119 -0.5015  0.4474
 3804SOL     OW23044   2.304   4.566  16.631  0.3093 -0.4253  0.0048
 3804SOL    HW123045   2.211   4.582  16.619  0.0059 -0.1788  2.5158
 3804SOL    HW223046   2.322   4.495  16.569  0.5281  1.2705 -1.8665
 3805SOL     OW23047   4.346   4.452  14.823 -0.2177 -0.1426  0.2918
 3805SOL    HW123048   4.272   4.419  14.772  0.5365  1.3850 -1.7633
 3805SOL    HW223049   4.332   4.545  14.807  0.1682 -0.1827 -0.2679
 3806SOL     OW23050   1.711   2.925   1.790 -0.3275  0.3853  0.2291
 3806SOL    HW123051   1.711   2.959   1.701  0.9844 -4.5972 -1.6671
 3806SOL    HW223052   1.677   2.838   1.775 -0.4227  0.4150  0.2750
 3807SOL     OW23053   1.181   3.336   7.179 -0.0931 -0.4143 -0.5984
 3807SOL    HW123054   1.198   3.280   7.103 -0.0409  0.1154 -0.9890
 3807SOL    HW223055   1.182   3.422   7.135 -0.7731 -0.3611 -0.5080
 3808SOL     OW23056   3.390   1.971   7.380  0.0715 -0.5804  0.1624
 3808SOL    HW123057   3.370   2.042   7.320 -0.0340  1.0589  2.1149
 3808SOL    HW223058   3.486   1.971   7.378  0.1066  0.3805  1.3735
 3809SOL     OW23059   2.299   0.524   8.768 -0.6507  0.3473  0.3453
 3809SOL    HW123060   2.243   0.594   8.800 -1.9956 -0.6392  0.1234
 3809SOL    HW223061   2.269   0.449   8.819 -1.2663 -0.1276 -0.7227
 3810SOL     OW23062   0.656   4.037  14.197  0.1974 -0.3512  0.6288
 3810SOL    HW123063   0.653   4.114  14.253  1.1776  0.6469 -0.7038
 3810SOL    HW223064   0.643   3.957  14.248 -0.1484 -0.5768  0.1861
 3811SOL     OW23065   2.417   0.403  14.694  0.4317  0.4007  0.0373
 3811SOL    HW123066   2.485   0.406  14.627 -1.2119 -0.0273 -1.6337
 3811SOL    HW223067   2.396   0.493  14.718 -1.5284 -0.2184  0.7139
 3812SOL     OW23068   1.603   3.316   5.282  0.2171  0.2838  0.1205
 3812SOL    HW123069   1.697   3.302   5.274 -0.3996 -1.6151 -3.8312
 3812SOL    HW223070   1.608   3.411   5.281  3.6094  0.0906  0.5743
 3813SOL     OW23071   3.634   2.064   3.209 -0.8419  0.4093 -0.2129
 3813SOL    HW123072   3.656   1.985   3.258  0.3670  0.3930 -0.7751
 3813SOL    HW223073   3.545   2.045   3.180 -1.4843 -1.2380  2.9311
 3814SOL     OW23074   4.198   0.397   7.181  0.2948  0.2278 -0.2017
 3814SOL    HW123075   4.216   0.434   7.094  0.1075 -0.3530 -0.4916
 3814SOL    HW223076   4.255   0.448   7.239  2.4497 -0.5029 -1.6565
 3815SOL     OW23077   1.223   1.861   1.220  0.1494  0.4768 -0.4450
 3815SOL    HW123078   1.203   1.941   1.269 -1.4075 -0.8210  1.0929
 3815SOL    HW223079   1.254   1.881   1.132  1.0918  0.7194 -0.0615
 3816SOL     OW23080   3.543   2.300  17.661  0.6188 -0.2860  0.4177
 3816SOL    HW123081   3.547   2.388  17.624  0.2967 -1.1715 -1.6685
 3816SOL    HW223082   3.563   2.320   0.023 -0.3051  2.1892  0.0781
 3817SOL     OW23083   4.447   1.590   1.594 -0.3885  0.3977 -0.4469
 3817SOL    HW123084   4.501   1.637   1.531  0.7399 -0.7961 -0.3896
 3817SOL    HW223085   4.400   1.542   1.525  0.1202 -0.2226 -0.3710
 3818SOL     OW23086   0.921   1.241  10.008 -0.0122  0.4516 -0.3175
 3818SOL    HW123087   0.910   1.312   9.945  0.4062  0.2585 -0.6174
 3818SOL    HW223088   0.842   1.255  10.059  0.5513  3.1517 -0.1901
 3819SOL     OW23089   0.935   3.311  17.089 -0.5376 -0.0122  0.2463
 3819SOL    HW123090   0.947   3.263  17.007 -4.9951  0.8976 -0.9410
 3819SOL    HW223091   0.897   3.398  17.077 -0.8368 -0.3348 -1.1186
 3820SOL     OW23092   1.302   2.667  16.989  0.2174  0.3373  0.5238
 3820SOL    HW123093   1.355   2.745  16.971 -1.2430  0.8444 -1.5316
 3820SOL    HW223094   1.222   2.718  17.001 -0.2228 -0.3815  0.6253
 3821SOL     OW23095   3.042   2.978   4.476  0.3922 -0.0046  0.0428
 3821SOL    HW123096   3.079   2.905   4.426  2.5398  0.7639  0.4699
 3821SOL    HW223097   2.948   2.963   4.472 -0.0761  3.7374 -2.7867
 3822SOL     OW23098   4.266   3.595  11.351  0.2213  0.0376 -0.1326
 3822SOL    HW123099   4.198   3.603  11.417 -1.8083 -0.6488 -2.1428
 3822SOL    HW223100   4.247   3.680  11.311 -0.4126  0.9412  2.0688
 3823SOL     OW23101   3.776   0.731   8.732  0.9993 -0.4330 -0.4025
 3823SOL    HW123102   3.770   0.773   8.818  2.3654 -1.1124  0.0331
 3823SOL    HW223103   3.692   0.688   8.716  1.1978 -0.0302 -2.4625
 3824SOL     OW23104   3.851   2.022   4.361 -0.1337  0.3281 -0.1286
 3824SOL    HW123105   3.846   1.933   4.396 -0.9795 -0.0225 -1.1724
 3824SOL    HW223106   3.861   2.018   4.266  1.4364  1.2741 -0.0025
 3825SOL     OW23107   1.281   4.624  12.623 -0.2284 -0.0240 -0.2385
 3825SOL    HW123108   1.287   4.532  12.598 -1.7478  0.3335 -1.8824
 3825SOL    HW223109   1.232   4.654  12.547  0.3214  1.2802 -0.0833
 3826SOL     OW23110   1.374   2.833  16.688 -0.0776  0.3498 -0.3916
 3826SOL    HW123111   1.385   2.788  16.604 -0.5761  0.6776 -0.6352
 3826SOL    HW223112   1.438   2.786  16.741 -1.5083 -1.7692 -0.5302
 3827SOL     OW23113   0.660   0.239   3.629 -0.7469  0.0148  0.2129
 3827SOL    HW123114   0.718   0.192   3.569  0.0774  2.2560 -0.7343
 3827SOL    HW223115   0.658   0.323   3.583  0.3416 -0.5514 -0.8778
 3828SOL     OW23116   0.702   3.038   7.528 -0.3924 -0.5375 -0.1459
 3828SOL    HW123117   0.770   3.091   7.570 -1.0982  1.5870 -1.6980
 3828SOL    HW223118   0.746   3.006   7.449 -2.6972  1.6745 -2.3156
 3829SOL     OW23119   0.837   3.152  17.455  0.6666 -0.2045  0.6209
 3829SOL    HW123120   0.752   3.147  17.412  0.9169  0.0654  0.0996
 3829SOL    HW223121   0.811   3.110  17.537 -0.5035 -0.3295  0.1869
 3830SOL     OW23122   2.217   2.036   4.719  0.1926 -0.1122  0.5443
 3830SOL    HW123123   2.208   1.950   4.760 -0.2147 -0.8723 -1.1541
 3830SOL    HW223124   2.158   2.084   4.778  0.2636  1.9155 -1.0384
 3831SOL     OW23125   4.422   4.616  12.985  0.5113 -0.4344 -0.1307
 3831SOL    HW123126   4.447   4.524  12.994 -0.9866 -0.6656  1.7775
 3831SOL    HW223127   4.502   4.646  13.028  1.1689 -3.2754  0.5984
 3832SOL     OW23128   4.281   3.799   2.487  0.2442  0.5367  0.1187
 3832SOL    HW123129   4.299   3.843   2.404 -1.0093 -1.9586 -1.4664
 3832SOL    HW223130   4.240   3.716   2.462 -0.3474  1.1001 -0.7799
 3833SOL     OW23131   1.626   1.282  13.486  0.1971 -0.5787  0.1519
 3833SOL    HW123132   1.556   1.287  13.551 -0.9962  2.8469 -1.3830
 3833SOL    HW223133   1.587   1.347  13.428  0.9688  0.1035  0.3791
 3834SOL     OW23134   0.908   2.058   8.474 -0.8304  0.0936 -0.1433
 3834SOL    HW123135   0.976   2.091   8.415 -0.1723 -1.2507 -0.1406
 3834SOL    HW223136   0.839   2.125   8.474 -0.6262  0.2902  0.8543
 3835SOL     OW23137   0.316   0.576   7.902  0.1433 -0.2032  0.2497
 3835SOL    HW123138   0.317   0.627   7.982  0.0158 -4.7525  3.1603
 3835SOL    HW223139   0.403   0.538   7.913  0.7085  1.0258 -0.0733
 3836SOL     OW23140   3.958   1.888   7.432  0.2038 -0.5050  0.2877
 3836SOL    HW123141   4.013   1.817   7.397  1.2530  0.9034 -0.8960
 3836SOL    HW223142   4.012   1.966   7.423  1.8580 -1.7266 -0.3300
 3837SOL     OW23143   1.668   1.381   0.267 -0.5199  0.1457  0.0625
 3837SOL    HW123144   1.677   1.288   0.245  1.8938  0.8014 -1.7834
 3837SOL    HW223145   1.580   1.399   0.234 -0.0901  1.5484 -0.3061
 3838SOL     OW23146   3.148   2.615   3.036 -0.3932 -0.1940 -0.6520
 3838SOL    HW123147   3.114   2.656   2.956  0.0366  0.6044 -0.4288
 3838SOL    HW223148   3.232   2.658   3.018 -0.0825 -1.0451 -1.2697
 3839SOL     OW23149   3.033   2.033   3.505  0.2181  0.2378 -0.0279
 3839SOL    HW123150   3.031   2.047   3.411  1.6973  2.2275  0.2402
 3839SOL    HW223151   3.127   2.042   3.525  0.1008 -1.5765  1.3641
 3840SOL     OW23152   1.299   1.701   4.452  0.0032  0.2069 -0.6906
 3840SOL    HW123153   1.359   1.641   4.495  1.6427  3.9561  2.3193
 3840SOL    HW223154   1.358   1.746   4.392  1.6422 -0.1243  0.6866
 3841SOL     OW23155   2.571   2.733  11.473 -0.0436 -0.1813  0.0053
 3841SOL    HW123156   2.628   2.658  11.456 -1.5396 -1.7779  2.0347
 3841SOL    HW223157   2.627   2.804  11.505 -2.9496  1.5964  1.2045
 3842SOL     OW23158   4.044   0.777   5.878  0.4403 -0.1674  0.4647
 3842SOL    HW123159   4.061   0.865   5.912 -1.5469  0.3936  0.0404
 3842SOL    HW223160   3.958   0.759   5.917  0.8564  1.0893  1.9414
 3843SOL     OW23161   3.576   1.361   7.458  0.3960  0.2059 -0.7576
 3843SOL    HW123162   3.512   1.419   7.500  0.2128  1.0383 -2.1752
 3843SOL    HW223163   3.624   1.328   7.534 -1.1665  0.7958  0.4950
 3844SOL     OW23164   0.880   0.306   4.250 -0.1343  0.0057  0.3476
 3844SOL    HW123165   0.794   0.345   4.269 -0.3442 -0.2032 -0.1731
 3844SOL    HW223166   0.866   0.212   4.259 -0.3724  0.3128  3.1209
 3845SOL     OW23167   2.060   3.783   8.118  0.1872 -0.7237 -0.2787
 3845SOL    HW123168   2.075   3.704   8.170 -1.6763 -2.2822 -2.0895
 3845SOL    HW223169   2.111   3.852   8.160  1.0251 -1.8473  0.5675
 3846SOL     OW23170   4.623   2.004   6.890  0.1179  0.0244  0.0778
 3846SOL    HW123171   4.674   1.972   6.816  2.3104 -1.6118  2.3133
 3846SOL    HW223172   4.533   2.004   6.856  0.1376 -0.7605  0.0237
 3847SOL     OW23173   3.470   2.778  16.781  1.0295 -0.3799  0.3757
 3847SOL    HW123174   3.512   2.831  16.713  3.2492 -0.9306  1.3158
 3847SOL    HW223175   3.540   2.721  16.812  0.6875  0.1144  2.0700
 3848SOL     OW23176   3.144   0.851  14.781  0.3632  0.2844  0.1907
 3848SOL    HW123177   3.191   0.780  14.824  0.6628  1.3545  1.6284
 3848SOL    HW223178   3.192   0.930  14.803  1.3395 -0.5372  0.9942
 3849SOL     OW23179   4.482   1.478   4.544  0.3457 -0.4987  0.4636
 3849SOL    HW123180   4.392   1.490   4.575 -0.1022  1.9426 -1.7540
 3849SOL    HW223181   4.519   1.566   4.555  0.0351 -0.2006 -0.8618
 3850SOL     OW23182   1.564   4.710   4.997 -0.0925 -0.1514 -0.3163
 3850SOL    HW123183   1.514   0.058   5.007  1.0915  0.7519 -1.6679
 3850SOL    HW223184   1.644   4.722   5.049 -0.1553  0.9815 -0.4725
 3851SOL     OW23185   2.021   3.672   3.440 -0.1151  0.6717 -0.6757
 3851SOL    HW123186   2.083   3.742   3.463  1.2911 -0.6197 -0.5253
 3851SOL    HW223187   1.969   3.674   3.521  1.1627  0.9404  0.1529
 3852SOL     OW23188   0.232   0.884   5.576  0.1830  0.1027 -0.0848
 3852SOL    HW123189   0.148   0.860   5.616  1.0451  0.3001  1.8109
 3852SOL    HW223190   0.291   0.814   5.606 -1.4475 -0.9171  0.7274
 3853SOL     OW23191   2.555   0.594   4.092  0.1231  1.2731 -0.3830
 3853SOL    HW123192   2.469   0.552   4.087  1.4296 -1.1348 -2.8986
 3853SOL    HW223193   2.605   0.540   4.031  1.5376  0.6546  1.3192
 3854SOL     OW23194   0.040   0.199   6.842 -0.3506  0.2978 -0.1416
 3854SOL    HW123195   0.122   0.163   6.876 -2.5299 -2.0341  2.6040
 3854SOL    HW223196   0.028   0.275   6.898  0.4407 -1.8448  2.9217
 3855SOL     OW23197   0.051   2.538   3.034  0.0198 -0.3932  0.4449
 3855SOL    HW123198   0.108   2.461   3.023  0.3794 -0.2469  1.2624
 3855SOL    HW223199   0.040   2.542   3.129  1.7633  1.3267  0.5747
 3856SOL     OW23200   3.571   2.293  15.446 -0.4295 -0.5405 -0.4090
 3856SOL    HW123201   3.545   2.371  15.396  0.4312  2.1106  3.3065
 3856SOL    HW223202   3.643   2.331  15.496  1.0976 -1.4048 -1.9557
 3857SOL     OW23203   2.772   1.339  17.309  0.1484  0.1006  0.0365
 3857SOL    HW123204   2.836   1.358  17.240 -0.6654  1.4477 -0.3597
 3857SOL    HW223205   2.712   1.414  17.310  0.6089  0.4850 -1.4457
 3858SOL     OW23206   2.460   0.683   9.527  0.1749 -0.0784  0.0563
 3858SOL    HW123207   2.525   0.714   9.464 -0.3577 -1.3760 -1.1511
 3858SOL    HW223208   2.497   0.602   9.563 -1.0453 -0.7087 -0.0807
 3859SOL     OW23209   1.389   0.009   8.565  0.2201 -0.2205  0.7360
 3859SOL    HW123210   1.472   0.031   8.607  0.1716  1.2734  0.0631
 3859SOL    HW223211   1.417   4.658   8.528  2.5498  0.9474 -0.1459
 3860SOL     OW23212   1.512   0.955   3.662 -0.0341 -0.1328 -0.1910
 3860SOL    HW123213   1.419   0.938   3.646 -0.1557 -0.8192  1.2467
 3860SOL    HW223214   1.537   0.868   3.692 -1.8524  0.1891  2.2830
 3861SOL     OW23215   4.377   2.534   2.524  0.3667 -0.2005 -0.2629
 3861SOL    HW123216   4.467   2.502   2.527  0.5496  0.3816  0.4903
 3861SOL    HW223217   4.354   2.513   2.433  3.2041 -0.4295 -0.9257
 3862SOL     OW23218   3.549   3.115   5.626  0.5006  0.1062 -0.2311
 3862SOL    HW123219   3.544   3.149   5.716 -1.5090  1.1626 -0.7366
 3862SOL    HW223220   3.633   3.145   5.591  0.7344 -1.3218 -0.8770
 3863SOL     OW23221   1.850   1.429   7.232 -0.0397  0.1679 -0.6487
 3863SOL    HW123222   1.836   1.523   7.218  0.2606  0.1226 -1.2133
 3863SOL    HW223223   1.817   1.427   7.322  0.3124  1.5084 -0.4844
 3864SOL     OW23224   3.880   4.695   3.405  0.9254  0.4840 -0.2235
 3864SOL    HW123225   3.869   4.665   3.315  1.9757 -2.0906  0.4864
 3864SOL    HW223226   3.789   4.690   3.433  0.8351  1.3216 -0.3680
 3865SOL     OW23227   1.930   4.578   5.633  0.3025  0.1833  0.6494
 3865SOL    HW123228   1.951   4.668   5.608 -0.5907 -0.1746 -1.3546
 3865SOL    HW223229   1.835   4.583   5.618  0.7851 -0.3870 -2.6547
 3866SOL     OW23230   4.300   1.469   3.729  0.4176  0.2465  0.0755
 3866SOL    HW123231   4.343   1.524   3.794  1.5830  0.9151 -1.2440
 3866SOL    HW223232   4.317   1.380   3.758 -4.0789 -1.0878 -1.3901
 3867SOL     OW23233   1.415   1.683   7.143  0.1276 -0.1588 -0.4449
 3867SOL    HW123234   1.499   1.730   7.141 -0.4089  0.8704  1.1752
 3867SOL    HW223235   1.368   1.728   7.213  2.5889  1.2389  0.2866
 3868SOL     OW23236   0.719   1.547   3.928 -0.0160  0.0462  0.3605
 3868SOL    HW123237   0.664   1.470   3.944 -0.9603  0.8234  0.8501
 3868SOL    HW223238   0.777   1.529   4.002  0.0154  0.8261  0.5203
 3869SOL     OW23239   1.399   1.352  13.604  0.3181  0.4568 -0.0060
 3869SOL    HW123240   1.335   1.303  13.655 -1.2193  0.0046 -2.3422
 3869SOL    HW223241   1.374   1.441  13.626  1.3279  0.7208  0.0716
 3870SOL     OW23242   3.535   3.550   4.354  0.2554 -0.4793  0.2169
 3870SOL    HW123243   3.626   3.570   4.331  0.3723  0.5271  1.5546
 3870SOL    HW223244   3.485   3.620   4.314 -0.3446  0.6050  2.9016
 3871SOL     OW23245   2.730   1.379   3.083 -0.1226  0.0727 -0.0095
 3871SOL    HW123246   2.781   1.337   3.015 -0.1782 -0.7423  0.4497
 3871SOL    HW223247   2.644   1.347   3.054 -0.2148  1.7705 -1.5853
 3872SOL     OW23248   2.739   3.225  17.725  0.0247  0.2431 -0.5201
 3872SOL    HW123249   2.751   3.130  17.730 -0.3079  0.3388  2.3581
 3872SOL    HW223250   2.697   3.240  17.640 -0.8464 -0.8374 -0.2864
 3873SOL     OW23251   4.396   3.022   7.317 -0.6876 -0.0992  0.4532
 3873SOL    HW123252   4.400   3.086   7.246  1.0099 -0.1605  0.4895
 3873SOL    HW223253   4.457   3.054   7.384 -1.5484  0.3418  1.0165
 3874SOL     OW23254   2.039   0.634  16.840  0.1213 -0.1275  0.0341
 3874SOL    HW123255   2.098   0.699  16.878  1.0555 -0.6574 -0.5358
 3874SOL    HW223256   2.102   0.563  16.831 -2.0646 -2.1678  0.6597
 3875SOL     OW23257   0.161   3.283   7.145 -0.8921  0.5053 -0.1432
 3875SOL    HW123258   0.077   3.307   7.106 -2.1299  0.3063  2.3648
 3875SOL    HW223259   0.202   3.259   7.062  1.6425  1.7699  0.7304
 3876SOL     OW23260   2.382   3.325   7.876 -0.2420 -0.1872 -0.0075
 3876SOL    HW123261   2.329   3.303   7.798 -0.4585 -0.8246  0.3164
 3876SOL    HW223262   2.369   3.419   7.887 -0.4567 -0.4525  1.9715
 3877SOL     OW23263   3.003   0.583   3.855 -0.1075  0.0935  0.0260
 3877SOL    HW123264   3.040   0.500   3.885 -1.9021 -1.6270 -2.4554
 3877SOL    HW223265   2.918   0.583   3.898 -0.1241  1.2493 -0.0261
 3878SOL     OW23266   0.624   1.002   3.455  0.0980 -0.3987 -0.6442
 3878SOL    HW123267   0.571   0.925   3.478 -1.0276  0.6948  0.4364
 3878SOL    HW223268   0.703   0.953   3.432 -1.2797 -3.0799  0.2257
 3879SOL     OW23269   1.789   0.496   7.227 -0.2964  0.4551 -0.3713
 3879SOL    HW123270   1.797   0.571   7.169  0.6430 -0.9289 -2.0161
 3879SOL    HW223271   1.836   0.433   7.173 -1.5727 -1.7344  1.0801
 3880SOL     OW23272   4.411   0.043   1.943  0.4095  0.5944 -0.4733
 3880SOL    HW123273   4.385   0.089   1.862  0.1451  2.0702  0.4570
 3880SOL    HW223274   4.360   0.090   2.009  1.0921  0.3852  0.1853
 3881SOL     OW23275   3.240   0.540   5.749 -0.1228  0.2797 -0.3580
 3881SOL    HW123276   3.149   0.549   5.722 -0.3012 -0.4123  0.0062
 3881SOL    HW223277   3.283   0.567   5.668 -0.2750 -0.9289 -0.8413
 3882SOL     OW23278   2.763   0.645   5.535 -0.0136 -0.9061 -0.5962
 3882SOL    HW123279   2.796   0.679   5.451  0.2357  3.2937  1.2410
 3882SOL    HW223280   2.670   0.662   5.525 -0.1393  0.9147  4.0469
 3883SOL     OW23281   0.525   4.466   8.635  0.3611  0.2096 -0.5028
 3883SOL    HW123282   0.470   4.497   8.564  0.4596  2.4229  0.3821
 3883SOL    HW223283   0.471   4.460   8.714 -0.8831  1.2975 -1.2794
 3884SOL     OW23284   2.202   3.084   7.170 -0.1620 -0.0861  0.0195
 3884SOL    HW123285   2.177   3.130   7.250  0.4982  1.0344 -0.4201
 3884SOL    HW223286   2.295   3.095   7.191 -0.6409  2.7332  0.6192
 3885SOL     OW23287   4.699   2.677   8.264  0.0934  0.0747 -0.7658
 3885SOL    HW123288   4.612   2.716   8.275 -0.0974 -0.5343 -0.0794
 3885SOL    HW223289   0.012   2.712   8.341 -2.4115  0.4889  0.5586
 3886SOL     OW23290   2.691   3.244  16.588  0.3139  0.1398  0.7676
 3886SOL    HW123291   2.754   3.300  16.634 -0.3877  0.9385  0.7429
 3886SOL    HW223292   2.757   3.193  16.540 -0.7822 -0.1860 -0.3970
 3887SOL     OW23293   3.868   3.397   5.382 -0.8550  0.3416  0.2998
 3887SOL    HW123294   3.938   3.396   5.317 -2.0038 -0.5076 -0.9430
 3887SOL    HW223295   3.872   3.488   5.410 -0.9163  0.5207 -0.2747
 3888SOL     OW23296   1.221   2.630   3.572 -0.6461 -0.2721  0.0759
 3888SOL    HW123297   1.226   2.564   3.503  0.0840 -0.6116  0.4528
 3888SOL    HW223298   1.256   2.702   3.519 -3.2226 -0.4896 -1.9193
 3889SOL     OW23299   2.948   4.585   5.160 -0.4268 -1.0482  0.3635
 3889SOL    HW123300   3.002   4.588   5.239  0.2760  1.5659 -0.1938
 3889SOL    HW223301   2.939   4.491   5.146 -0.7712 -1.0032  0.2989
 3890SOL     OW23302   1.940   1.113   3.927  0.1577 -0.2495  0.1168
 3890SOL    HW123303   1.858   1.137   3.884 -1.3571 -1.5250  2.3199
 3890SOL    HW223304   2.008   1.164   3.883  0.1697 -0.2845  0.0941
 3891SOL     OW23305   3.672   2.795   5.983  0.3937  0.0399  0.2159
 3891SOL    HW123306   3.742   2.779   5.920  0.1602 -0.5824  0.1169
 3891SOL    HW223307   3.698   2.741   6.058  1.5464 -2.1522 -1.7435
 3892SOL     OW23308   4.157   3.819   3.260  0.1072  0.3467  0.1136
 3892SOL    HW123309   4.245   3.791   3.233 -0.7566 -1.8425 -0.4510
 3892SOL    HW223310   4.139   3.750   3.324 -1.1870  0.9308  0.3822
 3893SOL     OW23311   1.531   2.785   3.206  0.4404 -0.1809 -0.1588
 3893SOL    HW123312   1.467   2.855   3.194 -1.6603 -2.0142  0.4055
 3893SOL    HW223313   1.573   2.814   3.287  0.2440  1.7484 -0.7470
 3894SOL     OW23314   3.517   2.424   2.816  0.4853  0.1917  0.2571
 3894SOL    HW123315   3.465   2.494   2.776  2.0129  0.0008 -2.0602
 3894SOL    HW223316   3.462   2.418   2.894  0.4826 -1.5716  0.1031
 3895SOL     OW23317   4.203   3.151   6.212  0.3928 -0.4911  0.3384
 3895SOL    HW123318   4.138   3.117   6.150  1.7399  0.0321 -1.3547
 3895SOL    HW223319   4.152   3.194   6.280 -0.4432  2.5918 -2.2223
 3896SOL     OW23320   3.670   1.794  11.011 -0.6284 -0.0891 -0.0885
 3896SOL    HW123321   3.653   1.865  11.074 -1.1165  0.4324 -0.8136
 3896SOL    HW223322   3.662   1.838  10.926 -1.3494 -0.8437 -0.4050
 3897SOL     OW23323   2.687   3.882   7.202  0.1493 -0.0679  0.3240
 3897SOL    HW123324   2.717   3.818   7.137  1.5375 -0.9835  1.8588
 3897SOL    HW223325   2.593   3.864   7.201  0.0701  0.4102 -0.4439
 3898SOL     OW23326   3.460   2.807   2.417 -0.3692 -0.1301  0.1289
 3898SOL    HW123327   3.400   2.799   2.343 -0.3052 -0.0386  0.0664
 3898SOL    HW223328   3.527   2.866   2.381 -0.2733 -0.3533 -0.0634
 3899SOL     OW23329   2.018   0.861   7.723 -0.7945 -0.7935 -0.0518
 3899SOL    HW123330   1.991   0.815   7.644 -1.4637 -1.0244  0.3181
 3899SOL    HW223331   1.982   0.949   7.716  1.2472 -0.0067 -0.8737
 3900SOL     OW23332   4.316   0.983   2.141 -0.6680 -0.0159 -0.3189
 3900SOL    HW123333   4.323   1.065   2.094  0.1994  1.5283  2.4847
 3900SOL    HW223334   4.279   0.924   2.075  2.5919 -2.8012  0.3574
 3901SOL     OW23335   4.399   4.129  10.123  0.3914 -0.4092 -0.1129
 3901SOL    HW123336   4.364   4.071  10.191  1.7204  0.5549  1.3952
 3901SOL    HW223337   4.474   4.158  10.175 -0.9849  0.7716  1.2240
 3902SOL     OW23338   4.626   1.759  14.870  0.1730  0.0955  0.1622
 3902SOL    HW123339   4.576   1.764  14.952  0.4973  1.2017  0.3013
 3902SOL    HW223340   4.603   1.844  14.832  0.9891 -0.3409 -1.3085
 3903SOL     OW23341   2.450   3.487  11.089  0.0123 -0.3087 -0.0340
 3903SOL    HW123342   2.502   3.567  11.097 -0.8376  0.3153 -0.9122
 3903SOL    HW223343   2.362   3.522  11.098  0.8693  2.0520 -0.8506
 3904SOL     OW23344   2.440   1.438  16.794 -0.4126 -0.5599 -0.8239
 3904SOL    HW123345   2.509   1.495  16.827 -0.0521 -2.9742  2.6614
 3904SOL    HW223346   2.362   1.491  16.811 -0.4027 -0.5564 -0.7886
 3905SOL     OW23347   4.464   1.839  14.552  0.3290 -0.1756  0.0960
 3905SOL    HW123348   4.398   1.810  14.489  2.3292 -2.0469 -1.1143
 3905SOL    HW223349   4.545   1.798  14.523 -0.8123 -1.8308 -0.6972
 3906SOL     OW23350   2.877   0.691   2.479  0.2575 -0.4650  0.4435
 3906SOL    HW123351   2.824   0.771   2.482  0.4986 -0.3245  0.9344
 3906SOL    HW223352   2.804   0.647   2.435 -0.4819 -1.6666  2.8678
 3907SOL     OW23353   3.698   1.175   3.247 -0.1391 -0.1883  0.3301
 3907SOL    HW123354   3.782   1.192   3.290 -1.6859 -0.5423  3.4747
 3907SOL    HW223355   3.634   1.212   3.308  1.5425  2.2209  0.6631
 3908SOL     OW23356   3.399   2.903  10.488  0.1049  0.4290 -0.3416
 3908SOL    HW123357   3.332   2.841  10.460 -1.3678  1.2839  1.2707
 3908SOL    HW223358   3.353   2.977  10.527  0.3126 -0.3779  1.4280
 3909SOL     OW23359   3.650   1.798   6.569 -0.1563 -0.5566  0.3007
 3909SOL    HW123360   3.709   1.758   6.633  1.6184 -1.1208 -1.6954
 3909SOL    HW223361   3.567   1.754   6.588  0.0489 -0.4996  1.3776
 3910SOL     OW23362   3.484   0.867   8.359 -0.7301 -0.3030  0.0376
 3910SOL    HW123363   3.441   0.952   8.348 -0.5827  0.3446  4.5951
 3910SOL    HW223364   3.448   0.844   8.444 -2.1357  1.1111 -0.1681
 3911SOL     OW23365   2.501   2.172   0.400  0.0623 -0.3666 -0.3061
 3911SOL    HW123366   2.529   2.183   0.491 -1.8119  0.1373  0.2123
 3911SOL    HW223367   2.460   2.085   0.401  1.4235 -1.0064  0.2296
 3912SOL     OW23368   0.122   3.366   0.035 -0.0543 -0.2544  0.2991
 3912SOL    HW123369   0.066   3.306   0.085  1.1848 -0.5657  1.3096
 3912SOL    HW223370   0.208   3.323   0.037  0.8039  1.4141 -1.2326
 3913SOL     OW23371   4.600   4.355   1.744 -0.1138 -0.0860 -0.0902
 3913SOL    HW123372   4.630   4.423   1.804 -0.0966 -0.7547  0.6622
 3913SOL    HW223373   4.535   4.316   1.801 -1.2080  2.7663  0.5945
 3914SOL     OW23374   0.904   0.938  13.426 -0.5000  0.2080 -0.5120
 3914SOL    HW123375   0.921   0.986  13.344 -2.9192  0.3336 -0.9489
 3914SOL    HW223376   0.881   1.007  13.488  0.0963  1.0917 -1.2702
 3915SOL     OW23377   1.636   0.804  11.908 -0.8644 -0.1834  0.7743
 3915SOL    HW123378   1.585   0.757  11.974 -0.2311 -2.4521 -0.3824
 3915SOL    HW223379   1.629   0.745  11.834 -1.0969 -0.5090  1.0525
 3916SOL     OW23380   4.727   1.884   6.666 -0.9075 -0.1052 -0.2776
 3916SOL    HW123381   4.639   1.878   6.627 -1.4441 -1.0097  1.0794
 3916SOL    HW223382   0.048   1.915   6.592 -0.3723  3.2833  1.5178
 3917SOL     OW23383   2.541   0.829  13.791  0.3712  0.1040  0.1177
 3917SOL    HW123384   2.462   0.774  13.785  0.1007  0.3833  1.1859
 3917SOL    HW223385   2.555   0.861  13.702 -0.0035  0.2446  0.1088
 3918SOL     OW23386   4.580   4.219  10.311  0.3096 -0.0423 -0.1988
 3918SOL    HW123387   4.639   4.153  10.348  0.2841 -0.1630 -0.3736
 3918SOL    HW223388   4.638   4.271  10.255  1.3883 -0.7751  0.2458
 3919SOL     OW23389   1.608   0.162  12.158  0.3855  0.0102 -0.0832
 3919SOL    HW123390   1.582   0.070  12.167  0.0958  0.0920 -0.0876
 3919SOL    HW223391   1.698   0.158  12.193  0.4476 -1.0880 -0.3691
 3920SOL     OW23392   2.641   2.915   3.675  0.5661  0.1187  0.5518
 3920SOL    HW123393   2.565   2.952   3.720 -0.7093 -2.7122  0.7225
 3920SOL    HW223394   2.675   2.983   3.617  0.4044 -0.5327 -0.3038
 3921SOL     OW23395   2.982   3.121   3.208 -0.5085 -0.1230 -0.7443
 3921SOL    HW123396   2.974   3.026   3.207 -0.1493 -0.1480 -1.2927
 3921SOL    HW223397   2.971   3.148   3.117  1.7762 -2.8314 -1.8141
 3922SOL     OW23398   2.373   0.539   2.525  0.0762 -0.2648 -0.5607
 3922SOL    HW123399   2.312   0.524   2.452 -0.9593 -0.3249  0.3112
 3922SOL    HW223400   2.315   0.517   2.598  0.8906  0.5145  0.3147
 3923SOL     OW23401   1.412   3.379   8.829  0.1266 -0.3125  0.6344
 3923SOL    HW123402   1.473   3.348   8.895  1.1891  2.2470  0.8703
 3923SOL    HW223403   1.443   3.469   8.818  3.0704 -1.2374  1.6146
 3924SOL     OW23404   3.320   0.060   4.433  0.6571  0.7177  0.0347
 3924SOL    HW123405   3.394   0.099   4.479 -0.9102  0.6854  2.5835
 3924SOL    HW223406   3.250   0.104   4.480  1.4897 -0.8450  2.7027
 3925SOL     OW23407   4.179   0.508   8.942 -0.3064  0.1294 -0.0967
 3925SOL    HW123408   4.112   0.549   8.887  0.9545  2.3920  0.0288
 3925SOL    HW223409   4.130   0.430   8.968 -0.1862 -0.6300 -2.2075
 3926SOL     OW23410   2.469   2.806   9.759  0.3013  0.3559  0.3698
 3926SOL    HW123411   2.514   2.834   9.679  1.7470 -1.6268  0.4928
 3926SOL    HW223412   2.505   2.867   9.823  0.9174 -0.0018  0.3538
 3927SOL     OW23413   1.353   4.017   2.278  0.1594  0.3043  0.3156
 3927SOL    HW123414   1.291   3.944   2.276  0.8008 -0.1848 -2.1581
 3927SOL    HW223415   1.300   4.080   2.325  1.7534 -0.0303  2.5483
 3928SOL     OW23416   4.558   3.010   2.741  0.3055 -0.3359  0.2323
 3928SOL    HW123417   4.555   2.918   2.765  1.1049 -0.6529 -0.8996
 3928SOL    HW223418   4.620   3.046   2.804 -0.0726  2.4091 -0.9516
 3929SOL     OW23419   0.249   0.054   8.872  0.0848  0.0624  0.3249
 3929SOL    HW123420   0.240   0.007   8.955 -0.2050 -0.4310  0.0087
 3929SOL    HW223421   0.212   0.139   8.896  0.4096  0.1263  0.6067
 3930SOL     OW23422   4.102   0.818   7.729 -0.1571 -0.1026  0.2423
 3930SOL    HW123423   4.068   0.902   7.759 -0.4003 -0.3040  0.5286
 3930SOL    HW223424   4.177   0.806   7.787 -0.2292 -0.3242  0.2908
 3931SOL     OW23425   3.033   2.098   3.219 -0.2202 -0.2581 -0.1305
 3931SOL    HW123426   2.984   2.156   3.160 -0.1101  0.7646  0.7764
 3931SOL    HW223427   3.091   2.065   3.150 -1.5473 -0.8816 -0.9522
 3932SOL     OW23428   0.182   4.535   7.435 -0.4762  0.2007  0.5248
 3932SOL    HW123429   0.213   4.598   7.500 -2.3136 -0.9905  2.5666
 3932SOL    HW223430   0.209   4.452   7.475  4.4710 -0.2736 -3.7733
 3933SOL     OW23431   4.389   1.044   5.319 -0.6049  0.1729  0.5617
 3933SOL    HW123432   4.395   1.136   5.344 -3.4064  0.6056 -0.4153
 3933SOL    HW223433   4.452   0.994   5.370 -1.1746 -2.8237 -1.6823
 3934SOL     OW23434   4.464   2.560  10.303  0.4467  0.1921  0.2400
 3934SOL    HW123435   4.506   2.484  10.344  1.3244 -0.6917 -2.3138
 3934SOL    HW223436   4.535   2.621  10.323 -0.1616  0.7343  0.7380
 3935SOL     OW23437   2.562   2.025  10.735  0.2155 -0.9235  0.1903
 3935SOL    HW123438   2.613   2.012  10.816 -1.2480  0.0910  1.2693
 3935SOL    HW223439   2.618   1.966  10.684  2.3446 -0.9974  2.5983
 3936SOL     OW23440   2.415   2.217  10.059 -0.0099  0.0690 -0.0541
 3936SOL    HW123441   2.323   2.229  10.083 -0.2853 -0.0225 -1.0552
 3936SOL    HW223442   2.410   2.122  10.045 -0.1876 -0.1260  1.3816
 3937SOL     OW23443   2.238   1.258  13.724 -0.2914 -0.4096 -0.0949
 3937SOL    HW123444   2.306   1.208  13.679  0.4595  1.8359 -1.4652
 3937SOL    HW223445   2.249   1.217  13.810  2.5756 -0.3764 -0.4325
 3938SOL     OW23446   0.138   1.092   1.874  0.4949  0.1261  0.7990
 3938SOL    HW123447   0.058   1.063   1.828 -1.9522  1.6758  4.0905
 3938SOL    HW223448   0.198   1.128   1.808 -0.6453  1.9072  0.7226
 3939SOL     OW23449   1.813   2.146   8.238  0.5684  0.2464 -0.4089
 3939SOL    HW123450   1.731   2.100   8.256 -0.0097  0.7839 -1.6725
 3939SOL    HW223451   1.845   2.088   8.169 -0.4179  0.6932 -1.2509
 3940SOL     OW23452   2.095   0.920  10.761  0.1288 -0.1503 -0.0614
 3940SOL    HW123453   2.065   0.935  10.851  2.0489  2.1365  0.2068
 3940SOL    HW223454   2.081   1.006  10.722  3.7809  1.0005  1.1635
 3941SOL     OW23455   2.815   1.759   6.501 -0.1056  0.6645  0.0701
 3941SOL    HW123456   2.737   1.703   6.496  0.0164  0.1784  3.5896
 3941SOL    HW223457   2.797   1.804   6.583 -0.8900 -1.1983  0.9332
 3942SOL     OW23458   4.694   2.323   5.748 -0.1763  0.4723 -0.3681
 3942SOL    HW123459   4.715   2.359   5.662 -0.1087 -1.5390 -1.1880
 3942SOL    HW223460   0.012   2.242   5.752 -3.4198 -1.5455 -0.1152
 3943SOL     OW23461   3.147   1.243   2.250  0.5681  0.2902  0.6148
 3943SOL    HW123462   3.074   1.287   2.294 -0.7053 -0.8205 -0.3956
 3943SOL    HW223463   3.222   1.266   2.305  1.2208  1.0948 -0.5967
 3944SOL     OW23464   2.582   3.008  11.088  0.2573  0.2416 -0.5475
 3944SOL    HW123465   2.531   3.078  11.048  1.6254  0.6255 -1.6286
 3944SOL    HW223466   2.610   2.955  11.013  1.2449 -0.3365  0.2128
 3945SOL     OW23467   3.733   2.508   1.633 -0.2962  0.1559 -0.3985
 3945SOL    HW123468   3.778   2.449   1.693  0.6884  1.4524  0.1574
 3945SOL    HW223469   3.645   2.472   1.632 -0.5124  0.6457  0.8752
 3946SOL     OW23470   1.700   2.696   8.858 -0.1224  0.1348  0.2547
 3946SOL    HW123471   1.727   2.781   8.893  0.1338 -0.0137  0.4164
 3946SOL    HW223472   1.781   2.678   8.809 -1.0443 -1.7757 -0.5564
 3947SOL     OW23473   3.671   1.105  16.969  0.3919  0.0704  0.5887
 3947SOL    HW123474   3.625   1.021  16.974  0.9981 -0.2961 -0.1304
 3947SOL    HW223475   3.597   1.151  16.930  2.8696  2.5726 -1.1213
 3948SOL     OW23476   0.462   2.926   1.917  0.1323 -0.5593  0.0912
 3948SOL    HW123477   0.373   2.958   1.904  1.1263  1.5360 -1.5772
 3948SOL    HW223478   0.459   2.832   1.896  1.3742 -0.1902 -1.7888
 3949SOL     OW23479   4.721   0.306   2.305 -0.3402 -0.6803  0.0606
 3949SOL    HW123480   0.011   0.247   2.378 -1.3113  1.9422  2.4835
 3949SOL    HW223481   4.714   0.240   2.236  1.1350 -2.5862  1.6866
 3950SOL     OW23482   0.782   0.403  17.485 -0.0069 -0.4400 -0.0162
 3950SOL    HW123483   0.740   0.420  17.570 -0.3387  0.7350 -0.4121
 3950SOL    HW223484   0.751   0.479  17.435  1.0339 -0.5992 -0.8966
 3951SOL     OW23485   4.588   1.427  13.672  0.1248  0.0340  0.1364
 3951SOL    HW123486   4.560   1.395  13.586 -0.6222 -0.0670  0.4196
 3951SOL    HW223487   4.555   1.354  13.724 -0.4846  0.4900  0.3784
 3952SOL     OW23488   3.605   0.488  11.729  0.3058 -0.7937  0.1590
 3952SOL    HW123489   3.602   0.524  11.818 -1.5889  3.4595 -1.5932
 3952SOL    HW223490   3.636   0.565  11.681 -1.1877 -0.3040 -0.0412
 3953SOL     OW23491   4.037   4.287  15.501 -0.1109 -0.0014  0.1200
 3953SOL    HW123492   3.952   4.329  15.503 -1.6092 -3.1378  1.5828
 3953SOL    HW223493   4.009   4.204  15.461  1.3634  0.1651 -1.2676
 3954SOL     OW23494   4.712   1.993   8.400  0.1195  0.3766 -0.3769
 3954SOL    HW123495   0.006   1.958   8.315  0.2398  0.7737 -0.5027
 3954SOL    HW223496   4.724   1.915   8.455 -1.0328  0.2298 -0.3488
 3955SOL     OW23497   2.024   3.877  13.205  0.1059 -0.1822  0.3991
 3955SOL    HW123498   2.063   3.963  13.225  2.7794 -1.7290  1.8542
 3955SOL    HW223499   1.994   3.888  13.115 -0.7911 -2.1570  0.4690
 3956SOL     OW23500   3.794   3.812   1.372  0.0392 -0.2127  0.0896
 3956SOL    HW123501   3.872   3.763   1.400 -0.0814  0.8295  2.2744
 3956SOL    HW223502   3.772   3.855   1.455 -0.7784 -1.9132  0.7422
 3957SOL     OW23503   3.081   0.711   9.046  0.6091  0.2233  0.3321
 3957SOL    HW123504   3.147   0.780   9.053 -0.2615  1.1656 -0.5832
 3957SOL    HW223505   3.100   0.700   8.953  1.6390  0.8551  0.4656
 3958SOL     OW23506   3.543   1.237   2.683  0.6768  0.4021 -0.2458
 3958SOL    HW123507   3.537   1.329   2.708 -0.4895 -0.1674  1.5782
 3958SOL    HW223508   3.490   1.210   2.758  0.6464  1.8386  0.2400
 3959SOL     OW23509   2.541   3.092   8.591 -0.5304  0.3217 -0.2061
 3959SOL    HW123510   2.627   3.134   8.590  0.7853 -2.3513  0.8727
 3959SOL    HW223511   2.551   3.032   8.518 -0.9516 -1.0266  0.8432
 3960SOL     OW23512   1.003   3.569   6.225  0.0601 -0.3818 -0.1318
 3960SOL    HW123513   0.960   3.623   6.291  0.3445  0.2813 -0.4914
 3960SOL    HW223514   0.935   3.511   6.191 -0.6568  0.9760 -0.9980
 3961SOL     OW23515   1.497   1.134   9.151 -0.1894  0.2065  0.4433
 3961SOL    HW123516   1.453   1.209   9.191 -0.5903  1.2747 -2.0620
 3961SOL    HW223517   1.468   1.061   9.207 -0.0030 -1.8555 -2.1545
 3962SOL     OW23518   0.646   3.192   2.253 -0.5427  0.0713 -0.0198
 3962SOL    HW123519   0.740   3.209   2.253 -1.0763  3.0469  0.0779
 3962SOL    HW223520   0.641   3.129   2.181  0.4055  2.2746 -2.0096
 3963SOL     OW23521   4.678   4.514   8.334  0.1138 -0.5599 -0.2973
 3963SOL    HW123522   4.716   4.485   8.251 -0.4796  0.7130 -1.0273
 3963SOL    HW223523   4.599   4.557   8.299 -0.4944 -1.9153 -0.6001
 3964SOL     OW23524   4.632   1.492  14.813 -0.1547 -0.0439  0.0058
 3964SOL    HW123525   4.553   1.494  14.759  0.0693  1.0996 -0.2901
 3964SOL    HW223526   4.635   1.583  14.845  0.0906  0.4504 -1.4299
 3965SOL     OW23527   0.333   1.962   4.801  0.3722  0.5370 -0.5031
 3965SOL    HW123528   0.316   1.874   4.835  1.5844  0.0156 -1.2571
 3965SOL    HW223529   0.251   1.974   4.752  0.1968  0.9000 -0.1155
 3966SOL     OW23530   1.468   4.589  10.346 -0.4483 -0.3230  0.6130
 3966SOL    HW123531   1.405   4.566  10.415 -1.3192 -0.9046 -0.3628
 3966SOL    HW223532   1.537   4.524  10.358 -0.9109 -1.1515 -1.2292
 3967SOL     OW23533   0.448   2.171   5.962 -0.2297 -0.1888  0.0155
 3967SOL    HW123534   0.399   2.110   5.906 -0.3121 -1.5254  1.5687
 3967SOL    HW223535   0.466   2.123   6.042  2.5057 -1.2919 -1.2690
 3968SOL     OW23536   4.629   0.292   7.903 -0.4199 -0.1763  0.4419
 3968SOL    HW123537   4.622   0.355   7.975  0.6121  0.0186  0.3670
 3968SOL    HW223538   4.566   0.328   7.841  1.5883 -3.3173 -3.4580
 3969SOL     OW23539   4.682   1.339   2.304 -0.1841 -0.1472  0.7395
 3969SOL    HW123540   0.008   1.415   2.306 -1.0232  0.4890  1.0086
 3969SOL    HW223541   4.698   1.297   2.219  0.7713  1.9137 -0.0998
 3970SOL     OW23542   0.815   0.449   8.059  0.2787 -0.3668 -0.0900
 3970SOL    HW123543   0.827   0.392   8.135 -3.3429  1.7842  2.0955
 3970SOL    HW223544   0.897   0.456   8.010  0.0196  0.1999 -0.4380
 3971SOL     OW23545   1.231   3.476   5.018  0.2452 -0.3200 -0.2281
 3971SOL    HW123546   1.245   3.536   4.946 -0.8910  1.5672  1.1179
 3971SOL    HW223547   1.251   3.393   4.974  0.6406  0.7426 -1.9997
 3972SOL     OW23548   2.729   2.342   2.297  0.5645  0.5067 -0.0925
 3972SOL    HW123549   2.819   2.333   2.327 -0.0263 -2.2369  0.7768
 3972SOL    HW223550   2.686   2.298   2.370 -1.0754  2.4725  0.1459
 3973SOL     OW23551   3.826   2.265   4.444  0.6668 -0.9038  0.7936
 3973SOL    HW123552   3.846   2.174   4.423  0.5097 -0.9833  0.9895
 3973SOL    HW223553   3.757   2.275   4.379  1.0879 -1.7862  0.2158
 3974SOL     OW23554   0.862   2.204   6.294 -0.3707  0.1874  0.0233
 3974SOL    HW123555   0.790   2.267   6.286 -0.5133  0.1931  1.4480
 3974SOL    HW223556   0.823   2.158   6.368  1.1195 -0.7684  0.2070
 3975SOL     OW23557   1.163   3.672   5.815 -0.0043  0.3537 -0.1846
 3975SOL    HW123558   1.087   3.615   5.828  0.6551 -0.7907 -1.2756
 3975SOL    HW223559   1.222   3.599   5.835  0.0003  0.3297 -0.2836
 3976SOL     OW23560   1.568   4.712  11.485 -0.3379  1.0436 -0.1908
 3976SOL    HW123561   1.564   0.044  11.415  0.7945 -0.2038 -1.3973
 3976SOL    HW223562   1.476   4.708  11.511 -0.3260  1.1234 -0.1361
 3977SOL     OW23563   0.060   2.322   9.669 -0.1382 -0.8150 -0.6880
 3977SOL    HW123564   0.030   2.344   9.581 -1.3622 -2.3920 -0.6593
 3977SOL    HW223565   0.056   2.410   9.706  0.0321 -1.0273 -0.1777
 3978SOL     OW23566   4.589   0.793   3.277 -0.3291  0.2652  0.2308
 3978SOL    HW123567   4.659   0.751   3.226 -0.2013  0.7816 -0.0201
 3978SOL    HW223568   4.632   0.869   3.316 -1.1937  1.5351 -1.2999
 3979SOL     OW23569   4.182   4.574   1.990  0.0565 -0.7149  0.2367
 3979SOL    HW123570   4.261   4.620   1.961  1.4317 -2.2251  1.6006
 3979SOL    HW223571   4.122   4.642   2.022  0.7456  0.4010 -0.8795
 3980SOL     OW23572   2.517   1.867   9.007 -0.3968  0.4236  0.0124
 3980SOL    HW123573   2.533   1.960   9.024 -1.1988  0.4260  0.7764
 3980SOL    HW223574   2.568   1.840   8.931 -0.0130 -1.0329  0.7870
 3981SOL     OW23575   2.209   1.603   8.124 -0.8194  0.5405  0.4800
 3981SOL    HW123576   2.215   1.694   8.154 -1.0124  0.7951 -0.2532
 3981SOL    HW223577   2.220   1.563   8.210 -0.7200  0.4245  0.4135
 3982SOL     OW23578   3.978   3.235   6.346 -0.1691 -0.4081  0.1104
 3982SOL    HW123579   4.004   3.267   6.432 -0.4618  0.4555 -0.1261
 3982SOL    HW223580   3.883   3.243   6.351 -0.0313  1.7979 -0.6273
 3983SOL     OW23581   3.466   4.169   6.653  0.5381 -0.0168  0.2605
 3983SOL    HW123582   3.413   4.106   6.604 -1.2415  0.2454  1.8510
 3983SOL    HW223583   3.403   4.193   6.721 -1.0982  0.3112 -1.3480
 3984SOL     OW23584   3.827   2.685   4.997  0.4287  0.1843 -0.5707
 3984SOL    HW123585   3.752   2.673   4.938  1.2363 -1.1865 -1.2973
 3984SOL    HW223586   3.798   2.619   5.060  0.0237  1.0259  0.1197
 3985SOL     OW23587   2.414   3.870  11.195  0.2395 -0.8522  0.1558
 3985SOL    HW123588   2.452   3.830  11.117 -0.8345 -1.2358 -0.1759
 3985SOL    HW223589   2.346   3.807  11.218  0.4276 -0.6652  1.2144
 3986SOL     OW23590   4.299   0.918   9.667 -0.7150  0.4297  0.1012
 3986SOL    HW123591   4.301   0.860   9.743 -2.0289 -0.3401 -0.4440
 3986SOL    HW223592   4.383   0.900   9.626 -0.8225  2.7992 -1.1650
 3987SOL     OW23593   1.709   1.232   0.577 -0.7952  0.7237 -0.3401
 3987SOL    HW123594   1.678   1.240   0.487 -0.4691  1.4974 -0.3913
 3987SOL    HW223595   1.782   1.171   0.572 -0.2392  1.2970  0.9761
 3988SOL     OW23596   0.458   4.039   5.278  0.4584  0.3750 -0.4150
 3988SOL    HW123597   0.453   3.997   5.364 -2.9000  0.0477 -0.7598
 3988SOL    HW223598   0.448   4.134   5.291 -0.2393  0.1902  0.4118
 3989SOL     OW23599   2.744   4.116   6.188  0.3836  0.0041 -0.4639
 3989SOL    HW123600   2.817   4.178   6.182 -1.4234  2.0445 -1.5086
 3989SOL    HW223601   2.692   4.147   6.114 -1.9898  0.8789  1.5730
 3990SOL     OW23602   3.818   1.830   2.873  0.0871  0.1885  0.1955
 3990SOL    HW123603   3.801   1.750   2.823 -0.8941 -0.2377  1.2262
 3990SOL    HW223604   3.897   1.808   2.922  0.4562  0.3703 -0.3125
 3991SOL     OW23605   0.471   0.903   4.630 -0.7293 -0.2531 -0.1475
 3991SOL    HW123606   0.548   0.940   4.673  1.7051 -4.7985 -0.6703
 3991SOL    HW223607   0.467   0.820   4.677  1.1951 -1.2313 -1.7132
 3992SOL     OW23608   4.016   1.799   4.552 -0.1438  0.5466  0.4227
 3992SOL    HW123609   3.925   1.787   4.524 -0.2683  0.0071  1.0472
 3992SOL    HW223610   4.024   1.894   4.551  0.8643  0.4189 -2.5898
 3993SOL     OW23611   3.384   2.249  15.964 -0.1470 -0.0074  0.1141
 3993SOL    HW123612   3.322   2.322  15.972 -0.6049 -0.5655  1.6268
 3993SOL    HW223613   3.449   2.263  16.033  0.0070  0.1399 -0.0598
 3994SOL     OW23614   1.542   2.698   1.750  0.1958  0.7111  0.4156
 3994SOL    HW123615   1.493   2.650   1.685  0.9205  1.5979 -0.7858
 3994SOL    HW223616   1.555   2.632   1.818  0.5447  2.0571  1.6889
 3995SOL     OW23617   1.263   0.993  13.964  0.7640 -0.0363  0.3442
 3995SOL    HW123618   1.174   1.013  13.933 -0.2137 -3.4711  0.8724
 3995SOL    HW223619   1.260   0.899  13.980  0.0746 -0.0896 -0.0678
 3996SOL     OW23620   3.297   3.947  17.258  0.0216  0.5862 -0.0424
 3996SOL    HW123621   3.339   3.871  17.217 -1.0542 -0.7673  1.3561
 3996SOL    HW223622   3.360   3.976  17.323 -2.8610  1.1107  2.5100
 3997SOL     OW23623   2.363   4.606   8.151 -0.2729  0.6690  0.8341
 3997SOL    HW123624   2.420   4.682   8.164 -2.9942  2.6214  1.3083
 3997SOL    HW223625   2.315   4.637   8.074 -0.5746  0.0973  0.7967
 3998SOL     OW23626   1.606   1.783   8.933 -0.3340  0.2088  0.0429
 3998SOL    HW123627   1.547   1.731   8.878 -0.7896 -1.1031  1.7643
 3998SOL    HW223628   1.678   1.723   8.952 -0.4004  0.0479 -0.2177
 3999SOL     OW23629   3.407   2.263   4.960 -0.0117  0.2864 -0.0190
 3999SOL    HW123630   3.447   2.348   4.978 -0.0530  0.6569 -1.7091
 3999SOL    HW223631   3.344   2.289   4.893  0.2940 -1.1834 -0.8558
 4000SOL     OW23632   0.685   1.515  12.997 -0.0212  0.0117  0.2810
 4000SOL    HW123633   0.728   1.570  12.932 -0.8115  0.9581  0.5545
 4000SOL    HW223634   0.658   1.433  12.955 -0.0337  0.6087 -0.8604
 4001SOL     OW23635   0.821   3.671   7.232 -0.4380  0.0319  0.0727
 4001SOL    HW123636   0.727   3.656   7.237 -0.4535  0.2855  0.5566
 4001SOL    HW223637   0.851   3.588   7.269  0.1071 -0.0121 -0.4523
 4002SOL     OW23638   2.528   0.929   9.142  0.3702 -0.3504  0.0868
 4002SOL    HW123639   2.613   0.925   9.097  0.1554 -3.1243 -0.0785
 4002SOL    HW223640   2.546   0.988   9.215 -0.5051  2.4436 -1.9513
 4003SOL     OW23641   0.487   0.022   2.636 -0.3177 -0.3324  0.4535
 4003SOL    HW123642   0.424   0.045   2.705 -0.2709  2.1089 -0.3448
 4003SOL    HW223643   0.481   0.092   2.571  2.0389 -1.5097 -1.0165
 4004SOL     OW23644   0.263   4.184   2.048 -0.2036 -0.1656  0.0890
 4004SOL    HW123645   0.277   4.278   2.052 -0.4013 -0.1745  1.0413
 4004SOL    HW223646   0.168   4.184   2.054 -0.2158  1.3697 -0.2047
 4005SOL     OW23647   3.344   1.120   3.847  0.4431 -0.0566 -0.9441
 4005SOL    HW123648   3.421   1.064   3.859  0.0769 -1.0878 -3.5901
 4005SOL    HW223649   3.294   1.098   3.926  1.7375  0.3017 -0.0273
 4006SOL     OW23650   2.912   4.428   0.287 -0.0237 -0.6091  0.3565
 4006SOL    HW123651   2.891   4.426   0.380  0.7947  1.0606  0.5932
 4006SOL    HW223652   2.898   4.521   0.268  0.5752 -1.2455 -3.1565
 4007SOL     OW23653   0.604   1.740   7.414 -0.0215 -0.0811  0.3292
 4007SOL    HW123654   0.655   1.669   7.377  2.9546  2.1633  0.1185
 4007SOL    HW223655   0.581   1.706   7.501 -0.1992  1.1714  0.7825
 4008SOL     OW23656   3.708   1.678   8.853  0.0805  0.4717  0.1980
 4008SOL    HW123657   3.792   1.692   8.808 -0.7869  0.1164 -1.5330
 4008SOL    HW223658   3.740   1.625   8.925 -1.0235  0.3841  0.6239
 4009SOL     OW23659   3.276   2.738   6.804 -0.6857 -0.6219  0.0912
 4009SOL    HW123660   3.364   2.709   6.780 -1.0294 -1.2584 -0.4030
 4009SOL    HW223661   3.249   2.682   6.877  0.7346  0.4773  1.4532
 4010SOL     OW23662   1.220   1.049   7.482 -0.0482  0.6539  0.3447
 4010SOL    HW123663   1.233   1.143   7.499  0.2369  0.7155 -0.2331
 4010SOL    HW223664   1.131   1.044   7.517  1.1797 -0.7277  3.2740
 4011SOL     OW23665   4.408   3.269   7.141 -0.0067 -0.5736  1.0151
 4011SOL    HW123666   4.419   3.342   7.202 -1.5018  0.9568 -0.5341
 4011SOL    HW223667   4.360   3.309   7.068  1.6149  0.2443  0.4118
 4012SOL     OW23668   1.196   2.820   4.316 -0.1984 -0.0104 -0.4897
 4012SOL    HW123669   1.266   2.806   4.379 -0.2716  0.1964 -0.3625
 4012SOL    HW223670   1.150   2.736   4.311 -0.9045  0.2849  0.7600
 4013SOL     OW23671   0.697   3.410   6.673  0.1380 -0.2176  0.0712
 4013SOL    HW123672   0.785   3.404   6.710  0.2048 -0.3001 -0.1008
 4013SOL    HW223673   0.638   3.401   6.748  1.3415  2.0005  1.2861
 4014SOL     OW23674   3.793   0.685   5.415  0.8317  0.4101  0.4783
 4014SOL    HW123675   3.847   0.644   5.481 -1.7378 -0.0804  2.2857
 4014SOL    HW223676   3.715   0.709   5.466  1.0631  0.1289  0.9586
 4015SOL     OW23677   4.622   3.436  12.693  0.1380 -0.0358 -0.3723
 4015SOL    HW123678   4.598   3.514  12.741 -0.2894 -0.6815  0.4636
 4015SOL    HW223679   4.578   3.461  12.611 -0.0247 -1.6488 -0.7791
 4016SOL     OW23680   0.286   0.594   5.357  0.0818 -0.1928  0.3552
 4016SOL    HW123681   0.348   0.605   5.429  1.1989  0.9601 -0.7938
 4016SOL    HW223682   0.240   0.515   5.386  0.3155  0.0058  1.2875
 4017SOL     OW23683   1.871   3.638   1.695  0.0829  0.2276 -0.0805
 4017SOL    HW123684   1.884   3.700   1.767  2.2872  2.4766 -2.4102
 4017SOL    HW223685   1.795   3.596   1.735  0.3873 -1.7990 -1.6686
 4018SOL     OW23686   3.716   1.571   7.101  0.9877  0.2625  0.3762
 4018SOL    HW123687   3.654   1.501   7.123 -0.0979  1.7907  2.1374
 4018SOL    HW223688   3.665   1.644   7.065  2.1998  0.7961 -0.2277
 4019SOL     OW23689   0.712   4.495  14.917  0.5834  0.3972  0.5729
 4019SOL    HW123690   0.769   4.552  14.866  1.7017  0.2315  1.6296
 4019SOL    HW223691   0.628   4.509  14.873 -0.6072 -3.0470  1.7578
 4020SOL     OW23692   3.085   2.745   0.317  0.0047 -0.6535  0.2154
 4020SOL    HW123693   3.000   2.717   0.283 -0.2557  0.8674 -0.3844
 4020SOL    HW223694   3.073   2.728   0.411 -0.9189 -0.6718  0.0997
 4021SOL     OW23695   2.208   0.201   4.573 -0.6146 -0.3327 -0.2322
 4021SOL    HW123696   2.255   0.275   4.610  0.1146 -0.5425 -0.7406
 4021SOL    HW223697   2.216   0.141   4.647  0.1929 -1.0218 -0.8827
 4022SOL     OW23698   1.945   4.019   9.660  0.0464 -0.1813  0.2525
 4022SOL    HW123699   1.959   4.112   9.677 -3.2920  0.1620  1.2523
 4022SOL    HW223700   2.012   3.980   9.717  0.7235  0.0953 -0.3688
 4023SOL     OW23701   1.833   1.413  12.430 -0.0056 -0.1132  0.2823
 4023SOL    HW123702   1.817   1.475  12.359  2.0634  1.9692  1.6298
 4023SOL    HW223703   1.919   1.389  12.395 -0.5960  0.7032 -1.7367
 4024SOL     OW23704   0.527   1.918   3.766 -0.0608 -0.2020  0.0957
 4024SOL    HW123705   0.618   1.930   3.795  0.2410 -1.6240 -0.2486
 4024SOL    HW223706   0.486   1.906   3.852 -1.3405 -1.4954 -0.6974
 4025SOL     OW23707   2.255   0.767   0.077  0.7524 -0.5582 -0.2594
 4025SOL    HW123708   2.243   0.672   0.076 -0.7555 -0.3836  0.8050
 4025SOL    HW223709   2.173   0.801   0.040  0.7744 -0.6075 -0.3536
 4026SOL     OW23710   0.214   1.623   5.987  0.3429  0.7769  0.6208
 4026SOL    HW123711   0.158   1.671   5.926 -1.4164 -0.9294  0.8940
 4026SOL    HW223712   0.172   1.537   5.995  0.5693  0.8697  2.8115
 4027SOL     OW23713   1.576   0.628  15.420  0.1374  0.1175 -0.0970
 4027SOL    HW123714   1.634   0.638  15.344 -0.8526  5.0465 -0.2152
 4027SOL    HW223715   1.603   0.703  15.473 -3.0168 -0.1365  1.8566
 4028SOL     OW23716   3.912   0.425   5.553 -0.0413  0.3789 -0.4354
 4028SOL    HW123717   3.983   0.360   5.559 -1.7878 -1.5404 -0.7200
 4028SOL    HW223718   3.873   0.412   5.640 -0.9418  3.4734 -0.3735
 4029SOL     OW23719   4.173   4.056   0.676  0.1105 -0.4075 -0.1992
 4029SOL    HW123720   4.141   3.978   0.721 -1.1915 -0.5877 -1.4589
 4029SOL    HW223721   4.101   4.068   0.614 -0.2395 -1.9756 -0.0974
 4030SOL     OW23722   2.295   4.093   2.727 -0.6864 -0.3069  0.1418
 4030SOL    HW123723   2.231   4.028   2.697 -2.8822  1.3768  1.1161
 4030SOL    HW223724   2.352   4.091   2.651  0.0056 -1.6498  0.6891
 4031SOL     OW23725   2.501   3.005   6.510  0.1896 -0.2909  0.2506
 4031SOL    HW123726   2.573   2.988   6.572 -1.2426  0.9996  2.2758
 4031SOL    HW223727   2.439   2.947   6.554  1.2684 -1.0697  0.7666
 4032SOL     OW23728   2.306   1.665   8.393  0.1160  0.3407  0.1576
 4032SOL    HW123729   2.372   1.613   8.347  0.2413 -0.8794  1.7369
 4032SOL    HW223730   2.359   1.684   8.470  0.2729 -0.9497  0.3661
 4033SOL     OW23731   1.264   4.135   0.173 -0.1147 -0.1413  0.6179
 4033SOL    HW123732   1.186   4.150   0.119  0.8424  0.5035 -0.6054
 4033SOL    HW223733   1.302   4.223   0.164  1.8894 -0.7472  3.1772
 4034SOL     OW23734   1.522   0.261   4.120  0.4853  0.3457 -0.0949
 4034SOL    HW123735   1.436   0.279   4.157  0.0244 -1.4620 -0.3003
 4034SOL    HW223736   1.522   0.321   4.046  0.9355  0.2597 -0.1672
 4035SOL     OW23737   3.007   0.959   3.874  0.4408  0.0643  0.1997
 4035SOL    HW123738   3.089   0.910   3.866  0.9469  0.5026  2.7386
 4035SOL    HW223739   2.947   0.935   3.803  1.0152  0.2096 -0.3352
 4036SOL     OW23740   3.817   1.356   2.189  0.0148 -0.5278  0.0635
 4036SOL    HW123741   3.910   1.352   2.211 -0.3594 -0.7565  1.6299
 4036SOL    HW223742   3.809   1.331   2.097 -0.2227  1.9318 -0.5880
 4037SOL     OW23743   1.882   1.264  13.401  0.0661  0.2757  0.1808
 4037SOL    HW123744   1.798   1.245  13.443 -0.2432 -1.0874 -1.0609
 4037SOL    HW223745   1.898   1.353  13.432 -2.2850  0.0233  2.0983
 4038SOL     OW23746   1.695   2.794   2.431 -0.0777  0.1027 -0.1641
 4038SOL    HW123747   1.727   2.771   2.344 -0.3290  0.7712 -0.4297
 4038SOL    HW223748   1.643   2.716   2.452 -0.0556 -0.5109 -2.3854
 4039SOL     OW23749   0.375   4.639   0.782 -0.1264 -0.0856  0.3784
 4039SOL    HW123750   0.340   4.647   0.693  0.5082 -1.1514  0.0270
 4039SOL    HW223751   0.366   4.544   0.791 -4.1507  0.2571 -0.2140
 4040SOL     OW23752   0.749   2.779   1.855 -0.0669 -0.1964 -0.0648
 4040SOL    HW123753   0.688   2.852   1.868  0.8130  0.3109  1.2034
 4040SOL    HW223754   0.764   2.799   1.762  0.7654 -1.5094 -0.2054
 4041SOL     OW23755   2.408   4.359   8.239 -0.2364  0.1649 -0.3683
 4041SOL    HW123756   2.427   4.311   8.158 -1.2601 -2.2936  0.8662
 4041SOL    HW223757   2.387   4.441   8.194 -0.2879  1.7855  2.6476
 4042SOL     OW23758   0.108   2.357  10.474 -0.3483  0.5252 -0.4876
 4042SOL    HW123759   0.140   2.305  10.547  0.2188 -0.2425 -1.2793
 4042SOL    HW223760   0.077   2.438  10.515 -0.6916 -0.6306  1.5343
 4043SOL     OW23761   0.120   3.328   8.729 -0.2292  0.5063  0.2353
 4043SOL    HW123762   0.068   3.384   8.671 -1.9165 -1.6474 -0.3420
 4043SOL    HW223763   0.057   3.264   8.763  1.8459 -1.3054  0.6557
 4044SOL     OW23764   3.177   4.210  11.650 -0.2686  0.2596  0.0138
 4044SOL    HW123765   3.258   4.159  11.652  1.3157  2.7550 -1.3893
 4044SOL    HW223766   3.175   4.230  11.557  0.1807 -0.5640 -0.1710
 4045SOL     OW23767   0.283   2.683   4.270 -0.2132 -0.1665 -0.0907
 4045SOL    HW123768   0.299   2.589   4.283  1.2155  0.3395  1.8970
 4045SOL    HW223769   0.255   2.675   4.179  1.8934  0.7311 -0.8091
 4046SOL     OW23770   2.386   2.430   3.655 -0.5331  0.1048  0.4141
 4046SOL    HW123771   2.292   2.413   3.652 -0.0626 -2.3896 -0.1516
 4046SOL    HW223772   2.422   2.348   3.620 -3.0962 -1.9388  2.5926
 4047SOL     OW23773   4.034   0.739  14.790  0.4128 -0.3011  0.1837
 4047SOL    HW123774   4.105   0.688  14.752 -0.1977  0.7726 -2.4021
 4047SOL    HW223775   4.061   0.761  14.879  1.1024  1.0491 -0.3609
 4048SOL     OW23776   3.176   0.833   2.948 -0.0215 -0.0212  0.2884
 4048SOL    HW123777   3.150   0.841   3.040 -2.9899 -0.3287 -0.5321
 4048SOL    HW223778   3.144   0.750   2.914  0.8067  0.5810 -1.9151
 4049SOL     OW23779   3.866   4.374  10.962 -0.0187  0.3186  0.3667
 4049SOL    HW123780   3.840   4.456  10.922  0.6456  0.9966  1.3249
 4049SOL    HW223781   3.874   4.390  11.056  2.5112  0.3598  0.1306
 4050SOL     OW23782   0.454   3.148   6.187 -0.1774 -0.3318 -0.0528
 4050SOL    HW123783   0.449   3.108   6.101 -0.6743 -1.6063  0.5739
 4050SOL    HW223784   0.550   3.154   6.185 -0.1965 -0.3826 -0.8879
 4051SOL     OW23785   2.080   2.953  10.269 -0.4873 -0.3165  0.1083
 4051SOL    HW123786   2.068   2.970  10.176  0.7328  0.8273  0.1451
 4051SOL    HW223787   2.170   2.985  10.281 -0.4154 -1.1478  1.8063
 4052SOL     OW23788   1.619   3.320   3.035  0.3110 -0.1413 -0.0651
 4052SOL    HW123789   1.708   3.296   3.011  0.3093 -0.1767 -0.0358
 4052SOL    HW223790   1.613   3.263   3.112 -3.8111 -0.4940 -0.6384
 4053SOL     OW23791   1.938   3.521   0.807 -0.1669  0.0408 -0.4343
 4053SOL    HW123792   2.025   3.536   0.844 -1.0836  1.3148  1.2200
 4053SOL    HW223793   1.915   3.590   0.745 -2.6235 -1.3332 -1.0620
 4054SOL     OW23794   3.461   0.270   2.236  0.0471 -0.5946 -0.1541
 4054SOL    HW123795   3.533   0.265   2.299 -0.3659 -0.2386  0.3473
 4054SOL    HW223796   3.385   0.307   2.280  2.0747  2.7937  0.4369
 4055SOL     OW23797   3.536   3.638   3.533 -0.8275 -0.2790  0.1035
 4055SOL    HW123798   3.560   3.730   3.520  0.0601 -0.6440 -0.7691
 4055SOL    HW223799   3.504   3.631   3.623 -1.2261 -2.1841 -0.1825
 4056SOL     OW23800   1.241   2.868   5.390 -0.0836  0.3438  0.4781
 4056SOL    HW123801   1.335   2.885   5.395  0.1041 -0.3999 -0.6867
 4056SOL    HW223802   1.215   2.937   5.330  1.2623  0.5913  0.1894
 4057SOL     OW23803   1.811   2.742  14.865  0.1457  0.7062  0.5370
 4057SOL    HW123804   1.804   2.666  14.923  1.3976  0.9825  1.0406
 4057SOL    HW223805   1.897   2.773  14.892  0.8118  0.0926 -0.8625
 4058SOL     OW23806   2.724   0.770   0.268 -0.8122 -0.3854  0.0748
 4058SOL    HW123807   2.702   0.846   0.321  0.7204  0.8456 -1.0169
 4058SOL    HW223808   2.766   0.814   0.194 -0.0436  1.5989  1.7220
 4059SOL     OW23809   4.399   2.406   0.234  0.1769  0.2080  0.5938
 4059SOL    HW123810   4.419   2.478   0.294 -0.1277  1.4017 -0.7452
 4059SOL    HW223811   4.484   2.418   0.191 -0.5322 -0.2433 -0.9420
 4060SOL     OW23812   1.032   4.377   1.634  0.0239 -0.6385 -0.0004
 4060SOL    HW123813   0.991   4.414   1.556  0.3353  1.1725  0.7025
 4060SOL    HW223814   0.951   4.335   1.664  0.0946 -1.1135 -0.4898
 4061SOL     OW23815   2.310   3.460   3.676 -0.7084  0.0919  0.0419
 4061SOL    HW123816   2.229   3.510   3.673 -0.9939 -0.2752  1.6133
 4061SOL    HW223817   2.366   3.534   3.651 -1.7339  0.7173 -0.3879
 4062SOL     OW23818   3.602   1.104   4.804  0.8077 -0.0942 -0.2863
 4062SOL    HW123819   3.592   1.053   4.884 -1.6125 -0.3442 -0.7614
 4062SOL    HW223820   3.664   1.168   4.840  0.5977  0.1564 -0.3699
 4063SOL     OW23821   3.825   2.636   9.581  0.5349  0.4059 -0.2110
 4063SOL    HW123822   3.815   2.728   9.607  3.0962  0.8846 -0.9393
 4063SOL    HW223823   3.773   2.590   9.647  0.5196  0.3943 -0.2311
 4064SOL     OW23824   3.364   1.404   8.847  0.1015  0.1260 -0.4455
 4064SOL    HW123825   3.283   1.355   8.837 -1.3763  2.4110  0.2475
 4064SOL    HW223826   3.407   1.385   8.763 -1.0147  1.0497 -1.2299
 4065SOL     OW23827   2.765   0.253   2.348 -0.2523  0.2673  0.4177
 4065SOL    HW123828   2.789   0.242   2.440 -1.2132 -0.6024  0.5695
 4065SOL    HW223829   2.685   0.302   2.367 -0.0155  0.9784 -0.4366
 4066SOL     OW23830   3.578   3.224   3.643 -0.2987 -0.0137  0.0318
 4066SOL    HW123831   3.607   3.135   3.621 -0.2053  0.0287 -0.0137
 4066SOL    HW223832   3.495   3.238   3.597 -0.9260 -0.4443  1.0335
 4067SOL     OW23833   1.904   3.818  12.472 -0.1476  0.0881  0.1453
 4067SOL    HW123834   1.932   3.908  12.458 -1.0709  0.1698 -1.1986
 4067SOL    HW223835   1.927   3.791  12.383  0.1053  1.2509 -0.1391
 4068SOL     OW23836   4.627   2.123   9.199  0.1684  0.3642 -0.2740
 4068SOL    HW123837   4.616   2.153   9.108 -1.3612  2.1730  0.4916
 4068SOL    HW223838   4.705   2.067   9.196 -0.0614  0.0969 -1.3623
 4069SOL     OW23839   3.317   0.008   3.285  0.0867 -0.1933  0.1951
 4069SOL    HW123840   3.411   0.023   3.290  0.0432  0.1914 -0.2471
 4069SOL    HW223841   3.307   4.709   3.375  0.5514  2.3903  1.1300
 4070SOL     OW23842   4.135   1.199   8.322 -0.4166  0.1704 -0.4945
 4070SOL    HW123843   4.150   1.252   8.244 -3.0150  1.2738 -0.2453
 4070SOL    HW223844   4.041   1.216   8.329 -0.8747 -2.7629  0.5537
 4071SOL     OW23845   2.310   3.099   1.008 -0.2126  0.2826 -0.5253
 4071SOL    HW123846   2.218   3.119   1.024  0.0274  0.1622  1.0197
 4071SOL    HW223847   2.332   3.067   1.095 -5.2977 -0.8553  0.3074
 4072SOL     OW23848   0.048   4.405   5.690  0.3290  0.3018 -0.0410
 4072SOL    HW123849   0.062   4.313   5.667 -0.3374  0.1955 -0.0413
 4072SOL    HW223850   0.035   4.401   5.785 -0.9658  1.1828 -0.1767
 4073SOL     OW23851   4.228   1.051   3.587  0.9559  0.0176 -0.2916
 4073SOL    HW123852   4.199   1.142   3.577 -1.7927 -0.5689  2.3482
 4073SOL    HW223853   4.302   1.059   3.647  0.0795  0.9821  0.6781
 4074SOL     OW23854   3.656   0.186   3.311  0.8438 -0.3256 -0.4953
 4074SOL    HW123855   3.703   0.227   3.238  0.2526  2.2317  0.5781
 4074SOL    HW223856   3.723   0.204   3.378  0.3782  2.1129 -0.6826
 4075SOL     OW23857   0.104   0.719  10.005 -0.1427  0.8786  0.1733
 4075SOL    HW123858   0.108   0.786  10.073  0.1243  0.6584  0.3819
 4075SOL    HW223859   0.131   0.767   9.927 -0.8886  0.4410 -0.3518
 4076SOL     OW23860   1.887   2.004   9.619  0.5647 -0.0480 -0.3532
 4076SOL    HW123861   1.929   2.074   9.670 -1.1558 -0.1331  1.1908
 4076SOL    HW223862   1.796   2.022   9.643 -0.3058 -1.3398 -2.6477
 4077SOL     OW23863   3.863   1.642   5.324  0.0609 -0.0879 -0.0680
 4077SOL    HW123864   3.794   1.578   5.308 -0.4810  0.3971  0.3365
 4077SOL    HW223865   3.867   1.697   5.246  0.8120 -0.6579 -0.4326
 4078SOL     OW23866   0.020   0.763   9.707  0.3112 -0.0155  0.2991
 4078SOL    HW123867   0.011   0.851   9.742  1.9178  1.2701 -2.4570
 4078SOL    HW223868   4.708   0.771   9.622 -1.0632  2.7644  1.2908
 4079SOL     OW23869   3.039   2.198   5.513 -0.2795  0.1690 -0.5601
 4079SOL    HW123870   3.117   2.253   5.504 -1.3577  2.0374  1.3717
 4079SOL    HW223871   2.985   2.252   5.571  0.3847 -0.8265  0.9980
 4080SOL     OW23872   3.118   2.459   6.314  0.1289  0.4630 -0.1488
 4080SOL    HW123873   3.030   2.424   6.323  0.2964  0.7086  2.7483
 4080SOL    HW223874   3.137   2.444   6.222 -1.5180  0.8091 -0.5448
 4081SOL     OW23875   1.168   2.906  17.059 -0.3655 -0.0749 -0.5133
 4081SOL    HW123876   1.164   2.884  17.152 -0.5287 -0.0185 -0.5059
 4081SOL    HW223877   1.077   2.934  17.046 -0.0980  1.1387  0.2848
 4082SOL     OW23878   4.408   1.143   6.646  0.3449 -0.4669 -0.2649
 4082SOL    HW123879   4.330   1.111   6.601 -0.4309 -0.2254  0.9190
 4082SOL    HW223880   4.395   1.238   6.642 -2.4116 -0.8190  0.6910
 4083SOL     OW23881   4.314   0.708   0.311  0.0678  0.1163 -0.2651
 4083SOL    HW123882   4.337   0.617   0.328 -0.1270  0.1876  0.3634
 4083SOL    HW223883   4.397   0.750   0.287  1.7302 -1.6393  2.4788
 4084SOL     OW23884   3.926   3.253   1.348  0.3155 -0.1077  0.0797
 4084SOL    HW123885   3.866   3.183   1.371 -0.0261 -0.2733 -1.3578
 4084SOL    HW223886   3.869   3.307   1.294 -0.7424  0.1061  1.4015
 4085SOL     OW23887   0.913   3.382   8.436 -0.0502  0.2235 -0.4210
 4085SOL    HW123888   0.952   3.295   8.431 -0.5144  0.1178 -2.3105
 4085SOL    HW223889   0.931   3.396   8.529  1.3843  1.8411 -0.9577
 4086SOL     OW23890   1.116   0.486   4.673  0.6186 -0.0099  0.6023
 4086SOL    HW123891   1.036   0.433   4.679  2.1921 -2.5691 -1.1896
 4086SOL    HW223892   1.132   0.491   4.579 -0.2692 -0.2350  0.4440
 4087SOL     OW23893   4.445   3.039   9.844  0.3889  0.2137  1.1043
 4087SOL    HW123894   4.491   3.030   9.761 -1.5750 -1.4143  0.1891
 4087SOL    HW223895   4.448   3.133   9.862 -1.4129  0.2331  1.3191
 4088SOL     OW23896   0.377   2.339   8.802 -0.1367  0.2611  0.2858
 4088SOL    HW123897   0.380   2.377   8.889  2.4588  2.2289 -0.6557
 4088SOL    HW223898   0.471   2.332   8.783  0.1588  0.3945  1.7056
 4089SOL     OW23899   0.324   1.536   3.858  0.2197  0.1915  0.2402
 4089SOL    HW123900   0.247   1.486   3.884  0.0014 -0.7131 -2.1518
 4089SOL    HW223901   0.292   1.621   3.889 -0.9899  0.0164 -0.5461
 4090SOL     OW23902   4.411   4.435   3.869 -0.1510  0.3585 -0.2226
 4090SOL    HW123903   4.418   4.446   3.964 -3.3855 -0.1464  0.0784
 4090SOL    HW223904   4.325   4.393   3.867  1.0772 -2.1309 -1.0758
 4091SOL     OW23905   2.709   3.977   1.036  0.1054 -0.3658  0.7157
 4091SOL    HW123906   2.695   3.887   1.065  1.0381 -0.4571  0.8866
 4091SOL    HW223907   2.645   4.032   1.082 -0.7293 -1.0285  0.3362
 4092SOL     OW23908   1.497   2.334   6.237 -0.2422  0.6300  0.4038
 4092SOL    HW123909   1.448   2.412   6.262  1.1539  1.0784  1.7963
 4092SOL    HW223910   1.454   2.320   6.153  1.3083  0.0827 -0.3057
 4093SOL     OW23911   2.824   0.952   3.673  0.0556 -0.1018  0.0302
 4093SOL    HW123912   2.800   1.038   3.707  0.5089 -0.0209  0.1465
 4093SOL    HW223913   2.743   0.915   3.639 -1.0434  0.0599  2.5272
 4094SOL     OW23914   4.632   2.230   3.589  0.4072  0.6982  0.5106
 4094SOL    HW123915   4.572   2.163   3.620 -0.1667  1.2729  0.6463
 4094SOL    HW223916   4.574   2.305   3.574 -0.8674 -0.5030 -0.5530
 4095SOL     OW23917   3.238   0.649  14.954  0.2794  0.3119 -0.4355
 4095SOL    HW123918   3.223   0.596  15.032 -3.2902 -0.9581 -1.9303
 4095SOL    HW223919   3.282   0.585  14.898 -0.3167 -2.2364  1.9752
 4096SOL     OW23920   2.725   2.367   0.591  0.1675  0.4402  0.6664
 4096SOL    HW123921   2.815   2.393   0.609  0.4036  0.6510 -0.7831
 4096SOL    HW223922   2.684   2.452   0.575  1.7408  0.8305 -1.3651
 4097SOL     OW23923   4.615   1.629  11.859  0.2130  0.0680  0.8031
 4097SOL    HW123924   4.599   1.677  11.940  0.7548  0.6636  0.5648
 4097SOL    HW223925   4.683   1.567  11.884  1.2792  0.3848 -1.3079
 4098SOL     OW23926   1.631   0.544   8.687 -0.1220  0.2611  0.3145
 4098SOL    HW123927   1.699   0.492   8.645  0.0816 -0.9210  2.1076
 4098SOL    HW223928   1.640   0.623   8.634  0.7951  0.6299  1.0096
 4099SOL     OW23929   4.167   3.398  10.856  0.2440 -0.2330  0.6955
 4099SOL    HW123930   4.212   3.337  10.916 -0.9729 -1.0863  0.7459
 4099SOL    HW223931   4.243   3.430  10.808  0.6008  0.8906  1.9934
 4100SOL     OW23932   2.142   2.714   4.815 -0.3850 -0.5037  0.1833
 4100SOL    HW123933   2.096   2.659   4.878 -0.8408 -0.8974 -0.4873
 4100SOL    HW223934   2.130   2.804   4.846 -0.1452 -0.9764  1.6228
 4101SOL     OW23935   0.322   0.226   8.189 -0.2966  0.1626 -0.4160
 4101SOL    HW123936   0.303   0.165   8.117  1.8913 -1.3721  0.3209
 4101SOL    HW223937   0.288   0.306   8.148 -0.0050 -0.2126 -1.4027
 4102SOL     OW23938   2.536   2.917   2.609  0.5802  0.6497  0.4504
 4102SOL    HW123939   2.616   2.964   2.633  1.1605 -1.3757  2.4911
 4102SOL    HW223940   2.512   2.874   2.691 -1.9087  0.9241 -0.1262
 4103SOL     OW23941   0.575   1.766  12.742  0.1223  0.2700 -0.5395
 4103SOL    HW123942   0.665   1.739  12.759  0.1805  1.1076  0.4646
 4103SOL    HW223943   0.548   1.815  12.820  0.1199  0.5277 -0.6995
 4104SOL     OW23944   1.030   4.277  15.959  0.1296 -0.4670  0.0082
 4104SOL    HW123945   0.969   4.270  15.885 -0.5530 -1.4754  0.6756
 4104SOL    HW223946   0.995   4.334  16.027  0.5905 -0.3873  0.1790
 4105SOL     OW23947   4.134   1.065   4.449  0.1657 -0.3468  0.4649
 4105SOL    HW123948   4.059   1.114   4.482 -0.3797 -1.5141  0.9434
 4105SOL    HW223949   4.095   0.997   4.393  1.7968  0.6230 -1.8421
 4106SOL     OW23950   1.762   3.040   1.530  0.0424 -0.1203  0.4300
 4106SOL    HW123951   1.743   3.124   1.489 -2.7005 -0.5806  0.7698
 4106SOL    HW223952   1.846   3.053   1.573 -0.8441 -0.0047  2.1279
 4107SOL     OW23953   1.709   3.651   3.418  0.1766  0.4980  0.2480
 4107SOL    HW123954   1.708   3.714   3.490 -0.7430  1.2085 -0.3780
 4107SOL    HW223955   1.672   3.714   3.356  0.8079  0.8313  0.2086
 4108SOL     OW23956   3.879   2.583   3.888  0.5893 -0.0736  0.1092
 4108SOL    HW123957   3.854   2.675   3.897 -0.7416 -0.2747 -1.5057
 4108SOL    HW223958   3.865   2.566   3.795  0.8293 -0.3628  0.1265
 4109SOL     OW23959   1.995   2.218   4.645 -0.1900 -0.8302 -0.1890
 4109SOL    HW123960   2.005   2.167   4.725 -1.9665 -1.5678 -0.4394
 4109SOL    HW223961   1.923   2.174   4.600 -0.6924 -1.1895  0.9472
 4110SOL     OW23962   3.116   0.428   6.974 -0.1201  0.3433  0.3013
 4110SOL    HW123963   3.161   0.390   6.898  0.7433 -1.0994  1.5547
 4110SOL    HW223964   3.192   0.463   7.021  0.3484 -0.0598 -0.1567
 4111SOL     OW23965   3.667   3.129   8.744  0.2101 -0.2508  0.1996
 4111SOL    HW123966   3.713   3.094   8.820 -0.7624  0.0243  0.9263
 4111SOL    HW223967   3.622   3.047   8.722 -0.8446  0.2212  0.5728
 4112SOL     OW23968   0.546   0.106  12.387 -0.2467  0.2859 -0.9769
 4112SOL    HW123969   0.488   0.034  12.362 -1.1377  0.4615  0.5759
 4112SOL    HW223970   0.512   0.130  12.473 -1.6424 -0.3847 -1.3272
 4113SOL     OW23971   4.318   1.231  10.470  0.1401 -0.0168  0.4792
 4113SOL    HW123972   4.233   1.263  10.441  0.9922  0.9492 -0.9382
 4113SOL    HW223973   4.362   1.307  10.508 -1.8344  0.6206  1.4860
 4114SOL     OW23974   4.424   1.837   6.676 -0.3218 -0.3061  0.1736
 4114SOL    HW123975   4.330   1.848   6.694 -0.6945 -1.3840 -1.1053
 4114SOL    HW223976   4.448   1.751   6.709  1.4546 -0.4132 -1.3680
 4115SOL     OW23977   0.256   0.004   3.853 -0.1210  0.0405 -0.0143
 4115SOL    HW123978   0.202   4.706   3.780 -0.4843  1.0456 -0.1676
 4115SOL    HW223979   0.312   0.070   3.812 -0.6359  2.0754  2.5625
 4116SOL     OW23980   0.112   0.205   5.755 -0.3516 -0.7673  0.1251
 4116SOL    HW123981   0.183   0.142   5.744 -0.0870 -0.1288 -1.8758
 4116SOL    HW223982   0.151   0.292   5.758 -1.7145 -0.1417 -0.2396
 4117SOL     OW23983   1.388   3.455   6.483 -0.2125  0.2700  0.0007
 4117SOL    HW123984   1.338   3.413   6.413  0.8804 -0.9517 -0.0248
 4117SOL    HW223985   1.408   3.379   6.537 -0.3830  1.4465  1.7500
 4118SOL     OW23986   0.003   0.976   7.037  0.2840  0.0533  0.5244
 4118SOL    HW123987   0.031   1.017   6.955  1.9245 -0.6157  0.7532
 4118SOL    HW223988   0.064   1.012   7.101 -2.5077  3.0928  1.4615
 4119SOL     OW23989   0.927   1.483   4.141 -0.1448 -0.2995 -0.0689
 4119SOL    HW123990   1.015   1.518   4.126 -0.4110  2.1583  4.1595
 4119SOL    HW223991   0.937   1.389   4.153  1.1307  0.0692  1.7585
 4120SOL     OW23992   1.098   0.443   2.954  0.1502 -0.4490 -0.5885
 4120SOL    HW123993   1.139   0.367   2.993 -0.2370 -0.4875 -0.2539
 4120SOL    HW223994   1.166   0.507   2.976 -0.0435 -0.3029 -0.4112
 4121SOL     OW23995   2.606   2.707   7.949  0.3917 -0.7179 -0.1122
 4121SOL    HW123996   2.661   2.686   7.875  0.3490 -0.2122 -0.2908
 4121SOL    HW223997   2.542   2.758   7.899 -1.1229 -2.3492  0.1824
 4122SOL     OW23998   0.442   1.015  10.396 -0.0008  0.0005 -0.8136
 4122SOL    HW123999   0.390   0.942  10.430  1.5760 -1.0990 -0.7969
 4122SOL    HW224000   0.476   0.973  10.317 -1.3915 -1.1180 -0.8156
 4123SOL     OW24001   0.514   2.429   7.289 -0.0443 -0.0525  0.6333
 4123SOL    HW124002   0.442   2.384   7.244  1.5726 -0.6461 -1.3351
 4123SOL    HW224003   0.576   2.359   7.310  1.1497  1.1340  1.0818
 4124SOL     OW24004   2.138   1.638   6.164 -0.4178  0.1995  0.2443
 4124SOL    HW124005   2.228   1.660   6.144 -0.3091  0.6947  1.2371
 4124SOL    HW224006   2.129   1.556   6.116  2.7934 -2.3073  3.8981
 4125SOL     OW24007   2.859   1.839  12.061  0.1571  0.0943  0.0549
 4125SOL    HW124008   2.902   1.908  12.011 -1.8998  1.5072  0.2424
 4125SOL    HW224009   2.864   1.772  11.993 -0.2180 -0.4179  0.5306
 4126SOL     OW24010   4.151   1.134   2.472  0.0691  0.6200 -0.1767
 4126SOL    HW124011   4.234   1.088   2.471 -1.2246 -1.7170  0.0676
 4126SOL    HW224012   4.099   1.062   2.434 -0.5107  1.6193 -1.2936
 4127SOL     OW24013   2.696   3.073   2.990  0.4128 -0.0324 -0.1093
 4127SOL    HW124014   2.673   3.160   2.956 -0.8069  0.3527  1.6789
 4127SOL    HW224015   2.647   3.081   3.072 -1.2907 -1.2940 -1.0127
 4128SOL     OW24016   2.435   0.144   8.176 -0.3974 -0.4046 -0.2719
 4128SOL    HW124017   2.499   0.200   8.219 -1.4359  0.9534 -0.4893
 4128SOL    HW224018   2.351   0.187   8.195  0.1897  0.1532  1.0308
 4129SOL     OW24019   4.038   2.769   9.918  0.6470  0.5200  0.4559
 4129SOL    HW124020   4.081   2.850   9.889 -2.9626  2.4368  0.4930
 4129SOL    HW224021   3.951   2.795   9.949  0.1463 -0.4675 -0.1262
 4130SOL     OW24022   3.288   3.114  12.850  0.3201  0.1882 -0.3225
 4130SOL    HW124023   3.207   3.076  12.814 -0.5422  1.4999  0.2680
 4130SOL    HW224024   3.356   3.050  12.829 -0.3489 -1.0493  1.2813
 4131SOL     OW24025   3.375   3.888   6.741 -0.4531  0.1130 -0.6154
 4131SOL    HW124026   3.411   3.882   6.830 -0.9805 -3.4383 -0.6620
 4131SOL    HW224027   3.313   3.816   6.728  0.1901 -0.7383  1.0168
 4132SOL     OW24028   0.422   1.266   7.810  0.4894 -0.3508  0.3156
 4132SOL    HW124029   0.466   1.351   7.816  0.0250 -0.0431 -0.6996
 4132SOL    HW224030   0.394   1.255   7.901 -1.1901 -0.7748 -0.2498
 4133SOL     OW24031   2.460   1.981  16.225 -0.1764 -0.5144  0.1232
 4133SOL    HW124032   2.397   2.023  16.284  2.6360  1.8292  1.4574
 4133SOL    HW224033   2.546   1.989  16.267  1.2217 -0.5989 -2.7774
 4134SOL     OW24034   0.242   4.607   3.128  0.7262 -0.4550  0.3253
 4134SOL    HW124035   0.265   4.561   3.048  1.3857  1.0737 -0.3734
 4134SOL    HW224036   0.287   4.554   3.194 -0.1327  2.5149  3.3653
 4135SOL     OW24037   1.209   3.004   2.489 -0.5371  0.6444 -0.5015
 4135SOL    HW124038   1.129   3.043   2.525  0.1163  0.0003  1.6428
 4135SOL    HW224039   1.195   3.029   2.398 -1.5015 -2.5423 -1.2178
 4136SOL     OW24040   3.869   2.162   3.090  0.7120 -0.0548  0.0019
 4136SOL    HW124041   3.828   2.132   3.009 -3.0869  2.9881  0.7869
 4136SOL    HW224042   3.810   2.115   3.150 -0.3461  0.4947 -0.6033
 4137SOL     OW24043   3.819   3.527  11.711 -0.3459  0.1126 -0.0122
 4137SOL    HW124044   3.837   3.613  11.673  1.9382  0.7295  2.4855
 4137SOL    HW224045   3.790   3.479  11.633  2.1879  0.8995 -1.4154
 4138SOL     OW24046   3.492   1.906   8.340 -0.1714  0.1380  0.4552
 4138SOL    HW124047   3.415   1.954   8.371  0.2718  0.8158  0.5173
 4138SOL    HW224048   3.563   1.969   8.351  2.7358 -3.2541  1.1492
 4139SOL     OW24049   1.063   2.262   4.989  0.1237  0.1531  0.3509
 4139SOL    HW124050   1.053   2.228   5.078  1.3435 -0.9422  0.0686
 4139SOL    HW224051   1.033   2.353   4.985  0.3392  0.2128  0.1374
 4140SOL     OW24052   1.471   3.201  15.607 -0.0744 -0.3028 -0.4420
 4140SOL    HW124053   1.431   3.206  15.694 -1.0093 -3.0102 -0.7229
 4140SOL    HW224054   1.471   3.296  15.592  4.2723 -0.1721  0.3341
 4141SOL     OW24055   1.368   2.282   4.975 -0.1584 -0.2243  0.0329
 4141SOL    HW124056   1.289   2.336   4.980  0.2127  0.2131  1.0926
 4141SOL    HW224057   1.364   2.245   5.063  2.8083 -0.6467 -0.0235
 4142SOL     OW24058   1.771   1.648   6.787 -0.5710 -0.0383  0.1101
 4142SOL    HW124059   1.799   1.739   6.774 -3.5001  0.8903  0.5212
 4142SOL    HW224060   1.687   1.674   6.825 -0.3402  0.7773  0.0648
 4143SOL     OW24061   4.377   3.583   6.558 -0.2119  0.4655  0.1072
 4143SOL    HW124062   4.315   3.622   6.497  0.5859  1.4601 -0.0549
 4143SOL    HW224063   4.437   3.657   6.559 -2.3783  2.2214  1.1052
 4144SOL     OW24064   4.089   2.363   9.901  0.0819 -0.0546 -0.0192
 4144SOL    HW124065   4.073   2.326   9.814 -1.1291 -0.4777  0.3800
 4144SOL    HW224066   4.147   2.434   9.874  1.9290 -1.3359  0.5964
 4145SOL     OW24067   3.673   1.214   8.252 -0.1668  0.3804 -0.3295
 4145SOL    HW124068   3.609   1.155   8.212  0.3654  0.8514 -1.8847
 4145SOL    HW224069   3.631   1.298   8.273  1.4350  0.4021  2.8207
 4146SOL     OW24070   2.952   0.272   6.374 -0.4537 -0.0994  0.3010
 4146SOL    HW124071   2.943   0.268   6.469 -3.7428 -0.9194 -0.0418
 4146SOL    HW224072   2.893   0.200   6.351 -2.4122  1.1942  1.2464
 4147SOL     OW24073   0.007   3.175   2.514 -0.0375  0.2194  0.0114
 4147SOL    HW124074   0.044   3.095   2.553 -1.1028  0.5239  1.6552
 4147SOL    HW224075   4.678   3.137   2.451  0.3679  1.5730 -1.1947
 4148SOL     OW24076   4.495   1.075   4.593 -0.1617  0.3037 -0.0256
 4148SOL    HW124077   4.436   1.102   4.663  0.0822  1.0273 -0.1010
 4148SOL    HW224078   4.579   1.111   4.623  1.0973 -1.6254 -1.2732
 4149SOL     OW24079   4.099   2.028   9.597  0.2874  0.1299 -0.1761
 4149SOL    HW124080   4.181   2.046   9.643 -0.0570  0.7396  0.2183
 4149SOL    HW224081   4.131   2.021   9.508  1.6820  1.2743  0.2272
 4150SOL     OW24082   2.533   2.499   8.114  0.4290  0.2034 -0.6412
 4150SOL    HW124083   2.573   2.544   8.040 -0.2839  0.6335 -0.7690
 4150SOL    HW224084   2.490   2.576   8.151 -1.6867 -1.4020  0.2909
 4151SOL     OW24085   1.204   0.367   7.088  0.3741 -0.8452  0.1989
 4151SOL    HW124086   1.113   0.377   7.116 -0.1337 -0.8567 -1.4315
 4151SOL    HW224087   1.254   0.393   7.166  0.8352  0.8423 -0.6671
 4152SOL     OW24088   0.914   4.732   3.232  0.0563 -0.0615 -0.0100
 4152SOL    HW124089   0.888   0.050   3.155 -0.1564 -1.6701 -0.9978
 4152SOL    HW224090   0.930   4.646   3.192 -2.0387  0.2969 -1.6116
 4153SOL     OW24091   1.883   3.993   2.619  0.4881  0.3825 -0.1696
 4153SOL    HW124092   1.820   3.921   2.612 -0.1694  0.9773 -0.2756
 4153SOL    HW224093   1.866   4.011   2.712  3.9158  2.1648  0.1193
 4154SOL     OW24094   0.760   0.550   8.980 -0.3675 -0.3822  0.1855
 4154SOL    HW124095   0.784   0.461   9.005  2.0320  0.2210  0.0898
 4154SOL    HW224096   0.667   0.546   8.999  0.1209  0.9760  2.8159
 4155SOL     OW24097   0.103   0.970  10.137  1.0616  0.2726 -0.0337
 4155SOL    HW124098   0.158   1.047  10.126 -1.6767  2.2424  0.2098
 4155SOL    HW224099   0.020   1.009  10.165  1.1427  0.9050 -0.7016
 4156SOL     OW24100   3.337   4.597   4.713  0.1505 -0.0781 -0.2767
 4156SOL    HW124101   3.418   4.624   4.755 -0.4574 -0.2290  0.9932
 4156SOL    HW224102   3.325   4.670   4.652 -1.4371 -0.7356 -0.7638
 4157SOL     OW24103   4.045   2.800   5.209  0.1291  0.4049 -0.2693
 4157SOL    HW124104   3.990   2.789   5.286  2.9277 -1.1451  1.4805
 4157SOL    HW224105   4.089   2.715   5.200 -0.8746 -0.0536 -0.9373
 4158SOL     OW24106   2.730   0.697  15.114  0.0623 -0.2675  0.1502
 4158SOL    HW124107   2.680   0.707  15.196  2.4262  1.8856  1.3419
 4158SOL    HW224108   2.811   0.740  15.142  0.1376 -1.3540  1.6146
 4159SOL     OW24109   0.921   1.696  14.082  0.0826 -0.4161  0.4544
 4159SOL    HW124110   0.854   1.722  14.146  0.7971  0.9314  0.6661
 4159SOL    HW224111   0.882   1.735  14.004 -0.6789  1.0518  1.5634
 4160SOL     OW24112   1.016   1.039   9.513  0.4898 -0.4677 -0.4549
 4160SOL    HW124113   1.014   1.105   9.583  3.3452 -0.8256 -0.0369
 4160SOL    HW224114   0.937   1.056   9.461  1.6087  0.0625 -1.9811
 4161SOL     OW24115   0.523   3.689  17.467 -0.4402  0.4165 -0.2791
 4161SOL    HW124116   0.542   3.777  17.499  0.3858 -0.0167  0.4209
 4161SOL    HW224117   0.435   3.682  17.504  0.4560  0.7192  1.9226
 4162SOL     OW24118   3.918   3.508  13.016  0.2175 -0.3171 -0.2778
 4162SOL    HW124119   3.922   3.457  12.935  2.0486 -3.3547  1.7187
 4162SOL    HW224120   3.894   3.594  12.979 -1.3236 -0.5944  0.0575
 4163SOL     OW24121   2.080   0.084   5.550 -0.5260  0.1104  0.3542
 4163SOL    HW124122   2.114   0.163   5.591  3.9600 -0.4999 -2.0917
 4163SOL    HW224123   2.144   0.013   5.562 -0.1601  0.1743 -1.2029
 4164SOL     OW24124   2.315   1.067   2.496 -0.2979 -0.0283  0.6095
 4164SOL    HW124125   2.220   1.054   2.507 -0.9940  3.2904 -1.5553
 4164SOL    HW224126   2.332   1.155   2.529 -0.7057  0.3731 -0.2599
 4165SOL     OW24127   1.400   4.331   0.858  0.2420  0.1039  0.0602
 4165SOL    HW124128   1.427   4.365   0.943  1.4963  0.2863 -0.4016
 4165SOL    HW224129   1.460   4.260   0.833  1.6316  0.7431  1.5618
 4166SOL     OW24130   1.680   2.846   9.237  0.5960 -0.0911  0.5570
 4166SOL    HW124131   1.731   2.871   9.160 -1.6821  1.4728 -0.4692
 4166SOL    HW224132   1.741   2.875   9.305  1.6446 -0.9109 -0.0400
 4167SOL     OW24133   0.450   0.153  13.712 -0.0394 -0.5832 -0.0494
 4167SOL    HW124134   0.407   0.235  13.685  0.3646  0.2960  2.0296
 4167SOL    HW224135   0.436   0.103  13.631 -0.1267 -0.7008  0.0383
 4168SOL     OW24136   3.347   2.940  12.658  0.0277  0.3685  0.2074
 4168SOL    HW124137   3.382   2.851  12.658 -1.1735 -0.1067 -0.6029
 4168SOL    HW224138   3.258   2.928  12.625 -0.6023 -1.1903  2.4647
 4169SOL     OW24139   1.784   1.609   6.199  0.0387 -0.1536 -0.0139
 4169SOL    HW124140   1.824   1.681   6.150 -0.1377 -0.6492 -0.8934
 4169SOL    HW224141   1.826   1.622   6.284  0.4562  0.5273 -0.3210
 4170SOL     OW24142   2.003   2.156   2.518 -0.4454 -0.2248 -0.4170
 4170SOL    HW124143   2.073   2.184   2.460  0.6420 -1.3814  0.3432
 4170SOL    HW224144   1.988   2.247   2.545 -1.9403 -0.7579  0.5708
 4171SOL     OW24145   3.509   1.943   3.552 -0.2266 -0.2498 -0.1690
 4171SOL    HW124146   3.440   1.907   3.495 -0.0848 -0.6680 -0.0810
 4171SOL    HW224147   3.465   2.022   3.582  1.4941  0.7496 -0.2800
 4172SOL     OW24148   3.511   4.131  16.619  0.0251 -0.2788 -0.1846
 4172SOL    HW124149   3.596   4.119  16.661 -1.0254 -0.0516  2.0189
 4172SOL    HW224150   3.493   4.224  16.628  1.3543 -0.0227 -0.2220
 4173SOL     OW24151   3.529   2.177  13.433  0.6178 -0.4742  0.3704
 4173SOL    HW124152   3.618   2.154  13.461  0.7478  0.6614  0.8792
 4173SOL    HW224153   3.525   2.120  13.356  1.5689  0.0610 -0.0823
 4174SOL     OW24154   3.062   2.481  11.393 -0.3722  0.1079 -0.1321
 4174SOL    HW124155   3.123   2.503  11.322 -3.2279  0.7943 -2.3512
 4174SOL    HW224156   3.125   2.477  11.466  0.2517 -0.5345 -0.7021
 4175SOL     OW24157   3.312   4.414   7.990 -0.8005  0.2516  0.3314
 4175SOL    HW124158   3.248   4.485   7.992 -2.5704 -1.3697  1.2442
 4175SOL    HW224159   3.266   4.356   8.051  0.6637  0.0009  1.2127
 4176SOL     OW24160   2.714   2.080   5.303 -0.0130 -0.0503 -0.1926
 4176SOL    HW124161   2.689   2.172   5.297 -1.6769 -0.3395  2.6915
 4176SOL    HW224162   2.630   2.035   5.306  1.3342 -2.8127 -3.1158
 4177SOL     OW24163   2.118   0.122  12.524  0.3465 -0.4723 -0.1642
 4177SOL    HW124164   2.059   0.132  12.599 -1.8821 -1.7664 -1.7524
 4177SOL    HW224165   2.056   0.151  12.457  1.6762  1.0730 -0.7472
 4178SOL     OW24166   2.560   2.504  11.843 -0.0006 -0.1800 -0.2903
 4178SOL    HW124167   2.541   2.597  11.838  0.5161 -0.1720 -2.0089
 4178SOL    HW224168   2.517   2.479  11.925 -1.3524  0.7467 -0.7041
 4179SOL     OW24169   4.266   0.420   1.933  0.2654 -0.1353  0.2041
 4179SOL    HW124170   4.207   0.476   1.982  0.7369 -0.0005  0.6132
 4179SOL    HW224171   4.257   0.342   1.988 -0.9517  1.3826  2.1317
 4180SOL     OW24172   3.270   2.124   7.607 -0.0352 -0.8645  0.1044
 4180SOL    HW124173   3.189   2.169   7.633  0.1039  0.3880 -1.6434
 4180SOL    HW224174   3.323   2.192   7.567 -1.4002 -0.6520 -1.3208
 4181SOL     OW24175   0.890   1.222   3.585 -0.2970  0.0869 -0.5974
 4181SOL    HW124176   0.855   1.181   3.664 -0.6661  1.1655 -0.1989
 4181SOL    HW224177   0.816   1.262   3.538  1.1389  1.0792 -2.0359
 4182SOL     OW24178   4.303   3.062   6.472  0.4551  0.5264  0.4947
 4182SOL    HW124179   4.322   3.154   6.453  0.0667  0.8012  1.4091
 4182SOL    HW224180   4.302   3.018   6.387  0.9830  0.8180  0.3376
 4183SOL     OW24181   3.031   0.749   4.666 -0.3749  0.3505 -0.5493
 4183SOL    HW124182   2.936   0.735   4.663 -0.1023 -1.0089 -3.0463
 4183SOL    HW224183   3.039   0.807   4.590  1.8161  0.4749 -0.2043
 4184SOL     OW24184   1.387   3.695  15.253  0.4573  0.2971  0.2818
 4184SOL    HW124185   1.432   3.724  15.174  1.9290 -0.9363  0.6654
 4184SOL    HW224186   1.369   3.782  15.288  1.0806  0.9397 -0.9901
 4185SOL     OW24187   0.581   1.120   7.631 -0.1719 -0.6315  0.3949
 4185SOL    HW124188   0.515   1.165   7.684 -0.8822 -1.6611  0.3955
 4185SOL    HW224189   0.648   1.095   7.694  1.1450 -0.1942 -0.8298
 4186SOL     OW24190   1.690   3.886   0.224  0.4166  0.0915  0.4617
 4186SOL    HW124191   1.662   3.801   0.189  1.1419  0.2535 -0.5170
 4186SOL    HW224192   1.645   3.950   0.169  0.1282  0.0296  0.6255
 4187SOL     OW24193   1.422   1.992   4.775  0.0663 -0.1126 -0.1619
 4187SOL    HW124194   1.398   1.941   4.852  0.2414 -2.9180 -1.9247
 4187SOL    HW224195   1.339   2.037   4.759 -0.2864 -0.9331 -0.6605
 4188SOL     OW24196   1.241   4.192   8.338  0.2769 -0.1191  0.0921
 4188SOL    HW124197   1.304   4.121   8.324  0.1374 -0.7496  2.7958
 4188SOL    HW224198   1.164   4.137   8.351 -0.3161  0.6559 -0.1495
 4189SOL     OW24199   4.580   2.330  10.392 -0.5009 -0.1813 -0.7323
 4189SOL    HW124200   4.671   2.358  10.401 -0.2030 -0.4625 -2.8057
 4189SOL    HW224201   4.586   2.237  10.371 -0.5131 -0.2234 -0.5483
 4190SOL     OW24202   2.782   1.798  17.326  0.5711 -0.2283  0.5856
 4190SOL    HW124203   2.738   1.861  17.269 -1.5599 -0.9923  1.3569
 4190SOL    HW224204   2.850   1.846  17.372 -0.3588 -0.1859  1.9163
 4191SOL     OW24205   2.353   0.940   7.360 -0.1580 -0.1828 -0.5243
 4191SOL    HW124206   2.448   0.927   7.367 -0.3728 -0.6463  1.6981
 4191SOL    HW224207   2.349   0.910   7.270 -0.1629 -1.4695 -0.0960
 4192SOL     OW24208   4.395   2.278   2.330 -0.3583 -0.8424 -0.4421
 4192SOL    HW124209   4.304   2.302   2.314  0.2404  1.7922  0.0947
 4192SOL    HW224210   4.443   2.298   2.250 -0.3005  2.4706  0.4182
 4193SOL     OW24211   2.564   2.190   0.676 -0.1922 -0.1118 -0.7299
 4193SOL    HW124212   2.636   2.252   0.664  3.0719 -3.2618  2.4476
 4193SOL    HW224213   2.563   2.205   0.771  0.5759 -1.4277 -0.5146
 4194SOL     OW24214   3.063   3.102   7.226 -0.4745 -0.5189 -0.7447
 4194SOL    HW124215   3.132   3.161   7.195  1.6796 -0.9564  3.1487
 4194SOL    HW224216   3.003   3.120   7.155 -0.4004  2.0409 -0.1471
 4195SOL     OW24217   4.691   0.256   8.604 -0.9584 -0.4235  0.1382
 4195SOL    HW124218   4.609   0.215   8.632 -2.3434  1.0760 -1.7112
 4195SOL    HW224219   0.028   0.192   8.619 -0.5002  0.3239  1.2628
 4196SOL     OW24220   3.697   4.499   5.786  0.2481  0.4405 -0.0192
 4196SOL    HW124221   3.604   4.520   5.783  0.1031 -0.0187  1.1908
 4196SOL    HW224222   3.723   4.480   5.696  0.7455  1.4988 -0.0987
 4197SOL     OW24223   2.571   0.424  16.710  0.1471  0.1173 -0.1161
 4197SOL    HW124224   2.544   0.384  16.628 -2.6080 -1.0362  1.3220
 4197SOL    HW224225   2.525   0.376  16.779  0.6514  1.0261  0.8441
 4198SOL     OW24226   2.387   1.148  16.827 -0.2076  0.0088  0.4880
 4198SOL    HW124227   2.403   1.219  16.764  0.6865  0.9503  1.7712
 4198SOL    HW224228   2.295   1.128  16.812 -0.1926  0.4942 -0.2954
 4199SOL     OW24229   4.624   1.704   3.726 -0.0516  0.2384  0.6402
 4199SOL    HW124230   4.575   1.687   3.646 -1.2719  1.0880  1.2047
 4199SOL    HW224231   4.666   1.780   3.687 -0.2369 -0.6981 -1.4030
 4200SOL     OW24232   3.386   2.787   7.228 -0.6662  0.0068  0.3366
 4200SOL    HW124233   3.436   2.757   7.304 -0.8957  1.7744  1.1842
 4200SOL    HW224234   3.443   2.842   7.174 -1.0170  0.8675  0.8428
 4201SOL     OW24235   3.855   0.812  12.638 -0.1535  0.0071  0.1208
 4201SOL    HW124236   3.799   0.849  12.571  1.0018  0.7509 -0.4378
 4201SOL    HW224237   3.882   0.895  12.677 -0.1993  0.0316  0.0994
 4202SOL     OW24238   3.049   2.947   8.265  0.1136  0.3256 -0.1140
 4202SOL    HW124239   3.130   2.997   8.256  0.1308  0.3371  0.1015
 4202SOL    HW224240   3.012   2.970   8.180  1.4831  1.9812 -0.2763
 4203SOL     OW24241   0.702   3.346  10.510  0.2706 -0.0137  0.8904
 4203SOL    HW124242   0.791   3.317  10.526  0.2282 -1.1693 -1.0528
 4203SOL    HW224243   0.657   3.271  10.471 -1.1141  1.8224 -1.0163
 4204SOL     OW24244   3.872   2.322   9.037 -0.1667 -0.9145  0.1978
 4204SOL    HW124245   3.905   2.300   8.950  1.7386  2.3576  0.0913
 4204SOL    HW224246   3.810   2.392   9.016  0.1493 -0.7467 -0.1812
 4205SOL     OW24247   3.597   0.984   3.768  0.0587  0.0240 -0.0441
 4205SOL    HW124248   3.673   0.983   3.826 -0.5953 -0.6913  0.7949
 4205SOL    HW224249   3.593   0.890   3.750 -0.5676  0.0080  0.1808
 4206SOL     OW24250   0.676   2.345   6.772  0.1252 -0.1416 -0.2587
 4206SOL    HW124251   0.648   2.420   6.719  1.1112  1.0830  0.9703
 4206SOL    HW224252   0.587   2.315   6.789 -0.3827  3.3423  3.2390
 4207SOL     OW24253   1.450   4.128   9.016  0.4771 -0.2688  0.8916
 4207SOL    HW124254   1.386   4.183   8.970  0.7116 -0.4670  0.3250
 4207SOL    HW224255   1.520   4.193   9.027 -0.1311  0.6866 -0.6957
 4208SOL     OW24256   4.568   3.114   0.392 -0.3223 -0.3526  0.1144
 4208SOL    HW124257   4.552   3.207   0.408  1.3871  0.4218 -2.7359
 4208SOL    HW224258   4.482   3.088   0.361 -0.7144 -1.0983  1.7998
 4209SOL     OW24259   4.357   1.205   2.781  0.2173  0.0913  0.5711
 4209SOL    HW124260   4.364   1.254   2.863  0.9520 -0.6939  0.9714
 4209SOL    HW224261   4.266   1.223   2.755 -0.3117  1.1495  3.0990
 4210SOL     OW24262   2.345   2.813   3.162 -0.0550  0.0155  0.3813
 4210SOL    HW124263   2.432   2.789   3.132 -0.0196 -0.3662  0.7789
 4210SOL    HW224264   2.290   2.741   3.130  0.1360  0.1875 -0.3283
 4211SOL     OW24265   1.222   1.573   8.038 -0.3600  0.4546  0.5896
 4211SOL    HW124266   1.273   1.556   8.117  0.0295  0.2056  0.2888
 4211SOL    HW224267   1.169   1.642   8.078 -1.5680 -1.4152  2.1874
 4212SOL     OW24268   1.535   3.677   5.823 -0.7594  0.1655 -0.2536
 4212SOL    HW124269   1.568   3.601   5.872 -0.9119 -1.2290 -2.3044
 4212SOL    HW224270   1.453   3.639   5.790 -1.0220  0.2692  0.2785
 4213SOL     OW24271   3.549   1.440   8.323 -0.1418  0.2836 -0.2864
 4213SOL    HW124272   3.486   1.470   8.257 -1.6510  0.6701  1.3513
 4213SOL    HW224273   3.545   1.516   8.382 -0.8466  0.4433 -0.5453
 4214SOL     OW24274   1.501   2.476   5.799 -0.3896 -0.7474  0.0079
 4214SOL    HW124275   1.470   2.545   5.741 -0.5089 -0.4371  0.4425
 4214SOL    HW224276   1.493   2.526   5.880 -2.1642  0.2805 -0.7801
 4215SOL     OW24277   1.222   4.387   5.379  0.1785  0.3062 -0.1868
 4215SOL    HW124278   1.266   4.412   5.461 -0.4060 -1.5008  0.6793
 4215SOL    HW224279   1.137   4.363   5.416  0.3731  0.3027  0.2655
 4216SOL     OW24280   3.876   1.546  13.284  0.0516  0.0106 -0.1183
 4216SOL    HW124281   3.858   1.544  13.190 -1.5044 -0.4330  0.1897
 4216SOL    HW224282   3.958   1.596  13.285 -0.6474  1.0975  2.9723
 4217SOL     OW24283   2.471   2.927   6.085 -0.2506  0.2323 -0.3985
 4217SOL    HW124284   2.515   2.876   6.152  1.4905  0.2051 -1.5407
 4217SOL    HW224285   2.504   3.014   6.109 -2.5065  1.1844 -0.7841
 4218SOL     OW24286   2.808   4.611   2.788 -0.3657  0.0620 -0.5066
 4218SOL    HW124287   2.775   4.588   2.875  0.1251  0.5338 -0.1957
 4218SOL    HW224288   2.773   4.699   2.774  1.9403  1.5977  3.3066
 4219SOL     OW24289   4.354   3.272  15.906 -0.2807 -0.0385 -0.2035
 4219SOL    HW124290   4.437   3.308  15.874  0.0985 -0.5481  0.1990
 4219SOL    HW224291   4.313   3.348  15.945 -2.4204 -1.0851 -0.3971
 4220SOL     OW24292   2.776   3.112   8.072  0.7529  0.1536 -0.3268
 4220SOL    HW124293   2.790   3.171   8.146 -0.6854 -1.4150  1.2012
 4220SOL    HW224294   2.747   3.030   8.111  0.4714  0.6845  0.5665
 4221SOL     OW24295   0.730   2.778   5.452 -0.2154  0.2931 -0.3561
 4221SOL    HW124296   0.703   2.769   5.360 -0.8855 -0.2591 -0.1034
 4221SOL    HW224297   0.793   2.849   5.444  0.5881 -0.2195  1.5447
 4222SOL     OW24298   1.992   3.480  10.969  0.3812  0.3797  0.1463
 4222SOL    HW124299   2.051   3.429  10.914 -0.2003  1.6261 -1.6366
 4222SOL    HW224300   2.016   3.567  10.937  1.2707 -0.2300 -0.8278
 4223SOL     OW24301   2.250   1.038   6.013 -0.3128  0.4291 -0.0356
 4223SOL    HW124302   2.316   0.979   6.048 -0.2726  1.1541  1.0694
 4223SOL    HW224303   2.210   1.068   6.094 -1.0952  0.0354 -0.2666
 4224SOL     OW24304   4.359   3.443   7.323  0.4168 -0.0281 -0.0121
 4224SOL    HW124305   4.430   3.508   7.323 -0.7064  1.1930  1.1062
 4224SOL    HW224306   4.368   3.392   7.404 -0.7962  1.4713  1.0698
 4225SOL     OW24307   0.447   2.957   4.476  0.8682  0.1405  0.2934
 4225SOL    HW124308   0.446   3.018   4.550  1.2890  0.2721  0.1891
 4225SOL    HW224309   0.362   2.916   4.489  1.1009  0.0091  1.4171
 4226SOL     OW24310   3.445   2.606   0.480  0.4019 -0.0492  0.6559
 4226SOL    HW124311   3.456   2.679   0.419 -0.4546 -0.0811  0.4547
 4226SOL    HW224312   3.506   2.543   0.441  0.2346 -0.3348  0.8616
 4227SOL     OW24313   4.657   2.988   9.108 -0.4980 -0.3597  0.3344
 4227SOL    HW124314   4.578   3.026   9.147  0.0452  1.1283  0.0222
 4227SOL    HW224315   4.639   2.895   9.114 -0.3218 -0.4653 -0.7938
 4228SOL     OW24316   1.042   3.943   2.529 -0.0914  0.1630  0.0270
 4228SOL    HW124317   1.096   3.872   2.565 -0.1096  0.5438  0.8144
 4228SOL    HW224318   1.013   3.902   2.448 -0.2273  0.1791  0.0677
 4229SOL     OW24319   3.401   4.580   9.907 -0.5494  0.9582 -0.6614
 4229SOL    HW124320   3.378   4.660   9.860  1.7879  1.7075 -0.5612
 4229SOL    HW224321   3.382   4.517   9.837  1.1486 -1.6019  1.1429
 4230SOL     OW24322   3.246   3.026   3.053 -0.2219 -0.1682 -0.2316
 4230SOL    HW124323   3.242   2.974   3.133 -1.7963  0.1287 -0.1159
 4230SOL    HW224324   3.208   3.107   3.087  0.7514 -0.3946  1.3507
 4231SOL     OW24325   4.123   3.064   8.976  0.2309 -0.0332 -0.2765
 4231SOL    HW124326   4.034   3.029   8.964  1.5450 -2.8707 -1.5440
 4231SOL    HW224327   4.171   2.982   8.980 -0.3429 -0.3366  0.4433
 4232SOL     OW24328   4.676   1.085   6.063  0.0820  0.0580  0.1458
 4232SOL    HW124329   4.709   1.086   5.973  1.4741  1.7112  0.6778
 4232SOL    HW224330   0.018   1.041   6.105 -0.9025  0.5720  2.3886
 4233SOL     OW24331   2.778   3.624  16.922  0.4937  0.2170 -0.4590
 4233SOL    HW124332   2.815   3.621  16.834  1.7398 -0.3742  0.0886
 4233SOL    HW224333   2.857   3.604  16.972 -0.0978 -1.0366 -0.0313
 4234SOL     OW24334   2.980   2.397  15.440  0.1664  0.5539 -0.4395
 4234SOL    HW124335   2.919   2.326  15.461  0.1394  0.5921 -0.3907
 4234SOL    HW224336   3.044   2.365  15.503 -0.6703 -0.2589 -0.0049
 4235SOL     OW24337   4.725   1.420   6.675  0.9372  0.2051  0.0635
 4235SOL    HW124338   0.042   1.344   6.707  0.9909 -0.1057 -0.7414
 4235SOL    HW224339   0.057   1.487   6.696  0.0459  1.6016 -1.6409
 4236SOL     OW24340   1.979   0.728   2.329  0.2485  0.4805 -0.0119
 4236SOL    HW124341   2.008   0.818   2.314  1.2231  0.0679 -0.5972
 4236SOL    HW224342   1.982   0.695   2.239  0.8627 -0.4147  0.3419
 4237SOL     OW24343   0.894   2.629   4.983  0.5699  0.0080  0.1809
 4237SOL    HW124344   0.907   2.717   5.016  2.8310 -0.0049 -0.6659
 4237SOL    HW224345   0.876   2.578   5.062  2.3145 -1.2933 -0.2508
 4238SOL     OW24346   2.935   0.413  15.617 -0.1887 -0.1496  0.1077
 4238SOL    HW124347   2.885   0.397  15.697 -1.4354 -1.0474 -0.8470
 4238SOL    HW224348   3.023   0.432  15.649 -0.3134 -2.3006  1.6367
 4239SOL     OW24349   1.993   2.239   1.116  0.1635 -0.0883 -0.3736
 4239SOL    HW124350   1.899   2.254   1.108 -0.0927 -1.4454  0.1245
 4239SOL    HW224351   1.987   2.185   1.194  1.3379 -0.8987 -0.8425
 4240SOL     OW24352   0.887   4.462   2.298  0.0061  0.1457 -0.2178
 4240SOL    HW124353   0.804   4.420   2.273 -0.5762  1.6244 -0.7139
 4240SOL    HW224354   0.876   4.459   2.393  0.0615 -0.3605 -0.2262
 4241SOL     OW24355   4.512   1.651   3.473 -0.2638  0.4911  0.5003
 4241SOL    HW124356   4.564   1.653   3.393  0.4034  0.0318  0.9260
 4241SOL    HW224357   4.443   1.589   3.451 -0.8812  1.6713 -0.8774
 4242SOL     OW24358   3.455   1.162  12.486 -0.2338 -1.0177  0.1674
 4242SOL    HW124359   3.490   1.181  12.573  1.4411 -3.8015  0.0852
 4242SOL    HW224360   3.414   1.247  12.469  0.8255 -0.2527  1.4293
 4243SOL     OW24361   3.713   0.675   4.360  0.0500  0.2198  0.5957
 4243SOL    HW124362   3.655   0.715   4.295 -0.1365 -2.1158 -0.6658
 4243SOL    HW224363   3.742   0.596   4.316  3.2840 -0.0796  3.3065
 4244SOL     OW24364   2.594   3.739   1.491 -0.2806  0.1826  0.1905
 4244SOL    HW124365   2.626   3.710   1.576 -0.5416 -1.1472 -0.1663
 4244SOL    HW224366   2.609   3.658   1.443  0.3101 -1.0201  2.3990
 4245SOL     OW24367   2.120   2.417  11.863 -0.2902  0.0160 -0.1346
 4245SOL    HW124368   2.090   2.333  11.898 -0.8521  0.0217 -0.6100
 4245SOL    HW224369   2.147   2.384  11.778 -2.7390  2.2323 -1.7732
 4246SOL     OW24370   4.195   4.526   5.771  0.6291  0.0734 -0.4258
 4246SOL    HW124371   4.138   4.560   5.840  1.6768 -0.8788  0.9356
 4246SOL    HW224372   4.147   4.533   5.689  0.4962 -0.5479 -0.4017
 4247SOL     OW24373   4.243   0.618   2.123  0.5754 -0.2410 -0.0148
 4247SOL    HW124374   4.206   0.653   2.204  1.0833 -0.4717  0.3157
 4247SOL    HW224375   4.312   0.560   2.154  1.6832  1.3850  0.5935
 4248SOL     OW24376   0.462   4.056   4.250 -0.1514 -0.7126  0.1474
 4248SOL    HW124377   0.430   4.000   4.321 -0.1451  2.1148  2.4128
 4248SOL    HW224378   0.389   4.051   4.188  0.7225 -0.0861 -0.9429
 4249SOL     OW24379   3.459   0.692   3.907  0.2226  0.0592  0.3532
 4249SOL    HW124380   3.521   0.623   3.887 -0.2988 -0.9791  2.2732
 4249SOL    HW224381   3.470   0.702   4.002  1.9803  3.5851 -0.2387
 4250SOL     OW24382   0.616   1.990   7.077 -0.1108  0.1880 -0.2790
 4250SOL    HW124383   0.596   2.033   6.994  0.0128 -2.1262 -1.5189
 4250SOL    HW224384   0.682   1.926   7.049  1.9454  1.5252  1.5618
 4251SOL     OW24385   2.505   0.185   5.684 -0.0462 -0.1911  0.0602
 4251SOL    HW124386   2.456   0.184   5.602  3.0393  0.6702 -1.8193
 4251SOL    HW224387   2.497   0.097   5.720 -3.3071 -0.3921 -1.1764
 4252SOL     OW24388   0.868   4.177   6.051  0.2223 -0.3325 -0.1230
 4252SOL    HW124389   0.773   4.186   6.052  0.4055  1.5508 -0.0966
 4252SOL    HW224390   0.880   4.089   6.086 -0.1754  0.1702  1.2625
 4253SOL     OW24391   4.319   3.254   2.334  0.3897 -0.6582  0.4864
 4253SOL    HW124392   4.369   3.187   2.381  0.6062 -1.3593 -0.7160
 4253SOL    HW224393   4.261   3.206   2.275 -0.0751  0.0540  0.3642
 4254SOL     OW24394   0.194   0.446   2.578  0.0750 -0.2091  0.2129
 4254SOL    HW124395   0.195   0.453   2.483  1.5106 -0.7718  0.1898
 4254SOL    HW224396   0.190   0.539   2.602  1.3082 -0.0139 -0.3560
 4255SOL     OW24397   1.329   3.747   3.675  0.0049  0.6283 -0.2633
 4255SOL    HW124398   1.342   3.803   3.599 -2.4326  1.3618 -0.1419
 4255SOL    HW224399   1.368   3.789   3.751  0.0246 -0.0973  0.1282
 4256SOL     OW24400   2.893   3.867   1.277 -0.3851 -0.1982 -0.5243
 4256SOL    HW124401   2.977   3.890   1.317 -1.2299  0.1669  1.0402
 4256SOL    HW224402   2.825   3.893   1.340 -0.9869  0.6671 -1.5378
 4257SOL     OW24403   2.473   2.804   4.022  0.3438  0.5973 -0.0205
 4257SOL    HW124404   2.435   2.861   3.955  1.1329  0.2345 -0.7816
 4257SOL    HW224405   2.397   2.775   4.073  0.8347  1.3459  1.1334
 4258SOL     OW24406   4.438   2.471   4.124 -0.4314 -0.3379  0.0170
 4258SOL    HW124407   4.399   2.419   4.054 -0.7054 -3.3981  2.5038
 4258SOL    HW224408   4.448   2.398   4.184  0.1728 -0.9899 -0.8791
 4259SOL     OW24409   2.777   4.665  15.182  0.2557  0.6416  0.0564
 4259SOL    HW124410   2.854   4.675  15.237 -1.3118 -0.9409  2.5597
 4259SOL    HW224411   2.710   4.635  15.243  0.4065 -1.4629 -0.7930
 4260SOL     OW24412   4.033   1.919   9.000 -0.2508  0.6157 -0.0001
 4260SOL    HW124413   3.961   1.923   8.937 -0.6782  1.8794  0.5654
 4260SOL    HW224414   4.075   1.836   8.977  2.2088  1.3151  1.9758
 4261SOL     OW24415   1.333   0.907   3.190 -0.0257  0.2199  0.1208
 4261SOL    HW124416   1.399   0.974   3.208 -1.7926  1.8778  0.4092
 4261SOL    HW224417   1.394   0.841   3.158  1.6783  2.5719 -1.3954
 4262SOL     OW24418   1.979   2.666   8.461  0.3333 -0.3322 -0.6088
 4262SOL    HW124419   1.928   2.740   8.429 -0.1506 -0.0384  0.8526
 4262SOL    HW224420   1.938   2.598   8.407 -0.0399  0.1116 -0.8827
 4263SOL     OW24421   1.599   1.784   7.625 -0.1489  0.2177  0.0878
 4263SOL    HW124422   1.569   1.701   7.662  0.4625 -0.3344 -0.6397
 4263SOL    HW224423   1.513   1.817   7.601 -0.6706 -1.4269 -0.3120
 4264SOL     OW24424   0.849   0.694   8.252 -0.2931 -0.2689  0.0007
 4264SOL    HW124425   0.879   0.603   8.255 -0.9807 -0.4698  0.6640
 4264SOL    HW224426   0.782   0.704   8.319 -0.1107 -1.2670  0.3259
 4265SOL     OW24427   0.747   2.199   3.690  0.3260  0.9841 -0.0830
 4265SOL    HW124428   0.651   2.196   3.694  0.4285 -2.8836 -1.1006
 4265SOL    HW224429   0.760   2.206   3.785  0.0510  0.2810  0.0060
 4266SOL     OW24430   1.674   0.069   1.354  0.0365 -0.4248  0.3129
 4266SOL    HW124431   1.672   4.724   1.410 -1.2186  0.3314  1.2964
 4266SOL    HW224432   1.622   0.039   1.279 -0.4146 -1.3808  1.0143
 4267SOL     OW24433   4.237   1.637   4.698 -0.3166 -0.0170  0.8030
 4267SOL    HW124434   4.176   1.696   4.654  2.0459  1.2033 -0.8359
 4267SOL    HW224435   4.203   1.548   4.690  2.0681 -1.0194  1.7470
 4268SOL     OW24436   3.971   1.985   6.871  0.0199 -0.1597  0.1131
 4268SOL    HW124437   3.982   2.050   6.940  1.3836  0.4073 -0.6353
 4268SOL    HW224438   3.884   2.003   6.836  0.6368 -0.5081 -1.6079
 4269SOL     OW24439   2.310   2.928   2.451 -0.3808 -0.0739  0.4177
 4269SOL    HW124440   2.330   2.986   2.377 -0.3274 -1.9685 -1.0600
 4269SOL    HW224441   2.398   2.922   2.486  0.5833 -2.9788 -2.5178
 4270SOL     OW24442   1.616   4.493   1.334  0.4521 -0.2851  0.4373
 4270SOL    HW124443   1.540   4.533   1.293 -1.0279 -2.7453  0.8038
 4270SOL    HW224444   1.580   4.409   1.363 -0.3662 -1.0309 -2.7823
 4271SOL     OW24445   1.756   4.246   5.531  0.1532 -0.3001  0.1127
 4271SOL    HW124446   1.753   4.234   5.436  1.1915 -4.4160  0.6037
 4271SOL    HW224447   1.738   4.158   5.563  0.3599 -0.1314  0.6801
 4272SOL     OW24448   1.639   2.047   1.515 -0.0668 -0.7592  0.4287
 4272SOL    HW124449   1.594   2.009   1.440  0.4080  0.3577 -0.4121
 4272SOL    HW224450   1.570   2.072   1.576  2.1915 -1.5518  3.3713
 4273SOL     OW24451   3.604   1.053   8.695 -0.2505  0.7255 -0.4400
 4273SOL    HW124452   3.525   1.002   8.710  0.3888 -0.3723 -0.8700
 4273SOL    HW224453   3.575   1.144   8.688  0.3952  0.9389 -0.3722
 4274SOL     OW24454   0.793   4.306   9.819 -0.1560  0.1729  0.0804
 4274SOL    HW124455   0.857   4.369   9.850  1.1211 -0.5099 -1.1784
 4274SOL    HW224456   0.831   4.286   9.734 -2.0436  0.5386 -0.8435
 4275SOL     OW24457   3.708   3.963   1.563  0.3222 -0.4939 -0.2522
 4275SOL    HW124458   3.628   3.985   1.516 -0.2531 -0.5715  0.6854
 4275SOL    HW224459   3.702   4.005   1.649 -0.0573 -2.0743  0.5021
 4276SOL     OW24460   2.976   2.703   7.947 -0.2090 -0.8676  0.5422
 4276SOL    HW124461   2.992   2.751   7.866 -0.7985  0.4602  1.2087
 4276SOL    HW224462   3.034   2.629   7.930  0.2350 -0.4352  0.1955
 4277SOL     OW24463   0.591   1.483   6.220  0.5577  0.7788  0.4889
 4277SOL    HW124464   0.605   1.545   6.149  0.8264  0.1102 -0.0386
 4277SOL    HW224465   0.518   1.430   6.191 -0.7784  2.3582  0.9516
 4278SOL     OW24466   2.935   0.629  14.665  0.6490 -0.0016 -1.1768
 4278SOL    HW124467   2.986   0.621  14.746  0.9481 -0.1149 -1.3788
 4278SOL    HW224468   2.848   0.618  14.705  0.3776  1.4960 -1.3574
 4279SOL     OW24469   2.657   3.689   5.908  0.3213 -0.0043  0.1662
 4279SOL    HW124470   2.639   3.596   5.921 -0.6252  0.0450 -0.8048
 4279SOL    HW224471   2.672   3.727   5.994 -1.4682 -2.1391  1.4112
 4280SOL     OW24472   0.715   1.423   8.359 -0.1279  0.6531 -0.2569
 4280SOL    HW124473   0.677   1.345   8.318 -0.2173 -0.2373  1.5179
 4280SOL    HW224474   0.658   1.427   8.435  0.1248 -1.3803  0.0570
 4281SOL     OW24475   0.308   3.980  17.575 -0.2032  0.3345 -0.1890
 4281SOL    HW124476   0.381   3.966  17.635 -1.0532 -0.9562  0.5179
 4281SOL    HW224477   0.288   4.072  17.591  1.6644  0.4964  1.2719
 4282SOL     OW24478   0.212   1.680   8.287  0.1586  0.1013 -0.8544
 4282SOL    HW124479   0.282   1.617   8.299 -0.1048  0.1167  0.8318
 4282SOL    HW224480   0.251   1.754   8.333  0.8478  0.0162 -1.2945
 4283SOL     OW24481   4.607   4.172   3.526 -0.0266 -0.2764 -0.7189
 4283SOL    HW124482   4.536   4.109   3.539 -0.2498  0.4220  1.4987
 4283SOL    HW224483   4.589   4.230   3.600 -1.6196 -1.2809 -0.3222
 4284SOL     OW24484   2.069   0.716   4.618  0.0766 -0.4396 -0.1570
 4284SOL    HW124485   1.996   0.728   4.557  0.1864 -1.1876 -0.4409
 4284SOL    HW224486   2.024   0.645   4.664 -0.7468  0.0852 -0.1435
 4285SOL     OW24487   2.303   4.301   5.033 -0.2647 -0.1839 -0.8191
 4285SOL    HW124488   2.266   4.243   5.101 -1.5256  3.0560  1.2626
 4285SOL    HW224489   2.287   4.247   4.955  3.2645  0.9705 -2.2971
 4286SOL     OW24490   3.889   2.800  17.489 -0.1961 -0.3519 -0.4552
 4286SOL    HW124491   3.826   2.868  17.511  1.0978  0.3654  1.0444
 4286SOL    HW224492   3.898   2.823  17.396  1.2880 -0.8616 -0.4439
 4287SOL     OW24493   4.555   4.173  12.321  0.4712 -0.1561  0.0096
 4287SOL    HW124494   4.541   4.140  12.409  0.7681  1.0031  0.4911
 4287SOL    HW224495   4.651   4.179  12.324  0.5866 -3.2299  2.5888
 4288SOL     OW24496   1.856   3.711   9.026  0.1505 -0.0159  0.1657
 4288SOL    HW124497   1.837   3.804   9.037 -1.3550 -0.3196  0.1902
 4288SOL    HW224498   1.935   3.705   8.972 -1.2715  0.2480 -1.9330
 4289SOL     OW24499   2.781   1.514   8.983  0.0420  0.8338  0.2762
 4289SOL    HW124500   2.777   1.513   8.887  1.9577  2.6451  0.1895
 4289SOL    HW224501   2.858   1.464   9.008 -0.5784 -0.5241 -0.4914
 4290SOL     OW24502   3.682   3.223   6.373  0.1993 -0.2640 -0.0759
 4290SOL    HW124503   3.626   3.254   6.445 -1.4680 -1.9450 -0.6350
 4290SOL    HW224504   3.626   3.150   6.345 -0.4406  0.9415 -1.9012
 4291SOL     OW24505   0.225   0.410   7.296  0.4678 -0.4033  0.0838
 4291SOL    HW124506   0.193   0.321   7.304 -2.8040  0.7841  0.0270
 4291SOL    HW224507   0.169   0.443   7.226  0.6334 -0.2626  0.0183
 4292SOL     OW24508   1.508   2.662   6.007 -0.1464  0.3538  0.0291
 4292SOL    HW124509   1.566   2.736   6.028 -1.0088  1.8356 -2.7576
 4292SOL    HW224510   1.497   2.637   6.098  2.2274  0.1940  0.2733
 4293SOL     OW24511   1.133   0.698   3.407 -0.0626 -0.6471 -0.4266
 4293SOL    HW124512   1.118   0.792   3.393 -2.6480 -0.6878  2.0821
 4293SOL    HW224513   1.119   0.675   3.315  1.2591  0.6813 -0.9542
 4294SOL     OW24514   1.762   1.253   9.931  0.0834  0.1184 -0.7664
 4294SOL    HW124515   1.745   1.160   9.939 -1.0170  0.3206 -0.7272
 4294SOL    HW224516   1.847   1.262   9.974 -0.8330  2.0468  0.6685
 4295SOL     OW24517   4.266   0.578   3.312  0.0954 -0.0403  0.3252
 4295SOL    HW124518   4.309   0.520   3.375 -0.6819 -0.5499  0.3734
 4295SOL    HW224519   4.266   0.662   3.359  0.3996  0.1376  0.0108
 4296SOL     OW24520   2.322   0.776   6.300 -0.1486  0.1600  0.1058
 4296SOL    HW124521   2.239   0.811   6.335 -0.7433 -1.4002  0.2788
 4296SOL    HW224522   2.309   0.681   6.294  1.4969 -0.0688  0.2139
 4297SOL     OW24523   1.742   0.501   2.667 -1.0438 -0.0105  0.7872
 4297SOL    HW124524   1.809   0.487   2.734  0.0361  1.7034  0.0643
 4297SOL    HW224525   1.713   0.412   2.649 -1.0077  0.1399 -0.0390
 4298SOL     OW24526   3.585   2.738   7.770 -0.2342 -0.2297 -0.0037
 4298SOL    HW124527   3.601   2.643   7.766  1.6250  0.0851 -0.0077
 4298SOL    HW224528   3.525   2.747   7.844 -0.8354  0.3159 -0.5564
 4299SOL     OW24529   2.056   0.018   5.904 -0.1016  0.0854  0.1323
 4299SOL    HW124530   1.967   0.033   5.938  0.4227 -0.6774  1.8260
 4299SOL    HW224531   2.096   4.683   5.958  1.7726  0.8555 -0.3063
 4300SOL     OW24532   3.015   4.203   7.884 -0.4154  0.1213  0.1742
 4300SOL    HW124533   2.937   4.148   7.897 -1.6659  1.1154 -3.1357
 4300SOL    HW224534   3.060   4.203   7.969 -2.0337 -0.7458  1.0542
 4301SOL     OW24535   0.141   2.949   6.241 -0.4597  0.3626 -0.8531
 4301SOL    HW124536   0.065   2.899   6.212  0.2618 -1.0573 -0.2980
 4301SOL    HW224537   0.197   2.872   6.231 -2.2968 -1.1116  0.3175
 4302SOL     OW24538   1.777   1.598  12.244 -0.2642  0.1430 -0.2460
 4302SOL    HW124539   1.748   1.598  12.153 -0.3334  0.8620 -0.2199
 4302SOL    HW224540   1.828   1.679  12.252 -0.2841  0.1374 -0.0708
 4303SOL     OW24541   0.711   0.544   7.043  0.8235  0.4302  0.3212
 4303SOL    HW124542   0.703   0.481   6.971  2.0705  0.9408 -0.2658
 4303SOL    HW224543   0.625   0.584   7.055 -0.0289 -1.1061 -0.5506
 4304SOL     OW24544   3.040   4.228   0.160  0.1928 -0.3568 -0.2030
 4304SOL    HW124545   2.999   4.294   0.216 -0.8431 -0.9602 -0.2548
 4304SOL    HW224546   3.085   4.284   0.096 -1.0771 -0.4898 -1.2187
 4305SOL     OW24547   2.672   2.031   7.124  0.2189  0.1158  0.1659
 4305SOL    HW124548   2.726   1.969   7.076  0.4123  1.4060 -1.2776
 4305SOL    HW224549   2.744   2.066   7.177 -0.3304  0.8000  0.4719
 4306SOL     OW24550   3.025   1.057   2.471  0.0900  0.0111 -0.2229
 4306SOL    HW124551   2.982   1.072   2.387 -0.1560  1.6238  0.1876
 4306SOL    HW224552   3.022   1.149   2.498  0.4762  0.2416 -0.9707
 4307SOL     OW24553   0.387   0.175  14.121  0.2918 -0.0054  0.1075
 4307SOL    HW124554   0.303   0.219  14.131  0.3394 -0.0408  0.6433
 4307SOL    HW224555   0.374   0.094  14.170  1.2489  1.1175  2.2257
 4308SOL     OW24556   0.203   2.502  13.208  0.1719 -0.1062 -0.0691
 4308SOL    HW124557   0.242   2.414  13.210  0.7677  0.0929 -2.4814
 4308SOL    HW224558   0.275   2.542  13.159  0.5462  0.2932  0.8159
 4309SOL     OW24559   1.493   3.389  16.368 -0.2477  0.0493  0.0224
 4309SOL    HW124560   1.491   3.482  16.390 -2.1233 -0.0924  0.5193
 4309SOL    HW224561   1.535   3.351  16.445 -0.0496  0.6599  0.2172
 4310SOL     OW24562   1.076   2.470  15.992  0.4443  0.5928  0.0058
 4310SOL    HW124563   1.087   2.392  16.047  0.4415 -1.0938 -2.3693
 4310SOL    HW224564   1.072   2.434  15.903 -0.1420  0.7030 -0.0128
 4311SOL     OW24565   4.374   2.592   7.625 -0.1248  0.2890 -0.5585
 4311SOL    HW124566   4.363   2.685   7.604 -0.5577  0.0732 -1.2814
 4311SOL    HW224567   4.468   2.580   7.612  0.2360  1.0007  1.3878
 4312SOL     OW24568   2.013   1.645  11.647 -0.3132  0.7162  0.1962
 4312SOL    HW124569   2.000   1.568  11.591 -2.5328  1.6885 -0.6248
 4312SOL    HW224570   2.088   1.624  11.702 -0.6705  2.3974  1.3164
 4313SOL     OW24571   2.784   3.749   9.116 -0.4349 -0.9739  0.3169
 4313SOL    HW124572   2.856   3.752   9.179  0.5723  1.6220 -0.9328
 4313SOL    HW224573   2.712   3.802   9.149  0.5692 -0.9688  2.4768
 4314SOL     OW24574   3.490   3.600   8.219  0.3211  0.5183  0.0198
 4314SOL    HW124575   3.485   3.694   8.233  0.8566  0.3024  1.5959
 4314SOL    HW224576   3.525   3.611   8.130 -0.6690 -1.3794 -0.6158
 4315SOL     OW24577   0.867   1.041  11.225 -1.0084 -0.3584  0.1044
 4315SOL    HW124578   0.957   1.035  11.256 -1.1659  3.0054  1.2527
 4315SOL    HW224579   0.884   1.017  11.135  1.4971  0.1041  0.4546
 4316SOL     OW24580   1.880   4.270  15.912 -0.0734  0.3004 -0.6013
 4316SOL    HW124581   1.844   4.350  15.875 -1.7074  0.0323  0.4045
 4316SOL    HW224582   1.931   4.251  15.833  2.2326  1.9088  0.4932
 4317SOL     OW24583   3.018   1.635   1.556  0.8923  0.1346  0.2128
 4317SOL    HW124584   3.060   1.611   1.638  0.5014  0.9543  0.6580
 4317SOL    HW224585   3.031   1.553   1.509 -0.7891 -1.3834  2.3793
 4318SOL     OW24586   4.223   0.020  14.493  0.1374  0.1780  0.2561
 4318SOL    HW124587   4.184   4.709  14.418  2.0943 -1.3975  0.1578
 4318SOL    HW224588   4.203   0.113  14.478  0.0266  0.1735  0.3746
 4319SOL     OW24589   1.573   4.418  11.400  0.0455 -0.0139  0.1349
 4319SOL    HW124590   1.596   4.431  11.308  1.7188 -1.9076  0.2621
 4319SOL    HW224591   1.580   4.505  11.439  0.1421  0.8343 -1.7654
 4320SOL     OW24592   4.732   3.436   7.993 -0.0198 -0.0963  0.0786
 4320SOL    HW124593   0.030   3.515   8.038 -2.6608  1.9387 -1.7182
 4320SOL    HW224594   0.070   3.417   7.932 -0.0292  1.3452 -0.3710
 4321SOL     OW24595   2.696   0.066   8.114  0.2743 -0.1447 -0.6581
 4321SOL    HW124596   2.610   0.107   8.110  0.6026  0.5178 -1.0844
 4321SOL    HW224597   2.745   0.148   8.122  1.2076 -0.6038 -1.6786
 4322SOL     OW24598   4.411   1.043  12.157  0.5554  0.3478 -0.0350
 4322SOL    HW124599   4.348   1.049  12.085 -1.8567  0.8284  2.0893
 4322SOL    HW224600   4.354   1.069  12.230  1.3460  1.3572  0.2212
 4323SOL     OW24601   4.341   4.133   8.863  0.1263 -0.1706 -0.1906
 4323SOL    HW124602   4.432   4.131   8.835  0.3385  0.6888  0.4382
 4323SOL    HW224603   4.353   4.088   8.947 -1.1732  1.2425  0.7634
 4324SOL     OW24604   4.428   0.336  16.295 -0.7369  0.1956 -0.1257
 4324SOL    HW124605   4.371   0.355  16.221 -0.6839 -1.5679 -0.6082
 4324SOL    HW224606   4.362   0.343  16.364 -0.4147  0.3769  0.1682
 4325SOL     OW24607   1.960   4.464   4.351  0.0646 -0.1840  0.0569
 4325SOL    HW124608   1.948   4.467   4.256  0.9461  0.3175 -0.0300
 4325SOL    HW224609   2.049   4.499   4.353 -0.7045  1.5870  3.9812
 4326SOL     OW24610   1.966   3.311   8.204  0.4307  0.2079 -0.3075
 4326SOL    HW124611   1.893   3.367   8.229  0.7947  0.5856 -0.0964
 4326SOL    HW224612   2.001   3.356   8.127  0.5647  3.0650  1.4319
 4327SOL     OW24613   0.231   3.060   8.324 -0.4867 -0.2029 -0.2533
 4327SOL    HW124614   0.261   3.000   8.255 -0.0023  2.1766 -2.1352
 4327SOL    HW224615   0.250   3.015   8.406 -0.2800  2.3542  1.0885
 4328SOL     OW24616   3.033   2.070   8.522  0.1450 -0.2190  0.4757
 4328SOL    HW124617   3.026   2.066   8.617 -2.6214  1.2170  0.3481
 4328SOL    HW224618   2.938   2.061   8.507 -0.3093  3.1801  1.4324
 4329SOL     OW24619   2.109   1.346   2.060  0.2306 -0.2937  0.7067
 4329SOL    HW124620   2.020   1.339   2.095  0.0088  2.1745  0.6043
 4329SOL    HW224621   2.103   1.403   1.984 -2.4431 -1.7388 -0.1735
 4330SOL     OW24622   3.635   2.853  16.052 -0.2407  0.5826  0.6765
 4330SOL    HW124623   3.658   2.900  15.971  0.6413  0.8825  1.0970
 4330SOL    HW224624   3.642   2.761  16.028 -2.4794  0.9763 -1.5134
 4331SOL     OW24625   2.538   3.819   9.238 -0.0554 -0.5083 -0.2831
 4331SOL    HW124626   2.518   3.911   9.257  0.3298 -0.5744  0.4339
 4331SOL    HW224627   2.447   3.794   9.252  0.6783 -2.7275  0.4478
 4332SOL     OW24628   2.817   2.687   0.262 -0.0625 -0.1880 -0.1624
 4332SOL    HW124629   2.764   2.710   0.338 -0.0092 -3.5426  0.8931
 4332SOL    HW224630   2.756   2.637   0.208  0.5333  0.9037 -1.8416
 4333SOL     OW24631   1.478   2.517   5.164  0.1793 -0.1850  0.2188
 4333SOL    HW124632   1.405   2.494   5.221 -1.4356  3.6033 -0.3260
 4333SOL    HW224633   1.546   2.542   5.227 -0.6617  1.6371  0.4326
 4334SOL     OW24634   1.224   3.325   3.549  0.2809 -0.2674 -0.0823
 4334SOL    HW124635   1.299   3.382   3.567  0.2351  0.0303 -0.8278
 4334SOL    HW224636   1.158   3.362   3.608  2.0686 -2.2983  3.1833
 4335SOL     OW24637   3.826   3.224   2.135 -0.3248 -0.1143 -0.7135
 4335SOL    HW124638   3.810   3.240   2.228 -2.1017  1.5836 -1.3330
 4335SOL    HW224639   3.770   3.294   2.102 -2.2868 -1.6038 -0.5473
 4336SOL     OW24640   3.089   4.368   8.406  0.3942 -0.1779  0.2127
 4336SOL    HW124641   3.078   4.281   8.443 -0.4022 -0.7862 -1.4687
 4336SOL    HW224642   3.142   4.408   8.475  0.2096 -0.0625  0.2863
 4337SOL     OW24643   0.064   0.016   3.604  0.4069  0.4611  0.2574
 4337SOL    HW124644   0.134   4.733   3.542  1.1728  2.1563  0.6902
 4337SOL    HW224645   0.073   0.111   3.613  2.2286  0.7651 -4.6917
 4338SOL     OW24646   1.172   3.958   1.983  0.4271  0.1325 -0.1051
 4338SOL    HW124647   1.150   3.942   1.891 -1.4775  0.0689  0.3446
 4338SOL    HW224648   1.265   3.973   1.968  0.6887 -1.7349 -0.4028
 4339SOL     OW24649   2.521   1.851  15.708 -0.2909  0.1896  0.0817
 4339SOL    HW124650   2.589   1.903  15.751 -2.6790  1.5684  2.1932
 4339SOL    HW224651   2.488   1.910  15.640 -1.0089 -3.4807 -2.7298
 4340SOL     OW24652   1.957   0.482  12.467 -0.1550 -0.2061  0.0231
 4340SOL    HW124653   1.952   0.396  12.425 -1.4069 -0.0675 -0.1218
 4340SOL    HW224654   2.035   0.473  12.521 -0.8460  1.2829  1.2703
 4341SOL     OW24655   0.881   0.001  14.242  0.8977  0.3918  0.1271
 4341SOL    HW124656   0.927   4.698  14.318 -0.2849 -0.9987  0.1937
 4341SOL    HW224657   0.793   0.021  14.276  0.4749 -1.2124 -0.0202
 4342SOL     OW24658   0.817   2.719   2.322 -0.6620 -0.3431  0.3564
 4342SOL    HW124659   0.869   2.686   2.395 -0.1844 -0.9787 -0.2657
 4342SOL    HW224660   0.810   2.809   2.353 -0.4728 -0.2313  0.0801
 4343SOL     OW24661   3.152   0.383  13.785 -0.1983 -0.1085  0.0483
 4343SOL    HW124662   3.153   0.289  13.767 -1.0136 -0.0400 -0.3327
 4343SOL    HW224663   3.135   0.365  13.878 -0.7938 -1.5433 -0.3446
 4344SOL     OW24664   3.323   0.252   9.287  0.0115  0.0411  1.0082
 4344SOL    HW124665   3.295   0.341   9.309 -0.6103  0.2569 -0.6727
 4344SOL    HW224666   3.414   0.264   9.315  0.1254 -0.8339  1.0184
 4345SOL     OW24667   0.227   2.123   2.834 -0.2662 -0.7080  0.2570
 4345SOL    HW124668   0.312   2.119   2.791 -1.1613 -0.0955 -1.5654
 4345SOL    HW224669   0.237   2.177   2.913 -1.3867  2.1189 -1.5192
 4346SOL     OW24670   2.743   1.975   5.033 -0.2351  0.2418  0.0038
 4346SOL    HW124671   2.726   1.980   5.127 -1.5670 -0.9955 -0.1788
 4346SOL    HW224672   2.723   2.062   4.999 -0.6450 -1.0490 -3.0018
 4347SOL     OW24673   3.652   4.169   0.542 -0.4147 -0.3421 -0.7237
 4347SOL    HW124674   3.582   4.117   0.582  0.8337 -0.5257  1.1970
 4347SOL    HW224675   3.609   4.232   0.484  0.8525  2.6546  1.5714
 4348SOL     OW24676   1.494   3.518   0.562 -0.5810 -0.1682  0.6480
 4348SOL    HW124677   1.490   3.611   0.585  0.9444  0.5887 -2.1502
 4348SOL    HW224678   1.465   3.531   0.472  0.4821 -1.0213  0.1900
 4349SOL     OW24679   4.702   4.604   9.703 -0.2681  0.5108  0.1836
 4349SOL    HW124680   4.634   4.633   9.642 -1.4375 -3.0142 -0.1763
 4349SOL    HW224681   0.048   4.630   9.654  0.8343 -0.3540  1.4776
 4350SOL     OW24682   3.916   3.494  10.567 -0.1840 -0.2594 -0.0177
 4350SOL    HW124683   3.908   3.440  10.645 -2.3982 -2.1640 -1.5476
 4350SOL    HW224684   4.003   3.468  10.535  1.1016  1.7010  1.9123
 4351SOL     OW24685   2.725   0.875   6.470 -0.2010 -0.1442 -0.3308
 4351SOL    HW124686   2.661   0.873   6.398 -0.5004  0.9636 -0.0868
 4351SOL    HW224687   2.733   0.781   6.484 -3.0558 -0.7282 -2.3994
 4352SOL     OW24688   4.600   3.458   6.599  0.4335 -0.7195  0.3885
 4352SOL    HW124689   4.612   3.420   6.512  1.0298 -0.7888  0.5013
 4352SOL    HW224690   4.505   3.471   6.602  0.5591 -0.0615  1.5559
 4353SOL     OW24691   2.477   2.019  15.044  0.0629 -0.4007  0.5482
 4353SOL    HW124692   2.418   2.077  14.997 -0.1115 -0.4265  0.7395
 4353SOL    HW224693   2.481   1.948  14.980 -1.2776  1.3611 -1.4955
 4354SOL     OW24694   1.428   2.887  17.590  0.8310  0.6084 -0.1701
 4354SOL    HW124695   1.422   2.961  17.528  0.1673  1.1263  0.5102
 4354SOL    HW224696   1.493   2.833  17.545 -1.5346 -1.4634 -1.1056
 4355SOL     OW24697   2.588   1.672  15.487 -0.0280  0.0003 -0.1604
 4355SOL    HW124698   2.649   1.642  15.554  1.5366  2.0783 -0.6367
 4355SOL    HW224699   2.535   1.739  15.531 -0.0151 -1.0340  1.4148
 4356SOL     OW24700   0.926   0.453   5.787 -0.0022  0.0010  0.1864
 4356SOL    HW124701   0.881   0.529   5.751 -0.6445 -0.9211 -0.9635
 4356SOL    HW224702   0.876   0.455   5.868 -1.1684  1.2443 -0.5721
 4357SOL     OW24703   0.972   2.146   2.923  0.5956  0.3276 -0.1805
 4357SOL    HW124704   1.020   2.168   3.002  2.1505 -2.0976 -0.4285
 4357SOL    HW224705   0.993   2.221   2.867 -0.1680  0.1197 -0.7504
 4358SOL     OW24706   1.484   3.402  16.681  0.3685  0.2753 -0.1518
 4358SOL    HW124707   1.389   3.402  16.692  0.0897  0.1926 -2.6723
 4358SOL    HW224708   1.520   3.320  16.714  1.5445  1.1429  0.7392
 4359SOL     OW24709   1.839   1.632   8.850  0.3565 -0.1502  0.2563
 4359SOL    HW124710   1.908   1.582   8.894 -1.3341 -2.5397  0.2053
 4359SOL    HW224711   1.879   1.662   8.768  0.7552  2.3354  1.3593
 4360SOL     OW24712   3.789   2.916  15.355 -0.6222 -0.0933 -0.1556
 4360SOL    HW124713   3.801   3.010  15.373 -0.4372 -0.4271  1.4755
 4360SOL    HW224714   3.758   2.881  15.438 -0.5747  0.3099  0.0299
 4361SOL     OW24715   1.410   2.347  11.336 -0.2497 -0.6136  0.2133
 4361SOL    HW124716   1.406   2.288  11.261 -1.9122 -1.6954  1.1549
 4361SOL    HW224717   1.499   2.381  11.339 -1.0531  1.5972 -0.6940
 4362SOL     OW24718   1.601   1.544  13.636  0.0060 -0.0290 -0.1913
 4362SOL    HW124719   1.575   1.596  13.712  0.8214 -0.3673  0.3139
 4362SOL    HW224720   1.601   1.457  13.674 -0.2958  0.1752  0.2737
 4363SOL     OW24721   4.140   3.712  10.995 -0.5625  0.4283  0.2014
 4363SOL    HW124722   4.232   3.739  10.989 -0.6650  0.8985  0.7215
 4363SOL    HW224723   4.152   3.617  10.999  0.6876  0.4518 -2.9481
 4364SOL     OW24724   0.464   2.160  11.189 -0.1345  0.1027  0.1888
 4364SOL    HW124725   0.476   2.176  11.282  2.3440 -1.0955  0.0759
 4364SOL    HW224726   0.416   2.077  11.193  2.4955 -1.4104  0.3988
 4365SOL     OW24727   0.074   1.217   4.146  0.4519  0.0886 -0.2287
 4365SOL    HW124728   0.152   1.206   4.091  0.4853 -1.2080  0.0646
 4365SOL    HW224729   0.088   1.146   4.209  0.9433  1.3660  1.0983
 4366SOL     OW24730   0.574   1.171   5.737 -0.4978 -0.5193 -0.0624
 4366SOL    HW124731   0.543   1.225   5.664  1.2475  2.5552  1.4996
 4366SOL    HW224732   0.619   1.097   5.697 -0.0211 -1.2942  1.8837
 4367SOL     OW24733   0.647   3.930   3.634 -0.7671  0.6605  0.0795
 4367SOL    HW124734   0.553   3.944   3.646 -1.0251 -3.1494  2.7677
 4367SOL    HW224735   0.684   3.951   3.720  2.2573 -2.4637 -0.4266
 4368SOL     OW24736   2.299   3.613   7.813 -0.1623 -0.3007 -0.1470
 4368SOL    HW124737   2.345   3.650   7.737 -0.8916 -0.6737 -0.7668
 4368SOL    HW224738   2.208   3.632   7.791  0.3510  2.3902  0.0455
 4369SOL     OW24739   3.956   3.375   1.622 -0.0112 -0.1378 -0.2143
 4369SOL    HW124740   4.017   3.328   1.679 -0.5129 -1.5850 -0.8773
 4369SOL    HW224741   3.963   3.334   1.536  2.7690 -0.9177  0.3575
 4370SOL     OW24742   3.343   3.109   2.813  0.0861  0.6226 -0.3919
 4370SOL    HW124743   3.310   3.089   2.900 -2.9774  0.8046 -1.5258
 4370SOL    HW224744   3.333   3.021   2.776 -0.7233 -0.2489  1.9353
 4371SOL     OW24745   2.555   1.593   6.585 -0.2173 -0.1642 -0.5411
 4371SOL    HW124746   2.476   1.639   6.613  1.6597  2.0731  1.0293
 4371SOL    HW224747   2.528   1.574   6.495  3.3863 -1.5636 -1.3262
 4372SOL     OW24748   1.746   3.125  14.671  0.2554 -0.3303 -0.0583
 4372SOL    HW124749   1.656   3.150  14.650 -0.0682 -0.9708  0.5626
 4372SOL    HW224750   1.738   3.032  14.649  0.7067 -0.8593  1.9841
 4373SOL     OW24751   4.193   3.655   7.333  0.2340  0.7309  0.1432
 4373SOL    HW124752   4.125   3.658   7.265  1.1671 -2.3298 -0.8905
 4373SOL    HW224753   4.231   3.568   7.328 -0.5416  0.4206 -0.3581
 4374SOL     OW24754   2.612   3.335   1.099 -0.1408  0.1204  0.5699
 4374SOL    HW124755   2.598   3.397   1.171 -2.6800 -1.4039  1.3976
 4374SOL    HW224756   2.707   3.324   1.094 -0.0737  0.9158 -0.0160
 4375SOL     OW24757   3.956   3.272   7.767  0.8527 -0.4659 -0.0204
 4375SOL    HW124758   3.897   3.295   7.695 -1.2898  0.0754  1.8927
 4375SOL    HW224759   3.999   3.353   7.795 -1.0026 -0.4309  2.7105
 4376SOL     OW24760   0.747   4.010   1.046 -0.1657 -0.1876 -0.0056
 4376SOL    HW124761   0.808   4.075   1.081  1.7822 -1.2865 -1.3010
 4376SOL    HW224762   0.786   3.988   0.961  1.8034  0.5941  0.7022
 4377SOL     OW24763   3.894   1.769   3.814 -0.4853 -0.1400 -0.3925
 4377SOL    HW124764   3.944   1.710   3.869  0.9173 -0.0981 -1.6403
 4377SOL    HW224765   3.927   1.757   3.726  0.6058  0.2790 -0.0342
 4378SOL     OW24766   1.818   0.883  11.507  0.1561 -0.2492 -0.0135
 4378SOL    HW124767   1.735   0.928  11.492 -0.1241 -0.3494  1.2683
 4378SOL    HW224768   1.774   0.799  11.520  0.7729 -0.4488  0.7672
 4379SOL     OW24769   3.301   2.522   8.592 -0.1743  0.7101  0.6146
 4379SOL    HW124770   3.371   2.470   8.553  1.4839  3.4883 -0.1252
 4379SOL    HW224771   3.234   2.497   8.529  0.5087 -0.7913  0.4959
 4380SOL     OW24772   3.722   4.148  16.758 -0.6766 -0.3394  0.0937
 4380SOL    HW124773   3.789   4.122  16.820 -0.8265  0.7631  0.7177
 4380SOL    HW224774   3.754   4.235  16.733  1.9391 -1.1615  0.6258
 4381SOL     OW24775   1.381   4.624  12.867  0.8091  0.1840 -0.1535
 4381SOL    HW124776   1.475   4.610  12.854  1.1638  1.4936  0.9971
 4381SOL    HW224777   1.355   4.630  12.775  1.8888  1.8617 -0.3598
 4382SOL     OW24778   3.671   3.789   3.283 -0.2517  0.1951  0.4244
 4382SOL    HW124779   3.746   3.814   3.229 -0.3185  0.6759  0.5494
 4382SOL    HW224780   3.655   3.702   3.248 -1.3123  1.1551 -1.4908
 4383SOL     OW24781   0.803   0.395   6.021  0.4778 -0.1583  0.6903
 4383SOL    HW124782   0.788   0.314   6.069  0.0987 -2.0718 -2.6152
 4383SOL    HW224783   0.818   0.458   6.092 -0.9703 -1.1300  1.8538
 4384SOL     OW24784   1.589   3.538   7.658 -0.5101  0.3393 -0.1765
 4384SOL    HW124785   1.564   3.630   7.663 -0.8541  0.2511 -0.2833
 4384SOL    HW224786   1.568   3.521   7.567 -1.0538 -0.1957  0.0505
 4385SOL     OW24787   2.253   2.202   0.122 -0.1744 -0.1160 -0.1229
 4385SOL    HW124788   2.283   2.282   0.078 -1.5279  0.8763  0.7379
 4385SOL    HW224789   2.190   2.174   0.055 -3.0288  2.8228  1.3383
 4386SOL     OW24790   3.098   2.633   5.965 -0.3297 -0.1625  0.1208
 4386SOL    HW124791   3.183   2.617   5.925 -0.5065 -0.0329 -0.3071
 4386SOL    HW224792   3.100   2.728   5.978  2.5804 -0.3153  0.7263
 4387SOL     OW24793   3.772   2.679   0.355 -0.2209  0.1396 -0.0518
 4387SOL    HW124794   3.854   2.718   0.325 -0.9248  0.8098 -1.1452
 4387SOL    HW224795   3.778   2.697   0.449  0.2660  0.2710 -0.1096
 4388SOL     OW24796   1.222   0.716  13.768  0.6134 -0.4024  0.4113
 4388SOL    HW124797   1.127   0.729  13.757  1.0310  2.4896  0.3359
 4388SOL    HW224798   1.235   0.804  13.802  0.5128  0.5605 -2.0569
 4389SOL     OW24799   2.347   2.856   5.042  0.1280  0.5059 -0.0177
 4389SOL    HW124800   2.435   2.841   5.006  0.2718  1.1591  0.0522
 4389SOL    HW224801   2.319   2.928   4.986 -1.1634  0.0911  0.0987
 4390SOL     OW24802   4.130   0.108   6.214  0.7371 -0.1526  0.5969
 4390SOL    HW124803   4.085   0.172   6.158 -0.2662 -0.6024  0.8851
 4390SOL    HW224804   4.084   0.105   6.298  1.0385  1.1512  0.8099
 4391SOL     OW24805   1.385   4.117   3.068  0.3891 -0.8594  0.3586
 4391SOL    HW124806   1.360   4.097   2.978 -1.1166  0.5588  0.4624
 4391SOL    HW224807   1.382   4.032   3.112  0.3752  0.0124  2.0292
 4392SOL     OW24808   3.225   2.676  12.772  0.1575  0.0982  0.4261
 4392SOL    HW124809   3.317   2.702  12.761 -0.7014  2.8729 -0.0941
 4392SOL    HW224810   3.187   2.732  12.705 -0.8149 -1.6109 -0.4687
 4393SOL     OW24811   4.677   0.043   7.756  0.3007  0.2129  0.2241
 4393SOL    HW124812   4.604   0.016   7.811 -0.1084  2.9143  1.0364
 4393SOL    HW224813   4.691   0.127   7.801  1.0730 -0.8752  2.0294
 4394SOL     OW24814   1.577   1.496   7.352  0.4560  0.3956 -0.4908
 4394SOL    HW124815   1.623   1.455   7.425 -0.3315 -0.5669 -0.5328
 4394SOL    HW224816   1.622   1.579   7.338 -0.5820  1.1705  0.8275
 4395SOL     OW24817   2.332   4.193   2.984 -0.2270 -1.0946 -0.3768
 4395SOL    HW124818   2.372   4.279   2.974 -0.0726 -1.0422  0.7139
 4395SOL    HW224819   2.336   4.166   2.892  2.2447 -0.2515 -0.5030
 4396SOL     OW24820   4.026   4.687   5.113  0.0007 -0.3297  0.4478
 4396SOL    HW124821   4.053   4.660   5.026  1.0621  0.1344  0.6371
 4396SOL    HW224822   4.029   0.050   5.110 -3.2815 -0.2497 -0.5867
 4397SOL     OW24823   4.062   1.631   3.993 -0.1998 -0.2085 -0.1813
 4397SOL    HW124824   4.117   1.708   4.005 -0.5979  0.3260 -1.8069
 4397SOL    HW224825   4.124   1.565   4.023 -1.2046  0.5791  3.6475
 4398SOL     OW24826   3.372   0.273   4.148  0.7118 -0.5228 -0.4088
 4398SOL    HW124827   3.358   0.273   4.053 -4.1942 -1.1422  0.3197
 4398SOL    HW224828   3.372   0.180   4.169 -0.6604 -0.0697  1.5882
 4399SOL     OW24829   3.564   0.299   9.393 -0.0447 -0.0229 -0.2638
 4399SOL    HW124830   3.617   0.220   9.388  0.5540  0.4677 -1.7337
 4399SOL    HW224831   3.636   0.362   9.406  0.6328 -0.8280 -0.0893
 4400SOL     OW24832   3.437   3.368  13.513  0.7002  0.1643 -0.0378
 4400SOL    HW124833   3.425   3.389  13.421  1.5164  0.9123  0.0213
 4400SOL    HW224834   3.353   3.326  13.534  1.6239 -0.9166  1.5680
 4401SOL     OW24835   3.522   0.639   8.234  0.1990 -0.0637 -0.8620
 4401SOL    HW124836   3.542   0.573   8.300  1.2390  1.9963  0.8952
 4401SOL    HW224837   3.480   0.705   8.289  0.9408 -0.8542  0.6526
 4402SOL     OW24838   2.211   4.310  10.242 -0.4458  0.6270  0.1551
 4402SOL    HW124839   2.293   4.359  10.254 -1.1899  1.5666  1.4243
 4402SOL    HW224840   2.186   4.290  10.332 -0.0914 -3.1684 -0.5992
 4403SOL     OW24841   2.469   4.075   1.434 -0.3887 -0.0547 -0.1759
 4403SOL    HW124842   2.376   4.059   1.448 -0.0121 -2.4323 -0.3322
 4403SOL    HW224843   2.466   4.085   1.339  1.4062  0.8906 -0.1402
 4404SOL     OW24844   2.179   4.323   7.068 -0.4530 -1.0153  0.2758
 4404SOL    HW124845   2.245   4.266   7.029  1.4587  1.4939 -0.1946
 4404SOL    HW224846   2.228   4.403   7.089 -0.7634 -1.2848  1.9906
 4405SOL     OW24847   1.745   1.339  14.340 -0.1163 -0.3912  0.1225
 4405SOL    HW124848   1.783   1.372  14.258  1.5809 -0.3751  0.9059
 4405SOL    HW224849   1.824   1.329  14.394  0.1596 -2.1562 -0.6018
 4406SOL     OW24850   1.027   1.605   3.701 -0.4082 -0.4913  0.0292
 4406SOL    HW124851   0.935   1.630   3.700 -0.9756 -2.6394  0.6186
 4406SOL    HW224852   1.020   1.521   3.655 -1.4913  0.5047 -1.6438
 4407SOL     OW24853   4.230   2.280   8.277  0.0136 -0.0298 -0.0901
 4407SOL    HW124854   4.316   2.315   8.254 -0.5557  2.3346  1.3107
 4407SOL    HW224855   4.222   2.209   8.214 -0.6997  0.3972 -0.4848
 4408SOL     OW24856   3.278   1.257   6.895  0.7342 -0.3169 -0.7849
 4408SOL    HW124857   3.315   1.169   6.905 -0.5747 -0.7480  0.2612
 4408SOL    HW224858   3.358   1.305   6.873 -0.0255  0.7757 -1.1781
 4409SOL     OW24859   3.471   1.634   8.504 -0.2207  0.2776  0.2301
 4409SOL    HW124860   3.533   1.704   8.483  2.3480 -1.4601  1.9620
 4409SOL    HW224861   3.441   1.655   8.592 -2.7190  0.0706 -0.5759
 4410SOL     OW24862   0.630   2.229   2.930 -0.7535 -0.8262 -0.4855
 4410SOL    HW124863   0.720   2.248   2.902 -0.4374  0.3065  1.3030
 4410SOL    HW224864   0.635   2.198   3.020 -0.3520 -0.9158 -0.5366
 4411SOL     OW24865   0.652   3.555   1.276  0.0767  0.7765  0.0527
 4411SOL    HW124866   0.574   3.561   1.221 -0.1908 -0.3726  0.3120
 4411SOL    HW224867   0.616   3.498   1.344 -0.5874  0.7425 -0.3268
 4412SOL     OW24868   2.839   2.897   5.888 -0.5692  0.4411 -0.6524
 4412SOL    HW124869   2.831   2.926   5.979 -0.0656 -0.9397 -0.1696
 4412SOL    HW224870   2.771   2.954   5.852 -0.4144  1.7480  1.1445
 4413SOL     OW24871   0.122   0.983   3.601 -0.2915 -0.3815 -0.0508
 4413SOL    HW124872   0.187   1.035   3.555  0.0633  1.2848  2.3081
 4413SOL    HW224873   0.147   0.894   3.577  0.0139 -0.6773  1.3361
 4414SOL     OW24874   2.858   4.401   6.863  0.3526 -0.3018 -0.5302
 4414SOL    HW124875   2.846   4.480   6.810 -0.1847 -0.5331 -0.7519
 4414SOL    HW224876   2.773   4.360   6.846 -0.3946 -0.3798  3.3816
 4415SOL     OW24877   0.182   4.231   6.428 -0.0397 -0.3872 -0.7699
 4415SOL    HW124878   0.224   4.294   6.369  1.4443 -2.2304 -1.7057
 4415SOL    HW224879   0.139   4.285   6.493  1.7231 -1.0416  0.9602
 4416SOL     OW24880   2.077   1.171  10.611  0.1678 -0.8348 -0.7686
 4416SOL    HW124881   2.130   1.219  10.675 -0.9255  0.6861 -1.0075
 4416SOL    HW224882   2.041   1.246  10.564 -1.6055 -1.5791 -0.6016
 4417SOL     OW24883   0.686   2.685   7.128  0.6030 -0.9368 -0.0437
 4417SOL    HW124884   0.733   2.640   7.198  1.7578  0.0204 -0.2000
 4417SOL    HW224885   0.594   2.671   7.153  0.4224 -0.3489 -0.3672
 4418SOL     OW24886   1.530   3.698   9.109 -0.1477 -0.0444 -0.1861
 4418SOL    HW124887   1.592   3.652   9.165 -0.8016 -1.3784 -0.5675
 4418SOL    HW224888   1.592   3.738   9.047 -0.4518 -1.2800 -1.2785
 4419SOL     OW24889   2.921   2.633   4.470  0.0427 -0.2241  0.3236
 4419SOL    HW124890   2.906   2.721   4.503  1.1006  0.0693  0.0336
 4419SOL    HW224891   2.859   2.636   4.397 -0.8815 -1.1539  1.0826
 4420SOL     OW24892   3.875   1.210   7.437  0.5084  0.0558 -0.7043
 4420SOL    HW124893   3.824   1.217   7.356  2.2680  0.7680 -1.7409
 4420SOL    HW224894   3.908   1.121   7.432  1.0611  0.2319 -0.1421
 4421SOL     OW24895   3.827   3.779   8.954  0.5790 -0.3188  0.0971
 4421SOL    HW124896   3.774   3.705   8.924 -0.7487  0.4007  0.6838
 4421SOL    HW224897   3.778   3.798   9.034  0.9583  1.5309 -0.1104
 4422SOL     OW24898   3.020   0.717   1.775 -0.2327 -0.2818 -0.3537
 4422SOL    HW124899   2.998   0.798   1.822 -3.1581 -0.4235 -1.4827
 4422SOL    HW224900   3.080   0.680   1.840  0.8175 -1.2811 -1.9055
 4423SOL     OW24901   1.384   4.394   1.106 -0.2339  0.5269  0.4534
 4423SOL    HW124902   1.300   4.425   1.141 -0.5302 -1.5905  1.5497
 4423SOL    HW224903   1.432   4.348   1.174  0.7653  1.0888  0.1272
 4424SOL     OW24904   0.686   2.757   8.566 -0.2037 -0.1410 -0.5063
 4424SOL    HW124905   0.675   2.750   8.472 -1.2410  0.2679 -0.4240
 4424SOL    HW224906   0.718   2.847   8.575  1.6126 -0.8434 -0.0715
 4425SOL     OW24907   1.385   3.728  11.709  0.6206 -0.2485  0.0271
 4425SOL    HW124908   1.301   3.748  11.669  1.4819 -2.0078 -2.6702
 4425SOL    HW224909   1.399   3.637  11.684 -2.8789 -0.1648 -2.2085
 4426SOL     OW24910   0.195   0.143  16.178  0.0389 -0.0202  0.3706
 4426SOL    HW124911   0.121   0.104  16.132 -0.0819  0.4643  0.1664
 4426SOL    HW224912   0.179   0.112  16.267 -1.3558  0.6967  0.3652
 4427SOL     OW24913   0.267   3.373   4.523 -0.3863 -0.2806  0.2866
 4427SOL    HW124914   0.281   3.287   4.562  1.7396 -0.5210 -0.9777
 4427SOL    HW224915   0.355   3.410   4.525 -0.1639 -0.8092  0.2316
 4428SOL     OW24916   0.669   4.087  17.087 -0.4252  0.7981  0.3065
 4428SOL    HW124917   0.713   4.067  17.169 -1.0388  0.7098  0.6144
 4428SOL    HW224918   0.658   4.180  17.109 -1.8850  0.3856  1.3115
 4429SOL     OW24919   1.355   3.013   3.859  0.3140  1.0467 -0.0224
 4429SOL    HW124920   1.356   3.102   3.824 -2.8296  1.2149  0.3567
 4429SOL    HW224921   1.299   3.033   3.933  0.3951  0.2796  0.2475
 4430SOL     OW24922   3.520   1.177  12.761  0.2123  0.7056  0.1001
 4430SOL    HW124923   3.573   1.099  12.782 -0.6191  0.4158  1.1086
 4430SOL    HW224924   3.429   1.153  12.777 -0.5930  2.8487 -1.4342
 4431SOL     OW24925   2.668   3.506   1.370  0.6939  0.1097 -0.4444
 4431SOL    HW124926   2.759   3.491   1.346  1.3906 -0.0959  2.3469
 4431SOL    HW224927   2.659   3.443   1.442 -1.1550 -2.2878 -2.7855
 4432SOL     OW24928   0.250   1.299   6.589 -0.2291  1.4717 -0.2014
 4432SOL    HW124929   0.218   1.367   6.530  1.6028 -0.4383 -3.3522
 4432SOL    HW224930   0.344   1.288   6.571 -0.5150 -2.4726  0.8297
 4433SOL     OW24931   4.438   4.679   3.095 -0.2452  0.2082  0.4442
 4433SOL    HW124932   4.391   4.603   3.059 -2.5688  2.1291 -0.5456
 4433SOL    HW224933   4.465   4.645   3.180 -1.0786  1.0357  1.0353
 4434SOL     OW24934   0.713   3.172   8.461  0.2757  0.1644 -0.4615
 4434SOL    HW124935   0.625   3.198   8.434  0.1938  0.5917  0.2070
 4434SOL    HW224936   0.740   3.259   8.490 -0.2732  0.5428 -1.0905
 4435SOL     OW24937   3.300   2.802   2.167  0.0912 -0.3490 -0.1901
 4435SOL    HW124938   3.275   2.894   2.155 -1.1936 -0.6481  0.2272
 4435SOL    HW224939   3.220   2.751   2.155  0.1711 -0.4089 -0.4467
 4436SOL     OW24940   1.770   1.975   7.582  0.3811  0.0926 -0.0027
 4436SOL    HW124941   1.704   1.906   7.586  0.9675 -0.5073 -0.5915
 4436SOL    HW224942   1.800   1.971   7.491  1.3484  0.2241  0.3150
 4437SOL     OW24943   1.417   1.708   6.780  0.3736 -0.1576 -0.1465
 4437SOL    HW124944   1.405   1.802   6.762 -0.6382 -0.1488  0.5705
 4437SOL    HW224945   1.409   1.707   6.875 -1.3161  1.1889 -0.2641
 4438SOL     OW24946   3.783   1.650   7.523 -0.4339  0.0981 -0.4058
 4438SOL    HW124947   3.799   1.577   7.463  0.5049  0.3459 -0.4546
 4438SOL    HW224948   3.851   1.709   7.492  1.7158 -1.9621  0.3996
 4439SOL     OW24949   4.574   1.297   4.056  0.1480  0.2807 -0.3106
 4439SOL    HW124950   4.655   1.264   4.095  0.4174  0.1554 -0.9675
 4439SOL    HW224951   4.557   1.362   4.123 -0.5467 -0.0822 -0.1330
 4440SOL     OW24952   3.357   0.235   1.404 -0.0537  0.9830  0.4472
 4440SOL    HW124953   3.427   0.204   1.461 -1.1134  0.0079  1.2320
 4440SOL    HW224954   3.275   0.207   1.444  0.5276  1.7866  2.1923
 4441SOL     OW24955   0.543   2.648   2.495 -0.2453 -0.0507 -0.1927
 4441SOL    HW124956   0.619   2.703   2.478  0.5981 -1.0070  0.4849
 4441SOL    HW224957   0.507   2.679   2.578 -2.0808  1.4830 -1.5650
 4442SOL     OW24958   3.319   0.468  17.168 -0.4377  0.2048 -0.0925
 4442SOL    HW124959   3.366   0.459  17.250  1.1144  0.5619 -0.9463
 4442SOL    HW224960   3.362   0.395  17.123  0.2804  0.8061 -0.3893
 4443SOL     OW24961   4.443   2.254  12.510 -0.3219  0.1484  0.4200
 4443SOL    HW124962   4.430   2.325  12.573  0.7983 -0.8702  1.8343
 4443SOL    HW224963   4.363   2.202  12.515  0.7905 -1.7382 -1.7356
 4444SOL     OW24964   3.902   2.868   3.622 -0.1891  0.0600 -0.8556
 4444SOL    HW124965   3.941   2.898   3.540  2.5600 -0.7478  0.1628
 4444SOL    HW224966   3.883   2.778   3.596  0.8263 -0.7412  1.2104
 4445SOL     OW24967   4.563   1.563   2.641 -0.6516 -0.5152 -0.2713
 4445SOL    HW124968   4.605   1.493   2.692 -1.1915 -0.0714  0.7996
 4445SOL    HW224969   4.504   1.518   2.581 -0.8952  0.0125 -0.4235
 4446SOL     OW24970   2.701   1.716   5.196 -0.2456 -0.0039 -0.5887
 4446SOL    HW124971   2.742   1.763   5.123 -0.5531  1.2954  0.0654
 4446SOL    HW224972   2.749   1.634   5.189  0.3982  0.2715  0.6642
 4447SOL     OW24973   4.181   3.087   7.091  0.0758 -0.4715 -0.5078
 4447SOL    HW124974   4.152   3.132   7.012  1.3280  0.3281 -0.5062
 4447SOL    HW224975   4.267   3.127   7.087  0.1796 -0.4735  1.5450
 4448SOL     OW24976   0.720   2.942   0.951 -0.2032  0.3339 -0.1299
 4448SOL    HW124977   0.772   3.020   0.932  1.5514 -0.6868  0.5057
 4448SOL    HW224978   0.656   2.950   0.880 -0.6280 -0.1014  0.2029
 4449SOL     OW24979   3.759   2.507  13.183  0.6825 -0.1868 -0.1140
 4449SOL    HW124980   3.725   2.572  13.245 -0.3886 -0.9592  0.1030
 4449SOL    HW224981   3.809   2.550  13.113  0.4284 -1.3072 -0.9738
 4450SOL     OW24982   3.979   4.010  11.786 -0.2918 -0.7522  0.5009
 4450SOL    HW124983   4.006   4.033  11.875  1.5368 -0.5758 -0.1063
 4450SOL    HW224984   3.883   4.009  11.790 -0.4258  1.0329 -2.0401
 4451SOL     OW24985   2.881   3.332   8.904 -0.3518 -0.8008  0.1576
 4451SOL    HW124986   2.916   3.255   8.948 -2.4747 -1.0531  1.3774
 4451SOL    HW224987   2.838   3.386   8.971  0.4332  1.4425 -1.1374
 4452SOL     OW24988   3.638   4.106  12.205  0.9293  0.5995 -0.1607
 4452SOL    HW124989   3.725   4.099  12.245  0.7885  0.7637  0.1721
 4452SOL    HW224990   3.656   4.076  12.116 -1.4538 -0.6375 -0.2125
 4453SOL     OW24991   3.790   1.265   8.496  0.9341 -0.3351  0.0720
 4453SOL    HW124992   3.838   1.184   8.510  0.5023 -0.2985  1.7614
 4453SOL    HW224993   3.753   1.254   8.408  0.9558  0.5461 -0.0552
 4454SOL     OW24994   1.338   1.873   0.960 -0.0749  0.3288  0.2510
 4454SOL    HW124995   1.409   1.901   1.018  0.3465  0.9895 -0.5887
 4454SOL    HW224996   1.308   1.959   0.932  1.3786  0.9340  0.5563
 4455SOL     OW24997   0.144   0.856   6.448 -0.0792 -0.2502 -0.1764
 4455SOL    HW124998   0.141   0.925   6.514  1.7868 -1.2058  0.9118
 4455SOL    HW224999   0.121   0.774   6.491  1.4040 -1.2084 -1.1720
 4456SOL     OW25000   0.701   0.900  14.144  0.0889 -0.3116  0.4469
 4456SOL    HW125001   0.687   0.914  14.238  1.3406  0.0923  0.5731
 4456SOL    HW225002   0.621   0.941  14.112 -0.3067 -1.0988  0.4127
 4457SOL     OW25003   4.453   3.436  14.651 -0.4267  0.3457  0.2165
 4457SOL    HW125004   4.422   3.465  14.737  1.3601  2.1677  0.2431
 4457SOL    HW225005   4.462   3.520  14.607 -0.3184  0.0014 -0.4109
 4458SOL     OW25006   3.693   0.986  12.492 -0.0245  0.8881  0.6478
 4458SOL    HW125007   3.607   1.026  12.500 -0.4641  0.8755 -3.8339
 4458SOL    HW225008   3.740   1.066  12.469  1.5430 -0.1042  0.3763
 4459SOL     OW25009   2.563   1.287  17.488 -0.4892 -0.6284 -0.3043
 4459SOL    HW125010   2.562   1.378  17.519  1.2323  0.4619 -3.4417
 4459SOL    HW225011   2.645   1.283  17.439  0.6648  0.5963  1.4993
 4460SOL     OW25012   2.775   1.632  13.778  0.1797 -0.0346 -0.6828
 4460SOL    HW125013   2.712   1.660  13.845  1.4161  0.1184  0.3982
 4460SOL    HW225014   2.733   1.554  13.740 -1.7097  1.4809 -1.7546
 4461SOL     OW25015   2.490   4.249   9.451 -0.2522 -0.5152  0.3217
 4461SOL    HW125016   2.484   4.343   9.470  0.8825  0.3359 -3.6624
 4461SOL    HW225017   2.476   4.201   9.533 -3.1440 -0.0311  0.1195
 4462SOL     OW25018   2.398   2.737  12.375  0.2793  0.2379  0.2645
 4462SOL    HW125019   2.423   2.675  12.444  1.5507  0.0620 -0.3615
 4462SOL    HW225020   2.358   2.813  12.418 -1.0559 -0.3651  0.0685
 4463SOL     OW25021   2.196   2.382   3.335  0.0383 -0.0411  0.2105
 4463SOL    HW125022   2.191   2.456   3.396 -1.1149  2.4548 -2.9351
 4463SOL    HW225023   2.165   2.306   3.385 -2.7454 -0.5888 -2.3756
 4464SOL     OW25024   4.022   0.328   2.326 -0.2459  0.4638  0.2796
 4464SOL    HW125025   3.997   0.420   2.339 -2.5380 -0.1012 -0.1669
 4464SOL    HW225026   3.987   0.319   2.238  1.4829 -1.9367 -0.1775
 4465SOL     OW25027   0.594   2.756   6.278 -0.2284  0.1608  0.3713
 4465SOL    HW125028   0.595   2.820   6.207 -2.2494 -1.3620 -1.0114
 4465SOL    HW225029   0.501   2.739   6.289  0.0191 -0.4001  1.6279
 4466SOL     OW25030   3.680   2.571   4.146 -0.5724 -0.1381 -0.0984
 4466SOL    HW125031   3.724   2.521   4.078  0.0979 -0.6535  0.7240
 4466SOL    HW225032   3.596   2.586   4.102 -0.4885 -1.4929 -0.7092
 4467SOL     OW25033   3.553   1.565   6.687  0.1768 -0.3089  0.2571
 4467SOL    HW125034   3.505   1.503   6.742  1.8043 -0.2157  1.7529
 4467SOL    HW225035   3.611   1.601   6.753 -1.1519 -0.7660  1.6676
 4468SOL     OW25036   0.938   2.281   2.285 -0.0792 -0.1788 -0.0720
 4468SOL    HW125037   1.019   2.332   2.287 -0.9089  1.0882  0.9732
 4468SOL    HW225038   0.964   2.198   2.245  1.3910  0.4327 -0.3818
 4469SOL     OW25039   2.368   1.475  15.443  0.2863  0.0432  0.7155
 4469SOL    HW125040   2.346   1.553  15.392  1.9283 -0.1156 -0.2710
 4469SOL    HW225041   2.436   1.505  15.503 -1.3121  0.7388  2.1734
 4470SOL     OW25042   4.529   2.853  16.719 -0.3324  0.3742  0.4144
 4470SOL    HW125043   4.506   2.871  16.810  0.1579 -0.5532  0.7161
 4470SOL    HW225044   4.453   2.894  16.678 -0.3531  0.8672  0.9413
 4471SOL     OW25045   1.005   4.600  17.202 -0.2288 -0.4780 -0.3455
 4471SOL    HW125046   0.920   4.638  17.225  0.5911  0.4474  1.1377
 4471SOL    HW225047   1.001   4.620  17.108 -0.8200 -0.3694 -0.2999
 4472SOL     OW25048   4.068   3.812  17.451 -0.0724 -0.0878 -0.1435
 4472SOL    HW125049   4.109   3.857  17.378 -0.5473 -0.5157 -0.6819
 4472SOL    HW225050   3.977   3.841  17.462 -0.5596 -1.6524  0.0295
 4473SOL     OW25051   4.537   1.350   9.502  0.0614 -0.1586 -0.9219
 4473SOL    HW125052   4.473   1.412   9.539  1.6526  1.2859 -0.6031
 4473SOL    HW225053   4.603   1.341   9.570 -0.4965  0.0422 -0.3499
 4474SOL     OW25054   3.493   2.966   6.259  0.0980  0.0560 -0.6616
 4474SOL    HW125055   3.459   3.056   6.260 -0.6573 -0.2783  2.2175
 4474SOL    HW225056   3.498   2.959   6.163  1.1198 -1.3274 -0.5009
 4475SOL     OW25057   0.019   4.024   4.843 -0.6548 -0.1543 -0.6168
 4475SOL    HW125058   4.683   4.089   4.832 -1.0996 -0.4127  0.6126
 4475SOL    HW225059   0.068   4.033   4.762  2.2178  0.1484  1.1258
 4476SOL     OW25060   1.916   3.926  14.290 -0.4551 -0.6815  0.3990
 4476SOL    HW125061   1.994   3.981  14.291 -2.1482  1.6463  2.6101
 4476SOL    HW225062   1.908   3.912  14.195 -0.5176  1.1113  0.1560
 4477SOL     OW25063   0.457   4.134   0.790  0.1024 -0.7861  0.3824
 4477SOL    HW125064   0.395   4.077   0.837 -0.9385 -0.0069 -0.0561
 4477SOL    HW225065   0.534   4.079   0.802  1.5117  0.7774 -1.6289
 4478SOL     OW25066   4.054   4.100   5.735  0.8224 -0.0656 -0.6560
 4478SOL    HW125067   4.021   4.036   5.798  0.8793  0.2916 -0.2622
 4478SOL    HW225068   3.998   4.176   5.748  0.2067 -0.5659 -0.3581
 4479SOL     OW25069   1.474   3.148   8.053  0.0283 -0.0017  0.2286
 4479SOL    HW125070   1.409   3.199   8.101  1.7870  0.4376  2.1255
 4479SOL    HW225071   1.511   3.083   8.112  1.2776  0.2712 -0.2608
 4480SOL     OW25072   0.020   4.520   7.724  0.0863 -0.2501 -0.3345
 4480SOL    HW125073   0.019   4.614   7.744 -1.3606 -0.2287 -0.5146
 4480SOL    HW225074   0.078   4.523   7.647  1.1821  2.5121  0.5971
 4481SOL     OW25075   1.781   1.566   3.604  0.6655  0.6746 -0.3702
 4481SOL    HW125076   1.771   1.525   3.518  0.2239  1.9326 -0.9139
 4481SOL    HW225077   1.846   1.633   3.583  1.1611  0.4813  0.5737
 4482SOL     OW25078   2.032   3.653  14.232  0.8292  0.0224 -0.0789
 4482SOL    HW125079   2.020   3.747  14.227 -2.3241 -0.3625  0.3926
 4482SOL    HW225080   2.091   3.642  14.157  1.6305  0.1233  0.5335
 4483SOL     OW25081   4.262   0.754   6.405  0.5054 -0.5076 -0.7095
 4483SOL    HW125082   4.317   0.763   6.482 -1.7688  1.8439  0.6247
 4483SOL    HW225083   4.228   0.665   6.415  1.7503 -0.6708  1.8417
 4484SOL     OW25084   0.749   2.306  11.238 -0.1165 -0.0676 -0.2551
 4484SOL    HW125085   0.787   2.322  11.152 -0.8940  0.3174 -0.5188
 4484SOL    HW225086   0.802   2.354  11.302  0.7737  1.1972 -1.9664
 4485SOL     OW25087   0.909   3.538  17.297  0.7452 -0.1095 -0.1758
 4485SOL    HW125088   0.936   3.450  17.271 -0.9690 -0.0275 -2.1940
 4485SOL    HW225089   0.836   3.518  17.356  0.9791  1.3668  0.6078
 4486SOL     OW25090   1.007   1.890  17.339 -0.4357 -0.1722  0.2465
 4486SOL    HW125091   0.986   1.854  17.425  0.2472 -0.8283  0.1394
 4486SOL    HW225092   0.958   1.834  17.278 -1.9494  1.2719  0.1421
 4487SOL     OW25093   1.408   2.090   1.143  0.1246  0.4134 -0.2217
 4487SOL    HW125094   1.314   2.087   1.127 -0.5020  2.7651  3.1450
 4487SOL    HW225095   1.422   2.182   1.164 -1.8926  0.4172  1.0932
 4488SOL     OW25096   1.808   0.351   7.479  0.5762 -0.2197 -0.3311
 4488SOL    HW125097   1.788   0.388   7.393  0.1617 -0.4664 -0.3452
 4488SOL    HW225098   1.737   0.288   7.497  1.4201 -0.9272  0.5307
 4489SOL     OW25099   3.080   3.823   8.539  0.6491  0.5153 -0.0158
 4489SOL    HW125100   3.040   3.743   8.505  0.0187  0.8144  0.0272
 4489SOL    HW225101   3.032   3.887   8.486 -0.1187  0.6411  0.8404
 4490SOL     OW25102   0.959   1.744   1.789 -0.0497  0.0724 -0.0113
 4490SOL    HW125103   1.009   1.792   1.723  1.0638 -0.0572  0.7423
 4490SOL    HW225104   0.919   1.678   1.733  4.0833 -0.9793 -1.6642
 4491SOL     OW25105   2.217   2.406   2.628  0.9733 -0.2966  0.3824
 4491SOL    HW125106   2.254   2.380   2.712 -2.1091 -2.5972  1.0178
 4491SOL    HW225107   2.229   2.331   2.570 -1.0328 -0.9621  0.8209
 4492SOL     OW25108   1.186   2.308   8.843  0.1250 -0.4071  0.1873
 4492SOL    HW125109   1.183   2.400   8.816 -1.2063 -0.4133  0.2962
 4492SOL    HW225110   1.240   2.310   8.922  0.7609 -1.4065 -0.2256
 4493SOL     OW25111   2.821   1.848   2.041 -0.1106 -0.2186 -0.0270
 4493SOL    HW125112   2.876   1.923   2.016  2.5518 -2.6133 -1.2981
 4493SOL    HW225113   2.873   1.773   2.013 -1.4946 -1.4708  0.7463
 4494SOL     OW25114   1.974   1.401   2.400  0.4376  0.1515  0.0670
 4494SOL    HW125115   1.925   1.349   2.336 -0.8351  3.3517 -1.5575
 4494SOL    HW225116   1.926   1.484   2.404  1.8654  0.8358  2.5460
 4495SOL     OW25117   1.166   4.235   0.947  0.2611  0.4911 -0.4376
 4495SOL    HW125118   1.239   4.277   0.900  0.5506  0.1795 -0.2664
 4495SOL    HW225119   1.160   4.285   1.029 -0.5977  0.7407 -0.6553
 4496SOL     OW25120   3.921   1.789   6.272 -0.4280 -0.3942  0.0249
 4496SOL    HW125121   3.970   1.813   6.351  0.2335 -0.5712 -0.3325
 4496SOL    HW225122   3.887   1.704   6.300 -2.0605 -0.0386 -0.9078
 4497SOL     OW25123   0.983   2.464   3.050 -0.4287 -0.0781  0.2591
 4497SOL    HW125124   1.055   2.513   3.010 -1.9955  1.3148 -0.8063
 4497SOL    HW225125   1.026   2.385   3.082 -0.2289 -0.2157 -0.3589
 4498SOL     OW25126   4.323   1.315   5.368  0.3254  0.3124  0.0782
 4498SOL    HW125127   4.376   1.393   5.359  1.9496 -0.6796  1.1155
 4498SOL    HW225128   4.273   1.338   5.447  1.3475  2.1647  0.1710
 4499SOL     OW25129   2.901   2.984   7.493  0.3558  0.2267 -0.3190
 4499SOL    HW125130   2.946   3.043   7.434 -0.6675 -0.3567 -1.6705
 4499SOL    HW225131   2.969   2.924   7.525  2.4442  1.0992 -3.1662
 4500SOL     OW25132   2.198   1.489   5.905  0.3480  0.3284  0.0822
 4500SOL    HW125133   2.280   1.537   5.899 -0.1881  1.1884 -0.4143
 4500SOL    HW225134   2.227   1.400   5.882 -1.0732 -0.5389  1.6601
 4501SOL     OW25135   3.863   2.441   3.119 -0.3898  0.6689  0.1818
 4501SOL    HW125136   3.950   2.481   3.128 -0.3101  0.0319  2.2167
 4501SOL    HW225137   3.884   2.349   3.103  1.3655  0.5803  3.0015
 4502SOL     OW25138   0.795   0.391   3.248 -0.2131 -0.7270 -0.0099
 4502SOL    HW125139   0.780   0.485   3.249 -0.0179 -0.6962  0.8765
 4502SOL    HW225140   0.802   0.369   3.156  1.0092  0.7370 -0.2643
 4503SOL     OW25141   4.665   4.567   2.959  0.3208 -0.0843  0.7104
 4503SOL    HW125142   4.626   4.633   3.016  2.2863  2.1163 -0.4889
 4503SOL    HW225143   4.669   4.484   3.008  0.1061 -0.5704 -0.1079
 4504SOL     OW25144   1.191   2.674   4.708 -0.7802  0.3234 -0.3727
 4504SOL    HW125145   1.184   2.629   4.792 -0.7348  1.7612  0.3914
 4504SOL    HW225146   1.142   2.753   4.728 -0.7909 -0.1436  1.4068
 4505SOL     OW25147   3.634   0.499   3.865 -0.1095  0.1678 -0.0886
 4505SOL    HW125148   3.642   0.405   3.848 -1.2353  0.0611 -0.0243
 4505SOL    HW225149   3.728   0.518   3.862 -0.0879  0.3653  1.6967
 4506SOL     OW25150   4.520   4.431   0.111  0.0898 -0.1637  0.2443
 4506SOL    HW125151   4.598   4.486   0.102  0.0054 -0.1883 -0.6135
 4506SOL    HW225152   4.540   4.378   0.188 -1.6853 -0.7145  0.3167
 4507SOL     OW25153   4.176   4.730   8.416  0.1405 -0.2427  0.0013
 4507SOL    HW125154   4.158   0.065   8.481  0.9761 -0.8940  0.9218
 4507SOL    HW225155   4.105   4.669   8.439  0.8296 -1.3032 -0.6752
 4508SOL     OW25156   3.222   1.497   5.482  0.4291  0.1221 -0.1445
 4508SOL    HW125157   3.215   1.413   5.437  0.4897 -0.6155  1.2104
 4508SOL    HW225158   3.262   1.551   5.414 -0.2161 -0.2632 -0.8222
 4509SOL     OW25159   4.282   0.054   5.532  0.9819  0.3490 -0.0114
 4509SOL    HW125160   4.311   0.088   5.447 -3.3518  1.3973 -1.0459
 4509SOL    HW225161   4.317   4.698   5.537 -1.6674 -0.7691 -1.5627
 4510SOL     OW25162   2.250   2.669  10.607  0.0962 -0.0670  0.8692
 4510SOL    HW125163   2.245   2.574  10.595  0.0956 -0.1751  1.7058
 4510SOL    HW225164   2.242   2.695  10.515 -1.1644 -4.4006 -0.2363
 4511SOL     OW25165   2.008   0.744   9.171  0.3869  0.3734 -0.1802
 4511SOL    HW125166   2.083   0.686   9.159  0.9019  0.6877  1.5652
 4511SOL    HW225167   1.979   0.727   9.081  0.6881 -2.1162  0.1755
 4512SOL     OW25168   0.295   4.183  14.432  0.2309 -0.1311 -0.2915
 4512SOL    HW125169   0.206   4.151  14.425 -0.2227  1.8625 -3.3828
 4512SOL    HW225170   0.269   4.255  14.489 -1.7208  1.5007 -3.2740
 4513SOL     OW25171   1.421   3.221   7.321  0.1016  0.8281 -0.5782
 4513SOL    HW125172   1.370   3.143   7.340 -0.6020  0.8572 -2.3939
 4513SOL    HW225173   1.354   3.289   7.314  2.0087  2.9267  1.2750
 4514SOL     OW25174   0.539   1.791   5.463 -0.8538 -0.0950 -0.5123
 4514SOL    HW125175   0.572   1.860   5.406  0.9053 -0.2004  0.3996
 4514SOL    HW225176   0.445   1.806   5.462 -0.5216  1.9348 -1.6421
 4515SOL     OW25177   3.792   4.708   3.122  0.0413  0.0493  0.0643
 4515SOL    HW125178   3.877   0.018   3.122  0.4962 -0.8427  1.2072
 4515SOL    HW225179   3.741   0.051   3.152 -1.2367 -1.0937  0.7886
 4516SOL     OW25180   2.781   4.225   5.501  0.4523 -0.5285  0.3863
 4516SOL    HW125181   2.700   4.184   5.471 -0.3853  1.3897  0.0337
 4516SOL    HW225182   2.750   4.315   5.496 -1.4171 -1.1074  1.5937
 4517SOL     OW25183   0.582   2.854  13.355 -0.1893  0.1065  0.2013
 4517SOL    HW125184   0.621   2.940  13.340 -1.9318  0.5934 -1.5145
 4517SOL    HW225185   0.512   2.887  13.411  0.7353  3.0556 -0.4197
 4518SOL     OW25186   1.603   4.506  16.896  0.1051  0.1819  1.2032
 4518SOL    HW125187   1.576   4.418  16.921 -0.1272 -0.2613 -0.6507
 4518SOL    HW225188   1.519   4.551  16.899  0.0766  0.2239 -0.1812
 4519SOL     OW25189   1.862   0.084   7.327 -0.1374  0.1035 -0.2609
 4519SOL    HW125190   1.772   0.101   7.353 -0.5382 -0.3317 -1.4061
 4519SOL    HW225191   1.879   0.143   7.253  0.6607 -0.3819 -0.4662
 4520SOL     OW25192   4.361   0.216  15.775 -0.1278 -0.1078 -0.2825
 4520SOL    HW125193   4.440   0.237  15.724  0.3344 -3.0974 -0.7797
 4520SOL    HW225194   4.369   0.276  15.850  0.0865  1.7802 -1.8190
 4521SOL     OW25195   0.902   1.491  17.323  0.6871 -0.0810  0.0069
 4521SOL    HW125196   0.826   1.536  17.359  1.1763 -0.8817  2.0134
 4521SOL    HW225197   0.971   1.511  17.385 -0.1052  0.2250  0.7907
 4522SOL     OW25198   0.528   4.371   1.746  0.6168 -0.0481 -0.5002
 4522SOL    HW125199   0.547   4.338   1.834 -1.7252  2.1172  0.8023
 4522SOL    HW225200   0.606   4.332   1.705  0.3995 -1.5403  0.4741
 4523SOL     OW25201   2.355   3.436   9.559  0.3262 -0.3598  0.1460
 4523SOL    HW125202   2.280   3.399   9.514  1.0458  0.2419 -1.5629
 4523SOL    HW225203   2.309   3.489   9.625  2.5599  2.5791 -0.6399
 4524SOL     OW25204   3.077   2.194   8.163 -0.0632  0.1115 -0.0393
 4524SOL    HW125205   2.990   2.205   8.201  1.1799  0.0847  2.8237
 4524SOL    HW225206   3.052   2.126   8.100  2.4225  0.1802 -1.0869
 4525SOL     OW25207   2.157   2.045   9.827  0.3375  0.4038  0.1526
 4525SOL    HW125208   2.194   2.012   9.745 -2.6730  1.8525 -1.7583
 4525SOL    HW225209   2.105   2.119   9.796  0.1616  0.2646  0.1133
 4526SOL     OW25210   4.328   0.729   8.883  0.0918  0.1514  0.2862
 4526SOL    HW125211   4.295   0.640   8.897 -0.0735  0.3413  1.1492
 4526SOL    HW225212   4.243   0.769   8.864  0.5712  0.4355 -1.2174
 4527SOL     OW25213   0.860   2.465   1.025  0.0008  0.0341 -0.1347
 4527SOL    HW125214   0.870   2.447   1.118 -0.4347  1.1569  0.1311
 4527SOL    HW225215   0.887   2.557   1.022  3.6204 -0.9675  2.2191
 4528SOL     OW25216   3.866   1.574   8.073 -0.3798 -0.3859 -0.3168
 4528SOL    HW125217   3.840   1.665   8.061  0.9635 -0.3912 -3.1819
 4528SOL    HW225218   3.939   1.586   8.134 -0.3941 -1.2206 -0.1346
 4529SOL     OW25219   1.695   2.941  10.997 -0.1094 -0.9788 -0.3747
 4529SOL    HW125220   1.615   2.949  11.048  0.1848 -0.6292  0.0350
 4529SOL    HW225221   1.750   2.895  11.061  1.7805  0.2063 -1.1336
 4530SOL     OW25222   1.886   1.305   3.190  0.3252  0.0162  0.0684
 4530SOL    HW125223   1.904   1.283   3.098  0.8869 -1.2741  0.4826
 4530SOL    HW225224   1.869   1.212   3.208 -2.1122  0.3009 -0.6899
 4531SOL     OW25225   0.530   1.270   6.861 -0.0116  0.2683 -0.6011
 4531SOL    HW125226   0.614   1.230   6.883  0.5520  0.5609 -2.2231
 4531SOL    HW225227   0.526   1.246   6.768 -0.0854  3.0132 -1.2986
 4532SOL     OW25228   4.536   4.032   3.060 -0.6792 -0.0912  0.4706
 4532SOL    HW125229   4.549   4.103   3.123  1.5747 -0.1266  0.0576
 4532SOL    HW225230   4.490   4.078   2.990 -1.7253 -1.8611 -0.0028
 4533SOL     OW25231   2.764   0.690   4.648 -0.0370  0.0486  0.1611
 4533SOL    HW125232   2.688   0.747   4.636 -1.0136 -1.5346 -1.3359
 4533SOL    HW225233   2.744   0.619   4.587 -1.0987 -0.4018  1.0155
 4534SOL     OW25234   3.737   2.670   6.273  0.2693  0.0151 -0.5174
 4534SOL    HW125235   3.656   2.698   6.317  0.0873  0.4278 -1.1319
 4534SOL    HW225236   3.753   2.586   6.317 -0.5763 -1.0210 -2.2248
 4535SOL     OW25237   2.995   3.887   4.940  0.1841  0.5976 -0.0617
 4535SOL    HW125238   2.925   3.822   4.939  0.9693 -0.2376 -0.4886
 4535SOL    HW225239   2.946   3.969   4.952  0.6743  0.7734  0.7537
 4536SOL     OW25240   3.871   1.764   1.374 -0.4729  0.1081 -0.2470
 4536SOL    HW125241   3.949   1.821   1.375 -0.2224 -0.2081 -2.6990
 4536SOL    HW225242   3.853   1.763   1.281  3.7855  0.5496 -1.1005
 4537SOL     OW25243   3.812   0.858   0.771 -0.3448  0.3980  0.3408
 4537SOL    HW125244   3.846   0.790   0.829  0.2854 -0.3479 -0.9031
 4537SOL    HW225245   3.721   0.869   0.798 -0.8272 -2.6170  0.0229
 4538SOL     OW25246   1.649   1.482   8.064 -0.6544  0.4012  0.7302
 4538SOL    HW125247   1.709   1.409   8.079 -1.0913  0.0886  0.9659
 4538SOL    HW225248   1.573   1.425   8.051  0.2287 -0.4494 -0.6282
 4539SOL     OW25249   4.320   4.573  12.446  0.1933  0.1292 -0.1974
 4539SOL    HW125250   4.358   4.518  12.515 -0.5302 -1.7818 -1.3148
 4539SOL    HW225251   4.402   4.600  12.406  0.4285  1.1259  0.9594
 4540SOL     OW25252   3.345   4.494   5.167 -0.2739 -0.0274 -0.3871
 4540SOL    HW125253   3.295   4.547   5.104  2.0442  1.4993 -0.9507
 4540SOL    HW225254   3.341   4.414   5.115  2.9105  0.9118 -2.0422
 4541SOL     OW25255   1.784   3.365  14.497  0.7219  0.6182  0.0935
 4541SOL    HW125256   1.819   3.291  14.547  1.7911  1.0362 -0.0438
 4541SOL    HW225257   1.792   3.328  14.408 -0.1827 -0.4470  0.4498
 4542SOL     OW25258   1.891   0.015   8.689 -0.1993  0.6703 -0.6077
 4542SOL    HW125259   1.908   4.731   8.782 -0.9969  1.0751 -0.3887
 4542SOL    HW225260   1.982   0.023   8.662  0.4419  3.4935  2.4541
 4543SOL     OW25261   2.343   0.773   3.803  0.1121 -0.0680  0.3162
 4543SOL    HW125262   2.307   0.685   3.799 -1.1750  0.4745  0.0089
 4543SOL    HW225263   2.270   0.823   3.839 -0.9695 -1.2982 -0.1783
 4544SOL     OW25264   2.233   2.929   0.024 -0.8027 -0.0740 -0.5096
 4544SOL    HW125265   2.305   2.974  17.710 -1.4835  0.6074 -0.9219
 4544SOL    HW225266   2.268   2.840   0.031 -1.2315 -0.1482  0.7196
 4545SOL     OW25267   3.161   0.247   2.166  0.0683 -0.1595  0.1147
 4545SOL    HW125268   3.190   0.240   2.257  2.6286  3.8011 -0.4408
 4545SOL    HW225269   3.076   0.290   2.177 -0.1510  0.1775 -2.7931
 4546SOL     OW25270   2.703   1.351  14.335  0.5736  0.3106 -0.2871
 4546SOL    HW125271   2.683   1.265  14.298 -1.8672  1.4814 -1.7434
 4546SOL    HW225272   2.776   1.327  14.392  0.4076  1.0401  0.2385
 4547SOL     OW25273   3.793   0.831   9.006  0.0647  0.0022  0.1332
 4547SOL    HW125274   3.754   0.803   9.089 -0.4353  3.4997  1.0453
 4547SOL    HW225275   3.767   0.923   9.001 -0.5785 -0.1029  1.5941
 4548SOL     OW25276   2.655   1.400   5.615 -0.6503 -0.7717 -0.1861
 4548SOL    HW125277   2.747   1.382   5.598  0.4307  3.8480  0.8477
 4548SOL    HW225278   2.658   1.495   5.615 -0.4695 -0.7776  0.7880
 4549SOL     OW25279   2.284   3.131   6.345 -0.3938  0.6408  0.1759
 4549SOL    HW125280   2.238   3.051   6.320 -0.4774  0.0210  2.2727
 4549SOL    HW225281   2.358   3.082   6.381 -1.0033 -0.1043  0.4193
 4550SOL     OW25282   2.317   2.494   6.816 -0.1070  0.0060  0.5332
 4550SOL    HW125283   2.342   2.405   6.793 -1.7566 -0.8641  2.1260
 4550SOL    HW225284   2.226   2.479   6.843 -0.5420  0.7908 -0.4559
 4551SOL     OW25285   3.722   3.313   9.561 -0.1831  0.1195  0.2822
 4551SOL    HW125286   3.669   3.243   9.522 -0.1786  0.5235 -0.4538
 4551SOL    HW225287   3.661   3.383   9.582  0.3247  0.1781  1.5701
 4552SOL     OW25288   2.694   3.447   7.513 -0.6322  0.0621  0.0634
 4552SOL    HW125289   2.728   3.485   7.595 -0.2643 -0.9671  0.3896
 4552SOL    HW225290   2.657   3.364   7.542  1.5105 -0.6758  0.6617
 4553SOL     OW25291   0.148   4.357  14.572  0.1037  0.2252 -0.0399
 4553SOL    HW125292   0.133   4.361  14.667  1.5580 -0.2199  0.2053
 4553SOL    HW225293   0.082   4.293  14.548  0.0360 -0.0719  0.9437
 4554SOL     OW25294   0.449   2.781   6.551 -0.4183 -0.9553  0.2853
 4554SOL    HW125295   0.445   2.864   6.503 -1.8277 -0.5783  1.0504
 4554SOL    HW225296   0.355   2.765   6.560 -0.6826  1.1179  1.2503
 4555SOL     OW25297   4.207   3.983   2.085 -0.1493  0.2102 -0.5915
 4555SOL    HW125298   4.208   4.073   2.052  1.7587 -0.5785 -2.6482
 4555SOL    HW225299   4.294   3.959   2.117  0.9081  1.2617 -2.6589
 4556SOL     OW25300   2.278   1.649  15.862 -0.1473 -0.1671 -0.1595
 4556SOL    HW125301   2.364   1.650  15.904 -0.8273 -0.5283  1.2696
 4556SOL    HW225302   2.275   1.740  15.832 -1.1989 -0.4415 -0.9072
 4557SOL     OW25303   1.526   4.445  15.065 -0.3998  0.0017 -0.0150
 4557SOL    HW125304   1.618   4.437  15.039 -0.2736  0.1726  0.3804
 4557SOL    HW225305   1.515   4.355  15.096 -0.9973  0.2498  0.4812
 4558SOL     OW25306   0.328   1.690   3.356 -0.5061 -0.4117 -0.6458
 4558SOL    HW125307   0.256   1.640   3.395 -0.2117  1.4116  2.2759
 4558SOL    HW225308   0.276   1.762   3.320  2.7269  1.4182 -1.6985
 4559SOL     OW25309   1.919   3.583   7.088 -0.0024  0.2288 -0.4214
 4559SOL    HW125310   1.892   3.665   7.048  1.8513  0.4075 -1.3293
 4559SOL    HW225311   1.901   3.530   7.011 -0.9531 -0.6299  0.3918
 4560SOL     OW25312   1.666   1.704  13.080  0.7010  0.9821  0.5255
 4560SOL    HW125313   1.758   1.678  13.088  0.4609 -0.6659 -2.0640
 4560SOL    HW225314   1.665   1.710  12.985 -4.4326  0.5337  0.5382
 4561SOL     OW25315   3.764   4.504  15.180  0.1949 -0.4227  0.8170
 4561SOL    HW125316   3.706   4.556  15.236 -0.0194  1.6865 -1.3425
 4561SOL    HW225317   3.845   4.519  15.229 -0.5545  0.8559  1.6658
 4562SOL     OW25318   1.548   0.461   3.129  0.2342  0.2412  0.1929
 4562SOL    HW125319   1.522   0.553   3.141  1.0798  0.1575  2.7877
 4562SOL    HW225320   1.532   0.447   3.036 -2.9058 -0.0280  0.7701
 4563SOL     OW25321   2.821   1.997   6.264  0.1095 -0.3586 -0.2650
 4563SOL    HW125322   2.896   2.025   6.212  0.5846 -0.0121  0.6205
 4563SOL    HW225323   2.859   1.946   6.335  0.5141  1.8151  1.0652
 4564SOL     OW25324   4.587   4.596   2.344  0.0954  0.3553 -0.4935
 4564SOL    HW125325   4.493   4.603   2.329  0.2340  1.1210 -1.0134
 4564SOL    HW225326   4.590   4.556   2.431 -0.7702  1.0599 -0.1386
 4565SOL     OW25327   0.189   2.791   4.576 -0.0891 -0.3185 -0.1148
 4565SOL    HW125328   0.103   2.761   4.605 -0.1842  1.1361  1.1088
 4565SOL    HW225329   0.252   2.756   4.639  1.0167 -0.2734 -1.1800
 4566SOL     OW25330   2.997   3.115   9.004  0.4732  0.4290  0.7682
 4566SOL    HW125331   3.049   3.065   8.941  0.5413  0.4798  0.7832
 4566SOL    HW225332   2.934   3.054   9.041 -2.4889  0.3953 -4.2710
 4567SOL     OW25333   1.037   3.147   6.252 -0.0558  0.0158 -0.4997
 4567SOL    HW125334   1.059   3.068   6.203 -0.2947  0.8306 -1.9210
 4567SOL    HW225335   0.953   3.130   6.293 -1.3180  0.6542 -2.8021
 4568SOL     OW25336   1.908   3.267   2.942 -0.0150  0.0885  0.5095
 4568SOL    HW125337   1.960   3.321   3.001  2.5962 -1.1397 -0.6744
 4568SOL    HW225338   1.917   3.182   2.984 -1.4602 -0.4189 -0.1992
 4569SOL     OW25339   2.355   2.769   3.555  1.0227 -0.2207 -0.5299
 4569SOL    HW125340   2.339   2.862   3.569 -0.7133 -0.9738  2.4197
 4569SOL    HW225341   2.450   2.764   3.570  0.9115 -0.1066  0.2157
 4570SOL     OW25342   1.888   2.805  14.050  0.6523  0.2700  0.3713
 4570SOL    HW125343   1.896   2.897  14.076 -2.7153  0.7225 -0.2363
 4570SOL    HW225344   1.854   2.771  14.133 -0.5214 -0.0088 -0.2318
 4571SOL     OW25345   4.093   0.638   5.165  0.2640  0.4178  0.0030
 4571SOL    HW125346   4.040   0.570   5.123  2.1900 -0.2710 -1.3263
 4571SOL    HW225347   4.062   0.710   5.110  0.3897  0.0084 -0.5977
 4572SOL     OW25348   3.152   1.471  11.807  0.6650  0.4880  0.3664
 4572SOL    HW125349   3.245   1.479  11.783  0.6150  0.8289  0.2936
 4572SOL    HW225350   3.114   1.544  11.759 -0.8234  0.0555  0.8787
 4573SOL     OW25351   3.074   3.672  13.155  0.2435 -0.0702  0.1398
 4573SOL    HW125352   3.121   3.744  13.197 -0.8076  0.2567  0.7650
 4573SOL    HW225353   3.107   3.679  13.066  0.0512 -0.3187  0.0459
 4574SOL     OW25354   0.608   4.432   5.985 -0.1244 -0.2758  0.0241
 4574SOL    HW125355   0.566   4.518   5.974  0.5397 -0.2443 -2.3246
 4574SOL    HW225356   0.618   4.419   6.079  1.0016 -1.1371 -0.2243
 4575SOL     OW25357   3.670   0.423   3.120  0.1321  0.3972 -0.4708
 4575SOL    HW125358   3.725   0.490   3.079 -1.5837  1.7558 -0.5286
 4575SOL    HW225359   3.664   0.362   3.047 -0.0988 -0.8318  0.5775
 4576SOL     OW25360   3.771   0.338   2.642  0.5846  0.0436  0.1684
 4576SOL    HW125361   3.719   0.369   2.716 -0.8990  2.1003 -1.7496
 4576SOL    HW225362   3.853   0.388   2.644  0.4435  0.3627 -2.8798
 4577SOL     OW25363   2.493   2.142   4.275 -0.0131 -0.2931 -0.2309
 4577SOL    HW125364   2.462   2.129   4.365  1.0657  1.3335  0.3605
 4577SOL    HW225365   2.423   2.199   4.243 -0.0388 -0.0155  0.3236
 4578SOL     OW25366   0.622   4.269   2.956  0.7252  0.3078 -1.0145
 4578SOL    HW125367   0.605   4.362   2.972  0.1469  0.1739 -0.8273
 4578SOL    HW225368   0.612   4.253   2.862  0.6292  1.0959 -1.1405
 4579SOL     OW25369   2.426   4.243  13.365 -0.2724  0.2326 -0.1663
 4579SOL    HW125370   2.520   4.256  13.357 -0.3532 -0.3526 -2.3253
 4579SOL    HW225371   2.389   4.323  13.328  1.6820  2.1911  2.1064
 4580SOL     OW25372   2.151   0.535   3.178  0.8460 -0.3080  0.4127
 4580SOL    HW125373   2.144   0.577   3.263  0.1398 -0.2465  0.3224
 4580SOL    HW225374   2.177   0.609   3.123  1.6555 -2.0651 -1.6058
 4581SOL     OW25375   4.135   0.696   2.798 -0.5667 -0.6308 -0.0354
 4581SOL    HW125376   4.201   0.692   2.867 -0.2280  0.6157 -0.2775
 4581SOL    HW225377   4.116   0.790   2.805 -0.7875 -0.5732 -1.4909
 4582SOL     OW25378   0.974   0.126   8.026 -0.6249  0.3521 -0.7325
 4582SOL    HW125379   0.889   0.083   8.032 -0.4246  0.1515  0.7785
 4582SOL    HW225380   0.949   0.217   8.041 -0.3424  0.0820  1.4113
 4583SOL     OW25381   4.068   3.084   5.530 -0.2395  0.0310  0.3385
 4583SOL    HW125382   4.049   3.118   5.618 -2.1433  0.6679 -0.3145
 4583SOL    HW225383   3.979   3.076   5.496 -0.6276 -1.5518  1.7213
 4584SOL     OW25384   0.026   1.595   5.144 -0.1183  0.0940  0.0638
 4584SOL    HW125385   4.697   1.668   5.150  0.2500  0.5180 -1.3984
 4584SOL    HW225386   0.108   1.642   5.134  1.4758 -3.2522 -2.7206
 4585SOL     OW25387   3.993   0.402  10.039 -0.6144 -0.8497 -0.5630
 4585SOL    HW125388   3.960   0.316  10.013 -0.5402 -1.2348  0.5945
 4585SOL    HW225389   4.003   0.392  10.134 -0.6857 -2.4028 -0.7140
 4586SOL     OW25390   0.682   3.597  15.367 -0.5246  0.3131  0.2447
 4586SOL    HW125391   0.652   3.568  15.281 -0.2796  0.6341  0.0516
 4586SOL    HW225392   0.763   3.546  15.370  1.7447  3.7920 -2.2011
 4587SOL     OW25393   4.662   1.126   6.797 -0.0958  0.1746  0.0105
 4587SOL    HW125394   4.706   1.101   6.716  0.9818  1.5135  0.1732
 4587SOL    HW225395   4.570   1.111   6.777  0.2053  0.3251 -1.5034
 4588SOL     OW25396   1.494   0.718   5.562 -0.0435 -0.0406 -0.1385
 4588SOL    HW125397   1.501   0.626   5.589 -1.4406 -0.2208 -0.4094
 4588SOL    HW225398   1.519   0.769   5.639 -0.1377  0.1339 -0.2253
 4589SOL     OW25399   3.694   1.133  13.838  0.1747  0.3926  0.2139
 4589SOL    HW125400   3.725   1.220  13.812  1.2580  0.1714  0.7585
 4589SOL    HW225401   3.755   1.126  13.912  1.7050 -0.2310 -1.1154
 4590SOL     OW25402   3.944   1.870   1.775  0.4409 -0.1247  0.4030
 4590SOL    HW125403   3.869   1.900   1.723 -0.1503 -0.9658  0.7618
 4590SOL    HW225404   3.903   1.801   1.828 -2.1802  0.9551 -0.2220
 4591SOL     OW25405   3.137   2.369   4.426 -0.1338 -0.1569  0.9847
 4591SOL    HW125406   3.105   2.284   4.398 -1.1131  0.8070 -0.8165
 4591SOL    HW225407   3.053   2.407   4.452  0.0090  0.7948  0.0517
 4592SOL     OW25408   0.046   1.143   4.554  0.1942 -0.0012 -0.1924
 4592SOL    HW125409   0.131   1.118   4.591  0.3346  0.2190 -0.3666
 4592SOL    HW225410   0.050   1.236   4.532  0.3643  0.2226  0.8226
 4593SOL     OW25411   4.413   2.087  14.382  0.2936 -0.2582 -0.1871
 4593SOL    HW125412   4.497   2.132  14.384 -0.5009  1.1098  2.1320
 4593SOL    HW225413   4.432   2.008  14.432  0.4593 -0.5422 -0.6967
 4594SOL     OW25414   3.324   1.761   4.357 -0.3523  0.1231 -0.1013
 4594SOL    HW125415   3.356   1.680   4.398  0.6171  0.8149  0.5212
 4594SOL    HW225416   3.232   1.763   4.383 -0.5327  0.4037 -0.7717
 4595SOL     OW25417   1.800   2.361  16.662  0.3071  0.2063  0.3341
 4595SOL    HW125418   1.873   2.405  16.705  0.7961  0.3757 -0.6754
 4595SOL    HW225419   1.771   2.428  16.601  1.9061 -0.9230 -1.6598
 4596SOL     OW25420   2.070   3.727   7.712  0.2644  0.4486  0.4246
 4596SOL    HW125421   2.062   3.771   7.628 -2.3059 -0.5289  0.1456
 4596SOL    HW225422   1.993   3.671   7.723 -0.1435  0.9568  0.1438
 4597SOL     OW25423   3.179   4.624   5.001 -0.1757 -0.4224  0.3334
 4597SOL    HW125424   3.085   4.617   5.021 -0.6286 -1.8940 -2.2778
 4597SOL    HW225425   3.187   4.640   4.907 -0.8103  0.6341  0.4622
 4598SOL     OW25426   2.739   4.234   2.442  0.1553 -0.0965 -0.0970
 4598SOL    HW125427   2.764   4.200   2.355 -1.4656  0.8925 -0.9480
 4598SOL    HW225428   2.706   4.322   2.422  1.3675  0.3737 -0.0048
 4599SOL     OW25429   3.406   4.597   5.775 -0.1330  0.6957  0.0141
 4599SOL    HW125430   3.417   4.527   5.839  0.7143  1.3892  0.6185
 4599SOL    HW225431   3.314   4.618   5.793  0.6867  1.6280  3.0004
 4600SOL     OW25432   0.081   4.109   8.954  0.4659  0.1378 -0.5072
 4600SOL    HW125433   0.136   4.072   8.885  0.2338 -2.2936  0.6028
 4600SOL    HW225434   0.142   4.113   9.028 -1.0995  2.6839  0.6258
 4601SOL     OW25435   0.324   3.507   3.469  0.6579 -0.3564  0.1566
 4601SOL    HW125436   0.235   3.540   3.465  0.9390  0.5909  1.8023
 4601SOL    HW225437   0.333   3.542   3.557  1.9330  0.7491 -0.4064
 4602SOL     OW25438   3.713   4.245   8.499 -0.1053 -0.2587  0.3216
 4602SOL    HW125439   3.800   4.269   8.532 -0.7425 -0.3727  2.0657
 4602SOL    HW225440   3.723   4.238   8.404  0.4614 -0.9083  0.4343
 4603SOL     OW25441   2.674   3.648  12.876 -0.4761 -0.2326 -0.3505
 4603SOL    HW125442   2.596   3.677  12.922 -0.8735  1.0353 -1.8262
 4603SOL    HW225443   2.655   3.556  12.856 -0.1967 -0.4991  0.5937
 4604SOL     OW25444   2.394   1.325  16.555  0.1281 -0.8154 -0.4736
 4604SOL    HW125445   2.370   1.386  16.625  2.1280 -1.3814  0.6964
 4604SOL    HW225446   2.316   1.273  16.534  0.7348 -2.2628  0.8813
 4605SOL     OW25447   0.040   0.862   7.337 -0.2285  0.3513  0.3583
 4605SOL    HW125448   4.730   0.871   7.423 -2.7066  1.9109 -1.0381
 4605SOL    HW225449   4.727   0.927   7.284 -0.6081  1.5852  2.1826
 4606SOL     OW25450   1.954   3.285   6.701 -1.0645  0.2628 -0.6311
 4606SOL    HW125451   2.035   3.324   6.735 -1.1238  0.5975 -0.8767
 4606SOL    HW225452   1.967   3.303   6.608 -1.8343  1.6279 -0.4766
 4607SOL     OW25453   3.034   0.430   1.364 -0.1381  0.3246  0.4976
 4607SOL    HW125454   2.975   0.382   1.306  0.7251  1.0658 -0.9970
 4607SOL    HW225455   3.122   0.395   1.350 -0.9147 -1.6737  0.5506
 4608SOL     OW25456   4.010   2.280  10.148 -0.0271 -0.2788 -0.4861
 4608SOL    HW125457   4.089   2.306  10.195  0.1690 -1.5161 -0.1085
 4608SOL    HW225458   4.045   2.288  10.060  1.3246  0.3177  0.1123
 4609SOL     OW25459   4.578   1.411   5.825  0.0751  0.6261  0.2106
 4609SOL    HW125460   4.550   1.320   5.819 -0.5128  0.6561  2.5700
 4609SOL    HW225461   4.536   1.429   5.909  0.2789 -1.6331  0.7896
 4610SOL     OW25462   2.049   1.048   2.490 -0.2641  0.2120  0.0358
 4610SOL    HW125463   1.989   1.113   2.525 -0.7061  1.1856 -2.5524
 4610SOL    HW225464   2.024   1.041   2.398 -1.0074  2.2370  0.0896
 4611SOL     OW25465   3.015   0.109   0.148 -0.0562 -0.0224 -0.2287
 4611SOL    HW125466   2.979   0.197   0.137  0.8452  0.1001 -2.1560
 4611SOL    HW225467   3.075   0.122   0.221  0.4179  1.1723 -0.8297
 4612SOL     OW25468   3.480   1.760   5.841  0.1192 -0.3237 -0.5767
 4612SOL    HW125469   3.427   1.764   5.761 -2.3793 -0.5357  1.0617
 4612SOL    HW225470   3.485   1.665   5.846  0.0569 -0.3920 -1.9319
 4613SOL     OW25471   3.757   2.127  15.657  0.4936  0.0860  0.1015
 4613SOL    HW125472   3.714   2.066  15.717  0.2210 -0.1816 -0.3656
 4613SOL    HW225473   3.700   2.202  15.673  0.7294 -0.1656  2.1248
 4614SOL     OW25474   0.196   3.997   3.835  0.5099  0.5720 -0.7316
 4614SOL    HW125475   0.262   3.942   3.792 -2.5324 -2.0489 -2.0829
 4614SOL    HW225476   0.123   3.935   3.838  2.9723 -2.2917  0.8284
 4615SOL     OW25477   2.491   0.781   5.562 -0.3152 -0.2471  0.5677
 4615SOL    HW125478   2.430   0.837   5.515 -1.1780  0.2704  2.2883
 4615SOL    HW225479   2.470   0.809   5.651 -2.7471 -0.6104  0.1071
 4616SOL     OW25480   3.723   3.874   4.594 -0.2191 -0.5462  0.5330
 4616SOL    HW125481   3.802   3.881   4.648 -0.0150  1.4029 -0.0231
 4616SOL    HW225482   3.761   3.905   4.512  1.9509  0.1191  1.7882
 4617SOL     OW25483   1.423   4.512   0.643  0.7001  0.0865 -0.1896
 4617SOL    HW125484   1.494   4.552   0.592  0.6283 -0.5234 -0.7657
 4617SOL    HW225485   1.472   4.473   0.715  1.7324  2.1351  0.2202
 4618SOL     OW25486   0.900   2.370  17.703  0.0876 -0.3445 -0.2087
 4618SOL    HW125487   0.969   2.305  17.692 -0.0882 -0.7365  1.0005
 4618SOL    HW225488   0.950   2.441  17.661 -0.2996  0.2929  0.4026
 4619SOL     OW25489   1.880   3.696   6.669 -0.2277  0.2279 -0.7049
 4619SOL    HW125490   1.849   3.646   6.593  0.0104 -2.3897  0.9517
 4619SOL    HW225491   1.923   3.769   6.624  0.7343 -1.4351 -2.4701
 4620SOL     OW25492   2.676   4.558   3.849 -0.4292  0.4587  0.8661
 4620SOL    HW125493   2.676   4.539   3.943 -1.4538  2.4111  1.2698
 4620SOL    HW225494   2.585   4.580   3.829 -0.1143  1.4240  0.4794
 4621SOL     OW25495   2.693   4.653   6.069 -0.2478  0.3283 -0.2329
 4621SOL    HW125496   2.629   4.718   6.040 -1.3618 -0.3391  0.7665
 4621SOL    HW225497   2.646   4.620   6.145  1.9561  0.0041  1.0036
 4622SOL     OW25498   0.073   1.241   3.721  0.1084 -0.4911  0.4988
 4622SOL    HW125499   0.094   1.152   3.694 -0.5372 -0.4842 -0.0408
 4622SOL    HW225500   4.729   1.250   3.664  1.1078  2.1949 -0.4306
 4623SOL     OW25501   0.375   0.282   2.726  0.0019 -0.0932 -0.0950
 4623SOL    HW125502   0.383   0.321   2.813  0.4899 -0.0185 -0.1704
 4623SOL    HW225503   0.315   0.345   2.686  1.9140  1.1018 -1.0984
 4624SOL     OW25504   2.250   1.100  15.141 -0.3672 -0.0059 -0.8061
 4624SOL    HW125505   2.214   1.011  15.143  0.4372 -0.3942 -3.1836
 4624SOL    HW225506   2.336   1.071  15.110 -0.7074 -1.2332 -0.5925
 4625SOL     OW25507   3.524   2.952   1.263 -0.2029 -0.0754  0.0551
 4625SOL    HW125508   3.597   2.939   1.202 -1.2111 -0.4945 -1.0485
 4625SOL    HW225509   3.456   2.983   1.203 -0.0928  0.1303  0.0350
 4626SOL     OW25510   2.961   0.066   7.540  0.7311 -0.3011 -0.3485
 4626SOL    HW125511   3.017   0.006   7.491 -0.1610 -1.0406 -0.4620
 4626SOL    HW225512   3.029   0.121   7.580  0.6667 -0.0812 -0.5388
 4627SOL     OW25513   1.300   3.692   1.846  0.5534 -0.2304 -0.9989
 4627SOL    HW125514   1.309   3.762   1.910 -0.5808 -1.1010  0.0903
 4627SOL    HW225515   1.300   3.618   1.906  0.2711  1.4833  1.0979
 4628SOL     OW25516   2.643   2.707  13.590  0.3191 -0.4273 -0.6327
 4628SOL    HW125517   2.681   2.657  13.662 -2.5450 -2.9012 -0.8139
 4628SOL    HW225518   2.687   2.791  13.580 -0.3347 -0.4262 -3.6415
 4629SOL     OW25519   2.220   1.774   1.623  0.2624  0.2345  0.8735
 4629SOL    HW125520   2.252   1.848   1.572  0.6804 -0.3301  0.3154
 4629SOL    HW225521   2.128   1.796   1.636 -0.1687 -2.4051  2.4178
 4630SOL     OW25522   0.789   4.343   6.474 -0.4829 -0.4812 -0.3416
 4630SOL    HW125523   0.881   4.319   6.460  0.7495  2.6381  2.4674
 4630SOL    HW225524   0.790   4.438   6.480 -2.0128 -0.5886  1.6612
 4631SOL     OW25525   2.383   1.047  13.904 -0.1614  0.1646  0.6912
 4631SOL    HW125526   2.463   1.083  13.943 -0.9551  0.8169  1.6998
 4631SOL    HW225527   2.407   0.955  13.891 -0.3716  0.1823  0.1855
 4632SOL     OW25528   0.818   2.684   3.947  0.2332 -0.4296  0.6146
 4632SOL    HW125529   0.750   2.655   3.887 -0.0970  0.2595  0.6625
 4632SOL    HW225530   0.794   2.775   3.959  1.2936 -0.0975  0.2182
 4633SOL     OW25531   3.799   2.646   3.312  0.3042 -0.0074  0.3070
 4633SOL    HW125532   3.891   2.664   3.330  0.2483  1.5173 -0.9178
 4633SOL    HW225533   3.794   2.579   3.244 -0.7700  0.8152 -0.4314
 4634SOL     OW25534   4.300   2.504   7.873  0.0643 -0.0414 -0.4449
 4634SOL    HW125535   4.342   2.526   7.790  1.8436 -0.7561  0.2672
 4634SOL    HW225536   4.363   2.510   7.945  0.1941  1.1328 -0.6584
 4635SOL     OW25537   2.870   3.038  15.902 -0.0476 -0.0871 -0.4353
 4635SOL    HW125538   2.835   3.126  15.888  1.1098  0.2939 -0.8786
 4635SOL    HW225539   2.848   2.988  15.823 -0.8419  1.3723 -1.1397
 4636SOL     OW25540   0.490   1.731   2.299  0.1349  0.0253  0.1826
 4636SOL    HW125541   0.495   1.658   2.237  0.1736 -2.1344  2.7240
 4636SOL    HW225542   0.561   1.789   2.270  1.1059 -1.1532  0.1528
 4637SOL     OW25543   3.805   4.488  17.323 -0.2626  0.6450 -0.8994
 4637SOL    HW125544   3.841   4.573  17.348 -0.1517  0.6142 -0.9531
 4637SOL    HW225545   3.793   4.507  17.230 -0.9391  0.8246 -0.7721
 4638SOL     OW25546   1.434   3.539   2.076 -0.3476  0.1390 -0.3331
 4638SOL    HW125547   1.512   3.483   2.084 -0.8452 -0.4885  0.1351
 4638SOL    HW225548   1.463   3.620   2.118 -1.1986 -0.3809  1.2704
 4639SOL     OW25549   3.845   2.543   4.481  0.0223 -0.4777  0.2369
 4639SOL    HW125550   3.815   2.454   4.464  2.2880 -1.1689 -0.1205
 4639SOL    HW225551   3.778   2.597   4.438 -0.5520  0.5669  2.3882
 4640SOL     OW25552   2.429   4.501  12.431 -0.1461 -0.0001 -0.9307
 4640SOL    HW125553   2.468   4.529  12.514  0.2551  1.5097 -1.6302
 4640SOL    HW225554   2.510   4.470  12.390  0.0659 -1.4873  0.6361
 4641SOL     OW25555   3.227   1.391   4.435 -0.5518  0.6299 -0.0298
 4641SOL    HW125556   3.201   1.470   4.482 -0.7095 -0.0681  1.0659
 4641SOL    HW225557   3.259   1.330   4.502  2.3249 -0.8631 -2.7482
 4642SOL     OW25558   2.426   2.450  14.704 -0.6606  0.3626 -0.1106
 4642SOL    HW125559   2.392   2.404  14.627 -0.0919 -1.1243  0.5252
 4642SOL    HW225560   2.478   2.518  14.661  0.2062 -2.2408 -3.1464
 4643SOL     OW25561   4.282   1.172  12.680  0.0780 -0.1922 -0.1537
 4643SOL    HW125562   4.287   1.078  12.661 -1.7017 -0.6556  1.7511
 4643SOL    HW225563   4.293   1.162  12.774  1.0444  3.2247  0.0843
 4644SOL     OW25564   1.863   4.167   8.082  0.3987  0.0364 -0.3015
 4644SOL    HW125565   1.949   4.170   8.040  0.2433  1.4442 -0.4981
 4644SOL    HW225566   1.845   4.073   8.076  1.7028 -0.3312  1.6989
 4645SOL     OW25567   0.781   2.495   7.654  0.0664  0.5093 -0.1022
 4645SOL    HW125568   0.841   2.420   7.661 -0.1348  0.3948  0.4221
 4645SOL    HW225569   0.721   2.480   7.728  1.4021 -1.7919  0.5315
 4646SOL     OW25570   1.171   1.602   0.170  0.1225  0.0198 -0.2366
 4646SOL    HW125571   1.198   1.642   0.088  3.9597  1.0910  1.5681
 4646SOL    HW225572   1.253   1.579   0.212 -0.2201 -0.9878 -0.1203
 4647SOL     OW25573   2.568   3.336   8.778 -0.3622 -0.5773  0.1805
 4647SOL    HW125574   2.564   3.296   8.865 -1.5799  0.0246  0.4017
 4647SOL    HW225575   2.642   3.288   8.741  2.5473  3.9539  0.1553
 4648SOL     OW25576   3.016   1.586   9.289  0.0032  0.2929  0.1359
 4648SOL    HW125577   3.003   1.568   9.382 -0.1345  3.2410  0.7113
 4648SOL    HW225578   3.111   1.580   9.287  0.1595  1.2688  3.5221
 4649SOL     OW25579   0.926   3.960  13.686 -0.0515 -0.5816 -0.1554
 4649SOL    HW125580   0.864   3.959  13.759 -1.2868  0.2826 -1.1958
 4649SOL    HW225581   0.900   3.879  13.641 -0.3375 -1.2388  1.1891
 4650SOL     OW25582   2.587   3.353   2.251 -0.4532  0.3426 -0.1616
 4650SOL    HW125583   2.643   3.407   2.195 -0.1360 -2.2024 -2.3037
 4650SOL    HW225584   2.653   3.298   2.294 -1.0933 -0.5785 -0.3515
 4651SOL     OW25585   0.283   3.288   5.890  0.6916  0.2998  0.3123
 4651SOL    HW125586   0.310   3.320   5.976 -1.5194  0.4451  0.9575
 4651SOL    HW225587   0.371   3.286   5.852 -0.0023  1.0689 -1.3570
 4652SOL     OW25588   3.640   0.501   3.375 -0.0711  0.1608  0.1988
 4652SOL    HW125589   3.640   0.411   3.408 -1.4188 -0.2612 -0.9483
 4652SOL    HW225590   3.641   0.487   3.280  0.5527  2.4922 -0.1289
 4653SOL     OW25591   1.616   1.408   3.005 -0.2562  0.5812 -0.3393
 4653SOL    HW125592   1.690   1.348   2.992  0.6443  1.7318 -0.5848
 4653SOL    HW225593   1.658   1.490   2.978  1.2492  0.3603  1.3129
 4654SOL     OW25594   2.041   0.198   2.325  0.4386  0.1900 -0.1884
 4654SOL    HW125595   1.977   0.268   2.312 -0.0295 -0.3507 -0.8614
 4654SOL    HW225596   2.011   0.148   2.401  3.4020 -2.3246 -0.6878
 4655SOL     OW25597   2.601   2.040  13.530 -0.0295  0.0407  0.1190
 4655SOL    HW125598   2.632   2.123  13.492  2.2683  0.4008  2.7780
 4655SOL    HW225599   2.516   2.067  13.563 -0.0043  0.0408  0.1833
 4656SOL     OW25600   0.711   0.039   5.129  0.0381  0.2412  0.0349
 4656SOL    HW125601   0.658   4.694   5.112  1.6359 -1.0407  0.8228
 4656SOL    HW225602   0.669   0.114   5.086  1.1412  1.5299  1.1846
 4657SOL     OW25603   2.561   2.674  14.544  0.3262 -0.3246 -0.2766
 4657SOL    HW125604   2.589   2.745  14.486 -3.6167  0.3692 -1.3264
 4657SOL    HW225605   2.611   2.678  14.625  0.4586 -1.2768 -0.3178
 4658SOL     OW25606   4.101   2.622  13.595  0.0100 -0.2312  0.1941
 4658SOL    HW125607   4.073   2.537  13.630 -0.2545  0.5753  1.9452
 4658SOL    HW225608   4.164   2.653  13.660  1.4967  0.7741 -1.7188
 4659SOL     OW25609   3.984   1.495  16.725  0.3325  0.1656  0.1251
 4659SOL    HW125610   3.917   1.561  16.740  2.8583  2.6984  0.2965
 4659SOL    HW225611   4.041   1.549  16.671  0.9895 -2.2027 -1.5689
 4660SOL     OW25612   4.606   4.469   2.569  0.5939  0.2728  0.0099
 4660SOL    HW125613   4.684   4.413   2.578  0.4711  0.0920 -0.0525
 4660SOL    HW225614   4.599   4.510   2.655  1.4922  2.0028 -0.7241
 4661SOL     OW25615   2.093   1.953   9.276 -0.5357  0.1190  0.1803
 4661SOL    HW125616   2.132   1.961   9.189 -0.7713 -1.9840 -0.1209
 4661SOL    HW225617   2.047   2.035   9.262  2.2348  1.3917 -1.6002
 4662SOL     OW25618   1.133   3.944   5.085  0.1344 -0.2109  0.4243
 4662SOL    HW125619   1.194   4.009   5.118  0.3494 -0.5140  0.6183
 4662SOL    HW225620   1.055   3.997   5.067  0.1618  0.0618  1.1003
 4663SOL     OW25621   0.887   3.880   0.816 -0.1453 -0.3522  0.0102
 4663SOL    HW125622   0.973   3.920   0.805  0.0454 -0.2805  1.9313
 4663SOL    HW225623   0.906   3.803   0.870 -1.4088 -3.0041 -3.2494
 4664SOL     OW25624   2.965   3.280   1.339  0.3808  0.0817  0.0093
 4664SOL    HW125625   2.959   3.248   1.249  0.5250  0.5323 -0.1589
 4664SOL    HW225626   2.954   3.372   1.316 -1.1519 -0.0472  0.2245
 4665SOL     OW25627   4.710   4.022  11.458  0.1374  0.4396 -0.2116
 4665SOL    HW125628   4.719   4.113  11.430 -0.6674  0.8191  0.7846
 4665SOL    HW225629   4.659   4.025  11.538 -0.2789  3.7767 -0.6127
 4666SOL     OW25630   3.133   1.390   1.375 -0.4374 -0.3839  0.4684
 4666SOL    HW125631   3.217   1.353   1.402 -0.2546  1.3555  2.2881
 4666SOL    HW225632   3.076   1.320   1.407  1.2044 -1.4961  0.9848
 4667SOL     OW25633   0.567   1.633   3.260  0.0959 -0.0572  0.0524
 4667SOL    HW125634   0.615   1.672   3.333  0.7732 -0.8893  0.0489
 4667SOL    HW225635   0.479   1.663   3.281 -0.0240 -0.0918 -0.4022
 4668SOL     OW25636   4.133   2.113   3.032 -0.3036  0.1443  0.3838
 4668SOL    HW125637   4.167   2.027   3.058 -0.6518  0.0842  0.6321
 4668SOL    HW225638   4.038   2.113   3.043 -0.4144 -0.3958 -0.5223
 4669SOL     OW25639   1.665   3.777   1.960 -0.3912 -0.4219  0.0250
 4669SOL    HW125640   1.677   3.736   2.046 -0.5608  3.6788  2.0041
 4669SOL    HW225641   1.749   3.822   1.950 -0.8081  0.3708  0.0946
 4670SOL     OW25642   0.616   4.465   4.495  0.2162  0.1260  0.3071
 4670SOL    HW125643   0.551   4.432   4.433  0.6139  0.6913 -0.4128
 4670SOL    HW225644   0.582   4.546   4.533 -1.3803 -0.2025 -0.4365
 4671SOL     OW25645   3.312   4.018   2.229 -0.3670  0.0656  0.2601
 4671SOL    HW125646   3.241   4.065   2.273 -1.8708 -0.2473 -1.8647
 4671SOL    HW225647   3.387   4.045   2.282  0.1492 -1.5518  0.3503
 4672SOL     OW25648   1.692   4.466   8.265 -0.5475  0.2596 -0.5159
 4672SOL    HW125649   1.677   4.450   8.172  1.0445 -0.3862 -0.6571
 4672SOL    HW225650   1.765   4.413   8.294 -0.4565  0.8901  0.4101
 4673SOL     OW25651   3.945   1.976   4.076 -0.0141  0.4569  0.2628
 4673SOL    HW125652   3.887   1.902   4.058 -1.3133  2.0132 -1.9138
 4673SOL    HW225653   3.927   2.026   3.996  1.8456  0.2129 -0.3034
 4674SOL     OW25654   4.362   4.451   1.024 -0.8639 -0.1369 -0.0313
 4674SOL    HW125655   4.352   4.371   0.972 -1.9955 -0.1037  0.1416
 4674SOL    HW225656   4.383   4.496   0.942 -2.5266 -0.8571 -0.8626
 4675SOL     OW25657   1.786   1.609   4.322  0.0085  0.0755 -0.2926
 4675SOL    HW125658   1.824   1.696   4.335 -0.9299  0.1739  1.7892
 4675SOL    HW225659   1.850   1.565   4.379 -2.7872 -0.4282  2.4404
 4676SOL     OW25660   3.937   0.542   4.909  0.0221 -0.5964  0.4718
 4676SOL    HW125661   3.929   0.581   4.821  0.8297 -0.6898  0.3597
 4676SOL    HW225662   3.869   0.589   4.958 -1.1821 -2.2750  0.4272
 4677SOL     OW25663   3.803   4.006   2.403  0.1743 -0.7506  0.1278
 4677SOL    HW125664   3.847   3.966   2.328  0.0462 -1.9241  0.6773
 4677SOL    HW225665   3.862   4.078   2.424 -0.6858  0.5861 -2.0299
 4678SOL     OW25666   1.327   3.700   8.137  0.3184  0.1944  0.6802
 4678SOL    HW125667   1.367   3.641   8.073 -0.1804  0.3638  0.2081
 4678SOL    HW225668   1.233   3.692   8.120  0.5849 -0.3499 -0.5035
 4679SOL     OW25669   3.131   1.870   6.359 -0.1958 -0.3882 -0.2264
 4679SOL    HW125670   3.157   1.897   6.447 -0.4223 -4.3740  1.0615
 4679SOL    HW225671   3.215   1.884   6.314 -1.0733  0.4056 -1.6182
 4680SOL     OW25672   4.171   2.558   0.529 -0.4732  0.1041  0.2098
 4680SOL    HW125673   4.164   2.648   0.562  1.0430 -0.2207  1.4004
 4680SOL    HW225674   4.124   2.507   0.595  1.0714 -0.6680  0.7162
 4681SOL     OW25675   1.621   3.390   4.378 -0.2603  0.0043  0.3299
 4681SOL    HW125676   1.584   3.378   4.465  0.2679 -0.7470  0.4462
 4681SOL    HW225677   1.574   3.337   4.313  1.6178 -2.0538  0.6276
 4682SOL     OW25678   3.081   2.209   9.305  0.0217  0.5431  0.3320
 4682SOL    HW125679   3.102   2.132   9.357  0.1569  0.1486 -0.3071
 4682SOL    HW225680   3.168   2.243   9.284 -0.3491  1.6000  0.5139
 4683SOL     OW25681   1.959   3.815   1.918 -0.9215 -0.3602 -0.1128
 4683SOL    HW125682   2.052   3.837   1.912 -1.1521  0.4857 -0.5535
 4683SOL    HW225683   1.954   3.799   2.013  0.5435 -2.6045 -0.4089
 4684SOL     OW25684   0.680   1.522   7.635  0.1611 -0.0274  0.3220
 4684SOL    HW125685   0.693   1.433   7.601 -1.1876  0.8275 -2.4060
 4684SOL    HW225686   0.657   1.498   7.725  0.3047 -0.0997  0.3397
 4685SOL     OW25687   2.513   2.496   9.207  0.2850  0.2653  0.4725
 4685SOL    HW125688   2.510   2.412   9.252 -2.8319 -0.0499 -0.3050
 4685SOL    HW225689   2.604   2.524   9.221 -0.1376  1.7730  0.2070
 4686SOL     OW25690   1.432   0.921   8.265  0.0588 -0.2177  0.0598
 4686SOL    HW125691   1.424   0.826   8.265 -0.8134 -0.1347  2.1443
 4686SOL    HW225692   1.494   0.927   8.337  0.4941 -1.6433 -0.1903
 4687SOL     OW25693   1.746   1.789  11.299  0.0067  0.0381 -0.0098
 4687SOL    HW125694   1.768   1.849  11.228  0.4609  0.9221  0.8633
 4687SOL    HW225695   1.823   1.812  11.351  0.3732 -2.6098  0.6044
 4688SOL     OW25696   1.112   2.274   7.142 -0.9541  0.4663  0.5390
 4688SOL    HW125697   1.030   2.232   7.116 -0.8882  0.1988  0.7600
 4688SOL    HW225698   1.112   2.268   7.238 -1.1411 -0.2997  0.4884
 4689SOL     OW25699   2.911   1.221  16.503 -0.2193  0.2453  0.1069
 4689SOL    HW125700   2.824   1.184  16.518 -0.6530  0.5643 -1.6996
 4689SOL    HW225701   2.960   1.144  16.474  1.1685  0.8949  0.7152
 4690SOL     OW25702   2.245   2.531   5.856 -0.1920  0.0778  0.1356
 4690SOL    HW125703   2.216   2.461   5.914  1.4559 -1.2348 -0.6144
 4690SOL    HW225704   2.161   2.569   5.830  0.6557  3.1521  1.8990
 4691SOL     OW25705   1.564   3.680   4.897 -0.4840  0.5165  0.0695
 4691SOL    HW125706   1.485   3.732   4.882 -1.0312 -0.4434 -0.3996
 4691SOL    HW225707   1.631   3.745   4.878  0.4923 -0.5985 -0.2551
 4692SOL     OW25708   0.423   1.178  10.791  0.2915  0.4608 -0.1231
 4692SOL    HW125709   0.434   1.257  10.843  0.3509 -0.0778  0.6733
 4692SOL    HW225710   0.514   1.150  10.795  0.6777  1.7360 -0.0685
 4693SOL     OW25711   1.934   0.365   4.126  0.3368 -0.0864  0.5652
 4693SOL    HW125712   1.985   0.294   4.164 -3.2818 -2.5655  0.8153
 4693SOL    HW225713   1.855   0.316   4.103  1.8461 -1.0347 -2.6286
 4694SOL     OW25714   3.918   0.057   6.375  0.2287  0.5516 -0.5997
 4694SOL    HW125715   3.836   0.101   6.394 -0.2253 -1.7916  2.8109
 4694SOL    HW225716   3.896   4.705   6.414 -0.5818 -0.1601 -2.5878
 4695SOL     OW25717   4.604   2.565   3.895  1.1199  0.6616  0.1161
 4695SOL    HW125718   4.546   2.541   3.968 -0.5511  2.6516 -0.5641
 4695SOL    HW225719   4.531   2.576   3.834  0.8017 -0.8849  0.2104
 4696SOL     OW25720   3.847   2.041   7.814  0.2336  0.2254  0.5705
 4696SOL    HW125721   3.911   1.988   7.861  2.0948  1.7318 -0.2604
 4696SOL    HW225722   3.908   2.076   7.748 -0.9929 -0.8393 -1.1278
 4697SOL     OW25723   0.084   4.214   1.627 -0.2238 -0.2771 -0.5257
 4697SOL    HW125724   0.019   4.263   1.677 -0.9800 -0.1200 -1.6744
 4697SOL    HW225725   0.158   4.272   1.647  0.6768 -1.6576  0.1512
 4698SOL     OW25726   1.442   4.587   4.551 -0.4071 -0.4498 -0.1121
 4698SOL    HW125727   1.507   4.617   4.488 -2.5045  0.7796 -1.6619
 4698SOL    HW225728   1.387   4.665   4.555  1.2494  0.7146  0.0999
 4699SOL     OW25729   4.180   2.849   7.221 -0.1434 -0.4318  0.2795
 4699SOL    HW125730   4.245   2.884   7.282  0.5169  0.3834 -0.8987
 4699SOL    HW225731   4.170   2.933   7.176 -2.0960  0.3509  2.2101
 4700SOL     OW25732   4.643   1.213  12.127  0.8691 -0.2287 -0.3691
 4700SOL    HW125733   4.568   1.162  12.159  1.0755 -0.7959 -0.7869
 4700SOL    HW225734   4.595   1.281  12.080  0.0829 -0.3532  0.2522
 4701SOL     OW25735   0.602   0.995   7.013  0.7001  0.1807 -0.2199
 4701SOL    HW125736   0.643   0.964   6.932  1.0420 -1.6075  0.6450
 4701SOL    HW225737   0.664   1.060   7.046 -0.9591  1.7719 -0.2586
 4702SOL     OW25738   2.055   4.432   7.811 -0.3717  0.2629  1.2143
 4702SOL    HW125739   1.966   4.457   7.837 -0.2670 -0.1401  1.9658
 4702SOL    HW225740   2.056   4.344   7.849 -1.1329 -0.4371 -0.3817
 4703SOL     OW25741   3.047   2.684   2.783  0.1496 -0.2475  0.2388
 4703SOL    HW125742   2.958   2.653   2.763  0.2731  0.2126 -1.0398
 4703SOL    HW225743   3.027   2.776   2.800 -0.0606 -0.3991  0.8169
 4704SOL     OW25744   1.887   2.055   7.811  0.5630  0.0925  0.1508
 4704SOL    HW125745   1.835   2.034   7.734  0.3570 -2.0338  0.8841
 4704SOL    HW225746   1.903   2.147   7.788  1.4974 -0.0112  0.4080
 4705SOL     OW25747   4.622   2.025   2.133 -0.1944  0.0028 -0.1305
 4705SOL    HW125748   4.554   1.981   2.083 -0.5022 -0.0478  0.3281
 4705SOL    HW225749   4.606   1.989   2.220  0.6371 -2.3802 -0.9821
 4706SOL     OW25750   1.919   3.574   9.435  0.5847  0.7326 -0.0280
 4706SOL    HW125751   1.930   3.669   9.439  0.7919  0.8008 -2.5184
 4706SOL    HW225752   1.927   3.556   9.529 -1.5670 -1.2041 -0.2131
 4707SOL     OW25753   2.488   3.687   3.596 -0.3085  0.5607  0.0875
 4707SOL    HW125754   2.525   3.689   3.508 -1.6050 -2.2466 -0.5274
 4707SOL    HW225755   2.564   3.670   3.650  0.8842 -0.2980 -1.8670
 4708SOL     OW25756   1.050   0.089  11.216  0.5881  1.0200  0.0923
 4708SOL    HW125757   1.125   0.030  11.230 -1.0886 -0.3794  3.2690
 4708SOL    HW225758   1.011   0.077  11.303  0.6227 -3.1025 -0.4323
 4709SOL     OW25759   2.309   3.742  14.246 -0.1078  0.0294 -0.3176
 4709SOL    HW125760   2.320   3.669  14.307  0.9197 -0.1550 -0.7330
 4709SOL    HW225761   2.279   3.819  14.294  0.1843  0.7669 -1.3234
 4710SOL     OW25762   4.521   0.352   4.889 -0.4066 -0.3981 -0.6904
 4710SOL    HW125763   4.472   0.270   4.880 -0.5408 -0.3698 -0.2357
 4710SOL    HW225764   4.439   0.394   4.912  0.1269  0.0964  0.3030
 4711SOL     OW25765   2.512   3.068   1.236 -0.1245 -0.4843  0.0839
 4711SOL    HW125766   2.583   3.006   1.255  1.0989  0.9156  0.0545
 4711SOL    HW225767   2.553   3.143   1.193 -1.1780 -1.2563 -2.2756
 4712SOL     OW25768   3.240   2.846  15.283  0.3593  0.0082 -0.1420
 4712SOL    HW125769   3.203   2.759  15.297 -0.5033  0.1120 -1.8273
 4712SOL    HW225770   3.185   2.903  15.337 -0.3819 -0.9400  0.0886
 4713SOL     OW25771   4.528   2.682   4.976 -0.3351 -0.1436 -0.3218
 4713SOL    HW125772   4.587   2.731   4.917 -0.6403 -0.6139 -1.0168
 4713SOL    HW225773   4.552   2.722   5.060  1.2068  2.4128 -1.9610
 4714SOL     OW25774   4.115   2.358   6.993  0.0083  0.0897  0.2397
 4714SOL    HW125775   4.107   2.423   7.064 -1.2463  1.4256 -1.1395
 4714SOL    HW225776   4.078   2.276   7.024 -1.3444  1.1085  1.3484
 4715SOL     OW25777   4.125   1.164   8.848 -0.2759 -0.3474  0.5360
 4715SOL    HW125778   4.112   1.095   8.912  0.7145 -2.8129 -1.9529
 4715SOL    HW225779   4.209   1.142   8.808 -0.1245  0.7627  0.2369
 4716SOL     OW25780   2.377   2.583   2.259  0.3055  0.0542 -0.4293
 4716SOL    HW125781   2.414   2.580   2.347 -0.0508 -0.8471 -0.3009
 4716SOL    HW225782   2.431   2.525   2.205  1.5175  0.1870  0.6413
 4717SOL     OW25783   2.508   2.072   0.148 -0.5114 -0.1509 -0.1631
 4717SOL    HW125784   2.416   2.095   0.134 -0.3043  1.5648  1.2296
 4717SOL    HW225785   2.529   2.114   0.232 -1.3494  0.0749 -0.0654
 4718SOL     OW25786   3.149   4.213   3.312  0.4958  0.5426 -0.1054
 4718SOL    HW125787   3.077   4.214   3.249 -0.4603  1.1125  1.0087
 4718SOL    HW225788   3.204   4.151   3.263  0.6915  0.5775  0.0712
 4719SOL     OW25789   2.958   0.264   9.202 -0.4021 -1.0071 -0.2688
 4719SOL    HW125790   2.985   0.193   9.260  0.4483  1.8761  2.8540
 4719SOL    HW225791   2.912   0.320   9.265  3.0079 -0.2079  1.4915
 4720SOL     OW25792   2.725   4.414   4.897 -0.1038 -0.2431 -0.7806
 4720SOL    HW125793   2.778   4.394   4.820 -1.3227  2.1082 -2.2234
 4720SOL    HW225794   2.640   4.434   4.857  0.4111  2.2205 -0.6437
 4721SOL     OW25795   2.990   1.570   8.810  0.1233  0.1823 -0.2483
 4721SOL    HW125796   3.061   1.630   8.786  0.9477 -0.2425  1.0813
 4721SOL    HW225797   3.030   1.487   8.783  3.2285  0.8967  2.1577
 4722SOL     OW25798   3.369   1.268   2.404  0.3211  0.6676 -0.1577
 4722SOL    HW125799   3.338   1.344   2.454 -0.7060 -0.2489  0.5929
 4722SOL    HW225800   3.430   1.233   2.469 -2.7040 -5.0801 -0.4418
 4723SOL     OW25801   4.450   4.392   2.137  0.4150 -0.0635  0.1736
 4723SOL    HW125802   4.407   4.475   2.157  0.9467  0.2073  0.1768
 4723SOL    HW225803   4.460   4.355   2.225 -1.9575  0.6587  0.7606
 4724SOL     OW25804   3.383   3.568   6.859  0.0699  0.3190  0.7650
 4724SOL    HW125805   3.310   3.601   6.807 -0.3758  0.7091  1.6333
 4724SOL    HW225806   3.336   3.559   6.942 -1.1554  2.8389  0.3594
 4725SOL     OW25807   1.663   0.080   5.780  0.6048 -0.5549  0.3223
 4725SOL    HW125808   1.692   0.150   5.720 -0.6395 -0.3428 -0.0330
 4725SOL    HW225809   1.687   0.001   5.731 -1.4644 -0.1464 -1.3509
 4726SOL     OW25810   2.780   1.254   9.540  0.1725 -0.4128  0.4484
 4726SOL    HW125811   2.790   1.342   9.576  1.4786 -1.4910  2.6952
 4726SOL    HW225812   2.848   1.250   9.473  0.3134 -0.6854  0.6062
 4727SOL     OW25813   1.075   3.633   9.667  0.3141 -0.3663 -0.0866
 4727SOL    HW125814   1.139   3.680   9.613  1.1326 -0.7124  0.5760
 4727SOL    HW225815   1.122   3.561   9.710  1.7377  0.0578 -0.9292
 4728SOL     OW25816   4.242   3.424   5.969 -0.2458  0.0411  0.3036
 4728SOL    HW125817   4.320   3.407   5.916 -1.3782  1.5334 -1.8300
 4728SOL    HW225818   4.194   3.485   5.913 -2.3719 -0.5603  1.4849
 4729SOL     OW25819   4.419   0.437  15.442  0.4289 -0.4072  0.1919
 4729SOL    HW125820   4.458   0.409  15.525  0.7722 -2.1099 -0.5274
 4729SOL    HW225821   4.420   0.350  15.400  0.2484  1.5088 -3.8194
 4730SOL     OW25822   3.290   0.850   5.585  0.1914 -0.1907  0.2038
 4730SOL    HW125823   3.197   0.829   5.581  0.6295 -1.8030 -1.6648
 4730SOL    HW225824   3.315   0.767   5.545 -0.9102 -1.2286  1.6697
 4731SOL     OW25825   4.601   0.159   3.830 -0.0351 -0.1078 -0.0580
 4731SOL    HW125826   4.597   0.063   3.829  0.6658 -0.1294 -0.5319
 4731SOL    HW225827   4.669   0.169   3.764 -1.3479  0.2274 -1.3540
 4732SOL     OW25828   4.326   0.690   3.730 -0.0881  0.1695  0.0907
 4732SOL    HW125829   4.353   0.690   3.821 -3.5731  0.8736  1.1144
 4732SOL    HW225830   4.407   0.673   3.682 -0.9427  0.1382 -1.3638
 4733SOL     OW25831   0.744   2.266   0.160  0.1932 -0.0706 -0.6042
 4733SOL    HW125832   0.772   2.298   0.074 -0.8346  3.3523  0.3293
 4733SOL    HW225833   0.786   2.319   0.227  2.6072 -0.4329 -1.8074
 4734SOL     OW25834   3.994   4.625  11.802  0.1759 -0.5470  0.3997
 4734SOL    HW125835   3.997   4.676  11.883  0.2509 -0.1123  0.1260
 4734SOL    HW225836   3.931   4.682  11.756 -0.3788 -2.1707 -0.8411
 4735SOL     OW25837   4.223   2.535   2.277  0.1549 -0.0161  0.0013
 4735SOL    HW125838   4.133   2.544   2.246 -0.1235 -2.1101  0.2103
 4735SOL    HW225839   4.254   2.623   2.255 -2.4655  0.3240 -2.2704
 4736SOL     OW25840   4.013   0.674   3.968 -0.5285 -0.0059 -0.3061
 4736SOL    HW125841   3.995   0.593   4.017  0.2349 -0.0173 -0.0415
 4736SOL    HW225842   4.072   0.712   4.033 -0.7548 -1.6657  0.8934
 4737SOL     OW25843   0.797   1.388   8.017  0.3029 -0.1907  0.7108
 4737SOL    HW125844   0.837   1.314   8.063 -0.0900 -0.5159  0.5375
 4737SOL    HW225845   0.830   1.461   8.070 -0.7366 -2.0952  3.9990
 4738SOL     OW25846   0.653   4.473  10.254  0.0621  0.0865 -0.0509
 4738SOL    HW125847   0.601   4.499  10.330 -0.3860  1.1030 -0.7099
 4738SOL    HW225848   0.738   4.515  10.271 -0.7288  1.6995 -0.0938
 4739SOL     OW25849   0.608   0.271   5.553  0.3969 -0.1324 -0.5504
 4739SOL    HW125850   0.531   0.308   5.596  0.1161  0.2512 -1.3857
 4739SOL    HW225851   0.674   0.339   5.547  0.0980  0.0991 -1.2314
 4740SOL     OW25852   0.012   4.495  12.414 -0.2162  0.1437  0.1114
 4740SOL    HW125853   4.666   4.508  12.467 -1.4728 -0.5368 -1.6041
 4740SOL    HW225854   4.722   4.533  12.330  1.0129  0.2584 -0.1701
 4741SOL     OW25855   1.839   3.486  15.470 -0.3027  0.2933  0.0438
 4741SOL    HW125856   1.788   3.551  15.520 -0.7030  0.9723 -1.2374
 4741SOL    HW225857   1.852   3.417  15.534  0.0191 -1.9734 -2.4796
 4742SOL     OW25858   2.514   0.759   4.550 -0.2066 -0.3295 -0.3026
 4742SOL    HW125859   2.432   0.800   4.577 -0.3241  0.3419 -1.6771
 4742SOL    HW225860   2.511   0.777   4.456 -2.1247 -2.4038 -0.6370
 4743SOL     OW25861   0.354   0.644   3.960  0.2411  0.2154  0.1900
 4743SOL    HW125862   0.342   0.688   4.043 -1.7086 -1.7400  0.9433
 4743SOL    HW225863   0.274   0.658   3.909  0.6131  1.1007 -0.1564
 4744SOL     OW25864   3.975   0.615  17.464 -0.1278 -0.3970  0.0677
 4744SOL    HW125865   3.923   0.564  17.526 -1.3717  1.8521  0.8535
 4744SOL    HW225866   3.961   0.707  17.485  1.4823 -0.0879 -0.2110
 4745SOL     OW25867   4.014   1.980   2.701  0.1391  0.9084  0.1886
 4745SOL    HW125868   3.932   1.931   2.707  1.3225 -1.3833 -2.2062
 4745SOL    HW225869   3.986   2.067   2.672 -1.4627  0.1982 -0.4080
 4746SOL     OW25870   0.879   2.347   5.841  0.1356 -0.7356 -0.1403
 4746SOL    HW125871   0.944   2.407   5.806 -0.5037  0.0576  0.0386
 4746SOL    HW225872   0.798   2.386   5.809 -0.5609 -0.3607  2.0565
 4747SOL     OW25873   4.329   2.544   9.890 -0.2782 -0.0074 -0.4668
 4747SOL    HW125874   4.368   2.631   9.881 -0.0730 -0.0038  0.4846
 4747SOL    HW225875   4.294   2.557   9.978  0.2728 -1.6445  0.0068
 4748SOL     OW25876   2.237   2.609  17.497  0.6689 -0.5517  0.2063
 4748SOL    HW125877   2.195   2.543  17.553  0.1172 -0.4260 -0.0615
 4748SOL    HW225878   2.158   2.659  17.477  1.3750  0.5202  0.0785
 4749SOL     OW25879   4.304   2.834   5.922  0.2824  0.5143 -0.1312
 4749SOL    HW125880   4.370   2.902   5.937 -1.3252  1.8792  0.7836
 4749SOL    HW225881   4.251   2.841   6.002  0.7254 -0.1588  0.2204
 4750SOL     OW25882   2.245   0.745   2.052  1.0330 -0.2738  0.3560
 4750SOL    HW125883   2.291   0.804   2.111 -0.3259  1.0744  0.0626
 4750SOL    HW225884   2.168   0.793   2.023  2.9192  1.3338 -1.9653
 4751SOL     OW25885   0.490   1.249  16.257 -0.1564  0.8891  0.1975
 4751SOL    HW125886   0.408   1.227  16.212  0.8060 -1.4583 -0.4322
 4751SOL    HW225887   0.477   1.201  16.339 -2.9180 -1.2197 -1.4817
 4752SOL     OW25888   1.627   4.109   3.709 -0.6254  0.2542 -0.0843
 4752SOL    HW125889   1.561   4.097   3.777 -0.7178  0.0948 -0.2015
 4752SOL    HW225890   1.693   4.164   3.750 -0.9311  0.5842 -0.0352
 4753SOL     OW25891   3.624   4.634   8.198  0.0967  0.2946 -0.2861
 4753SOL    HW125892   3.544   4.630   8.250  1.4959 -1.3007  1.7189
 4753SOL    HW225893   3.623   4.546   8.160  0.4963  0.4408 -0.6414
 4754SOL     OW25894   0.193   0.753  13.433  0.3851  0.0538  0.2055
 4754SOL    HW125895   0.255   0.774  13.363 -0.6599 -2.3706 -1.4501
 4754SOL    HW225896   0.152   0.673  13.398 -1.3544  1.9485 -2.0772
 4755SOL     OW25897   2.648   0.446   7.738  0.3456 -0.3638  0.0992
 4755SOL    HW125898   2.610   0.534   7.733 -0.7605 -0.8800 -0.6211
 4755SOL    HW225899   2.597   0.397   7.673 -0.1924  0.2315  0.0734
 4756SOL     OW25900   4.214   4.625   4.357  0.2577  0.0682 -0.3733
 4756SOL    HW125901   4.215   4.713   4.318 -2.6894  0.7381  1.0338
 4756SOL    HW225902   4.142   4.582   4.311  0.1348 -1.8238  1.5790
 4757SOL     OW25903   3.909   2.972   8.080  0.0506 -0.2095  0.4133
 4757SOL    HW125904   3.906   2.893   8.026  0.2298  0.1144 -0.0698
 4757SOL    HW225905   3.965   3.023   8.022 -0.6315 -0.4124 -0.4139
 4758SOL     OW25906   2.040   3.209   7.632 -0.1109 -0.5249 -0.5148
 4758SOL    HW125907   1.944   3.210   7.630 -0.1108  0.2669 -0.2356
 4758SOL    HW225908   2.040   3.173   7.721  1.4687 -1.4129 -0.8828
 4759SOL     OW25909   4.201   1.761   2.683  0.5189 -0.0300 -0.3066
 4759SOL    HW125910   4.176   1.853   2.677 -1.9621 -0.7010 -0.2099
 4759SOL    HW225911   4.149   1.729   2.609 -0.9904  1.9547 -0.1233
 4760SOL     OW25912   1.266   2.458  10.972  0.0080 -0.1690 -0.1452
 4760SOL    HW125913   1.346   2.508  10.987  1.0148 -2.1336  1.0582
 4760SOL    HW225914   1.287   2.418  10.888  0.1280  0.5723 -0.4673
 4761SOL     OW25915   2.902   0.284   1.159 -0.0397  0.1511  0.4928
 4761SOL    HW125916   2.898   0.189   1.168 -1.1013  0.0800 -0.8240
 4761SOL    HW225917   2.894   0.303   1.066 -1.1143  0.4726  0.6516
 4762SOL     OW25918   2.086   2.739  14.774 -0.0867  0.2298 -0.7864
 4762SOL    HW125919   2.178   2.766  14.774  0.3172 -1.1735 -1.8449
 4762SOL    HW225920   2.083   2.697  14.688  1.2629 -0.7388 -0.3505
 4763SOL     OW25921   1.534   1.468   4.896 -0.4179 -0.2202  0.4256
 4763SOL    HW125922   1.497   1.494   4.980 -1.3535 -1.1485  0.2905
 4763SOL    HW225923   1.518   1.374   4.890 -3.3334  0.3845 -1.4693
 4764SOL     OW25924   4.283   4.515  11.260 -0.1156 -0.5062  0.5167
 4764SOL    HW125925   4.279   4.481  11.171  1.0169 -1.2319  0.7515
 4764SOL    HW225926   4.278   4.432  11.307 -1.6308 -1.8601 -2.0348
 4765SOL     OW25927   3.000   4.164   1.965  0.4834 -0.3985  0.3025
 4765SOL    HW125928   2.921   4.194   2.010  0.2497  1.1202 -1.1204
 4765SOL    HW225929   2.980   4.187   1.874  0.7492 -0.9342  0.1073
 4766SOL     OW25930   1.208   0.696   0.764  0.0897 -0.3411 -0.2992
 4766SOL    HW125931   1.181   0.614   0.722  0.0956 -1.8041  2.5001
 4766SOL    HW225932   1.242   0.739   0.686 -1.8509 -0.2418 -1.0837
 4767SOL     OW25933   2.206   1.222   3.069 -0.1679  0.1586  0.2174
 4767SOL    HW125934   2.216   1.279   2.993  1.7337  0.9856  1.0964
 4767SOL    HW225935   2.226   1.140   3.024  2.0587 -0.5005  2.3899
 4768SOL     OW25936   2.099   2.560  12.327 -0.5853  0.3644  0.7363
 4768SOL    HW125937   2.026   2.499  12.335  0.1103 -0.3372  1.7967
 4768SOL    HW225938   2.153   2.497  12.279  1.0037  0.9285  1.7795
 4769SOL     OW25939   4.337   3.125   5.516  0.4756  0.5241 -0.0566
 4769SOL    HW125940   4.250   3.117   5.478  0.6899 -4.0674  0.4165
 4769SOL    HW225941   4.333   3.054   5.580  1.9723 -0.1422 -0.6962
 4770SOL     OW25942   1.313   3.045  14.878 -0.0818 -0.5037 -0.4335
 4770SOL    HW125943   1.341   2.988  14.806  2.1002  0.6402 -0.4749
 4770SOL    HW225944   1.397   3.056  14.922  0.1536 -0.7539 -0.8156
 4771SOL     OW25945   1.646   2.707   4.542 -0.4093  0.7473 -0.1199
 4771SOL    HW125946   1.712   2.641   4.560 -0.8067 -0.3358 -2.7481
 4771SOL    HW225947   1.664   2.724   4.450 -1.8381 -0.6195 -0.6576
 4772SOL     OW25948   1.148   0.066   5.066 -0.4301  0.3859  0.5681
 4772SOL    HW125949   1.167   0.056   5.160  1.5785 -0.5489  0.0652
 4772SOL    HW225950   1.145   0.161   5.062  3.2562  0.5093  0.8749
 4773SOL     OW25951   4.493   4.267  15.098 -0.6021  0.1472  0.2929
 4773SOL    HW125952   4.398   4.255  15.092 -0.3340 -2.1127  0.4347
 4773SOL    HW225953   4.532   4.181  15.112  0.4142  0.7293  1.0348
 4774SOL     OW25954   2.707   2.054  15.841 -0.5816  0.8927 -0.5250
 4774SOL    HW125955   2.737   2.039  15.931  0.2609 -0.7778 -1.0888
 4774SOL    HW225956   2.643   2.124  15.851 -0.9803  0.1955  1.8052
 4775SOL     OW25957   0.305   2.741   6.286  0.4644  0.4080  0.1271
 4775SOL    HW125958   0.297   2.683   6.210 -1.1496  0.6853  0.0815
 4775SOL    HW225959   0.296   2.689   6.366 -0.5927  0.3071 -0.0603
 4776SOL     OW25960   0.789   0.071   8.401 -0.1783 -0.3247  0.2706
 4776SOL    HW125961   0.847   4.731   8.379  1.7009  0.5756  2.2600
 4776SOL    HW225962   0.837   0.110   8.474 -1.9654 -1.6183  2.1504
 4777SOL     OW25963   3.248   2.392   4.103 -0.8594 -0.0240  0.3829
 4777SOL    HW125964   3.279   2.352   4.184  0.4018  2.4894  1.1215
 4777SOL    HW225965   3.317   2.454   4.082  0.7924 -0.9653  3.1879
 4778SOL     OW25966   2.818   1.184  14.554  0.1398 -0.1404  0.1785
 4778SOL    HW125967   2.826   1.092  14.580  3.0734  0.8404  2.7227
 4778SOL    HW225968   2.904   1.226  14.561 -1.2656  2.4110  2.2789
 4779SOL     OW25969   2.053   3.161  17.696  0.5071 -0.1290 -0.5299
 4779SOL    HW125970   2.098   3.081  17.722  2.1727  0.2314 -2.2626
 4779SOL    HW225971   2.018   3.144  17.609 -0.2204  2.3199 -0.7254
 4780SOL     OW25972   2.785   2.902   4.527  0.3448  0.2716  0.2086
 4780SOL    HW125973   2.692   2.877   4.533  0.2768  0.0925 -1.5352
 4780SOL    HW225974   2.773   2.997   4.535  0.0338  0.0397  2.5482
 4781SOL     OW25975   3.928   0.825  13.891 -0.0460  0.2572 -0.4919
 4781SOL    HW125976   3.856   0.849  13.949  1.5205 -0.9622  1.9959
 4781SOL    HW225977   3.881   0.782  13.820 -1.8675  0.0957  0.8251
 4782SOL     OW25978   4.252   2.885   9.243  0.0630  0.0866  0.1787
 4782SOL    HW125979   4.314   2.954   9.265  1.4451 -1.3172  0.6393
 4782SOL    HW225980   4.262   2.860   9.151 -2.1417 -1.5280  0.3697
 4783SOL     OW25981   0.874   3.443   4.190 -0.0779 -0.3955  0.1397
 4783SOL    HW125982   0.802   3.398   4.146 -0.6620 -1.3837  2.1191
 4783SOL    HW225983   0.931   3.446   4.113  0.0726 -0.5811  0.2459
 4784SOL     OW25984   1.722   3.298   8.377 -0.3004 -0.0992 -0.2854
 4784SOL    HW125985   1.642   3.325   8.422  0.4124  1.7234 -0.1160
 4784SOL    HW225986   1.711   3.204   8.390  0.2870 -0.1670 -0.2696
 4785SOL     OW25987   2.751   3.485   9.097  0.0529  0.6721  0.7871
 4785SOL    HW125988   2.657   3.469   9.104  0.5173 -1.9761  1.1384
 4785SOL    HW225989   2.751   3.581   9.101 -0.5995  0.7801 -2.4588
 4786SOL     OW25990   3.501   0.154  14.941  0.7345  0.4129 -0.5768
 4786SOL    HW125991   3.584   0.158  14.895  0.8552  0.7259 -0.3308
 4786SOL    HW225992   3.471   0.238  14.906  0.2805  0.6075  0.2943
 4787SOL     OW25993   1.771   2.823  11.893  0.1815 -0.6226  0.3055
 4787SOL    HW125994   1.787   2.732  11.917  0.1700 -0.4287  1.0546
 4787SOL    HW225995   1.827   2.837  11.817 -0.5883 -2.7610 -0.6682
 4788SOL     OW25996   2.421   3.963   7.966  0.1047  0.8944  0.0936
 4788SOL    HW125997   2.388   3.991   8.052  0.3279 -1.2559  0.8849
 4788SOL    HW225998   2.486   3.901   7.999 -1.1661 -0.7490 -0.4968
 4789SOL     OW25999   1.520   1.326   4.502 -0.0047  0.3626 -0.2374
 4789SOL    HW126000   1.549   1.340   4.412  0.6849 -1.5971 -0.3189
 4789SOL    HW226001   1.511   1.231   4.498 -0.0830  0.2788  1.7111
 4790SOL     OW26002   0.798   1.626   8.704 -0.2907 -0.9679 -0.2194
 4790SOL    HW126003   0.741   1.611   8.780  0.1616  2.0426  0.7058
 4790SOL    HW226004   0.781   1.546   8.654  0.0578 -0.1602 -1.6380
 4791SOL     OW26005   3.654   3.883  11.968 -0.4833  0.2253  0.1942
 4791SOL    HW126006   3.680   3.975  11.964  0.7964 -0.1510 -0.1460
 4791SOL    HW226007   3.645   3.866  11.874  0.6758  0.1376  0.0970
 4792SOL     OW26008   1.095   0.438   7.989 -0.0130 -0.4011 -0.4793
 4792SOL    HW126009   1.155   0.406   8.057  1.2029 -0.0789 -1.4034
 4792SOL    HW226010   1.127   0.522   7.957  0.2299 -0.5816 -0.7152
 4793SOL     OW26011   2.446   3.703  13.072 -0.1077 -0.0350  0.1135
 4793SOL    HW126012   2.464   3.658  13.155 -1.5270  0.6047  0.7630
 4793SOL    HW226013   2.423   3.792  13.097 -1.1018 -0.5610  1.1025
 4794SOL     OW26014   4.547   1.026   2.746 -0.0033  0.1828  0.0411
 4794SOL    HW126015   4.604   1.088   2.701 -1.0577  1.4189  0.4192
 4794SOL    HW226016   4.466   1.075   2.760 -0.5985 -0.7822 -0.0198
 4795SOL     OW26017   0.761   0.295   7.668  0.0166  1.1203 -0.2378
 4795SOL    HW126018   0.854   0.291   7.687 -0.3009  0.2573  1.2114
 4795SOL    HW226019   0.724   0.256   7.748 -1.3844  0.3283 -1.2529
 4796SOL     OW26020   0.121   4.034   2.448  0.2597  0.2396 -0.0905
 4796SOL    HW126021   0.144   3.987   2.529  0.0224 -1.0308 -0.7555
 4796SOL    HW226022   0.200   4.087   2.453 -0.5612  1.3828  0.9214
 4797SOL     OW26023   3.769   3.311   6.132  0.0567 -0.1344  0.3721
 4797SOL    HW126024   3.821   3.317   6.213  0.5346 -1.3352  0.1678
 4797SOL    HW226025   3.685   3.285   6.170 -0.5573  1.3003 -0.0097
 4798SOL     OW26026   0.134   1.608   3.559 -0.1804  0.3469 -0.4841
 4798SOL    HW126027   0.096   1.522   3.580 -0.5970  0.8475  0.8587
 4798SOL    HW226028   0.056   1.659   3.536 -0.1471  0.2962 -0.7071
 4799SOL     OW26029   3.956   3.227   3.293 -0.5364 -0.1170 -0.4107
 4799SOL    HW126030   3.973   3.222   3.387  0.3282 -1.2860 -0.6231
 4799SOL    HW226031   3.929   3.318   3.283 -0.0480  0.0315 -0.3772
 4800SOL     OW26032   1.453   3.615   0.311  0.5420  0.5463 -0.1671
 4800SOL    HW126033   1.398   3.593   0.236 -0.2176  0.4781  0.4034
 4800SOL    HW226034   1.542   3.603   0.279 -0.1169  1.5409 -2.4042
 4801SOL     OW26035   0.601   2.763   9.421  0.5971  0.3820  0.2863
 4801SOL    HW126036   0.532   2.766   9.355  1.3885  0.3470 -0.5416
 4801SOL    HW226037   0.550   2.712   9.484  1.0427 -1.4580 -0.8720
 4802SOL     OW26038   3.151   1.278  17.329 -0.3634  0.3433 -0.1127
 4802SOL    HW126039   3.162   1.226  17.250 -1.5078 -2.1422  1.3537
 4802SOL    HW226040   3.197   1.352  17.290  0.1104 -1.2142 -2.5184
 4803SOL     OW26041   4.450   0.606   2.774  0.1414 -0.3509 -0.0273
 4803SOL    HW126042   4.498   0.659   2.710  1.2096 -0.2969  0.8230
 4803SOL    HW226043   4.440   0.668   2.847 -1.5977 -1.0238  0.3017
 4804SOL     OW26044   1.216   3.223   2.103  0.1077 -0.3147  0.3630
 4804SOL    HW126045   1.275   3.244   2.031  0.0412 -0.1310  0.3616
 4804SOL    HW226046   1.139   3.278   2.088  0.7985  0.1588 -1.4843
 4805SOL     OW26047   1.093   3.836   2.824  0.5019 -0.2234 -0.3974
 4805SOL    HW126048   1.061   3.782   2.897  0.5321 -0.8546 -0.8561
 4805SOL    HW226049   1.182   3.803   2.817  1.2556  1.0822  2.8780
 4806SOL     OW26050   4.421   1.436  10.599  0.8801 -0.7237 -0.0346
 4806SOL    HW126051   4.471   1.474  10.671 -2.2415  1.9448  0.6948
 4806SOL    HW226052   4.341   1.487  10.612 -0.1157 -1.8221 -1.9019
 4807SOL     OW26053   4.025   0.689   9.380  0.1522 -0.3090  0.1139
 4807SOL    HW126054   4.046   0.712   9.470 -0.7293  2.6388 -0.4419
 4807SOL    HW226055   4.116   0.676   9.353 -0.1388  0.9149 -1.4942
 4808SOL     OW26056   1.010   1.018  13.870 -0.2765 -0.1311 -0.3603
 4808SOL    HW126057   0.930   1.068  13.875 -0.7951 -0.8552 -1.3913
 4808SOL    HW226058   1.058   1.073  13.808 -1.7176  1.6961  0.1639
 4809SOL     OW26059   0.237   0.778   4.499 -0.1868  0.2628  0.3546
 4809SOL    HW126060   0.212   0.710   4.561  0.5914 -0.4978 -0.1760
 4809SOL    HW226061   0.316   0.813   4.540 -0.1477  0.8418 -0.2215
 4810SOL     OW26062   0.202   1.742   4.097 -0.5706  0.1491  0.0164
 4810SOL    HW126063   0.115   1.749   4.135 -0.1460  2.4742  0.5936
 4810SOL    HW226064   0.233   1.665   4.143 -0.6079  1.5851  2.4197
 4811SOL     OW26065   0.357   1.906   7.526  0.2980 -0.2448  0.6675
 4811SOL    HW126066   0.402   1.985   7.556  1.1347 -0.0683 -1.0718
 4811SOL    HW226067   0.402   1.828   7.559 -1.4139 -0.8714  1.5574
 4812SOL     OW26068   2.180   2.893   1.187  0.2055 -0.0974 -0.1788
 4812SOL    HW126069   2.091   2.911   1.216 -0.1458 -2.4682  0.2331
 4812SOL    HW226070   2.167   2.860   1.098 -0.7367 -0.4116  0.0781
 4813SOL     OW26071   3.471   2.290   6.037 -0.3443  0.2810  0.0672
 4813SOL    HW126072   3.423   2.250   6.109 -1.5602 -2.5415 -2.3190
 4813SOL    HW226073   3.465   2.229   5.964 -2.2739 -0.3036  0.7390
 4814SOL     OW26074   1.498   2.289   1.883  0.0940  0.0394 -0.2121
 4814SOL    HW126075   1.542   2.364   1.924  1.8601 -0.7504 -0.6625
 4814SOL    HW226076   1.423   2.287   1.943 -0.2635  1.5581 -0.6013
 4815SOL     OW26077   1.603   3.110  14.381 -0.1650 -0.2214  0.4623
 4815SOL    HW126078   1.536   3.176  14.398  1.6227  1.7782 -0.2532
 4815SOL    HW226079   1.680   3.166  14.372 -0.5897  0.4552  0.9892
 4816SOL     OW26080   3.584   2.314   3.173 -0.2401  0.2805  0.3198
 4816SOL    HW126081   3.670   2.349   3.151 -0.3553  0.7187  0.5563
 4816SOL    HW226082   3.603   2.220   3.178 -0.9928  0.0737 -0.5126
 4817SOL     OW26083   1.241   2.712   2.304  0.4678  0.0275  0.3819
 4817SOL    HW126084   1.193   2.794   2.292  0.7971  0.2988  0.9186
 4817SOL    HW226085   1.313   2.728   2.243  0.7564 -1.5060  0.3223
 4818SOL     OW26086   1.536   1.456   7.077  0.9225 -0.3217 -0.3638
 4818SOL    HW126087   1.570   1.444   7.165 -2.3843  0.2930  0.9832
 4818SOL    HW226088   1.460   1.513   7.087  0.5906 -0.9565  0.7011
 4819SOL     OW26089   3.073   3.854  16.202 -0.6226  0.2401  0.0781
 4819SOL    HW126090   2.982   3.852  16.234 -0.7747  0.2060 -0.3515
 4819SOL    HW226091   3.108   3.768  16.227  0.6274  1.0107  0.9458
 4820SOL     OW26092   0.508   2.611   4.520  0.4486 -0.0627  0.3977
 4820SOL    HW126093   0.565   2.624   4.596  0.1880 -3.7272  1.2511
 4820SOL    HW226094   0.427   2.628   4.568  0.4134  0.6480  0.0846
 4821SOL     OW26095   2.878   1.024   5.038  0.4569 -0.0173  0.1574
 4821SOL    HW126096   2.836   1.043   4.954 -0.8427 -1.7005  0.4340
 4821SOL    HW226097   2.897   0.930   5.028  0.0034  0.1191 -2.0551
 4822SOL     OW26098   3.801   2.051   5.061  0.2691 -0.0639 -0.2406
 4822SOL    HW126099   3.796   2.145   5.042 -0.7906 -0.3832 -1.5576
 4822SOL    HW226100   3.717   2.034   5.018  0.7455  1.7602 -1.8881
 4823SOL     OW26101   2.568   0.352   3.104 -0.1324  0.4716  0.1338
 4823SOL    HW126102   2.593   0.260   3.103  3.0302  1.3625 -1.6478
 4823SOL    HW226103   2.492   0.346   3.046  0.5968  0.1436 -0.7870
 4824SOL     OW26104   1.378   2.108  10.535 -0.2716  0.2755  0.0818
 4824SOL    HW126105   1.400   2.020  10.506 -1.3729 -0.6795  2.0618
 4824SOL    HW226106   1.424   2.120  10.618  0.8233  1.1955 -0.6690
 4825SOL     OW26107   3.928   0.493  10.943 -0.3384 -0.9974  0.1687
 4825SOL    HW126108   3.904   0.574  10.989 -0.5250 -0.0456 -1.6171
 4825SOL    HW226109   4.020   0.493  10.968 -0.3179 -0.9849  0.0911
 4826SOL     OW26110   2.680   3.110   9.405 -0.1880 -0.3287  0.3999
 4826SOL    HW126111   2.729   3.188   9.379  2.2093 -2.1459 -0.5673
 4826SOL    HW226112   2.596   3.146   9.377 -0.7295  0.9651  3.7166
 4827SOL     OW26113   2.579   1.565   4.368  0.0696 -0.4287  0.2783
 4827SOL    HW126114   2.516   1.604   4.307  0.9174 -0.6718 -0.7660
 4827SOL    HW226115   2.556   1.472   4.365 -2.3484  0.1920 -0.5717
 4828SOL     OW26116   1.288   2.442   9.942  0.9055  0.3678  0.1977
 4828SOL    HW126117   1.348   2.474  10.009  0.8936  1.7940 -0.4792
 4828SOL    HW226118   1.275   2.357   9.985 -0.0660 -0.4759 -1.7610
 4829SOL     OW26119   3.367   1.903   7.974  0.3915  0.7701  0.1093
 4829SOL    HW126120   3.342   1.883   7.884  0.2059 -0.1462  0.3623
 4829SOL    HW226121   3.448   1.853   7.986  0.7839  1.5066  0.5020
 4830SOL     OW26122   2.982   2.400   4.084 -0.3645 -0.3759  0.2450
 4830SOL    HW126123   2.980   2.466   4.153  0.3046 -0.7841  0.6537
 4830SOL    HW226124   3.071   2.408   4.051  0.0069  0.9096  1.5479
 4831SOL     OW26125   3.970   3.754   5.696  0.0964 -1.2003  0.4255
 4831SOL    HW126126   3.878   3.734   5.713 -0.2542  0.6623  0.6756
 4831SOL    HW226127   4.007   3.683   5.748  0.5031 -0.9691  0.4563
 4832SOL     OW26128   2.585   2.848  17.035 -0.1430  0.3837 -1.2660
 4832SOL    HW126129   2.525   2.907  17.081  0.6354  0.3736 -0.2399
 4832SOL    HW226130   2.523   2.811  16.972 -0.5679  0.6875 -1.0299
 4833SOL     OW26131   2.208   0.463   9.483 -1.1247  0.0664 -0.3456
 4833SOL    HW126132   2.234   0.541   9.435  3.7441 -1.1356  0.3204
 4833SOL    HW226133   2.193   0.498   9.571 -0.6716 -0.2233 -0.1547
 4834SOL     OW26134   0.115   0.446   9.347 -0.1464 -0.1533  0.0978
 4834SOL    HW126135   0.020   0.461   9.353 -0.6501 -2.2574 -2.5109
 4834SOL    HW226136   0.129   0.450   9.441  0.7860 -2.4329  0.0598
 4835SOL     OW26137   3.609   4.625   3.958 -0.1184 -0.3902 -0.1445
 4835SOL    HW126138   3.553   4.676   3.900  0.9319  1.5252  0.5226
 4835SOL    HW226139   3.582   4.535   3.936  0.9406 -0.7891  0.1744
 4836SOL     OW26140   3.710   3.130   1.527 -0.3155 -0.2023 -0.1867
 4836SOL    HW126141   3.633   3.075   1.537  0.7477 -1.6471  0.0229
 4836SOL    HW226142   3.665   3.210   1.498 -0.3743 -0.9007 -2.0209
 4837SOL     OW26143   0.704   2.843  17.375 -0.1263  1.4088  0.3919
 4837SOL    HW126144   0.718   2.810  17.464 -0.0217  1.1696  0.2876
 4837SOL    HW226145   0.662   2.927  17.391 -3.2279  0.1245 -0.9702
 4838SOL     OW26146   0.694   0.390   6.810 -0.2393 -0.3445  0.3229
 4838SOL    HW126147   0.764   0.366   6.749  2.4821  0.4172  3.1571
 4838SOL    HW226148   0.668   0.473   6.772  1.1370 -0.1098 -0.1083
 4839SOL     OW26149   2.347   4.037   7.202 -0.4764  0.0287 -0.1432
 4839SOL    HW126150   2.390   3.955   7.224  0.9700  0.9259  0.3847
 4839SOL    HW226151   2.258   4.003   7.194 -0.4893 -0.2552  1.2347
 4840SOL     OW26152   4.215   3.432   3.591 -0.0036  0.1704 -0.0417
 4840SOL    HW126153   4.221   3.463   3.681 -0.5908  1.6771 -0.5122
 4840SOL    HW226154   4.168   3.349   3.596  1.9850 -1.0840 -1.7942
 4841SOL     OW26155   4.612   3.545   0.103 -0.0795 -0.5803 -0.5256
 4841SOL    HW126156   4.704   3.570   0.110  0.0441 -1.3273  0.6247
 4841SOL    HW226157   4.623   3.473   0.041 -2.5536 -0.6450 -0.9092
 4842SOL     OW26158   4.529   0.136   9.052  0.3160  0.2347  0.2954
 4842SOL    HW126159   4.562   0.159   9.139  0.7798 -0.8657  0.4031
 4842SOL    HW226160   4.447   0.184   9.046  1.1433  1.3575 -2.3144
 4843SOL     OW26161   4.276   2.293   4.907  0.0693 -0.3593 -0.0949
 4843SOL    HW126162   4.200   2.301   4.849  1.4679  1.4029 -1.6870
 4843SOL    HW226163   4.235   2.256   4.986 -1.5400 -0.1356 -0.8317
 4844SOL     OW26164   1.202   2.222   3.460 -0.1251 -0.2526 -0.4447
 4844SOL    HW126165   1.108   2.224   3.473  0.2459  0.5482  2.1329
 4844SOL    HW226166   1.235   2.153   3.517 -2.1590 -1.8424 -1.2000
 4845SOL     OW26167   0.125   3.829   3.555  0.1986  0.7226  0.0319
 4845SOL    HW126168   0.105   3.883   3.478  0.6964 -1.2881 -1.5134
 4845SOL    HW226169   0.102   3.744   3.518  0.3308  1.0895 -0.9074
 4846SOL     OW26170   2.823   3.525   7.098  0.5077  0.1280 -0.1263
 4846SOL    HW126171   2.758   3.582   7.056  0.6725 -0.6545 -1.4527
 4846SOL    HW226172   2.886   3.539   7.027 -0.7309  0.5947 -1.1371
 4847SOL     OW26173   0.561   1.102  14.055  0.8702  0.7992 -0.7997
 4847SOL    HW126174   0.588   1.073  13.968  0.8362  1.7133 -1.1154
 4847SOL    HW226175   0.545   1.196  14.044 -1.3810  0.4004 -0.8467
 4848SOL     OW26176   2.577   4.025   4.072  0.0640  0.0864  0.4864
 4848SOL    HW126177   2.532   4.068   4.145  1.0732 -0.4120  1.3961
 4848SOL    HW226178   2.622   3.955   4.118 -0.4505 -0.9257 -0.5668
 4849SOL     OW26179   4.383   2.691   4.269 -0.2142 -0.0549 -0.5402
 4849SOL    HW126180   4.302   2.651   4.300  0.3460 -1.2364 -0.6180
 4849SOL    HW226181   4.432   2.614   4.243  1.4125  0.4017  1.1588
 4850SOL     OW26182   4.511   3.456   5.873 -0.0672  0.0732  0.3145
 4850SOL    HW126183   4.579   3.426   5.814 -0.1068  0.3118  0.1464
 4850SOL    HW226184   4.468   3.516   5.812  0.6629  0.6230  0.3349
 4851SOL     OW26185   1.431   3.410   1.726  0.4085  0.3077  0.8580
 4851SOL    HW126186   1.358   3.350   1.713  0.2749  0.5620  0.4629
 4851SOL    HW226187   1.415   3.425   1.819  1.4629 -0.9765  1.2519
 4852SOL     OW26188   3.868   1.793   5.111  0.2905 -0.6460 -0.0448
 4852SOL    HW126189   3.893   1.777   5.021  0.5519 -1.9533  0.2611
 4852SOL    HW226190   3.856   1.888   5.113 -1.8404 -0.9117 -0.2545
 4853SOL     OW26191   3.704   0.564   7.016 -0.0046  0.0530  0.3491
 4853SOL    HW126192   3.787   0.517   7.025 -0.2220 -0.9696 -2.8824
 4853SOL    HW226193   3.680   0.578   7.108  1.2156  1.6317  0.4239
 4854SOL     OW26194   3.166   4.621   5.337  0.5660  0.1586 -0.1731
 4854SOL    HW126195   3.222   4.565   5.283  0.5567  2.0445 -2.1354
 4854SOL    HW226196   3.237   4.651   5.395  1.0962  0.7571 -1.1348
 4855SOL     OW26197   3.356   1.246   1.477 -0.7482 -0.3295 -0.3797
 4855SOL    HW126198   3.424   1.287   1.531 -0.2760 -1.0082 -0.4516
 4855SOL    HW226199   3.315   1.186   1.539 -0.8744  1.1417  0.9620
 4856SOL     OW26200   2.230   0.319  15.441  0.3224 -0.6622  0.3266
 4856SOL    HW126201   2.165   0.271  15.390  0.1576  1.3885 -1.3581
 4856SOL    HW226202   2.273   0.360  15.366 -0.6797  0.7593  0.5460
 4857SOL     OW26203   1.772   1.229  17.153  1.0414 -0.6316  0.4859
 4857SOL    HW126204   1.729   1.203  17.072  1.4346  1.6214 -0.4496
 4857SOL    HW226205   1.848   1.171  17.155  2.2456  0.9576  0.5275
 4858SOL     OW26206   0.256   2.466  10.259  0.1705 -0.2069 -0.4432
 4858SOL    HW126207   0.312   2.504  10.327 -0.9350  1.7466 -0.6045
 4858SOL    HW226208   0.196   2.418  10.315 -0.1859  1.8032  0.9225
 4859SOL     OW26209   1.095   2.223   3.162 -0.1524  0.0880 -0.1607
 4859SOL    HW126210   1.092   2.264   3.248  1.1426  2.3201 -1.1869
 4859SOL    HW226211   1.182   2.183   3.160  0.3219  0.9309  3.6286
 4860SOL     OW26212   3.608   3.004   9.717 -0.5342 -0.0362  0.0228
 4860SOL    HW126213   3.685   2.983   9.663  0.5608  4.0917 -0.0337
 4860SOL    HW226214   3.557   3.062   9.660 -0.6145 -0.0730  0.0575
 4861SOL     OW26215   1.686   0.122   6.061 -0.0680 -0.5333 -0.2000
 4861SOL    HW126216   1.595   0.125   6.092  0.6004  2.0924  1.4861
 4861SOL    HW226217   1.680   0.112   5.966  3.5700 -1.2563 -0.3391
 4862SOL     OW26218   2.212   3.582   9.739 -0.2708 -0.3039  0.6593
 4862SOL    HW126219   2.221   3.631   9.821  0.3128  1.0610 -0.2194
 4862SOL    HW226220   2.119   3.559   9.733 -0.0335 -1.0090 -0.5238
 4863SOL     OW26221   0.004   2.687   6.351  0.2056 -0.1851  0.6822
 4863SOL    HW126222   4.654   2.719   6.388  0.1503  1.9962 -1.3437
 4863SOL    HW226223   4.728   2.731   6.267 -0.2660  2.2785  2.0428
 4864SOL     OW26224   3.674   1.884   6.187  0.7763 -0.0043 -0.1418
 4864SOL    HW126225   3.675   1.959   6.247  0.0874 -0.1490  0.0467
 4864SOL    HW226226   3.756   1.846   6.219  0.6663 -0.6180 -0.6036
 4865SOL     OW26227   0.942   0.112  10.436  0.7365 -0.2807 -0.9914
 4865SOL    HW126228   0.863   0.097  10.385 -1.2910 -1.4075  2.4964
 4865SOL    HW226229   1.000   0.050  10.391 -1.3009 -1.9266 -1.3153
 4866SOL     OW26230   4.253   1.457   8.580  0.1683 -0.8791 -0.5682
 4866SOL    HW126231   4.176   1.491   8.533  0.0109 -0.9918 -0.3919
 4866SOL    HW226232   4.330   1.480   8.528  0.3650  0.3599  0.2854
 4867SOL     OW26233   1.054   1.794  10.845 -0.6178  0.2111  0.0855
 4867SOL    HW126234   1.121   1.749  10.793  1.0132  1.8500  0.7558
 4867SOL    HW226235   1.098   1.820  10.926 -2.3888  0.1101  1.0776
 4868SOL     OW26236   0.346   1.056   5.396  0.6708  0.7653  0.2469
 4868SOL    HW126237   0.301   1.002   5.460  1.1282 -0.8096 -0.7784
 4868SOL    HW226238   0.282   1.123   5.370 -1.0201 -0.4179  1.4034
 4869SOL     OW26239   0.368   3.203   8.725  0.2218 -0.1221 -0.2790
 4869SOL    HW126240   0.281   3.241   8.724  0.1831 -0.1820  2.2527
 4869SOL    HW226241   0.362   3.160   8.810  0.8696 -0.4510 -0.3961
 4870SOL     OW26242   0.254   1.752   5.644  0.5012  0.3212  0.1949
 4870SOL    HW126243   0.173   1.781   5.602  0.3121  1.3181  1.2330
 4870SOL    HW226244   0.244   1.658   5.654  0.0024  0.6433  2.6419
 4871SOL     OW26245   4.282   1.517  16.446  0.0807 -0.3811 -0.4099
 4871SOL    HW126246   4.356   1.571  16.420  1.2769 -2.2362 -0.8419
 4871SOL    HW226247   4.225   1.578  16.492  0.4729 -0.3846  0.0734
 4872SOL     OW26248   0.894   1.283   0.200 -0.2991  0.2124 -0.3639
 4872SOL    HW126249   0.928   1.327   0.278 -1.5273  0.2267  0.1533
 4872SOL    HW226250   0.802   1.306   0.211 -1.1721 -2.5927 -1.8731
 4873SOL     OW26251   1.754   3.557  17.409  0.0593 -0.0694  0.6627
 4873SOL    HW126252   1.839   3.601  17.410  0.8542 -1.6047 -0.5345
 4873SOL    HW226253   1.768   3.493  17.339  1.8475 -2.2603  3.0202
 4874SOL     OW26254   2.436   3.966   4.872 -0.0165 -0.6227 -0.3722
 4874SOL    HW126255   2.510   3.954   4.813 -0.6762 -1.8279 -0.9656
 4874SOL    HW226256   2.378   4.028   4.826  0.3225  0.8209  1.1296
 4875SOL     OW26257   0.419   1.539   5.816 -0.1136  0.3491  0.1333
 4875SOL    HW126258   0.363   1.593   5.871 -1.0474  0.1639 -0.6302
 4875SOL    HW226259   0.448   1.458   5.860 -1.3225 -0.2451 -0.1751
 4876SOL     OW26260   2.357   3.758   6.625  0.4252  0.0230 -0.2978
 4876SOL    HW126261   2.353   3.679   6.679 -1.3318 -0.4734 -1.1220
 4876SOL    HW226262   2.451   3.771   6.620  0.1809  2.4064  1.1431
 4877SOL     OW26263   0.681   4.327  16.642  0.2163 -0.5040  0.1020
 4877SOL    HW126264   0.649   4.356  16.557  0.6293  0.5015  0.2774
 4877SOL    HW226265   0.633   4.390  16.695 -0.2840 -0.7906 -0.0183
 4878SOL     OW26266   4.615   1.748   1.463 -0.0324 -0.0706  0.0285
 4878SOL    HW126267   4.646   1.826   1.417 -0.1348  0.3569  0.6777
 4878SOL    HW226268   4.696   1.699   1.477 -0.7481 -1.5045 -0.8526
 4879SOL     OW26269   3.079   2.629   2.041  0.3633  0.3496 -0.5017
 4879SOL    HW126270   3.086   2.671   1.955  1.8554  0.6782 -0.2084
 4879SOL    HW226271   2.989   2.596   2.040  0.9141 -1.1590  0.5715
 4880SOL     OW26272   3.054   2.232   9.904  1.0326 -0.2711  0.3183
 4880SOL    HW126273   3.073   2.305   9.963  1.5741  0.4153 -0.7059
 4880SOL    HW226274   2.961   2.210   9.909  0.2801  2.7838 -0.0079
 4881SOL     OW26275   3.691   3.535   3.107 -0.7104  0.0882 -0.3694
 4881SOL    HW126276   3.744   3.572   3.037  1.7701 -0.9946  0.9590
 4881SOL    HW226277   3.635   3.478   3.054 -1.8300  0.1877  0.6849
 4882SOL     OW26278   2.594   2.481  13.425 -0.1074 -0.2394  0.0566
 4882SOL    HW126279   2.610   2.424  13.500  1.6647  0.0477 -0.0884
 4882SOL    HW226280   2.617   2.563  13.468  1.4319  0.1710 -1.5273
 4883SOL     OW26281   1.216   2.650   7.661  0.3120  0.6672  0.3164
 4883SOL    HW126282   1.308   2.675   7.668  0.5806 -0.6930  1.7847
 4883SOL    HW226283   1.193   2.670   7.752 -0.1421  1.0277  0.1188
 4884SOL     OW26284   2.436   1.739  16.074 -0.0113 -0.1972 -0.3097
 4884SOL    HW126285   2.430   1.824  16.116 -0.0838  0.9372 -2.6047
 4884SOL    HW226286   2.466   1.682  16.145 -2.3890 -1.6177 -0.4385
 4885SOL     OW26287   0.508   2.255   9.484 -0.1131  0.4524 -0.2469
 4885SOL    HW126288   0.471   2.341   9.462 -2.1103 -0.2461  0.4657
 4885SOL    HW226289   0.437   2.200   9.453 -0.2694  1.4867 -1.7360
 4886SOL     OW26290   1.045   4.385   4.232 -0.3986 -0.8915  0.6101
 4886SOL    HW126291   0.956   4.364   4.259 -1.2233 -1.5386 -2.5560
 4886SOL    HW226292   1.079   4.423   4.313  1.2070 -1.1170  0.0420
 4887SOL     OW26293   3.365   3.722   4.746 -0.5007  0.1625  0.2710
 4887SOL    HW126294   3.333   3.642   4.706 -0.8478  0.1254  0.6257
 4887SOL    HW226295   3.328   3.712   4.834 -1.7222  3.4477  0.1417
 4888SOL     OW26296   2.989   2.522   6.707  0.5529  0.2122 -0.1660
 4888SOL    HW126297   3.033   2.454   6.758  0.6142  0.4378  0.0837
 4888SOL    HW226298   2.924   2.542   6.774 -0.1004 -1.3401 -0.3291
 4889SOL     OW26299   3.295   3.275  16.683  0.1232 -0.1094  0.2141
 4889SOL    HW126300   3.336   3.215  16.745  0.8245 -0.0197 -0.1573
 4889SOL    HW226301   3.263   3.340  16.745 -1.8899 -0.3861 -0.5437
 4890SOL     OW26302   2.604   3.549   7.284 -0.2368 -0.4107  0.0672
 4890SOL    HW126303   2.618   3.499   7.364  2.5179  2.0083  1.1003
 4890SOL    HW226304   2.657   3.511   7.213 -1.5578 -0.2444 -1.0142
 4891SOL     OW26305   0.485   4.651   1.581  0.5987  0.1520 -0.2252
 4891SOL    HW126306   0.430   4.711   1.631  0.6327 -1.5420  1.8277
 4891SOL    HW226307   0.524   4.596   1.648 -1.5628 -0.3653  0.6183
 4892SOL     OW26308   0.656   1.510   5.420 -1.0698 -0.1514 -0.7800
 4892SOL    HW126309   0.599   1.450   5.468 -0.6862  3.3701  4.0571
 4892SOL    HW226310   0.609   1.591   5.441  2.0971  1.1158  1.4222
 4893SOL     OW26311   0.439   1.887   9.598 -0.3479  0.4802  0.3595
 4893SOL    HW126312   0.460   1.970   9.641  1.2530  0.7886 -0.9809
 4893SOL    HW226313   0.366   1.860   9.653 -1.4436 -0.5044 -1.5761
 4894SOL     OW26314   2.810   1.849   9.596  0.2510 -0.2653  0.5211
 4894SOL    HW126315   2.865   1.864   9.673  1.0215 -1.6920  0.2519
 4894SOL    HW226316   2.720   1.837   9.629 -0.0471 -0.3570 -0.3232
 4895SOL     OW26317   2.450   4.213   7.016  0.0272  0.2767  0.3299
 4895SOL    HW126318   2.503   4.262   7.079 -0.4883  0.0887  0.9132
 4895SOL    HW226319   2.417   4.144   7.074  1.6067  1.9123  3.2160
 4896SOL     OW26320   4.364   2.108   9.681 -0.3567 -0.2525 -0.0587
 4896SOL    HW126321   4.365   2.177   9.615 -0.5290  0.2587  0.4745
 4896SOL    HW226322   4.400   2.156   9.756  0.2658 -0.0969 -0.4584
 4897SOL     OW26323   2.710   4.326   7.901  0.1535 -0.0102 -0.3029
 4897SOL    HW126324   2.782   4.386   7.879  1.0977 -1.1334 -0.3020
 4897SOL    HW226325   2.681   4.303   7.813 -2.1369  1.5128  0.0751
 4898SOL     OW26326   2.701   3.240   4.010 -0.1838 -0.1693 -0.2444
 4898SOL    HW126327   2.730   3.315   4.062  1.0758  0.1237 -1.3743
 4898SOL    HW226328   2.688   3.185   4.087 -0.8532  1.1501  0.5975
 4899SOL     OW26329   4.326   2.504   4.516  0.5395  0.1259 -0.3485
 4899SOL    HW126330   4.251   2.538   4.467 -0.5554  1.3638  2.1870
 4899SOL    HW226331   4.317   2.554   4.597  2.0899  0.0839 -0.1419
 4900SOL     OW26332   4.457   2.602  16.574  0.2596  0.2665  0.6515
 4900SOL    HW126333   4.497   2.560  16.498 -3.5018 -0.6080 -0.8659
 4900SOL    HW226334   4.500   2.688  16.577  1.0574  0.0129 -2.9235
 4901SOL     OW26335   0.294   2.797   2.278 -0.3098 -0.3136 -0.1223
 4901SOL    HW126336   0.322   2.713   2.315 -0.6941  0.0163  0.9372
 4901SOL    HW226337   0.377   2.842   2.266  0.9241 -1.8782  2.5314
 4902SOL     OW26338   0.892   2.366   8.143  0.4657  0.5490  0.7488
 4902SOL    HW126339   0.969   2.315   8.167  1.3428  0.9725 -1.1350
 4902SOL    HW226340   0.926   2.453   8.164  0.5232  1.1233 -1.6918
 4903SOL     OW26341   2.392   0.080  17.371 -0.3139  0.2395 -0.5993
 4903SOL    HW126342   2.364   4.727  17.404  0.2973  0.0727 -0.5090
 4903SOL    HW226343   2.471   0.102  17.421 -0.4555 -2.4889  0.8664
 4904SOL     OW26344   4.214   1.374   5.627 -0.2477  0.1907  0.7146
 4904SOL    HW126345   4.145   1.309   5.620 -2.1157  2.4125 -1.4229
 4904SOL    HW226346   4.166   1.437   5.680 -2.0550 -0.5502 -0.0582
 4905SOL     OW26347   4.136   1.700  16.589  0.5779  0.5637  0.1512
 4905SOL    HW126348   4.098   1.736  16.509  2.3090 -1.9434 -1.7883
 4905SOL    HW226349   4.120   1.771  16.651 -0.1496  2.0166 -1.6900
 4906SOL     OW26350   1.270   1.061   5.264 -0.2082 -0.0213 -0.4386
 4906SOL    HW126351   1.329   1.131   5.291  2.4821 -1.8102 -1.5896
 4906SOL    HW226352   1.302   0.990   5.320 -0.1175  0.8585  0.5971
 4907SOL     OW26353   1.692   3.132   2.288 -0.3916  0.0197  0.4122
 4907SOL    HW126354   1.609   3.085   2.294 -0.5802  0.1187 -1.3894
 4907SOL    HW226355   1.758   3.063   2.277 -1.4262 -0.8500 -0.4503
 4908SOL     OW26356   3.888   1.742  16.820 -0.0176  0.0130 -0.2376
 4908SOL    HW126357   3.967   1.787  16.789 -1.4781  3.4942  1.0642
 4908SOL    HW226358   3.881   1.769  16.912  0.9905 -2.9760  0.7041
 4909SOL     OW26359   1.206   0.276   3.332  0.1130  0.0710 -0.1654
 4909SOL    HW126360   1.125   0.316   3.362 -0.5993 -2.0390  0.6807
 4909SOL    HW226361   1.281   0.333   3.354 -0.3229  0.8186 -0.5924
 4910SOL     OW26362   2.024   4.518  14.855 -0.0334 -0.2380 -0.3972
 4910SOL    HW126363   2.050   4.607  14.877 -1.1657  0.8261 -3.4423
 4910SOL    HW226364   2.026   4.517  14.759  4.6252 -1.4073 -0.2685
 4911SOL     OW26365   4.360   4.235  14.593  0.4341 -0.2247  0.2623
 4911SOL    HW126366   4.282   4.289  14.606  0.5329  0.8184 -3.4523
 4911SOL    HW226367   4.418   4.303  14.558  0.2471 -0.5783 -0.7343
 4912SOL     OW26368   0.706   0.755   8.729 -0.0681  0.2998  0.1881
 4912SOL    HW126369   0.615   0.763   8.757 -0.2050 -0.6372  0.0106
 4912SOL    HW226370   0.763   0.769   8.805  2.5956  0.3707 -1.8044
 4913SOL     OW26371   3.928   1.121   9.578  0.4757  0.1885 -0.5355
 4913SOL    HW126372   3.855   1.161   9.625  1.5049 -0.5242  1.6684
 4913SOL    HW226373   3.997   1.171   9.621  1.0587 -2.1561  1.2703
 4914SOL     OW26374   2.784   4.041   4.338 -0.1847 -0.3356 -0.0394
 4914SOL    HW126375   2.704   3.990   4.350 -2.3932  3.4540  1.4106
 4914SOL    HW226376   2.833   3.982   4.281 -0.1932 -0.0343 -0.3563
 4915SOL     OW26377   3.819   3.608  10.884 -0.5899 -0.1301 -0.5516
 4915SOL    HW126378   3.894   3.636  10.830 -0.0792 -0.4051  0.0141
 4915SOL    HW226379   3.828   3.514  10.865  0.6456 -0.0494 -0.3971
 4916SOL     OW26380   0.807   0.725   5.746  0.0389  0.2677  0.2552
 4916SOL    HW126381   0.795   0.796   5.683  0.1789  0.3380  0.3074
 4916SOL    HW226382   0.767   0.753   5.828  0.8423 -1.1524  1.1342
 4917SOL     OW26383   1.977   4.297   6.207 -0.0830 -0.0531 -0.0965
 4917SOL    HW126384   1.897   4.245   6.208  0.1408 -0.3220  2.3719
 4917SOL    HW226385   1.941   4.365   6.150  0.0440 -0.1369 -0.2752
 4918SOL     OW26386   4.445   3.076   8.767  0.0465 -0.1062 -0.0844
 4918SOL    HW126387   4.421   2.987   8.741  0.8394 -0.2510 -0.3325
 4918SOL    HW226388   4.541   3.074   8.777  0.3704  4.2467 -2.4797
 4919SOL     OW26389   3.906   0.032   2.392 -0.1216  0.1214 -0.3144
 4919SOL    HW126390   3.927   4.680   2.430 -2.0341 -0.3324 -0.2864
 4919SOL    HW226391   3.989   0.080   2.400  0.7871 -1.0044 -3.0739
 4920SOL     OW26392   0.733   3.587   1.939  0.0039 -0.0256 -0.3516
 4920SOL    HW126393   0.641   3.608   1.950 -0.2740 -1.1905 -0.4676
 4920SOL    HW226394   0.750   3.598   1.845 -0.9326 -0.9446 -0.6199
 4921SOL     OW26395   3.704   2.734  16.399  0.4512 -0.4769 -0.2340
 4921SOL    HW126396   3.689   2.818  16.442 -0.2394 -0.0245 -1.3747
 4921SOL    HW226397   3.736   2.771  16.317 -0.7148 -1.9548 -1.3410
 4922SOL     OW26398   4.261   2.070  17.266 -0.0790  0.2033  0.1032
 4922SOL    HW126399   4.240   2.106  17.353 -3.5784  1.7686 -1.4243
 4922SOL    HW226400   4.350   2.041  17.288 -0.3335 -0.4906  0.1943
 4923SOL     OW26401   0.061   3.180   7.768 -0.1050  0.3338 -0.5361
 4923SOL    HW126402   0.073   3.109   7.705 -1.7432 -0.5986  0.2097
 4923SOL    HW226403   0.077   3.133   7.850 -1.2180  0.6098 -0.1759
 4924SOL     OW26404   0.868   2.028   5.779  0.5143 -0.1681 -0.8035
 4924SOL    HW126405   0.905   2.049   5.865 -3.2039  0.0072  0.7548
 4924SOL    HW226406   0.806   2.101   5.771  0.1411 -0.4784 -0.7682
 4925SOL     OW26407   1.988   2.484  16.807 -0.3571  1.0925  0.0668
 4925SOL    HW126408   1.947   2.550  16.863 -2.1105 -0.8865  1.1129
 4925SOL    HW226409   2.080   2.506  16.823  1.1441 -4.0654 -1.2254
 4926SOL     OW26410   0.459   1.580   3.638  0.3188 -0.2365 -0.1726
 4926SOL    HW126411   0.397   1.618   3.576 -0.4922 -0.6667  0.3830
 4926SOL    HW226412   0.419   1.588   3.724  0.5992  1.2943 -0.1975
 4927SOL     OW26413   1.731   1.219   7.083 -0.5387  0.0976 -0.1426
 4927SOL    HW126414   1.659   1.185   7.136 -0.6395  1.4123  0.5735
 4927SOL    HW226415   1.774   1.282   7.142  0.1741  1.1770 -1.8175
 4928SOL     OW26416   1.570   2.805  17.045  0.0647 -0.3757 -0.2128
 4928SOL    HW126417   1.532   2.883  17.005  0.0532 -0.5117 -0.4699
 4928SOL    HW226418   1.585   2.748  16.969 -0.5197 -0.8756  0.0506
 4929SOL     OW26419   1.853   3.992   4.531  0.3559 -0.2935 -0.0186
 4929SOL    HW126420   1.922   4.053   4.504 -2.1693  1.9037 -1.5544
 4929SOL    HW226421   1.781   4.054   4.533  0.5127 -0.2003  3.0142
 4930SOL     OW26422   3.157   4.623  13.067  0.1351 -0.0293  0.0464
 4930SOL    HW126423   3.199   4.633  12.982 -0.4336 -0.9685 -0.3431
 4930SOL    HW226424   3.171   4.706  13.113 -0.2565  0.1975 -0.2372
 4931SOL     OW26425   3.721   0.750  15.670 -0.4212  0.2138  0.7413
 4931SOL    HW126426   3.698   0.843  15.681 -0.6571  0.2042  0.3235
 4931SOL    HW226427   3.810   0.747  15.706 -0.8489  0.6834  1.8544
 4932SOL     OW26428   0.452   1.936   3.065  0.3058 -0.2567 -0.6047
 4932SOL    HW126429   0.413   2.005   3.120  0.1582 -2.6024  2.2074
 4932SOL    HW226430   0.538   1.976   3.050 -0.3354  1.1198 -0.6709
 4933SOL     OW26431   3.891   1.042  16.807 -0.2676  0.4401 -0.2798
 4933SOL    HW126432   3.817   1.051  16.866  0.0750 -1.5935  0.4458
 4933SOL    HW226433   3.936   1.125  16.827  1.2649 -0.8396  1.5283
 4934SOL     OW26434   3.445   1.055   3.541  0.0932  0.4995  0.0181
 4934SOL    HW126435   3.508   1.037   3.611 -0.7229 -0.0338  0.6123
 4934SOL    HW226436   3.476   0.997   3.471 -0.1199 -0.8742  1.0515
 4935SOL     OW26437   0.860   2.778   7.886 -0.0456 -0.0205 -0.0667
 4935SOL    HW126438   0.885   2.780   7.794 -2.4801  2.0044 -0.6771
 4935SOL    HW226439   0.765   2.777   7.888 -0.0561  1.4125  0.6735
 4936SOL     OW26440   2.129   1.616   4.880  0.5387 -0.2996  0.1295
 4936SOL    HW126441   2.220   1.601   4.904  0.3045 -2.4422 -0.2882
 4936SOL    HW226442   2.123   1.711   4.889  1.8449 -0.1684 -0.4465
 4937SOL     OW26443   1.505   2.877   5.406  0.0111 -0.0095  0.6762
 4937SOL    HW126444   1.584   2.827   5.389  1.0230  1.4334  1.0838
 4937SOL    HW226445   1.546   2.962   5.424  0.2878 -0.0196  0.0914
 4938SOL     OW26446   1.581   4.376   5.674 -0.3054 -0.5084  0.3778
 4938SOL    HW126447   1.504   4.358   5.620 -1.0107 -0.1111  1.2636
 4938SOL    HW226448   1.645   4.319   5.630  0.2866  1.6927 -1.5803
 4939SOL     OW26449   0.440   3.136  15.515  0.3175 -0.1043  0.4303
 4939SOL    HW126450   0.355   3.097  15.538 -0.4376 -0.1018 -2.3706
 4939SOL    HW226451   0.491   3.080  15.574  0.4230 -0.7302 -0.2546
 4940SOL     OW26452   0.068   1.191  17.245 -0.3653 -0.5784  0.2652
 4940SOL    HW126453   0.143   1.246  17.224 -1.1651 -0.3382 -1.8884
 4940SOL    HW226454   4.725   1.241  17.216 -0.1473 -0.1272  0.4782
 4941SOL     OW26455   0.735   1.914   2.288 -0.3567 -0.2255  0.7695
 4941SOL    HW126456   0.693   1.999   2.301  0.7846  0.7054 -1.5866
 4941SOL    HW226457   0.748   1.897   2.381 -1.0720  2.2995  1.3456
 4942SOL     OW26458   0.330   4.674   5.376  0.4126 -0.3787 -0.4011
 4942SOL    HW126459   0.246   4.627   5.371 -0.0262  0.3232  0.3011
 4942SOL    HW226460   0.293   0.024   5.346 -0.0078 -1.1332 -1.9562
 4943SOL     OW26461   0.418   0.914   9.508  0.9413  0.0141  0.1367
 4943SOL    HW126462   0.477   0.848   9.471  3.1502 -0.1327  3.8646
 4943SOL    HW226463   0.423   0.896   9.602  0.0224 -0.1477  0.1512
 4944SOL     OW26464   1.473   3.014   0.486  0.0353  0.0199 -0.0093
 4944SOL    HW126465   1.462   3.020   0.581 -1.5810 -1.4910 -0.1044
 4944SOL    HW226466   1.411   3.080   0.454  0.5617  0.5686  0.0861
 4945SOL     OW26467   1.904   3.745   6.354  0.5534 -0.5031 -0.0221
 4945SOL    HW126468   1.999   3.736   6.359  0.5239 -0.0522  1.5491
 4945SOL    HW226469   1.872   3.664   6.392  0.7050  0.4669  2.1749
 4946SOL     OW26470   4.320   3.769  12.614 -0.4523  0.4987  0.2876
 4946SOL    HW126471   4.249   3.796  12.672  0.3478  0.7900  1.1163
 4946SOL    HW226472   4.294   3.832  12.546  0.8874  1.2819  0.5072
 4947SOL     OW26473   2.794   3.193   8.653  0.0018  0.0277 -0.6692
 4947SOL    HW126474   2.866   3.161   8.599 -1.3297 -0.6251 -2.0572
 4947SOL    HW226475   2.846   3.232   8.723  0.4239  0.2624 -1.1174
 4948SOL     OW26476   0.688   3.092   2.900  0.0224  0.0473 -0.4805
 4948SOL    HW126477   0.666   3.161   2.838 -0.4808  0.6056  0.3108
 4948SOL    HW226478   0.599   3.070   2.929  0.4630  0.0764  0.8925
 4949SOL     OW26479   1.995   0.024   4.998 -0.3192  0.1190  0.1111
 4949SOL    HW126480   2.070   0.014   5.057  0.6246  2.4729 -0.6993
 4949SOL    HW226481   1.990   0.119   5.009 -0.3931  0.1723 -0.4123
 4950SOL     OW26482   0.653   2.560   9.618  0.0685 -0.2307  0.1251
 4950SOL    HW126483   0.582   2.542   9.556  1.0154  0.2672 -1.0802
 4950SOL    HW226484   0.731   2.559   9.563 -1.4655 -1.0877 -2.0588
 4951SOL     OW26485   0.380   4.463  15.707  0.1408  0.6394 -0.1967
 4951SOL    HW126486   0.398   4.379  15.666  0.8018  0.9572 -0.5484
 4951SOL    HW226487   0.442   4.467  15.780  0.1485  1.6555 -0.2501
 4952SOL     OW26488   2.908   0.354   4.408  0.4003  0.6196 -0.1625
 4952SOL    HW126489   2.821   0.363   4.446  0.7238 -1.8493  1.1898
 4952SOL    HW226490   2.875   0.332   4.321  2.3750 -0.8138 -0.5542
 4953SOL     OW26491   1.420   3.286   4.561  0.0505 -0.1362 -0.0174
 4953SOL    HW126492   1.465   3.335   4.629 -1.3246  0.2683  0.6008
 4953SOL    HW226493   1.431   3.197   4.595 -0.6095 -0.9254 -1.8465
 4954SOL     OW26494   3.257   1.525   0.643 -0.1196  0.8104 -0.2126
 4954SOL    HW126495   3.210   1.587   0.699  1.1338  0.3409  1.3488
 4954SOL    HW226496   3.335   1.518   0.698 -0.7719 -0.6717  0.5245
 4955SOL     OW26497   0.907   3.684   2.209  0.7573 -0.2494 -0.1514
 4955SOL    HW126498   0.919   3.621   2.138  2.5818 -2.0615  1.7261
 4955SOL    HW226499   0.879   3.627   2.281  0.3753 -0.4236 -0.4377
 4956SOL     OW26500   4.081   0.155  14.031  0.3206  0.1685  0.3367
 4956SOL    HW126501   4.000   0.168  13.982  0.8913  2.2160 -0.0675
 4956SOL    HW226502   4.087   0.232  14.087 -2.2084  0.6366 -0.0345
 4957SOL     OW26503   1.963   1.124   9.271 -0.4347  0.3260 -0.0670
 4957SOL    HW126504   2.024   1.181   9.224  0.6091 -2.4781 -2.1466
 4957SOL    HW226505   1.883   1.176   9.270 -0.0891  0.8249 -3.2687
 4958SOL     OW26506   0.131   3.637   0.121 -0.1910 -0.2681  0.1616
 4958SOL    HW126507   0.197   3.641   0.190  0.7465 -0.2595 -0.7456
 4958SOL    HW226508   0.145   3.546   0.096  0.6167 -0.5622  1.7297
 4959SOL     OW26509   1.969   2.951  10.539  0.0093 -0.5211  0.2995
 4959SOL    HW126510   2.002   2.940  10.450 -1.0551 -0.1557 -0.1395
 4959SOL    HW226511   2.007   3.036  10.561  1.0794 -0.6267 -1.1899
 4960SOL     OW26512   3.076   1.555   4.582  0.6337  0.6085  0.0221
 4960SOL    HW126513   2.988   1.531   4.611  1.2250 -0.8088  0.6479
 4960SOL    HW226514   3.054   1.628   4.524  1.0128  0.1232 -0.7376
 4961SOL     OW26515   4.407   4.512  10.008  0.5113  0.5395 -0.3844
 4961SOL    HW126516   4.483   4.552  10.050 -0.1164  0.9142  0.3878
 4961SOL    HW226517   4.336   4.539  10.066  0.4268  0.5766 -0.5055
 4962SOL     OW26518   4.165   0.279   7.565 -0.2179  0.3608  0.6377
 4962SOL    HW126519   4.149   0.367   7.532  0.9123 -0.2309 -1.4864
 4962SOL    HW226520   4.255   0.293   7.595 -0.2868 -2.7921  2.3434
 4963SOL     OW26521   2.768   1.667   0.666 -0.0057  0.0109  0.3097
 4963SOL    HW126522   2.828   1.694   0.596 -0.6656  1.7840  0.4119
 4963SOL    HW226523   2.792   1.575   0.665 -0.8472 -0.2189  1.4238
 4964SOL     OW26524   1.885   4.472   4.061 -0.7180 -0.8306  0.1616
 4964SOL    HW126525   1.818   4.402   4.060 -1.0443 -0.5139 -0.2353
 4964SOL    HW226526   1.914   4.480   3.970  0.9763  3.0612  1.0557
 4965SOL     OW26527   0.343   3.193   7.740 -0.0842  0.3601 -0.4886
 4965SOL    HW126528   0.292   3.271   7.764  2.6430  2.0441 -0.0856
 4965SOL    HW226529   0.342   3.202   7.645  0.7629  1.3049 -0.4183
 4966SOL     OW26530   3.706   3.827  15.168 -0.4914 -0.0854  0.9966
 4966SOL    HW126531   3.754   3.769  15.227 -0.3935  0.5412  1.5319
 4966SOL    HW226532   3.729   3.913  15.203  1.2644 -1.2348  2.6966
 4967SOL     OW26533   3.493   2.579   5.360 -0.5610 -0.3345 -0.2608
 4967SOL    HW126534   3.498   2.674   5.370 -2.5566 -0.3717  1.0171
 4967SOL    HW226535   3.583   2.559   5.387 -1.2689 -1.1557  1.5112
 4968SOL     OW26536   0.745   4.071  17.370 -0.1367 -0.4620 -0.0028
 4968SOL    HW126537   0.809   4.001  17.375  1.2134  0.9520  2.5592
 4968SOL    HW226538   0.706   4.071  17.458  0.4126 -0.4253  0.2375
 4969SOL     OW26539   0.824   0.046   3.480  0.1361  0.0744  0.4897
 4969SOL    HW126540   0.898   0.049   3.541 -0.3924 -0.1764  1.1497
 4969SOL    HW226541   0.861   0.053   3.392  0.4062  2.4826  0.7797
 4970SOL     OW26542   0.926   3.535   5.780 -0.1806  0.2161  0.8361
 4970SOL    HW126543   0.953   3.544   5.688 -2.1208  0.7518  0.3137
 4970SOL    HW226544   0.876   3.616   5.793 -2.6766 -1.2505  0.4786
 4971SOL     OW26545   1.405   3.336  12.666 -0.3990 -0.1069  0.1061
 4971SOL    HW126546   1.317   3.352  12.700  0.0138  1.5429  0.3960
 4971SOL    HW226547   1.390   3.276  12.593 -2.7908 -1.0219  1.3584
 4972SOL     OW26548   4.623   2.815  17.485 -0.2131 -0.3589 -0.3341
 4972SOL    HW126549   4.582   2.732  17.509  0.2773 -0.1343  1.3501
 4972SOL    HW226550   4.709   2.776  17.469  0.0681  0.1504 -0.0835
 4973SOL     OW26551   3.161   3.748  12.898  0.1834  0.0479 -0.8409
 4973SOL    HW126552   3.111   3.688  12.841 -1.5682 -0.0076  0.7539
 4973SOL    HW226553   3.113   3.830  12.887  0.3202  0.3721  1.1803
 4974SOL     OW26554   3.199   3.076  10.536  0.1220 -0.1290  0.2228
 4974SOL    HW126555   3.124   3.135  10.537  0.0821 -0.1910  0.6360
 4974SOL    HW226556   3.165   3.006  10.592 -0.5213  0.9747  1.1925
 4975SOL     OW26557   3.121   0.086   9.343  0.2206 -0.0945  0.4747
 4975SOL    HW126558   3.194   0.046   9.296 -0.4332 -0.7683  0.0345
 4975SOL    HW226559   3.174   0.148   9.393 -0.7219  0.5740  0.6235
 4976SOL     OW26560   2.896   1.942   4.369 -0.4660  0.5793 -0.2113
 4976SOL    HW126561   2.805   1.938   4.341 -1.1192 -1.6404  2.2331
 4976SOL    HW226562   2.891   2.003   4.442 -2.2012 -0.6800  0.7247
 4977SOL     OW26563   0.376   3.475   7.608 -0.2699 -0.3780 -0.3941
 4977SOL    HW126564   0.465   3.462   7.641 -0.3178 -1.6826 -0.7770
 4977SOL    HW226565   0.323   3.501   7.684  2.2734  1.4558  0.7558
 4978SOL     OW26566   4.211   2.325   1.681 -0.6402  0.0117 -0.1589
 4978SOL    HW126567   4.224   2.408   1.635 -3.5746  0.2093 -0.6532
 4978SOL    HW226568   4.222   2.345   1.774  0.3974  1.1857 -0.5303
 4979SOL     OW26569   3.823   2.359  14.332 -0.4545 -0.6511  0.1800
 4979SOL    HW126570   3.786   2.286  14.383 -2.9162  0.0651 -0.5810
 4979SOL    HW226571   3.794   2.325  14.247 -2.9964 -0.2650  0.8773
 4980SOL     OW26572   1.361   0.764   5.322  0.2246  0.2839  0.5096
 4980SOL    HW126573   1.405   0.697   5.270  0.1655  0.3042  0.4332
 4980SOL    HW226574   1.396   0.752   5.410  0.6213  1.5789  0.5320
 4981SOL     OW26575   3.167   0.222   7.628  0.1643 -0.3345 -0.5348
 4981SOL    HW126576   3.228   0.190   7.694  2.2153 -1.9756 -3.2052
 4981SOL    HW226577   3.140   0.304   7.669 -0.2253 -1.4342  1.3635
 4982SOL     OW26578   0.219   3.511   7.238  0.2790 -0.2113 -0.2974
 4982SOL    HW126579   0.186   3.425   7.211 -2.2564  0.6212  0.1709
 4982SOL    HW226580   0.210   3.551   7.152 -0.1599 -0.1667 -0.2306
 4983SOL     OW26581   2.381   0.444   5.709 -0.3165  0.0160  0.5865
 4983SOL    HW126582   2.415   0.476   5.626  0.7118 -2.2437  0.1436
 4983SOL    HW226583   2.408   0.352   5.704  0.5420  0.2828  0.3132
 4984SOL     OW26584   3.244   3.992   3.183 -0.0647 -0.3892  0.1835
 4984SOL    HW126585   3.323   3.991   3.129 -0.3790 -2.7184 -0.2740
 4984SOL    HW226586   3.180   3.978   3.113  0.2174 -1.0839  0.0590
 4985SOL     OW26587   1.295   2.043   1.481 -0.8095  0.3498  0.2122
 4985SOL    HW126588   1.356   2.081   1.418  0.3718 -3.6652 -1.0601
 4985SOL    HW226589   1.325   2.079   1.565 -2.6447  0.4023  0.8542
 4986SOL     OW26590   1.307   0.286  16.766  0.2802  0.0819  0.3115
 4986SOL    HW126591   1.328   0.304  16.674  0.0727 -1.5116 -0.0587
 4986SOL    HW226592   1.393   0.294  16.808  1.0719  0.0091 -1.2888
 4987SOL     OW26593   3.560   0.661   5.116  0.4807 -0.2125  0.0328
 4987SOL    HW126594   3.488   0.711   5.155  1.9887 -0.2784  2.8980
 4987SOL    HW226595   3.511   0.585   5.087  0.1280  0.5662 -1.4385
 4988SOL     OW26596   4.496   1.323  11.246 -0.4672  0.5406  0.3052
 4988SOL    HW126597   4.515   1.230  11.258 -3.8266 -0.2198 -0.3423
 4988SOL    HW226598   4.575   1.376  11.260  0.7026 -1.1830  0.1915
 4989SOL     OW26599   4.417   0.693  17.707  0.4562  0.6301 -0.2962
 4989SOL    HW126600   4.452   0.710   0.064  0.8997  0.5586 -0.4639
 4989SOL    HW226601   4.371   0.613   0.004  0.2327  1.0606  0.6201
 4990SOL     OW26602   1.494   2.291   2.988  0.0480  0.0923 -0.1888
 4990SOL    HW126603   1.499   2.361   3.053  1.6621 -0.6095  0.4600
 4990SOL    HW226604   1.432   2.236   3.035  0.3062  0.7319  0.9043
 4991SOL     OW26605   0.177   3.162   3.650  0.2458  0.0817 -0.0517
 4991SOL    HW126606   0.256   3.133   3.697 -0.1497  0.2378  0.6958
 4991SOL    HW226607   0.159   3.246   3.692  2.1871  1.7387 -2.4899
 4992SOL     OW26608   2.135   4.668  12.055 -0.1175  0.6712  0.6843
 4992SOL    HW126609   2.170   0.020  12.084 -1.7124  2.0807 -1.4676
 4992SOL    HW226610   2.168   4.611  12.124  0.8050 -0.7381 -0.9340
 4993SOL     OW26611   1.367   3.874   3.219 -0.5918  0.3236  0.1346
 4993SOL    HW126612   1.300   3.815   3.186  0.5759 -1.0479  0.1995
 4993SOL    HW226613   1.363   3.867   3.315  0.1073 -0.6810  0.0941
 4994SOL     OW26614   2.892   0.525   7.598 -0.0760  0.0014 -0.0488
 4994SOL    HW126615   2.935   0.588   7.656 -0.7855  0.7473 -0.3272
 4994SOL    HW226616   2.814   0.498   7.647 -0.1558  1.0779  0.4212
 4995SOL     OW26617   4.521   2.305   6.305  0.0737  0.0491  0.0056
 4995SOL    HW126618   4.598   2.308   6.249 -0.9083  0.2345 -1.3487
 4995SOL    HW226619   4.449   2.293   6.243 -0.5387 -1.8781  1.0794
 4996SOL     OW26620   3.240   2.403   1.866  0.4308  0.1496 -0.4372
 4996SOL    HW126621   3.202   2.415   1.779 -0.8295 -1.6378 -0.1248
 4996SOL    HW226622   3.297   2.480   1.867  0.9346 -0.2568  2.6879
 4997SOL     OW26623   3.513   2.459  13.355 -0.3399 -0.4619  0.4261
 4997SOL    HW126624   3.495   2.369  13.382  1.1055 -1.1308 -0.8267
 4997SOL    HW226625   3.605   2.471  13.379 -0.0918 -1.2474 -0.1133
 4998SOL     OW26626   3.431   0.797   8.666  0.1506 -0.0956  0.0413
 4998SOL    HW126627   3.464   0.757   8.746 -0.5823 -0.1324  0.3186
 4998SOL    HW226628   3.352   0.745   8.652 -1.4628  2.1700  0.9028
 4999SOL     OW26629   1.108   2.165  17.338  0.1386  0.0056  0.2714
 4999SOL    HW126630   1.077   2.077  17.319  0.2631 -0.3563  1.7177
 4999SOL    HW226631   1.191   2.167  17.290 -0.0662  1.0790 -0.0371
 5000SOL     OW26632   2.216   1.369  15.837 -0.1197 -0.2243 -0.0145
 5000SOL    HW126633   2.237   1.463  15.839 -0.3563 -0.1408 -1.2390
 5000SOL    HW226634   2.177   1.375  15.750 -0.0682 -2.7199 -0.2019
 5001SOL     OW26635   4.349   2.083   2.502 -0.2233 -0.3695 -0.7178
 5001SOL    HW126636   4.348   2.100   2.596 -3.6348 -2.6527 -0.3032
 5001SOL    HW226637   4.371   2.166   2.460  1.3071  0.4393  1.6993
 5002SOL     OW26638   3.785   0.876  16.024 -0.1381 -0.1145  0.4116
 5002SOL    HW126639   3.840   0.930  15.967 -1.7703 -1.0613 -2.0677
 5002SOL    HW226640   3.805   0.786  16.000  0.6397  0.7027 -2.0297
 5003SOL     OW26641   0.608   4.548   3.582  0.0445  0.1098 -0.2973
 5003SOL    HW126642   0.630   4.514   3.495  0.3632  0.5034 -0.3742
 5003SOL    HW226643   0.657   4.631   3.577  0.0353  0.1037 -0.5001
 5004SOL     OW26644   3.107   3.931   6.275  0.5501  0.6325  0.1452
 5004SOL    HW126645   3.082   4.009   6.325 -0.3259  0.6521 -0.3170
 5004SOL    HW226646   3.187   3.901   6.318 -1.0937 -0.7821  2.1908
 5005SOL     OW26647   3.792   4.443   5.498  0.4305 -0.1545 -0.0788
 5005SOL    HW126648   3.714   4.445   5.442  0.6188 -0.4317 -0.3481
 5005SOL    HW226649   3.857   4.490   5.446 -0.9354  0.7939 -0.9434
 5006SOL     OW26650   1.305   3.061  10.170 -0.1799  0.3728  0.6725
 5006SOL    HW126651   1.315   3.012  10.252  1.4881  2.0652  1.4643
 5006SOL    HW226652   1.276   2.986  10.118  0.0254  2.6137 -2.6660
 5007SOL     OW26653   2.756   3.325  13.574  0.0571 -0.3406 -0.3668
 5007SOL    HW126654   2.818   3.370  13.517  1.6463  0.5988  2.1312
 5007SOL    HW226655   2.773   3.369  13.657 -0.2122 -1.5388  0.3195
 5008SOL     OW26656   2.398   2.412   8.507  0.2389 -0.0260 -0.4545
 5008SOL    HW126657   2.334   2.483   8.498 -1.8019 -1.6846  1.1044
 5008SOL    HW226658   2.484   2.453   8.517  0.7224 -0.9171 -1.0617
 5009SOL     OW26659   3.074   3.864   2.646 -0.4894  0.8963  1.0957
 5009SOL    HW126660   3.148   3.859   2.706  1.2588  0.5297 -1.1248
 5009SOL    HW226661   3.057   3.958   2.646 -0.4889  0.8977 -1.4454
 5010SOL     OW26662   1.226   2.573   2.654  0.4400  0.2923 -0.1386
 5010SOL    HW126663   1.286   2.633   2.609 -0.2951  0.9957 -0.1829
 5010SOL    HW226664   1.262   2.567   2.742 -0.6285 -0.7906  0.2284
 5011SOL     OW26665   2.076   1.274   3.520 -0.7519 -0.3599 -0.6988
 5011SOL    HW126666   2.122   1.243   3.442 -0.4162 -0.0173 -0.6367
 5011SOL    HW226667   1.986   1.257   3.492 -0.7708 -0.3276 -0.6579
 5012SOL     OW26668   2.829   2.209  16.604  0.5772  0.0549  0.2381
 5012SOL    HW126669   2.879   2.177  16.678  0.9230 -1.4730 -0.6485
 5012SOL    HW226670   2.901   2.185  16.546  1.1087  2.3656 -0.0418
 5013SOL     OW26671   2.410   1.480   4.703 -0.8117  0.0683 -0.3754
 5013SOL    HW126672   2.412   1.567   4.664  3.8946  0.6218  1.1167
 5013SOL    HW226673   2.333   1.441   4.660 -0.8742  0.2117 -0.3950
 5014SOL     OW26674   0.149   0.553   6.030  0.2714 -1.0158 -0.0952
 5014SOL    HW126675   0.176   0.566   6.121  0.8894 -0.3179 -0.3771
 5014SOL    HW226676   0.150   0.458   6.040  0.8461 -0.9552  0.3692
 5015SOL     OW26677   1.793   1.309   6.201 -0.1057 -0.2394  0.2990
 5015SOL    HW126678   1.778   1.403   6.198 -0.5165 -0.2980  0.5516
 5015SOL    HW226679   1.704   1.272   6.203 -0.5943  1.0564  2.6947
 5016SOL     OW26680   1.397   2.544   7.106  0.1389 -0.1726 -0.0526
 5016SOL    HW126681   1.376   2.558   7.199 -0.9410 -1.0962 -0.1593
 5016SOL    HW226682   1.372   2.630   7.073 -0.1564 -0.4288 -0.4932
 5017SOL     OW26683   1.651   2.202   0.671 -0.3188 -0.1872  0.6517
 5017SOL    HW126684   1.660   2.288   0.630 -3.5829  0.2418  0.8232
 5017SOL    HW226685   1.566   2.174   0.637 -1.5424  2.2444  1.7007
 5018SOL     OW26686   3.032   2.741   8.670  0.1543  0.7045 -0.2875
 5018SOL    HW126687   3.070   2.679   8.607  2.5851  0.4275  1.4464
 5018SOL    HW226688   2.982   2.675   8.718  0.3060  1.3907  0.8058
 5019SOL     OW26689   3.609   4.732   5.111 -1.0653 -0.3780 -0.0250
 5019SOL    HW126690   3.691   0.044   5.089 -0.1122 -1.5760  1.0751
 5019SOL    HW226691   3.616   4.721   5.206  1.9153  1.2916 -0.0533
 5020SOL     OW26692   3.435   2.376   6.749  0.6053 -0.5726  0.0152
 5020SOL    HW126693   3.422   2.471   6.755 -1.2796 -0.8688  0.6256
 5020SOL    HW226694   3.344   2.348   6.762  0.1384  0.6388 -0.6042
 5021SOL     OW26695   2.433   3.463   4.348 -0.4504 -0.3513  0.0203
 5021SOL    HW126696   2.426   3.371   4.374 -0.9796  0.0796  1.3898
 5021SOL    HW226697   2.477   3.505   4.422 -0.1345  1.0779 -0.9551
 5022SOL     OW26698   0.671   3.654   3.502  0.2593 -0.1654 -0.0790
 5022SOL    HW126699   0.663   3.564   3.535  0.2013 -0.9729 -2.3083
 5022SOL    HW226700   0.686   3.697   3.586  0.7145 -0.6098  0.0711
 5023SOL     OW26701   4.511   0.305   6.120 -0.3474 -0.3366 -0.8863
 5023SOL    HW126702   4.526   0.297   6.025  2.8278  1.9353 -0.5844
 5023SOL    HW226703   4.597   0.334   6.150 -0.7869  0.9608 -0.8736
 5024SOL     OW26704   3.785   4.364   3.480  0.3717 -0.0726  0.7180
 5024SOL    HW126705   3.880   4.354   3.471 -0.3798 -2.4393 -4.2584
 5024SOL    HW226706   3.761   4.404   3.396  1.2449  0.4468  0.7198
 5025SOL     OW26707   1.655   2.544  13.855 -0.1279 -0.0048  0.4566
 5025SOL    HW126708   1.728   2.606  13.856 -0.1201  0.0578 -3.5215
 5025SOL    HW226709   1.591   2.588  13.910  0.3395  2.6685 -1.1560
 5026SOL     OW26710   3.864   1.079   8.117 -0.1845  0.4617  0.3110
 5026SOL    HW126711   3.823   1.137   8.180  1.3642 -0.3290  2.0470
 5026SOL    HW226712   3.863   0.996   8.164 -1.8432 -0.0606 -0.6367
 5027SOL     OW26713   4.699   1.734   9.317  0.2343  0.0206  0.2189
 5027SOL    HW126714   4.681   1.641   9.330 -0.7461  0.7640  4.0761
 5027SOL    HW226715   4.636   1.777   9.375 -1.6761 -2.2237 -0.2056
 5028SOL     OW26716   1.783   4.167   7.197 -0.5522 -0.0629 -0.3464
 5028SOL    HW126717   1.814   4.113   7.125 -0.2263 -0.3226 -0.0126
 5028SOL    HW226718   1.846   4.149   7.268 -2.9675 -2.0419  1.2902
 5029SOL     OW26719   2.779   0.923   8.373 -0.2873  0.3173 -0.4051
 5029SOL    HW126720   2.713   0.866   8.412  1.0562 -1.0039 -0.1046
 5029SOL    HW226721   2.725   0.967   8.307 -0.3436  0.9548  0.0674
 5030SOL     OW26722   3.695   2.778   1.676  0.3741 -0.0361  0.2012
 5030SOL    HW126723   3.706   2.689   1.642  0.5108  0.6464 -1.5480
 5030SOL    HW226724   3.619   2.807   1.625  0.8236 -0.6502 -0.8298
 5031SOL     OW26725   2.293   4.292  14.389  0.4189 -0.1746  0.0671
 5031SOL    HW126726   2.279   4.256  14.477  1.1532 -0.4816  0.0606
 5031SOL    HW226727   2.388   4.280  14.390  0.4648  0.1668 -0.9571
 5032SOL     OW26728   3.635   4.134  13.000 -0.3437 -0.2590 -0.0837
 5032SOL    HW126729   3.600   4.223  12.998 -0.3192 -0.2351  0.4398
 5032SOL    HW226730   3.600   4.098  13.081 -2.3151 -1.5847 -1.5363
 5033SOL     OW26731   2.820   2.709   6.894 -0.5287  0.2674  0.1513
 5033SOL    HW126732   2.819   2.657   6.975  0.7767 -1.2350 -0.7839
 5033SOL    HW226733   2.749   2.771   6.907  0.0519  0.7418  1.0317
 5034SOL     OW26734   3.556   4.430   1.944  0.2067  0.3121  0.2510
 5034SOL    HW126735   3.464   4.452   1.957 -0.0560  0.4054 -1.6824
 5034SOL    HW226736   3.562   4.345   1.989 -1.4376 -0.4885 -1.0102
 5035SOL     OW26737   0.781   2.528   8.936  0.1907  0.0417 -0.5568
 5035SOL    HW126738   0.862   2.560   8.976 -0.2540  0.9189 -0.3529
 5035SOL    HW226739   0.753   2.467   9.004  0.9012 -0.0442 -0.3350
 5036SOL     OW26740   3.037   2.779  16.282 -0.0843 -0.4042 -0.2390
 5036SOL    HW126741   3.108   2.778  16.218  0.4503  1.8236  0.3121
 5036SOL    HW226742   2.991   2.697  16.270  0.5103 -0.8967  0.8495
 5037SOL     OW26743   0.228   1.983   2.340 -0.6130  0.6721 -0.9089
 5037SOL    HW126744   0.288   2.027   2.400 -0.7046  0.2646 -0.5135
 5037SOL    HW226745   0.166   2.055   2.334 -2.5456 -1.0546 -1.8466
 5038SOL     OW26746   3.401   2.371  16.485 -0.1235 -0.1263  0.1840
 5038SOL    HW126747   3.402   2.443  16.422 -2.7184 -1.1688 -1.0573
 5038SOL    HW226748   3.347   2.408  16.555 -2.1698  2.5715 -2.8314
 5039SOL     OW26749   0.028   1.329   9.651  0.0438 -0.2374 -0.3471
 5039SOL    HW126750   0.118   1.363   9.655  0.5983 -1.6865 -0.4557
 5039SOL    HW226751   0.047   1.240   9.680 -0.4071  0.4049  1.9312
 5040SOL     OW26752   1.790   0.005   6.786 -0.3605  0.2039 -0.3069
 5040SOL    HW126753   1.750   4.711   6.868  1.2620  0.7728  0.6590
 5040SOL    HW226754   1.842   4.659   6.769 -0.2626  0.5364 -1.5772
 5041SOL     OW26755   0.103   1.882   3.333 -0.3515  0.3102  0.0037
 5041SOL    HW126756   0.173   1.940   3.361 -0.2579  0.5355 -0.6981
 5041SOL    HW226757   0.050   1.887   3.413 -1.0388 -0.3080 -0.4143
 5042SOL     OW26758   2.507   1.950   7.315 -0.3553  0.2617 -0.6272
 5042SOL    HW126759   2.531   1.982   7.228  0.4326 -1.1100 -0.9183
 5042SOL    HW226760   2.450   1.875   7.297  3.3520 -2.7706  0.0710
 5043SOL     OW26761   0.104   4.540   1.832  0.0700  0.3957 -0.3526
 5043SOL    HW126762   0.023   4.544   1.884  0.8358  0.1475  0.8582
 5043SOL    HW226763   0.099   4.632   1.805 -3.3884 -0.1056 -1.4672
 5044SOL     OW26764   1.617   2.575   1.324  0.2803 -0.2466 -0.3302
 5044SOL    HW126765   1.624   2.534   1.410 -0.0800  0.7237  0.1654
 5044SOL    HW226766   1.599   2.668   1.341  1.4506  0.3469 -2.3596
 5045SOL     OW26767   1.459   1.582   2.738 -0.0244  0.0555  0.2606
 5045SOL    HW126768   1.410   1.664   2.744  1.3634  0.7644  1.9299
 5045SOL    HW226769   1.397   1.534   2.793 -1.0877  1.0092 -0.1081
 5046SOL     OW26770   1.223   2.403   2.001 -0.1579  0.1676  0.4619
 5046SOL    HW126771   1.226   2.498   1.988  3.8835  0.0608  0.6142
 5046SOL    HW226772   1.142   2.377   1.957  0.3683  1.0991 -1.0475
 5047SOL     OW26773   2.106   2.388   9.918 -0.7746 -0.0385  0.4831
 5047SOL    HW126774   2.075   2.400  10.008 -0.6134 -0.9961  0.6626
 5047SOL    HW226775   2.082   2.473   9.882 -0.5520 -0.7339 -1.2908
 5048SOL     OW26776   3.146   1.350   4.190 -0.0483  0.0954  0.2891
 5048SOL    HW126777   3.166   1.443   4.177 -2.0180  0.6062  0.9588
 5048SOL    HW226778   3.168   1.353   4.283 -1.7804  0.0132  0.6997
 5049SOL     OW26779   1.474   1.819   7.940 -0.2353 -0.7027 -0.1111
 5049SOL    HW126780   1.508   1.765   8.011  1.2536  1.7189  1.0092
 5049SOL    HW226781   1.528   1.898   7.936 -0.9662 -0.2392 -0.7886
 5050SOL     OW26782   2.541   3.495  14.703 -0.0430 -0.7173  0.6447
 5050SOL    HW126783   2.478   3.480  14.773 -0.5093 -0.4381  0.2876
 5050SOL    HW226784   2.630   3.504  14.736  1.5446 -1.5925 -3.3675
 5051SOL     OW26785   2.634   0.012   6.583  0.2806 -0.1220 -0.0814
 5051SOL    HW126786   2.675   0.099   6.581 -1.3940  0.6780  0.8269
 5051SOL    HW226787   2.697   4.707   6.645 -1.9555 -0.6891  1.8144
 5052SOL     OW26788   2.194   0.310   8.945 -0.2564 -0.4245 -0.0224
 5052SOL    HW126789   2.180   0.221   8.914  0.4876 -0.3889 -0.4331
 5052SOL    HW226790   2.120   0.348   8.898 -0.9363 -1.2575  0.3521
 5053SOL     OW26791   2.712   0.736   7.189  0.2079 -0.0992  0.2724
 5053SOL    HW126792   2.688   0.647   7.164 -0.7299  0.3528 -0.4736
 5053SOL    HW226793   2.663   0.792   7.129 -0.5934 -2.1206 -0.9705
 5054SOL     OW26794   1.748   3.159   8.808 -0.6009  0.2074  0.4653
 5054SOL    HW126795   1.790   3.107   8.739  1.8594 -1.5287  3.2612
 5054SOL    HW226796   1.768   3.245   8.772  1.2412  0.0030  1.0393
 5055SOL     OW26797   2.301   1.683   2.357  0.6126  0.7628  0.3057
 5055SOL    HW126798   2.280   1.736   2.281  2.5737 -1.0493 -1.4802
 5055SOL    HW226799   2.312   1.606   2.301 -1.4162 -0.8231  2.0086
 5056SOL     OW26800   2.405   3.666   8.978 -0.1958 -0.7485 -0.2851
 5056SOL    HW126801   2.420   3.681   9.072 -0.6227  0.5863 -0.4386
 5056SOL    HW226802   2.312   3.685   8.965  0.1110  0.2863 -1.0149
 5057SOL     OW26803   3.197   1.073   3.629 -0.0554 -0.2396 -0.6816
 5057SOL    HW126804   3.286   1.068   3.594  0.4586 -1.7485  0.8553
 5057SOL    HW226805   3.220   1.077   3.722  0.9139  0.5252 -0.9636
 5058SOL     OW26806   2.297   1.222   0.414  0.0398  0.6457  0.1207
 5058SOL    HW126807   2.270   1.278   0.341  1.2266 -0.6175 -1.2912
 5058SOL    HW226808   2.374   1.182   0.373  0.2142  1.5664 -0.4527
 5059SOL     OW26809   0.036   3.600   6.256 -0.2029 -0.6399  0.0581
 5059SOL    HW126810   0.114   3.566   6.210 -0.6267 -0.2051 -0.9957
 5059SOL    HW226811   4.728   3.645   6.181  0.4685 -0.7758 -0.3933
 5060SOL     OW26812   3.806   4.254   4.197  0.1121  0.7534  0.3585
 5060SOL    HW126813   3.744   4.258   4.125  0.4120 -0.4444  0.0328
 5060SOL    HW226814   3.773   4.323   4.255 -4.4060 -0.1514 -1.1493
 5061SOL     OW26815   2.530   4.682   5.237 -0.4309  0.1482  0.1233
 5061SOL    HW126816   2.563   4.723   5.157  0.2358  0.2012  0.4244
 5061SOL    HW226817   2.526   4.588   5.219  1.1420 -0.0426  0.7428
 5062SOL     OW26818   3.576   1.393   4.879 -0.4711 -0.2998 -0.1533
 5062SOL    HW126819   3.560   1.430   4.966  2.5435 -2.6829  1.4116
 5062SOL    HW226820   3.602   1.473   4.834 -0.4168  0.8343  1.8567
 5063SOL     OW26821   2.895   3.999   2.367  0.5518  0.0714 -0.3158
 5063SOL    HW126822   2.985   4.020   2.390  0.9308 -1.7009 -0.2116
 5063SOL    HW226823   2.846   4.057   2.427  2.2924  0.8556  0.3511
 5064SOL     OW26824   2.576   2.581   3.549 -0.1876 -0.0015 -0.0731
 5064SOL    HW126825   2.507   2.543   3.603  0.5461 -4.1990 -2.0859
 5064SOL    HW226826   2.540   2.586   3.461  0.8509  2.9550 -0.3387
 5065SOL     OW26827   1.613   4.522  13.011 -0.5936  0.0034  0.1778
 5065SOL    HW126828   1.647   4.590  13.070 -0.2783 -0.5451  0.6284
 5065SOL    HW226829   1.664   4.445  13.036  0.8438  0.4805 -1.3819
 5066SOL     OW26830   4.530   0.678   3.529  0.2380 -0.1928 -0.0359
 5066SOL    HW126831   4.547   0.681   3.434 -0.1963 -0.3764 -0.1216
 5066SOL    HW226832   4.554   0.769   3.547  0.1642  0.0035 -0.9174
 5067SOL     OW26833   4.050   0.665   3.702 -0.8409  0.1674  0.4443
 5067SOL    HW126834   4.144   0.660   3.689 -0.7079 -0.4205  1.6624
 5067SOL    HW226835   4.044   0.676   3.797 -1.0445  0.7611  0.3610
 5068SOL     OW26836   3.792   0.689   7.558 -0.0583 -0.1237 -0.0574
 5068SOL    HW126837   3.782   0.699   7.653  0.6332  0.3395 -0.0371
 5068SOL    HW226838   3.773   0.779   7.531 -1.8409 -0.7398 -0.8652
 5069SOL     OW26839   4.521   2.408   5.033 -0.4954 -0.2219 -0.3181
 5069SOL    HW126840   4.473   2.488   5.010  0.7976  0.2540 -1.3519
 5069SOL    HW226841   4.447   2.356   5.064  0.7048 -2.6591 -1.5724
 5070SOL     OW26842   3.188   3.944  13.193 -0.5801 -0.8844 -0.5004
 5070SOL    HW126843   3.149   4.007  13.254  1.3164 -2.7905  2.6829
 5070SOL    HW226844   3.215   4.000  13.120  0.4918  0.8099  1.1918
 5071SOL     OW26845   3.185   1.104   5.522 -0.6743 -0.3999 -0.7685
 5071SOL    HW126846   3.234   1.036   5.568 -1.1370  0.2049  0.5990
 5071SOL    HW226847   3.121   1.125   5.590  0.6075  1.0067  0.0081
 5072SOL     OW26848   4.340   0.692  10.522  0.6913  0.0081  0.5185
 5072SOL    HW126849   4.419   0.644  10.547 -0.2844 -0.4418  2.7552
 5072SOL    HW226850   4.362   0.783  10.503  2.9385 -0.1834  2.1068
 5073SOL     OW26851   1.028   1.107   4.702  0.0498 -0.2586  0.1044
 5073SOL    HW126852   0.988   1.193   4.713 -0.7032 -0.6000  0.0563
 5073SOL    HW226853   1.008   1.075   4.790 -0.5804 -0.1410  0.0058
 5074SOL     OW26854   0.750   2.234   4.976 -0.1349 -0.3464  0.3657
 5074SOL    HW126855   0.752   2.218   4.881 -0.6146 -0.4200  0.3676
 5074SOL    HW226856   0.825   2.184   5.008  1.5487  2.2120  0.4079
 5075SOL     OW26857   3.300   0.795   4.301  0.3452 -0.0282  0.0397
 5075SOL    HW126858   3.353   0.721   4.272  2.0944  2.5151 -3.1941
 5075SOL    HW226859   3.219   0.748   4.324  0.6538  1.4121  4.0658
 5076SOL     OW26860   3.048   0.217   6.640 -0.0172  0.4236  0.2545
 5076SOL    HW126861   2.973   0.229   6.699  0.6953  1.6191  0.9080
 5076SOL    HW226862   3.077   0.128   6.657 -1.0245  0.5211  2.5371
 5077SOL     OW26863   0.779   2.252   3.978 -0.1042  0.0908 -0.0667
 5077SOL    HW126864   0.714   2.322   3.969 -2.4276 -2.1241 -0.4384
 5077SOL    HW226865   0.739   2.195   4.044  2.2379 -2.8694 -1.1808
 5078SOL     OW26866   0.360   3.608   8.417 -0.4420  0.2330  0.2265
 5078SOL    HW126867   0.441   3.594   8.466  0.0587 -1.0919 -0.9594
 5078SOL    HW226868   0.303   3.615   8.493  0.9234 -0.2990  1.3016
 5079SOL     OW26869   1.928   2.153   5.431 -0.0915 -0.5815  0.3119
 5079SOL    HW126870   1.911   2.072   5.478  0.9757 -1.5943 -1.0790
 5079SOL    HW226871   2.014   2.131   5.396 -0.1931  3.0181 -2.2014
 5080SOL     OW26872   1.456   2.967   6.568 -0.1166 -0.3501  0.4733
 5080SOL    HW126873   1.520   2.943   6.501 -0.1277 -1.8046  0.9880
 5080SOL    HW226874   1.497   3.048   6.596  2.1395 -0.8687 -1.4049
 5081SOL     OW26875   3.224   3.703   3.945  0.0304 -0.2191 -0.1499
 5081SOL    HW126876   3.307   3.684   3.900 -0.3586 -3.3036  0.4083
 5081SOL    HW226877   3.169   3.750   3.882 -0.4610  1.1495  1.3282
 5082SOL     OW26878   2.288   3.530  12.941 -0.3842 -0.3034 -0.2567
 5082SOL    HW126879   2.365   3.482  12.911 -0.3685 -0.3456 -0.1489
 5082SOL    HW226880   2.339   3.591  12.993 -1.0038 -0.8816  1.0377
 5083SOL     OW26881   0.651   4.703  11.344  0.0170  0.2127  0.3334
 5083SOL    HW126882   0.699   4.622  11.362  1.9665  1.3715  0.4516
 5083SOL    HW226883   0.703   0.039  11.386  1.5888 -2.2880  2.4505
 5084SOL     OW26884   2.605   4.373   7.174  0.9755  0.6381  0.0183
 5084SOL    HW126885   2.681   4.417   7.136  1.8398 -0.1135  0.8927
 5084SOL    HW226886   2.553   4.454   7.177  0.2318  0.1895 -0.8624
 5085SOL     OW26887   3.916   4.673   5.348  0.2154 -0.3837  0.6825
 5085SOL    HW126888   3.960   4.672   5.263  2.1727 -1.4686  1.6908
 5085SOL    HW226889   3.843   0.001   5.336  1.3554  0.7995 -0.2549
 5086SOL     OW26890   0.656   3.241  16.478  0.0225  0.1828 -0.5397
 5086SOL    HW126891   0.632   3.189  16.402  0.1740  0.0237 -0.4772
 5086SOL    HW226892   0.639   3.331  16.449 -0.9299  0.5479  1.1236
 5087SOL     OW26893   4.131   1.154  12.034  0.3626 -0.8915  0.7033
 5087SOL    HW126894   4.137   1.200  12.118  1.5693 -2.1982  1.3373
 5087SOL    HW226895   4.046   1.110  12.042 -0.5405  0.3608 -2.0272
 5088SOL     OW26896   0.310   4.625   0.125 -0.1661 -0.4168 -0.1286
 5088SOL    HW126897   0.275   4.712   0.105  0.7329  0.3352  1.5964
 5088SOL    HW226898   0.366   4.642   0.200 -1.0689  1.1584  0.1712
 5089SOL     OW26899   0.096   1.558  12.011 -0.2712 -0.2327  0.4428
 5089SOL    HW126900   0.169   1.500  12.029 -0.3230  0.1737  2.0042
 5089SOL    HW226901   0.064   1.596  12.093 -0.4664 -1.1838  0.7978
 5090SOL     OW26902   2.698   4.306   2.963  0.7539  0.2002  0.5124
 5090SOL    HW126903   2.748   4.284   2.884  1.6891  1.3109  0.7972
 5090SOL    HW226904   2.717   4.231   3.019  0.0826  0.0252  0.5057
 5091SOL     OW26905   2.625   2.788  11.843 -0.4932 -0.2791 -0.5587
 5091SOL    HW126906   2.560   2.858  11.845  1.2665  1.3083  0.5449
 5091SOL    HW226907   2.651   2.797  11.935 -0.1905 -3.1695 -0.3574
 5092SOL     OW26908   0.833   2.491   2.127  0.7376  0.2795 -0.4101
 5092SOL    HW126909   0.882   2.426   2.177 -0.6920 -0.8685 -0.5393
 5092SOL    HW226910   0.795   2.537   2.201  0.5247 -0.0819 -0.2962
 5093SOL     OW26911   1.216   2.455   5.254 -0.5781 -0.1768 -0.5879
 5093SOL    HW126912   1.139   2.444   5.309  0.6337 -2.8219  0.5944
 5093SOL    HW226913   1.249   2.367   5.233  1.8848  0.9253 -1.3394
 5094SOL     OW26914   1.043   1.792  16.906 -0.0127 -0.3210 -0.5448
 5094SOL    HW126915   1.093   1.712  16.892  0.6026  0.1433 -1.0411
 5094SOL    HW226916   1.002   1.787  16.993 -1.7097 -1.2156 -1.4020
 5095SOL     OW26917   0.944   0.480  12.625 -0.1866  0.0821 -0.7889
 5095SOL    HW126918   0.944   0.565  12.582  0.4265  0.7770  0.6104
 5095SOL    HW226919   0.925   0.505  12.715  2.9518 -3.1922  0.8160
 5096SOL     OW26920   1.543   0.069  13.322 -0.7081  0.3476 -0.2107
 5096SOL    HW126921   1.496   0.142  13.363  1.0302  0.8839  0.8292
 5096SOL    HW226922   1.541   4.730  13.385 -3.5404 -2.2012 -3.2513
 5097SOL     OW26923   1.000   2.030   8.051  0.0840 -0.2847 -0.4111
 5097SOL    HW126924   0.939   1.993   7.986 -0.8098  0.7301 -0.1540
 5097SOL    HW226925   1.067   2.071   7.997  0.5054  0.1826  0.4732
 5098SOL     OW26926   4.423   3.899   2.243  0.4696  0.1088 -0.8914
 5098SOL    HW126927   4.477   3.838   2.192  0.4047 -0.2137 -0.5727
 5098SOL    HW226928   4.488   3.962   2.277 -0.8414  2.6342 -3.0422
 5099SOL     OW26929   0.160   1.304   3.211 -0.5112  0.4556  0.1994
 5099SOL    HW126930   0.232   1.334   3.266 -2.2260  1.1542  2.0810
 5099SOL    HW226931   0.193   1.280   3.125 -1.5955 -0.6504  0.0921
 5100SOL     OW26932   2.154   3.249   9.500  0.5481  0.0582 -0.3215
 5100SOL    HW126933   2.147   3.168   9.448  0.2709 -0.0025 -0.1898
 5100SOL    HW226934   2.151   3.220   9.591 -1.5194 -0.3089 -0.5130
 5101SOL     OW26935   0.598   1.328   2.722  0.4041  0.0250  0.1211
 5101SOL    HW126936   0.622   1.345   2.631  2.3776 -0.2124  0.5980
 5101SOL    HW226937   0.508   1.360   2.724  0.1990 -0.5809  0.9268
 5102SOL     OW26938   2.999   1.294   6.906  0.0076  0.1827 -0.1774
 5102SOL    HW126939   2.987   1.344   6.825 -4.8488  2.0149  1.6975
 5102SOL    HW226940   3.091   1.267   6.895 -0.5958 -1.2222 -1.7272
 5103SOL     OW26941   1.866   2.643  17.480 -0.0219 -0.1980 -0.1573
 5103SOL    HW126942   1.916   2.690  17.546  0.0366  0.4707 -0.6801
 5103SOL    HW226943   1.895   2.688  17.401 -2.1894  1.4931  0.0173
 5104SOL     OW26944   4.504   2.113  10.685 -0.4258  0.0971 -0.8043
 5104SOL    HW126945   4.593   2.101  10.651 -0.2077 -4.5903  1.3520
 5104SOL    HW226946   4.506   2.040  10.748 -1.0855 -0.4531 -1.4263
 5105SOL     OW26947   4.510   1.328   6.927  0.7232 -0.5821 -0.3603
 5105SOL    HW126948   4.556   1.385   6.988 -0.3037  1.2626 -1.3221
 5105SOL    HW226949   4.575   1.259   6.912 -0.1077 -1.9036  2.1011
 5106SOL     OW26950   4.207   1.421  13.457 -0.4143  0.0059 -0.0504
 5106SOL    HW126951   4.272   1.380  13.514  1.4950  1.1153 -1.4110
 5106SOL    HW226952   4.230   1.392  13.369 -2.2874  2.3014 -1.2828
 5107SOL     OW26953   1.215   3.462   0.263 -0.3695 -0.1205  0.5139
 5107SOL    HW126954   1.137   3.462   0.208  0.6285  0.5362 -0.8953
 5107SOL    HW226955   1.180   3.514   0.336  1.1137  2.7737 -0.8432
 5108SOL     OW26956   4.604   3.133   5.040 -0.1676 -0.6166  0.3074
 5108SOL    HW126957   4.545   3.099   4.973  0.2355  0.1762 -0.4433
 5108SOL    HW226958   4.655   3.205   5.004  0.3577 -1.7435 -1.2070
 5109SOL     OW26959   1.897   4.452  17.255 -0.5434  0.0831  0.5502
 5109SOL    HW126960   1.821   4.494  17.295 -2.4355 -2.9142  0.0847
 5109SOL    HW226961   1.949   4.523  17.216 -1.3421  0.5129  0.2742
 5110SOL     OW26962   0.632   2.945   7.256  0.4609 -0.1835 -0.1672
 5110SOL    HW126963   0.710   2.895   7.235  1.3912  0.9803  0.5106
 5110SOL    HW226964   0.577   2.939   7.177 -0.9104  0.7791  0.7051
 5111SOL     OW26965   2.824   4.605   7.934 -0.1006 -0.4126 -0.3138
 5111SOL    HW126966   2.804   4.627   8.025  0.1645 -1.3471 -0.0304
 5111SOL    HW226967   2.760   4.665   7.894  0.2997  0.5240  0.4391
 5112SOL     OW26968   1.660   3.128  10.127 -0.1641 -0.2274 -0.4270
 5112SOL    HW126969   1.613   3.169  10.199  0.8505  1.3207 -0.6421
 5112SOL    HW226970   1.747   3.158  10.154 -0.9649  2.1022 -0.4614
 5113SOL     OW26971   3.158   0.255   8.618 -0.4972 -0.4463  0.5580
 5113SOL    HW126972   3.123   0.294   8.538 -0.0192 -2.2448 -0.5239
 5113SOL    HW226973   3.169   0.164   8.589  1.5294  0.0322 -0.2020
 5114SOL     OW26974   3.617   2.225   2.594  0.4893 -0.2334  0.2208
 5114SOL    HW126975   3.655   2.137   2.591 -2.3148 -1.4805  1.6910
 5114SOL    HW226976   3.571   2.220   2.678  0.6282  1.3950  0.3890
 5115SOL     OW26977   2.138   1.044   8.235 -0.3319  0.1949  0.9626
 5115SOL    HW126978   2.224   1.071   8.267 -0.0432  0.8220 -0.3094
 5115SOL    HW226979   2.158   1.049   8.141  0.8214 -0.7299  1.1669
 5116SOL     OW26980   3.226   1.210   1.991  0.2190 -0.1113  0.4857
 5116SOL    HW126981   3.256   1.124   2.018 -2.3297 -1.4619 -0.9724
 5116SOL    HW226982   3.183   1.225   2.076 -1.9031  4.6823 -1.4088
 5117SOL     OW26983   2.650   2.137  11.510  0.3894  0.2173 -0.1244
 5117SOL    HW126984   2.650   2.075  11.437 -1.5543  0.3263 -0.2099
 5117SOL    HW226985   2.666   2.074  11.580  0.4643  0.5787  0.1832
 5118SOL     OW26986   3.393   4.375   3.684  0.3873  0.3466 -0.4444
 5118SOL    HW126987   3.306   4.334   3.680 -0.1471  1.3440  1.3304
 5118SOL    HW226988   3.439   4.307   3.634  1.6564  0.0012  1.2277
 5119SOL     OW26989   0.903   3.834   0.507 -0.4807  0.5865 -0.1558
 5119SOL    HW126990   0.918   3.866   0.596  1.3019 -1.1416  0.1446
 5119SOL    HW226991   0.960   3.892   0.457  1.8306 -0.7323  0.9720
 5120SOL     OW26992   0.014   1.738   5.835  0.0786  0.1521 -0.0292
 5120SOL    HW126993   0.030   1.807   5.771  0.0368  0.3425  0.1660
 5120SOL    HW226994   4.655   1.749   5.860  1.1179  4.3835  1.8961
 5121SOL     OW26995   3.463   1.982   2.009  0.4671 -0.3509 -0.4003
 5121SOL    HW126996   3.494   1.921   1.943  0.9710  0.3492 -0.8112
 5121SOL    HW226997   3.464   2.068   1.968  1.8742 -0.9712 -1.6777
 5122SOL     OW26998   1.372   0.192  16.487 -0.2883  0.6135  0.0655
 5122SOL    HW126999   1.394   0.165  16.397 -2.3760 -1.4757  0.1940
 5122SOL    HW227000   1.420   0.275  16.492  0.4282  0.2831 -1.2802
 5123SOL     OW27001   1.327   0.218  12.258  0.3942  0.2680  0.0654
 5123SOL    HW127002   1.378   0.180  12.329  0.9186 -0.1638 -0.5386
 5123SOL    HW227003   1.397   0.209  12.194 -0.5024 -2.4794 -0.5642
 5124SOL     OW27004   2.654   0.776  13.452 -0.1623 -0.0762 -0.7873
 5124SOL    HW127005   2.668   0.841  13.382  2.0396  2.5584  2.1104
 5124SOL    HW227006   2.737   0.779  13.499 -0.3875 -0.9534 -0.3348
 5125SOL     OW27007   0.121   1.632   4.721  0.0842 -0.6321  0.0776
 5125SOL    HW127008   0.084   1.713   4.687  0.7987 -0.4597 -0.2693
 5125SOL    HW227009   0.051   1.568   4.732  0.8284 -0.7426  4.3043
 5126SOL     OW27010   1.471   1.679  17.483  0.0260  0.2985  0.5398
 5126SOL    HW127011   1.391   1.727  17.463 -0.2580 -0.6528 -0.5986
 5126SOL    HW227012   1.495   1.657  17.393 -1.4916  0.1923  0.1643
 5127SOL     OW27013   1.335   3.198   8.399  0.0236  0.2789  0.1814
 5127SOL    HW127014   1.369   3.149   8.474  0.6136 -0.8087 -0.8040
 5127SOL    HW227015   1.392   3.275   8.407 -1.8267  1.6163  0.5689
 5128SOL     OW27016   2.505   3.501   2.469  0.2863 -0.1118 -0.3426
 5128SOL    HW127017   2.598   3.522   2.458  0.4372 -1.1529 -1.1047
 5128SOL    HW227018   2.490   3.448   2.390 -1.7551 -0.8185  0.5229
 5129SOL     OW27019   4.398   4.081   0.150  0.5375  0.0023  0.1511
 5129SOL    HW127020   4.321   4.031   0.177 -1.0478  2.5181  0.1936
 5129SOL    HW227021   4.400   4.142   0.224  1.8832  1.0093 -0.7024
 5130SOL     OW27022   3.808   2.927   9.556  0.3502 -0.1255 -0.1498
 5130SOL    HW127023   3.810   2.933   9.460 -1.0725  3.4292  0.0413
 5130SOL    HW227024   3.899   2.947   9.579  0.8429 -1.2207 -1.1403
 5131SOL     OW27025   1.819   2.383   5.210  0.5474 -0.1826  0.1581
 5131SOL    HW127026   1.904   2.338   5.213  0.8117  0.4397  1.7852
 5131SOL    HW227027   1.815   2.395   5.115  3.0380  1.0804  0.1883
 5132SOL     OW27028   2.310   0.265   5.185  0.3046  0.3447  0.1119
 5132SOL    HW127029   2.283   0.342   5.235 -0.7787  0.9193 -1.3528
 5132SOL    HW227030   2.287   0.293   5.097  0.0869  0.2812  0.1488
 5133SOL     OW27031   2.256   0.207   2.542 -0.8342  0.0337  0.2722
 5133SOL    HW127032   2.251   0.289   2.591  0.3615 -0.0017  0.4527
 5133SOL    HW227033   2.192   0.227   2.474 -0.5180 -0.2880 -0.1185
 5134SOL     OW27034   2.942   4.602   5.495  0.3694  0.7386  0.0778
 5134SOL    HW127035   2.934   4.698   5.492  1.4988  0.8837  1.7706
 5134SOL    HW227036   3.033   4.586   5.470  0.8243  1.2591  1.3802
 5135SOL     OW27037   0.837   1.328   7.755  0.4482  0.2944  0.0910
 5135SOL    HW127038   0.806   1.371   7.835 -0.8252  1.1869 -0.8877
 5135SOL    HW227039   0.827   1.236   7.780 -1.4933  0.8908  1.5000
 5136SOL     OW27040   1.378   2.923   1.756 -0.0636  0.1182  0.2106
 5136SOL    HW127041   1.402   2.933   1.848  1.1929  0.0445 -0.1126
 5136SOL    HW227042   1.454   2.868   1.736  0.9845  1.5205  0.3926
 5137SOL     OW27043   0.888   3.515  11.698  0.4761 -0.2317  0.1131
 5137SOL    HW127044   0.928   3.436  11.661  0.6054 -0.1105 -0.0038
 5137SOL    HW227045   0.946   3.525  11.774  0.9882 -1.4914 -0.1125
 5138SOL     OW27046   2.954   4.125   8.841 -0.6048  1.3440  0.2053
 5138SOL    HW127047   2.943   4.048   8.785  1.6500  2.0388 -1.2456
 5138SOL    HW227048   2.861   4.144   8.851 -0.5641  2.2761 -1.1977
 5139SOL     OW27049   4.365   0.545   5.566  0.6709  0.2497 -0.2270
 5139SOL    HW127050   4.353   0.613   5.499 -1.3353  2.1509  2.0646
 5139SOL    HW227051   4.318   0.595   5.633  2.0346  1.9302 -0.5170
 5140SOL     OW27052   1.644   1.825   2.412  0.8467  0.7098 -0.4599
 5140SOL    HW127053   1.679   1.871   2.335 -1.4433  0.1310 -1.8755
 5140SOL    HW227054   1.578   1.768   2.371 -0.8579  2.2399  0.1607
 5141SOL     OW27055   1.500   2.350  17.380 -0.0205  0.5449  0.2564
 5141SOL    HW127056   1.486   2.387  17.293 -0.2770 -0.2976 -0.0558
 5141SOL    HW227057   1.591   2.377  17.393  0.4936 -1.1671  0.1489
 5142SOL     OW27058   4.104   2.824   3.101  0.3096  0.4846  0.4097
 5142SOL    HW127059   4.038   2.827   3.031 -0.3714  1.2452  1.0804
 5142SOL    HW227060   4.169   2.889   3.073  0.1461  0.3888 -0.2057
 5143SOL     OW27061   0.080   2.925   4.350 -0.3200  0.1333  0.0833
 5143SOL    HW127062   0.089   2.887   4.437 -0.5414  2.3775  1.0814
 5143SOL    HW227063   0.022   2.860   4.310 -0.8216  0.3046  0.5318
 5144SOL     OW27064   4.623   1.735   4.484  0.0744 -0.0384  0.1123
 5144SOL    HW127065   4.538   1.775   4.464 -0.1959 -0.6328  0.0771
 5144SOL    HW227066   4.632   1.758   4.577  2.6639  0.0935 -0.1863
 5145SOL     OW27067   0.807   3.067  10.792 -0.0722  0.3517  0.5386
 5145SOL    HW127068   0.783   3.114  10.712  0.3900 -0.1070  0.1303
 5145SOL    HW227069   0.781   2.976  10.777 -0.5091  0.4032  0.9973
 5146SOL     OW27070   2.283   4.574   6.552  0.1234 -0.0779 -0.2254
 5146SOL    HW127071   2.233   4.505   6.509 -1.9653  0.8009  0.7826
 5146SOL    HW227072   2.219   4.604   6.617  2.2279  0.1229  1.7750
 5147SOL     OW27073   1.138   3.243  16.560  0.0070  0.5692 -0.4204
 5147SOL    HW127074   1.053   3.256  16.601  0.6495  1.1372  0.7449
 5147SOL    HW227075   1.160   3.163  16.607  1.3052  1.5594  0.6725
 5148SOL     OW27076   1.351   4.175   6.369  0.1384  0.0442 -0.0602
 5148SOL    HW127077   1.390   4.102   6.418 -0.9362 -0.0105  0.7373
 5148SOL    HW227078   1.397   4.173   6.286  0.7595  1.1886  0.2588
 5149SOL     OW27079   3.198   3.244   7.493  0.5932 -0.2391  0.4042
 5149SOL    HW127080   3.229   3.159   7.461 -2.8089 -0.5841 -1.9447
 5149SOL    HW227081   3.104   3.246   7.480  0.8954 -0.5156 -1.8817
 5150SOL     OW27082   3.496   0.150   1.017  0.5522  0.2202 -0.0985
 5150SOL    HW127083   3.551   0.126   1.092 -0.8006 -1.4481  0.3767
 5150SOL    HW227084   3.522   0.242   1.012 -0.8530  0.6032 -0.4214
 5151SOL     OW27085   2.929   4.152   3.632 -0.0149 -0.4925  0.3041
 5151SOL    HW127086   2.860   4.202   3.675 -0.7533 -1.4731  0.2558
 5151SOL    HW227087   2.875   4.091   3.582  0.2550 -0.7497  0.3283
 5152SOL     OW27088   1.981   4.319   2.102  0.2245  0.1098 -0.0370
 5152SOL    HW127089   1.916   4.310   2.171  0.3456 -0.7379 -0.0408
 5152SOL    HW227090   1.980   4.415   2.097  3.4399  0.1363 -0.5677
 5153SOL     OW27091   1.591   0.880   5.757 -0.6222 -0.0532 -0.6122
 5153SOL    HW127092   1.595   0.975   5.747  0.2864  0.3513  3.7934
 5153SOL    HW227093   1.664   0.864   5.817 -2.2315 -2.2056  0.7779
 5154SOL     OW27094   3.351   4.252   7.723 -0.1860 -0.1359 -0.2621
 5154SOL    HW127095   3.350   4.273   7.816 -0.9072 -3.4583  0.4779
 5154SOL    HW227096   3.275   4.305   7.700 -1.1763 -2.0933 -1.4936
 5155SOL     OW27097   1.518   3.495   7.393 -0.2277  0.4242  0.3800
 5155SOL    HW127098   1.509   3.400   7.385 -0.1868  0.1679  3.2853
 5155SOL    HW227099   1.484   3.530   7.311 -2.9884  0.2745  1.4510
 5156SOL     OW27100   1.436   1.430   0.159 -0.3170  0.2035  0.3746
 5156SOL    HW127101   1.396   1.355   0.115 -0.7040  1.1193 -0.8149
 5156SOL    HW227102   1.442   1.507   0.103 -0.4393  1.2914  1.8461
 5157SOL     OW27103   3.754   2.878  12.489 -0.0216  0.7491  0.0021
 5157SOL    HW127104   3.714   2.959  12.458  1.4308  1.3093 -0.3950
 5157SOL    HW227105   3.768   2.829  12.407 -0.2739  1.1817 -0.3022
 5158SOL     OW27106   1.126   3.202   1.198 -0.4922 -0.8960  0.0063
 5158SOL    HW127107   1.182   3.195   1.275 -0.5893 -2.5904 -0.0615
 5158SOL    HW227108   1.075   3.282   1.211  2.0074  0.7573 -0.5369
 5159SOL     OW27109   1.172   2.719  15.300 -0.1599 -0.0498 -0.0357
 5159SOL    HW127110   1.133   2.720  15.213  1.4074  1.6855 -0.7061
 5159SOL    HW227111   1.239   2.786  15.289 -1.0781  0.8614 -0.0447
 5160SOL     OW27112   1.639   0.305   6.481  0.2764 -0.2826  0.2531
 5160SOL    HW127113   1.647   0.221   6.527 -2.7906 -0.8293 -0.2392
 5160SOL    HW227114   1.591   0.284   6.401  1.0559 -2.8933  0.4513
 5161SOL     OW27115   3.103   3.038  15.159 -0.0167 -0.4715 -0.6371
 5161SOL    HW127116   3.163   2.965  15.171  0.2700  0.0414  1.0060
 5161SOL    HW227117   3.060   3.046  15.244 -1.9151  0.5151 -1.6814
 5162SOL     OW27118   3.429   2.902   5.964 -0.2062 -0.3541 -0.8687
 5162SOL    HW127119   3.405   2.850   5.887 -0.5854 -0.2132 -0.8479
 5162SOL    HW227120   3.519   2.872   5.968  0.4940  1.9316  0.4340
 5163SOL     OW27121   2.179   0.433  14.329  0.4657  0.3232  0.5333
 5163SOL    HW127122   2.173   0.521  14.368  0.3738  0.8206 -0.5836
 5163SOL    HW227123   2.122   0.386  14.389 -0.3828  0.8871  0.1760
 5164SOL     OW27124   4.729   1.936   3.575 -0.9546 -0.5547 -0.1626
 5164SOL    HW127125   4.698   2.022   3.546 -2.3532 -1.5376 -1.6146
 5164SOL    HW227126   0.029   1.951   3.663  0.6540 -1.9104 -0.5262
 5165SOL     OW27127   0.303   2.090   7.085  0.0699  0.6645 -0.2578
 5165SOL    HW127128   0.264   2.040   7.013 -1.5523  0.7722  0.5384
 5165SOL    HW227129   0.348   2.021   7.134  1.1076 -1.2997 -3.9631
 5166SOL     OW27130   4.297   3.614   4.513 -0.2811 -0.4615 -0.0307
 5166SOL    HW127131   4.267   3.583   4.599  1.2962  0.9109  1.0239
 5166SOL    HW227132   4.377   3.660   4.541 -0.2532  0.1346 -1.1084
 5167SOL     OW27133   0.547   2.562   7.526  0.0154  0.4732  0.0953
 5167SOL    HW127134   0.619   2.499   7.534 -0.1051  0.1592 -1.1341
 5167SOL    HW227135   0.519   2.543   7.436  2.0350 -0.2320 -0.3887
 5168SOL     OW27136   1.806   0.341   2.269 -0.2235 -0.1360  0.3774
 5168SOL    HW127137   1.781   0.430   2.294 -0.8101  0.4408 -2.2738
 5168SOL    HW227138   1.719   0.300   2.272  0.6903 -2.1720 -0.4855
 5169SOL     OW27139   2.763   3.336   6.283  0.0938  0.0863  0.9023
 5169SOL    HW127140   2.827   3.390   6.238 -1.5571  1.9977  0.8312
 5169SOL    HW227141   2.819   3.294   6.348 -0.1294 -1.6849 -0.0376
 5170SOL     OW27142   1.825   0.261   8.867  0.2267 -0.5670  0.2240
 5170SOL    HW127143   1.737   0.288   8.895  0.6465  0.7417  0.3205
 5170SOL    HW227144   1.820   0.225   8.779 -0.9115 -0.8501  0.3990
 5171SOL     OW27145   0.440   3.974   8.921 -0.2507  0.3627 -0.1030
 5171SOL    HW127146   0.358   3.957   8.876  0.0939 -0.4384 -0.4294
 5171SOL    HW227147   0.475   4.038   8.858  0.9129 -0.2665 -0.1020
 5172SOL     OW27148   2.384   0.928   4.816  0.3012  0.5438 -0.0167
 5172SOL    HW127149   2.290   0.945   4.810  0.3743  0.0632 -2.6639
 5172SOL    HW227150   2.421   0.988   4.751  1.8221 -1.0413 -0.6244
 5173SOL     OW27151   1.694   1.856  13.521 -0.4136  0.7149 -0.1766
 5173SOL    HW127152   1.663   1.946  13.511 -1.3102  0.0402 -3.2754
 5173SOL    HW227153   1.691   1.838  13.427  0.3662 -0.6978  0.0705
 5174SOL     OW27154   0.008   3.761  10.426  0.4783  0.0859 -0.4112
 5174SOL    HW127155   0.006   3.727  10.515  2.4768  1.4721  0.1686
 5174SOL    HW227156   0.000   3.856  10.435  0.3332 -0.0232  0.6935
 5175SOL     OW27157   3.795   4.705  12.034  0.4740 -0.0688 -0.0042
 5175SOL    HW127158   3.719   4.648  12.051 -0.4712  1.0418 -0.4871
 5175SOL    HW227159   3.867   4.650  12.065 -1.5007 -2.1650  0.9069
 5176SOL     OW27160   0.423   4.267  17.625  0.0162 -0.2507 -0.1475
 5176SOL    HW127161   0.426   4.255  17.530  2.0619  0.0418 -0.1009
 5176SOL    HW227162   0.504   4.227  17.655  1.0590  0.9853 -1.3399
 5177SOL     OW27163   4.105   4.329   7.627  0.8633  0.4619 -0.4342
 5177SOL    HW127164   4.146   4.284   7.702  0.9104 -1.4660 -1.6151
 5177SOL    HW227165   4.017   4.293   7.638  0.6596  1.0474 -0.1262
 5178SOL     OW27166   1.177   4.338   0.543  0.0436 -0.0021 -0.3152
 5178SOL    HW127167   1.232   4.260   0.543  1.0378  0.6949  0.9600
 5178SOL    HW227168   1.241   4.399   0.580 -1.0838  0.5740  0.6854
 5179SOL     OW27169   0.258   3.644  15.956 -0.3415  0.1688 -0.0372
 5179SOL    HW127170   0.178   3.694  15.942 -0.3755 -0.0540 -0.6229
 5179SOL    HW227171   0.297   3.672  15.874  0.9610 -0.5548  0.3414
 5180SOL     OW27172   0.504   2.089   6.852  0.3470 -0.0122  0.5739
 5180SOL    HW127173   0.434   2.075   6.915 -1.3374  0.1582 -1.2651
 5180SOL    HW227174   0.452   2.106   6.773 -0.4826 -0.9004  0.9323
 5181SOL     OW27175   3.286   2.342   9.672 -0.2219  0.3773  0.0291
 5181SOL    HW127176   3.222   2.409   9.699  0.5672  1.0119  0.3308
 5181SOL    HW227177   3.361   2.401   9.663  1.7397 -2.1589 -0.1486
 5182SOL     OW27178   0.117   3.942   7.494 -0.1394  0.7628 -0.1936
 5182SOL    HW127179   0.116   3.875   7.563 -2.9990  0.1224 -0.8524
 5182SOL    HW227180   0.084   3.886   7.424  0.8589  1.7870 -1.4617
 5183SOL     OW27181   3.043   2.020   7.969 -0.0045 -0.0100  0.0803
 5183SOL    HW127182   3.126   1.985   7.936  0.2357  1.4119 -0.8516
 5183SOL    HW227183   2.983   1.976   7.909 -1.8148  1.1638  1.0358
 5184SOL     OW27184   4.622   3.092   6.620  0.0671 -0.1533  0.1593
 5184SOL    HW127185   4.606   2.997   6.614  1.9520 -0.2867 -2.9046
 5184SOL    HW227186   4.624   3.118   6.528 -0.4007  1.0134  0.4781
 5185SOL     OW27187   1.499   4.399  15.497 -0.2825  0.2639 -0.4727
 5185SOL    HW127188   1.572   4.461  15.493  1.1189 -1.3507  0.1668
 5185SOL    HW227189   1.451   4.436  15.572 -1.3003 -2.4165  0.1704
 5186SOL     OW27190   1.332   4.620   3.107 -0.1007  0.2590 -0.1405
 5186SOL    HW127191   1.393   4.694   3.101 -0.4135  0.5092 -0.2736
 5186SOL    HW227192   1.292   4.632   3.193  1.5286  1.2778  0.4752
 5187SOL     OW27193   2.362   1.141  10.857 -0.5597 -0.0289 -0.4211
 5187SOL    HW127194   2.298   1.199  10.817  0.2106  1.0729 -0.0709
 5187SOL    HW227195   2.434   1.199  10.884 -0.6915  0.3418 -0.8640
 5188SOL     OW27196   1.072   1.751  13.320  0.4079 -0.3404 -0.2122
 5188SOL    HW127197   1.017   1.677  13.347 -0.7123  0.5999  0.1043
 5188SOL    HW227198   1.161   1.717  13.327  0.7700  0.3142 -1.6356
 5189SOL     OW27199   2.173   1.907   8.112  0.5422  0.7664 -0.6227
 5189SOL    HW127200   2.235   1.976   8.091  0.5570  1.4813  1.7668
 5189SOL    HW227201   2.157   1.868   8.026 -0.0666  0.0288 -0.1748
 5190SOL     OW27202   3.628   2.361   4.313 -0.0874  0.6017  0.3305
 5190SOL    HW127203   3.648   2.409   4.233 -0.9788  1.4859  0.6257
 5190SOL    HW227204   3.585   2.284   4.275  1.1924 -0.4578  1.0236
 5191SOL     OW27205   4.394   0.766   6.812 -0.6653 -0.2449 -0.0749
 5191SOL    HW127206   4.320   0.711   6.788 -0.4573 -2.0861  3.4550
 5191SOL    HW227207   4.452   0.752   6.737 -2.3261 -0.8623 -1.2249
 5192SOL     OW27208   1.615   1.161   4.094  0.2497 -0.4418  0.3531
 5192SOL    HW127209   1.631   1.067   4.106 -1.3788 -0.9229 -1.0996
 5192SOL    HW227210   1.569   1.166   4.009  0.8132  1.3248  0.1527
 5193SOL     OW27211   1.379   2.285   0.292 -0.0485  1.0122 -0.5636
 5193SOL    HW127212   1.436   2.207   0.297 -2.2361 -0.4410  1.3058
 5193SOL    HW227213   1.319   2.250   0.226  0.5248 -0.9746 -0.0298
 5194SOL     OW27214   2.588   2.953   4.276  0.2853  0.3320 -0.0413
 5194SOL    HW127215   2.548   3.039   4.287  0.2939  0.2312  0.7658
 5194SOL    HW227216   2.519   2.931   4.213 -0.0034  0.0422  0.3736
 5195SOL     OW27217   0.064   2.528   3.717  0.4255 -0.2327  0.2242
 5195SOL    HW127218   0.006   2.549   3.790 -0.8224  0.6463 -1.0352
 5195SOL    HW227219   0.110   2.458   3.764  1.2940  1.0513  1.3130
 5196SOL     OW27220   2.014   0.752  11.616 -0.3611 -0.4749  0.0916
 5196SOL    HW127221   2.086   0.777  11.673  0.7113 -2.2713 -0.4713
 5196SOL    HW227222   1.949   0.822  11.623  2.2447  1.9986 -0.7534
 5197SOL     OW27223   1.325   3.735   2.936  0.2739  0.0802 -0.0028
 5197SOL    HW127224   1.369   3.650   2.947  1.1695  0.4227 -0.9167
 5197SOL    HW227225   1.271   3.740   3.015  0.1080  0.8870 -0.1693
 5198SOL     OW27226   0.856   2.893   2.801  0.0623  0.3081 -0.5336
 5198SOL    HW127227   0.785   2.949   2.832 -0.6693 -1.5459  1.1581
 5198SOL    HW227228   0.844   2.810   2.848  0.9382 -0.6569 -1.9897
 5199SOL     OW27229   2.933   2.928   0.120 -0.0426  0.1595 -0.1267
 5199SOL    HW127230   2.908   2.841   0.152 -0.2917 -0.7060 -2.6711
 5199SOL    HW227231   2.849   2.971   0.103 -0.6401 -1.6346 -1.6441
 5200SOL     OW27232   0.511   2.291   3.289 -0.1573  0.1445  0.1428
 5200SOL    HW127233   0.468   2.371   3.320 -0.6427 -0.1364  0.1948
 5200SOL    HW227234   0.604   2.309   3.303 -0.5338  0.2467  2.4493
 5201SOL     OW27235   1.120   1.167   6.181 -0.8761  0.1648  0.3253
 5201SOL    HW127236   1.121   1.250   6.228  1.4629  0.0098  0.5821
 5201SOL    HW227237   1.143   1.112   6.256 -2.0133  0.3537  0.8104
 5202SOL     OW27238   3.239   3.310   8.014  0.3794  0.2358 -0.4649
 5202SOL    HW127239   3.291   3.384   7.983  1.5409 -0.1219  0.5794
 5202SOL    HW227240   3.220   3.259   7.935  0.4458  1.6525 -1.4001
 5203SOL     OW27241   3.422   0.989   6.919 -0.4312 -0.0693  0.0247
 5203SOL    HW127242   3.412   0.895   6.938 -0.8968 -0.1449 -0.5528
 5203SOL    HW227243   3.379   0.985   6.833 -1.1732  0.7204  0.3604
 5204SOL     OW27244   4.503   3.061   1.125  0.2572  0.1178 -0.0814
 5204SOL    HW127245   4.594   3.093   1.127 -0.2932  1.7442 -0.7199
 5204SOL    HW227246   4.462   3.114   1.193  1.5495 -0.7447  1.3608
 5205SOL     OW27247   4.424   3.456   2.581  0.2564 -1.0653 -0.5595
 5205SOL    HW127248   4.397   3.486   2.494  2.1191 -2.5299 -1.6400
 5205SOL    HW227249   4.340   3.432   2.620 -0.8036  0.4789 -1.9128
 5206SOL     OW27250   0.770   2.546   2.687 -0.0080  0.1614  0.2617
 5206SOL    HW127251   0.730   2.629   2.713 -0.0874 -0.6163  2.6854
 5206SOL    HW227252   0.837   2.575   2.625  0.7667  0.8098  1.3981
 5207SOL     OW27253   1.307   2.794   7.022  0.0225  0.4678  0.4241
 5207SOL    HW127254   1.213   2.804   7.008  0.1754  0.8976 -0.2787
 5207SOL    HW227255   1.335   2.783   6.931  0.5916  0.5045  0.5944
 5208SOL     OW27256   4.531   3.835   1.938 -0.3125 -0.3718 -0.1718
 5208SOL    HW127257   4.577   3.778   1.999  2.4465  0.8499 -1.0702
 5208SOL    HW227258   4.600   3.901   1.929 -0.7019  0.0219 -0.2835
 5209SOL     OW27259   0.596   2.616   4.123 -0.7875  0.4395  0.4082
 5209SOL    HW127260   0.573   2.701   4.160 -1.7431  0.1593  0.4474
 5209SOL    HW227261   0.692   2.618   4.129 -0.5222 -1.7399 -3.1127
 5210SOL     OW27262   0.160   0.966   2.368 -0.1878 -0.3224 -0.4437
 5210SOL    HW127263   0.085   0.918   2.331 -0.5905 -0.2589  0.2753
 5210SOL    HW227264   0.235   0.908   2.357  1.0252  1.6403 -2.4229
 5211SOL     OW27265   1.563   3.855   6.062  0.0720 -0.0794  0.4762
 5211SOL    HW127266   1.511   3.817   5.991 -3.1211  1.2894  2.0688
 5211SOL    HW227267   1.648   3.812   6.056 -0.6158 -1.3156 -0.3696
 5212SOL     OW27268   1.415   2.066   9.232  0.5715  0.0635  0.2139
 5212SOL    HW127269   1.414   2.010   9.155 -1.0017  0.8873 -0.3533
 5212SOL    HW227270   1.385   2.001   9.295  0.1408 -1.8509 -1.9754
 5213SOL     OW27271   2.406   3.088   2.260 -0.2923  0.5705 -0.0131
 5213SOL    HW127272   2.368   3.164   2.216  0.0998 -1.6340 -4.1828
 5213SOL    HW227273   2.498   3.114   2.264 -0.6794  1.9234 -0.0310
 5214SOL     OW27274   1.852   4.573  16.946 -0.2455  0.2345  0.2005
 5214SOL    HW127275   1.851   4.489  16.992  0.5010 -0.5719 -1.2580
 5214SOL    HW227276   1.764   4.572  16.908 -0.6289  0.1408  1.1008
 5215SOL     OW27277   1.573   1.575  13.313  0.0268  0.6682 -0.5664
 5215SOL    HW127278   1.656   1.562  13.358 -0.9691  0.4613  1.2167
 5215SOL    HW227279   1.596   1.629  13.237  1.4032 -0.2814 -0.8208
 5216SOL     OW27280   3.498   3.947   3.468  0.0103  0.1249 -0.0058
 5216SOL    HW127281   3.410   3.908   3.465  0.1038  0.1647 -4.4371
 5216SOL    HW227282   3.527   3.915   3.382 -0.1745  1.6947 -0.6511
 5217SOL     OW27283   0.339   0.098   3.460  0.4449 -0.6723 -0.3536
 5217SOL    HW127284   0.412   0.082   3.401  2.5425  0.7489  1.8323
 5217SOL    HW227285   0.328   0.020   3.514 -0.5134 -1.2183 -1.3304
 5218SOL     OW27286   2.924   4.640   8.771 -0.1837 -0.3313  0.8230
 5218SOL    HW127287   2.997   4.664   8.714  0.5475 -1.6165  1.2242
 5218SOL    HW227288   2.937   4.710   8.835 -1.3534  0.6818 -0.0368
 5219SOL     OW27289   3.976   0.236   0.702 -0.6157 -0.1602 -0.0342
 5219SOL    HW127290   4.020   0.320   0.684  1.8914 -2.1582 -3.2219
 5219SOL    HW227291   3.893   0.246   0.655 -2.3167  0.3454  3.0910
 5220SOL     OW27292   3.427   3.403   7.601  0.6111  0.2801  0.2404
 5220SOL    HW127293   3.374   3.324   7.593  2.8738 -1.2326  0.2815
 5220SOL    HW227294   3.448   3.396   7.694 -1.3942  0.9430  0.7458
 5221SOL     OW27295   0.982   2.227   1.562 -0.0083  0.4006 -0.2326
 5221SOL    HW127296   0.965   2.212   1.470  0.2931  1.0007 -0.3876
 5221SOL    HW227297   0.948   2.147   1.602  0.5413 -0.2944 -1.1823
 5222SOL     OW27298   1.601   2.226   5.267  0.3194  0.1386 -0.2765
 5222SOL    HW127299   1.609   2.154   5.205 -1.4668  1.7943 -2.4005
 5222SOL    HW227300   1.679   2.281   5.254  0.8999 -1.0167 -1.7543
 5223SOL     OW27301   3.025   3.694   3.309 -0.8686 -0.1524 -0.1691
 5223SOL    HW127302   3.004   3.608   3.346 -1.3979 -1.0216 -2.4982
 5223SOL    HW227303   2.948   3.702   3.254 -0.1379  2.5559 -0.8110
 5224SOL     OW27304   2.404   1.452   5.098 -0.0461  0.1180 -0.6770
 5224SOL    HW127305   2.382   1.477   5.188 -2.4975  1.4324 -1.6465
 5224SOL    HW227306   2.335   1.391   5.072  1.5346 -1.1604 -1.9220
 5225SOL     OW27307   0.976   1.305   8.833  0.3206 -0.3284 -0.0376
 5225SOL    HW127308   0.965   1.211   8.843 -0.4185 -0.1746  0.7039
 5225SOL    HW227309   0.984   1.321   8.739 -0.6793 -2.0134 -0.3962
 5226SOL     OW27310   0.218   1.302   6.084  0.4530 -0.0899  0.4924
 5226SOL    HW127311   0.313   1.302   6.075  0.2583  1.1152 -1.4622
 5226SOL    HW227312   0.195   1.249   6.008  1.0155  2.0465 -1.1602
 5227SOL     OW27313   2.232   3.302   6.115 -0.5783  0.4243 -0.3873
 5227SOL    HW127314   2.261   3.254   6.192 -2.7875 -0.2728  0.0192
 5227SOL    HW227315   2.141   3.317   6.142 -0.9487 -1.5343 -0.5734
 5228SOL     OW27316   2.942   1.122   8.492  0.4787 -0.1818  0.6012
 5228SOL    HW127317   2.859   1.083   8.464 -0.0511  0.5748  1.1220
 5228SOL    HW227318   2.979   1.050   8.541  0.1391  0.5428  1.9268
 5229SOL     OW27319   0.355   3.136   8.985  0.1544  0.1872 -0.7027
 5229SOL    HW127320   0.391   3.192   9.054  1.1614 -0.0072 -1.0705
 5229SOL    HW227321   0.292   3.078   9.028  0.9596 -0.7107 -0.7301
 5230SOL     OW27322   3.100   1.243   5.092 -0.0142  0.3291  0.0902
 5230SOL    HW127323   3.013   1.222   5.127  0.8876 -0.5394  1.8151
 5230SOL    HW227324   3.156   1.235   5.170  0.8649  0.8208 -0.4923
 5231SOL     OW27325   0.197   2.963   9.144 -0.0403  0.1279 -0.6958
 5231SOL    HW127326   0.212   2.991   9.235 -0.4774 -0.7163 -0.3616
 5231SOL    HW227327   0.104   2.977   9.126  0.3027  3.3452  0.0079
 5232SOL     OW27328   4.144   0.558   8.405  0.0406 -0.3051  0.4214
 5232SOL    HW127329   4.103   0.472   8.414 -0.9536  0.0149 -1.1059
 5232SOL    HW227330   4.065   0.613   8.410  1.1214  1.2513  0.0963
 5233SOL     OW27331   0.558   3.721   6.288 -0.3601 -0.1368  0.2061
 5233SOL    HW127332   0.474   3.720   6.332 -0.5372 -0.7705 -0.1462
 5233SOL    HW227333   0.606   3.660   6.343  0.4453  2.1706  2.0885
 5234SOL     OW27334   0.514   1.438   3.013 -0.5276 -0.3604  0.1409
 5234SOL    HW127335   0.451   1.507   3.033  0.6152  0.9768 -0.8738
 5234SOL    HW227336   0.594   1.479   2.978 -0.9094  1.5276  1.4745
 5235SOL     OW27337   0.069   2.077   6.110 -0.0627  0.1285 -0.5303
 5235SOL    HW127338   0.031   2.034   6.187  0.2937  0.8974  0.0785
 5235SOL    HW227339   0.159   2.089   6.141 -0.2108 -1.2920  0.4878
 5236SOL     OW27340   2.521   2.848   2.879  0.8851  0.3008  0.0639
 5236SOL    HW127341   2.547   2.789   2.949  1.9556 -1.1924 -1.5844
 5236SOL    HW227342   2.570   2.927   2.902  1.8159 -0.7999  1.8098
 5237SOL     OW27343   1.319   0.783   2.140 -0.4001  0.2052  0.8892
 5237SOL    HW127344   1.374   0.850   2.181  0.3590 -1.2228  2.2095
 5237SOL    HW227345   1.360   0.704   2.176  1.7301  0.3098 -1.2544
 5238SOL     OW27346   2.209   4.407   8.612 -0.5124  0.3229  0.2802
 5238SOL    HW127347   2.265   4.485   8.603 -0.2070 -0.3961 -3.8136
 5238SOL    HW227348   2.158   4.428   8.533 -0.1239 -0.0126 -0.0585
 5239SOL     OW27349   2.011   2.241   9.681 -0.1369 -0.5279  0.0812
 5239SOL    HW127350   1.984   2.306   9.616  0.2095 -1.0022 -0.5358
 5239SOL    HW227351   2.032   2.292   9.759  1.2915 -2.7571  1.1440
 5240SOL     OW27352   1.642   2.155   3.204  0.0169  0.7449 -0.5225
 5240SOL    HW127353   1.614   2.082   3.149  2.5710  0.1711 -1.0681
 5240SOL    HW227354   1.601   2.147   3.290  5.4959  2.0095  2.1738
 5241SOL     OW27355   0.091   4.134   8.375 -0.3551 -0.3051  0.2932
 5241SOL    HW127356   0.009   4.111   8.329  0.0208 -0.0867 -0.4904
 5241SOL    HW227357   0.048   4.167   8.454  2.3925  0.0699  1.6184
 5242SOL     OW27358   0.374   2.331  13.542  0.3636  0.7976  0.8074
 5242SOL    HW127359   0.280   2.325  13.522  0.8228 -1.8815 -0.5471
 5242SOL    HW227360   0.394   2.420  13.512  1.8212 -0.9900 -3.4819
 5243SOL     OW27361   2.207   3.532  10.697  0.7170 -0.1694 -0.0245
 5243SOL    HW127362   2.293   3.529  10.656  0.2148  1.7120 -1.1823
 5243SOL    HW227363   2.196   3.618  10.737  0.7430 -0.8957  1.5615
 5244SOL     OW27364   0.652   1.258   3.484  0.3444 -0.0963 -0.1810
 5244SOL    HW127365   0.640   1.165   3.465 -1.4754 -0.0937  1.0193
 5244SOL    HW227366   0.693   1.301   3.409  0.1530 -1.3256 -0.9908
 5245SOL     OW27367   3.991   3.472   3.971 -0.2849  0.2547 -0.1142
 5245SOL    HW127368   3.952   3.400   3.923  0.5925 -0.0518 -0.3576
 5245SOL    HW227369   3.957   3.548   3.924  0.4483 -0.1664 -1.2995
 5246SOL     OW27370   1.055   1.223   3.824  0.1360  0.9250  0.0089
 5246SOL    HW127371   1.108   1.303   3.820 -1.1673  1.7166 -1.2507
 5246SOL    HW227372   1.067   1.174   3.743  3.3038  0.5375  0.7112
 5247SOL     OW27373   2.274   2.404   7.532  0.1138  0.1896 -0.3041
 5247SOL    HW127374   2.190   2.366   7.508  0.4275 -1.0993  0.6557
 5247SOL    HW227375   2.327   2.332   7.496 -0.2924 -0.2903  0.0716
 5248SOL     OW27376   1.694   4.358   7.987 -0.2718 -0.1529  0.5470
 5248SOL    HW127377   1.655   4.301   7.920  2.1702 -1.0157 -0.1600
 5248SOL    HW227378   1.766   4.302   8.017  0.7696  2.0287  2.0384
 5249SOL     OW27379   4.247   1.441   0.802  0.4171  0.6271 -0.2006
 5249SOL    HW127380   4.304   1.517   0.816  0.0947  1.1769 -1.8367
 5249SOL    HW227381   4.169   1.486   0.767 -2.0162 -4.0589 -0.7785
 5250SOL     OW27382   3.982   4.172   3.659 -0.0763 -0.0094  0.3684
 5250SOL    HW127383   3.981   4.225   3.579 -1.2196 -0.4911  0.0740
 5250SOL    HW227384   3.905   4.211   3.699  2.4394  3.8030  1.5246
 5251SOL     OW27385   0.401   4.314   5.321 -0.1531 -0.1385 -0.1092
 5251SOL    HW127386   0.367   4.325   5.410 -1.2194 -1.8689 -0.3046
 5251SOL    HW227387   0.479   4.368   5.330  1.4542 -2.6754  0.9219
 5252SOL     OW27388   1.895   0.005   4.171 -0.1958 -0.5856  0.1656
 5252SOL    HW127389   1.831   0.059   4.125 -0.5038  0.1623  1.4863
 5252SOL    HW227390   1.871   4.658   4.124  0.3832  0.4434 -1.9164
 5253SOL     OW27391   1.992   2.743   3.664 -0.2991  0.0889  0.3677
 5253SOL    HW127392   1.916   2.770   3.715 -1.0374 -1.0478 -0.1372
 5253SOL    HW227393   2.065   2.778   3.715  0.7753  0.3155 -1.3123
 5254SOL     OW27394   0.199   0.287   6.044  0.7095 -0.0935 -0.1147
 5254SOL    HW127395   0.215   0.224   5.974  2.3345  1.3461 -1.0667
 5254SOL    HW227396   0.209   0.239   6.126 -0.5251 -2.0054 -1.0941
 5255SOL     OW27397   3.345   1.754   2.517 -0.0226 -0.3432 -0.0020
 5255SOL    HW127398   3.301   1.818   2.461 -0.7753 -0.1625  0.7927
 5255SOL    HW227399   3.302   1.676   2.482 -0.2646  0.9621 -2.5718
 5256SOL     OW27400   0.132   2.016  17.150  0.3451  0.7001  1.2235
 5256SOL    HW127401   0.138   1.962  17.071 -1.3479  0.1016  1.4950
 5256SOL    HW227402   0.084   2.091  17.115 -0.4423 -1.5530 -2.5051
 5257SOL     OW27403   4.551   0.165   6.669  0.6178 -0.4759  0.2069
 5257SOL    HW127404   4.618   0.170   6.736  1.3792 -0.5726 -0.5506
 5257SOL    HW227405   4.562   0.082   6.621  1.5485 -1.2455  1.7753
 5258SOL     OW27406   2.403   4.148   5.911  0.2952 -0.1021  0.0152
 5258SOL    HW127407   2.325   4.197   5.933  0.4908  0.6966 -1.0617
 5258SOL    HW227408   2.473   4.214   5.914 -0.8832  1.1174  0.6964
 5259SOL     OW27409   4.326   2.264  10.999 -0.3393  0.8664  0.3283
 5259SOL    HW127410   4.414   2.295  11.017  0.8270 -1.8313 -0.7834
 5259SOL    HW227411   4.277   2.326  11.053 -1.2658  1.3818 -1.0848
 5260SOL     OW27412   0.047   1.941   8.140 -0.5309  0.2983 -0.3166
 5260SOL    HW127413   4.692   1.969   8.114 -0.2597  1.9098  0.4733
 5260SOL    HW227414   0.096   1.952   8.059  0.4257 -0.3708  0.1741
 5261SOL     OW27415   1.544   3.916   8.885  0.8925  0.2422 -0.3358
 5261SOL    HW127416   1.530   3.961   8.802  0.2817 -0.2022 -0.4810
 5261SOL    HW227417   1.508   3.981   8.944  0.9638 -0.7664  0.8203
 5262SOL     OW27418   2.866   1.581  17.584  0.4141  0.3963  0.5529
 5262SOL    HW127419   2.841   1.521  17.655 -0.6476  0.6158  0.3570
 5262SOL    HW227420   2.804   1.563  17.513 -1.2013  0.4736  1.9563
 5263SOL     OW27421   2.245   1.373   2.816  0.4422  0.3458  0.0478
 5263SOL    HW127422   2.218   1.463   2.835  0.2187  0.2622  0.1209
 5263SOL    HW227423   2.179   1.351   2.751 -0.6515  1.8778  0.6401
 5264SOL     OW27424   3.567   4.613   2.767  0.6787 -0.4281  0.3376
 5264SOL    HW127425   3.653   4.588   2.801  1.3569  0.2970 -0.8334
 5264SOL    HW227426   3.580   4.543   2.702 -2.2925 -0.6634  0.0161
 5265SOL     OW27427   2.498   4.224   3.663  0.4021 -0.4770 -0.1274
 5265SOL    HW127428   2.514   4.284   3.590 -2.2520 -0.9371 -1.0680
 5265SOL    HW227429   2.561   4.247   3.731  1.1700  0.8620 -1.2815
 5266SOL     OW27430   3.579   1.597   4.614 -0.6586 -0.0535 -0.5091
 5266SOL    HW127431   3.565   1.587   4.520 -0.7122 -0.3008 -0.4727
 5266SOL    HW227432   3.520   1.670   4.633 -0.5715  0.0921 -0.7829
 5267SOL     OW27433   3.692   2.606  15.957  0.0219  0.4373  0.4552
 5267SOL    HW127434   3.752   2.540  15.992  1.3881  0.6110 -1.5940
 5267SOL    HW227435   3.728   2.623  15.870  0.7610 -0.2652  0.6302
 5268SOL     OW27436   1.459   3.551   3.065 -0.0203 -0.5107  0.2652
 5268SOL    HW127437   1.436   3.536   3.157 -0.6975  0.6678  0.2928
 5268SOL    HW227438   1.529   3.486   3.062  2.0478  1.6651  1.0069
 5269SOL     OW27439   1.801   3.464   7.315  0.1634  1.2479  0.1427
 5269SOL    HW127440   1.705   3.459   7.318  0.1958  2.5143  3.1023
 5269SOL    HW227441   1.827   3.498   7.229  0.0169  0.7796 -0.0883
 5270SOL     OW27442   2.249   4.046   3.214 -0.1819 -0.0686 -0.3819
 5270SOL    HW127443   2.273   4.061   3.122  0.2398  0.8670 -0.1242
 5270SOL    HW227444   2.177   4.105   3.236 -0.1794 -0.6773  1.2157
 5271SOL     OW27445   1.517   1.907   1.324  0.4582 -0.0343  0.1296
 5271SOL    HW127446   1.516   1.829   1.268  1.7779  1.0602 -1.4032
 5271SOL    HW227447   1.490   1.977   1.265  0.5745  0.8192  1.0974
 5272SOL     OW27448   0.847   4.163  10.277  0.4211  0.8340  0.1534
 5272SOL    HW127449   0.916   4.186  10.215  0.8819 -3.2202 -0.7795
 5272SOL    HW227450   0.779   4.183  10.212  0.0642  2.4689  1.0126
 5273SOL     OW27451   3.960   1.041   4.853 -0.0565 -0.4075  0.5964
 5273SOL    HW127452   3.923   1.129   4.850  0.5200 -0.1534  1.0229
 5273SOL    HW227453   3.967   1.016   4.761 -1.4889  0.6682  0.1813
 5274SOL     OW27454   0.686   4.072   9.495 -0.3632  0.3582  0.0655
 5274SOL    HW127455   0.740   4.023   9.432  0.7471  1.5109  0.1223
 5274SOL    HW227456   0.747   4.141   9.522  0.0449 -0.4094  1.1323
 5275SOL     OW27457   2.196   3.220  12.481 -0.1307  0.4478 -0.1384
 5275SOL    HW127458   2.235   3.142  12.521 -0.5539 -0.5146 -1.5703
 5275SOL    HW227459   2.129   3.246  12.544 -0.8300 -1.1902 -0.1797
 5276SOL     OW27460   1.099   3.370  11.258  0.0970 -0.1012  0.2251
 5276SOL    HW127461   1.177   3.337  11.212 -0.2094  1.0492 -1.1136
 5276SOL    HW227462   1.067   3.428  11.189  0.3353  1.0495  1.0855
 5277SOL     OW27463   0.419   1.809   6.847 -0.5570  0.1590  0.0569
 5277SOL    HW127464   0.399   1.717   6.833 -2.9351  0.5768  0.7171
 5277SOL    HW227465   0.465   1.830   6.766  1.3429  0.9844  1.3439
 5278SOL     OW27466   3.026   3.717   2.932  0.2216 -0.6596  0.6227
 5278SOL    HW127467   2.989   3.650   2.989 -2.9579  1.6855  1.3081
 5278SOL    HW227468   3.116   3.723   2.963  0.6420  0.8526 -0.8694
 5279SOL     OW27469   1.028   2.917   5.039 -0.0135  0.4365  0.0407
 5279SOL    HW127470   0.933   2.927   5.046  0.1109  1.0753  0.9552
 5279SOL    HW227471   1.035   2.879   4.952 -0.7163 -3.7341  1.8188
 5280SOL     OW27472   4.329   4.128  13.091  0.2308 -0.4646  0.2405
 5280SOL    HW127473   4.352   4.187  13.163 -1.2122 -1.0898  1.2173
 5280SOL    HW227474   4.337   4.039  13.125  2.3042 -0.9584 -1.4967
 5281SOL     OW27475   4.227   3.988   7.650 -0.9490 -0.1371  0.1325
 5281SOL    HW127476   4.269   3.905   7.628 -0.5642 -0.4057  1.9163
 5281SOL    HW227477   4.160   3.991   7.582 -0.7895  2.6662  0.0859
 5282SOL     OW27478   3.146   2.210  15.251  0.3953  0.4495 -0.5134
 5282SOL    HW127479   3.204   2.186  15.323  0.5458 -0.6681 -0.9965
 5282SOL    HW227480   3.073   2.248  15.299 -0.2690  0.2986 -1.3817
 5283SOL     OW27481   2.445   2.951   1.864  0.5570  0.3946  0.4158
 5283SOL    HW127482   2.398   2.887   1.917 -1.6966  0.6811 -1.2243
 5283SOL    HW227483   2.531   2.934   1.902  0.0157  1.7026  2.1863
 5284SOL     OW27484   4.521   3.551  10.245 -0.1046  0.1843  0.3041
 5284SOL    HW127485   4.504   3.503  10.164 -0.8053  2.1486 -0.7210
 5284SOL    HW227486   4.530   3.635  10.200 -0.6746  1.1712  2.0563
 5285SOL     OW27487   3.300   1.773   8.208 -0.8335  0.3510 -0.3031
 5285SOL    HW127488   3.299   1.831   8.131  1.4999  0.5125 -0.1839
 5285SOL    HW227489   3.382   1.783   8.256 -2.0966 -2.1461  2.3839
 5286SOL     OW27490   1.864   1.865   4.282 -0.2157 -0.6380  0.2346
 5286SOL    HW127491   1.886   1.892   4.371 -0.5225 -0.1872  0.1751
 5286SOL    HW227492   1.921   1.927   4.236 -1.8111 -1.0803 -2.3257
 5287SOL     OW27493   2.553   2.242   9.617  0.2663 -0.7994 -0.3162
 5287SOL    HW127494   2.586   2.331   9.606  2.8011 -1.1879  3.8021
 5287SOL    HW227495   2.469   2.263   9.658  0.5014 -0.1514 -0.1698
 5288SOL     OW27496   4.713   2.868   3.250 -0.4006 -0.1497 -0.3145
 5288SOL    HW127497   0.050   2.922   3.214  0.2905 -0.5935  0.3455
 5288SOL    HW227498   0.026   2.807   3.309 -0.5512 -1.3387 -1.4234
 5289SOL     OW27499   3.918   0.319   8.714 -0.1483 -0.4822  0.0141
 5289SOL    HW127500   3.825   0.343   8.718  0.5945  2.1218  1.8554
 5289SOL    HW227501   3.931   0.312   8.808 -0.7482  0.8735  0.1956
 5290SOL     OW27502   3.753   2.860   9.947 -0.5144 -0.1098 -0.8589
 5290SOL    HW127503   3.677   2.858   9.889 -2.0015 -0.4658  1.1373
 5290SOL    HW227504   3.751   2.956   9.947  0.0386 -0.0968  1.1098
 5291SOL     OW27505   3.392   3.676   2.555  0.3396  0.0948 -0.1328
 5291SOL    HW127506   3.422   3.614   2.622  1.0375  0.3832 -0.1854
 5291SOL    HW227507   3.468   3.733   2.554  0.5532 -0.1804  0.2709
 5292SOL     OW27508   1.510   4.088   7.263 -0.5984 -0.2428 -0.6383
 5292SOL    HW127509   1.532   3.997   7.283 -0.6134  0.0856  0.8741
 5292SOL    HW227510   1.587   4.144   7.275 -0.4951 -0.7267  0.9608
 5293SOL     OW27511   3.325   2.155   7.169  0.2394 -0.1258  0.0662
 5293SOL    HW127512   3.405   2.177   7.121  1.3046 -0.8745  1.4717
 5293SOL    HW227513   3.259   2.156   7.100 -0.2730  1.8936  0.5847
 5294SOL     OW27514   3.333   0.563   7.053  0.0945  0.6438 -0.4390
 5294SOL    HW127515   3.383   0.522   7.124  0.6565 -0.2240 -1.3381
 5294SOL    HW227516   3.348   0.652   7.085 -2.5357  0.9421 -0.0349
 5295SOL     OW27517   4.096   1.190   6.787 -0.0736  0.6365 -0.2684
 5295SOL    HW127518   4.108   1.181   6.881 -1.2934 -1.0767 -0.2811
 5295SOL    HW227519   4.152   1.116   6.764 -0.2498 -0.0292  1.4988
 5296SOL     OW27520   2.977   0.026   2.260  0.3074  0.2973  0.8421
 5296SOL    HW127521   2.908   0.080   2.298 -1.8523 -0.7668 -1.5288
 5296SOL    HW227522   3.017   4.720   2.338  1.9394 -0.5337 -0.3965
 5297SOL     OW27523   0.217   4.156  16.141 -0.0166 -0.2683 -0.1855
 5297SOL    HW127524   0.125   4.181  16.140 -0.3630 -1.4360  1.4885
 5297SOL    HW227525   0.215   4.061  16.125 -1.8277 -0.1596 -0.5332
 5298SOL     OW27526   3.721   1.258   7.668 -0.4297  0.2118 -0.5474
 5298SOL    HW127527   3.777   1.284   7.742  1.4010 -1.4335 -1.3581
 5298SOL    HW227528   3.786   1.227   7.605 -0.1675  0.5270 -0.4327
 5299SOL     OW27529   2.297   2.949  12.542  0.5512  0.4613 -0.0447
 5299SOL    HW127530   2.207   2.919  12.530  0.1485  2.4375 -1.9103
 5299SOL    HW227531   2.330   2.913  12.624 -0.5982  0.7289  0.5356
 5300SOL     OW27532   2.710   1.568   6.860 -0.4049 -0.1860  0.3233
 5300SOL    HW127533   2.696   1.645   6.804  0.9796  0.0049  0.2242
 5300SOL    HW227534   2.802   1.580   6.886 -0.7085  1.7165  0.5191
 5301SOL     OW27535   2.627   0.503   6.862  0.3583 -0.1662  0.0636
 5301SOL    HW127536   2.657   0.590   6.837  4.7851 -1.5932  0.3492
 5301SOL    HW227537   2.698   0.470   6.918 -0.2165 -1.4665  0.0337
 5302SOL     OW27538   4.151   2.388   7.356 -0.2632 -0.6279 -0.2477
 5302SOL    HW127539   4.115   2.469   7.319 -0.5168 -0.9995 -0.8168
 5302SOL    HW227540   4.165   2.421   7.444  1.2827  1.5586 -1.2900
 5303SOL     OW27541   2.347   0.777   7.083 -0.2949  0.6883  0.7120
 5303SOL    HW127542   2.432   0.782   7.038  0.2894 -0.8545  1.6461
 5303SOL    HW227543   2.312   0.853   7.037  1.1039  1.4504  0.9096
 5304SOL     OW27544   0.755   1.320  10.847  0.4499  0.0497  0.4116
 5304SOL    HW127545   0.750   1.229  10.875 -0.6862 -0.3418 -1.0090
 5304SOL    HW227546   0.847   1.320  10.821  0.8522  1.8090  1.8320
 5305SOL     OW27547   0.797   1.033  13.652  0.3298 -0.5990  0.0882
 5305SOL    HW127548   0.802   1.128  13.659  0.2824 -0.7681  2.3850
 5305SOL    HW227549   0.707   1.030  13.684  0.1386  0.8284 -0.3199
 5306SOL     OW27550   3.239   2.778   4.302 -0.1750  0.6487  0.0563
 5306SOL    HW127551   3.183   2.791   4.226 -1.1771  0.4148  0.7587
 5306SOL    HW227552   3.325   2.772   4.259 -0.6195 -0.3893 -0.7093
 5307SOL     OW27553   0.005   0.119   4.645 -0.2455  0.2921 -0.3184
 5307SOL    HW127554   0.073   0.057   4.617 -0.6036 -0.8050  1.1876
 5307SOL    HW227555   0.042   0.207   4.642 -0.8362  0.4730 -1.8546
 5308SOL     OW27556   2.299   0.058  16.489 -0.3091 -0.1200 -0.1291
 5308SOL    HW127557   2.245   0.108  16.551  1.8615  0.8035  1.0232
 5308SOL    HW227558   2.316   4.719  16.550  1.6874  1.3063  0.9880
 5309SOL     OW27559   2.600   3.678  14.490  0.3131 -0.2685 -0.2055
 5309SOL    HW127560   2.680   3.712  14.530 -0.0247  0.5889 -0.2655
 5309SOL    HW227561   2.580   3.604  14.548  0.3211 -0.5013 -0.4988
 5310SOL     OW27562   0.337   0.325  17.616  0.3436 -0.6436  0.3492
 5310SOL    HW127563   0.383   0.340  17.699  1.2684  0.4720 -0.3665
 5310SOL    HW227564   0.305   0.412  17.591  1.2183  0.0596  1.6563
 5311SOL     OW27565   4.004   3.630   5.439 -0.6221 -0.3735  0.1258
 5311SOL    HW127566   4.089   3.591   5.416 -0.2148  0.7284 -0.2609
 5311SOL    HW227567   4.039   3.696   5.499 -1.4230 -0.5233  0.7437
 5312SOL     OW27568   0.467   4.130   6.851  0.3048 -0.7156 -0.1034
 5312SOL    HW127569   0.491   4.078   6.928 -2.0645 -0.3141  0.8929
 5312SOL    HW227570   0.393   4.075   6.827  1.2423 -1.6087 -0.9307
 5313SOL     OW27571   1.820   1.910   6.898  0.2870 -0.0218  0.4297
 5313SOL    HW127572   1.850   1.986   6.847  0.1030 -0.3936 -0.2260
 5313SOL    HW227573   1.903   1.879   6.935  0.0254 -1.7522 -0.4068
 5314SOL     OW27574   3.469   1.247   4.597 -0.0705 -0.0399  0.0337
 5314SOL    HW127575   3.520   1.191   4.655 -1.6501 -1.3764  0.1251
 5314SOL    HW227576   3.432   1.313   4.655 -1.3238 -1.3549  0.6929
 5315SOL     OW27577   2.632   2.383   5.606  0.1992  0.2112  0.2519
 5315SOL    HW127578   2.653   2.435   5.528 -0.4352  1.6145  1.0099
 5315SOL    HW227579   2.556   2.425   5.647  1.3614 -0.6715  3.3001
 5316SOL     OW27580   2.755   1.209   8.939 -0.9440  0.2447 -0.0572
 5316SOL    HW127581   2.841   1.250   8.947 -0.9343  0.1663  0.2384
 5316SOL    HW227582   2.710   1.236   9.020  0.4839 -0.9180  1.1084
 5317SOL     OW27583   4.440   2.199   3.368  0.0428 -0.5218  0.4016
 5317SOL    HW127584   4.428   2.262   3.439 -0.8041 -1.5990  1.2167
 5317SOL    HW227585   4.417   2.118   3.414 -3.2642 -0.4077 -1.0717
 5318SOL     OW27586   3.532   0.948   2.551 -0.9692 -0.3595 -0.0836
 5318SOL    HW127587   3.566   1.020   2.603 -1.6557  1.2527 -1.8898
 5318SOL    HW227588   3.452   0.924   2.598 -0.0200  0.2670  1.8382
 5319SOL     OW27589   1.443   4.487   8.411 -0.0185 -0.5018 -0.1961
 5319SOL    HW127590   1.440   4.398   8.446 -1.0286 -0.2802  0.2894
 5319SOL    HW227591   1.527   4.486   8.365 -1.5240  1.2454 -3.0129
 5320SOL     OW27592   4.296   4.297  12.666  0.1349  0.5433  0.0768
 5320SOL    HW127593   4.366   4.360  12.686  1.1747 -0.1306 -1.4161
 5320SOL    HW227594   4.262   4.272  12.751 -0.7351 -0.9536 -0.7164
 5321SOL     OW27595   1.614   4.648  16.022  0.4512 -0.0512 -0.2833
 5321SOL    HW127596   1.532   4.636  15.974 -0.0951 -0.3922  0.7401
 5321SOL    HW227597   1.646   4.717  15.963  0.0471 -0.1203 -0.5868
 5322SOL     OW27598   3.838   1.196   2.451  0.6616 -0.1922  0.5665
 5322SOL    HW127599   3.886   1.117   2.427  0.3479 -1.1193  2.9940
 5322SOL    HW227600   3.803   1.234   2.370 -0.2813  0.4737  1.2794
 5323SOL     OW27601   2.560   1.980   9.705 -0.8704  0.3504 -0.1863
 5323SOL    HW127602   2.475   1.946   9.733  0.4629 -1.0974  2.0443
 5323SOL    HW227603   2.527   2.048   9.646 -1.5713 -0.5536 -0.8290
 5324SOL     OW27604   2.944   1.850   7.265 -0.4905  0.2489 -0.2008
 5324SOL    HW127605   3.005   1.908   7.310 -0.4724 -0.7232  1.0621
 5324SOL    HW227606   2.889   1.815   7.336  0.7985 -1.3250  0.0392
 5325SOL     OW27607   2.030   4.067   6.869 -0.0149  0.0851 -0.3387
 5325SOL    HW127608   2.117   4.050   6.833  0.2080  1.4087 -0.4233
 5325SOL    HW227609   2.049   4.104   6.956 -0.3056  1.7745 -0.9941
 5326SOL     OW27610   0.237   4.264  13.584 -0.0649 -0.9031  0.0069
 5326SOL    HW127611   0.233   4.343  13.638  0.9608 -1.5865  1.0736
 5326SOL    HW227612   0.147   4.235  13.571 -0.4181 -0.2838  1.1175
 5327SOL     OW27613   4.284   3.987   8.380 -0.1292 -0.0153 -0.3467
 5327SOL    HW127614   4.306   3.962   8.470 -0.0592  2.5678  0.3731
 5327SOL    HW227615   4.341   3.931   8.328  0.6625  2.4754 -2.1380
 5328SOL     OW27616   3.488   1.701   6.307  0.5597  0.0483 -0.3761
 5328SOL    HW127617   3.561   1.759   6.287  0.5438  0.3611  0.4983
 5328SOL    HW227618   3.431   1.737   6.239 -0.1693 -0.7230 -0.1777
 5329SOL     OW27619   4.569   0.177   8.245  0.6237  0.3434  0.5851
 5329SOL    HW127620   4.531   0.095   8.278  1.5285 -0.5112 -0.5019
 5329SOL    HW227621   4.490   0.218   8.209  1.2635  1.8734  0.9219
 5330SOL     OW27622   4.434   3.479   9.624 -0.4023  0.0495  0.5803
 5330SOL    HW127623   4.361   3.527   9.663  0.9145  0.8617  2.0607
 5330SOL    HW227624   4.448   3.544   9.555 -2.7154  0.0374  0.1260
 5331SOL     OW27625   4.706   2.471   2.325 -0.2955 -0.0540  0.5658
 5331SOL    HW127626   4.665   2.470   2.411  1.3464  0.7303  1.3666
 5331SOL    HW227627   4.674   2.400   2.270 -1.6183  0.3766  0.7914
 5332SOL     OW27628   4.192   4.283  12.409 -0.1116  0.2643  0.5033
 5332SOL    HW127629   4.228   4.211  12.357  1.6338  2.0790 -0.7826
 5332SOL    HW227630   4.239   4.272  12.492 -0.2243  1.3611  0.7078
 5333SOL     OW27631   2.790   3.033  11.260  0.1223 -0.3640 -0.4708
 5333SOL    HW127632   2.718   3.045  11.199  0.5547 -0.1185 -0.9325
 5333SOL    HW227633   2.754   3.037  11.349 -0.5624 -0.7947 -0.7281
 5334SOL     OW27634   2.717   0.625   3.674  0.1707 -0.2705  0.2470
 5334SOL    HW127635   2.799   0.644   3.628 -0.0384 -3.3046 -1.3727
 5334SOL    HW227636   2.658   0.692   3.641  1.2204  1.0440  1.0674
 5335SOL     OW27637   3.732   3.454   3.562 -0.1800  0.0436  0.4839
 5335SOL    HW127638   3.686   3.377   3.596 -1.5032  0.2523 -0.7924
 5335SOL    HW227639   3.656   3.512   3.561 -1.8613 -2.1494  1.0039
 5336SOL     OW27640   4.060   1.550   5.727 -0.6783  0.4169  0.1881
 5336SOL    HW127641   3.986   1.608   5.709  1.0986  2.0225 -1.9612
 5336SOL    HW227642   4.074   1.560   5.821 -2.0790 -0.5801  0.5060
 5337SOL     OW27643   0.783   2.620   5.836 -0.1900 -0.2918 -0.9101
 5337SOL    HW127644   0.786   2.560   5.911  0.6112  0.1422 -0.6040
 5337SOL    HW227645   0.876   2.633   5.821 -0.3002  0.6671 -0.7640
 5338SOL     OW27646   0.316   2.681   5.823  0.0336 -0.0984  0.3342
 5338SOL    HW127647   0.399   2.725   5.805 -0.1941 -0.6341 -2.0149
 5338SOL    HW227648   0.289   2.638   5.742 -1.4654 -1.2910  1.4606
 5339SOL     OW27649   3.309   0.507   6.000 -0.4405 -1.0125 -0.3176
 5339SOL    HW127650   3.338   0.417   5.985  1.7633 -0.4095  0.3819
 5339SOL    HW227651   3.285   0.530   5.910 -1.2674 -1.6036 -0.2505
 5340SOL     OW27652   1.993   3.708  12.214 -0.3261  0.3976 -0.2507
 5340SOL    HW127653   2.079   3.696  12.255 -0.5771 -0.7640 -0.0572
 5340SOL    HW227654   2.004   3.644  12.143  1.9947 -1.7448  2.0346
 5341SOL     OW27655   0.109   4.238  14.863  0.1569  0.4992  0.3547
 5341SOL    HW127656   0.032   4.265  14.812  0.5983 -1.3902 -1.3146
 5341SOL    HW227657   0.080   4.157  14.905 -0.9883  0.7151  0.0082
 5342SOL     OW27658   2.081   3.092   6.541  0.0705 -0.7937 -0.8155
 5342SOL    HW127659   2.156   3.046   6.579  1.4785  1.5698 -0.7442
 5342SOL    HW227660   2.115   3.129   6.460  0.8936  3.3068  1.3723
 5343SOL     OW27661   3.232   3.265   7.043 -0.5075  0.3463  0.9257
 5343SOL    HW127662   3.317   3.230   7.071 -0.7684 -0.8851  0.1917
 5343SOL    HW227663   3.216   3.212   6.965  0.8268  2.6413 -0.9239
 5344SOL     OW27664   3.345   3.851   6.402  0.0089  0.0736  0.2782
 5344SOL    HW127665   3.401   3.854   6.325  0.6159  1.0483  0.7534
 5344SOL    HW227666   3.393   3.820   6.479  1.4351  0.4685 -0.4536
 5345SOL     OW27667   1.561   4.686   2.200  0.6469  0.9799  0.1740
 5345SOL    HW127668   1.554   4.689   2.104 -1.0158 -2.3060  0.1896
 5345SOL    HW227669   1.515   4.605   2.221  0.0593  1.2242 -0.1532
 5346SOL     OW27670   2.016   0.419   6.462 -0.0378 -0.8892  0.4216
 5346SOL    HW127671   2.053   0.463   6.538 -2.3375  0.7772  0.5800
 5346SOL    HW227672   2.013   0.335   6.508  0.0998  0.0648  2.1714
 5347SOL     OW27673   0.956   1.543  11.051 -0.0671  0.3140  0.1350
 5347SOL    HW127674   0.963   1.584  10.964  0.1653 -1.0200 -0.4682
 5347SOL    HW227675   1.008   1.464  11.041  0.1902  0.2673  1.8748
 5348SOL     OW27676   1.857   4.215   4.309 -0.2041 -0.2065 -0.0247
 5348SOL    HW127677   1.949   4.189   4.306  0.2991  1.2653  1.9244
 5348SOL    HW227678   1.870   4.310   4.319 -0.1013 -0.2032 -0.1908
 5349SOL     OW27679   2.500   2.813   7.714 -0.0168 -0.2170  0.1938
 5349SOL    HW127680   2.519   2.878   7.647  1.5866 -0.3267  0.5547
 5349SOL    HW227681   2.408   2.839   7.721  0.1287  0.1138  0.8401
 5350SOL     OW27682   3.297   1.940   6.565  0.0777 -0.7591  0.0313
 5350SOL    HW127683   3.331   2.014   6.514  0.1915 -0.6888  0.2109
 5350SOL    HW227684   3.358   1.872   6.536 -0.0148 -0.4250 -0.9535
 5351SOL     OW27685   0.671   4.255   4.214  0.1408 -0.4172 -0.5563
 5351SOL    HW127686   0.609   4.182   4.217 -1.1217  0.7348  1.8065
 5351SOL    HW227687   0.708   4.255   4.302 -1.9624 -2.5915  0.3418
 5352SOL     OW27688   3.726   3.928   8.419 -0.2628 -0.0021  0.1213
 5352SOL    HW127689   3.714   4.013   8.460 -1.6655  0.0128 -0.3247
 5352SOL    HW227690   3.814   3.926   8.380 -0.4812  2.3183 -0.4764
 5353SOL     OW27691   4.137   2.259  15.854 -0.2832 -0.3773 -0.2207
 5353SOL    HW127692   4.096   2.188  15.805 -0.4883  0.3410 -1.0890
 5353SOL    HW227693   4.194   2.227  15.924  1.4709  0.7459 -1.1608
 5354SOL     OW27694   1.283   3.303   8.146 -0.5935  0.0143 -0.2713
 5354SOL    HW127695   1.210   3.347   8.104 -1.2880 -0.4371  0.4645
 5354SOL    HW227696   1.255   3.277   8.234  0.0635  2.4232  0.6575
 5355SOL     OW27697   1.936   1.874  11.494 -0.0767  0.3613  0.2391
 5355SOL    HW127698   1.947   1.797  11.550 -1.0820 -0.4956 -0.7497
 5355SOL    HW227699   1.886   1.924  11.557  0.1675  1.5770 -0.5374
 5356SOL     OW27700   2.014   4.502  12.859 -0.4818 -0.4547  0.2571
 5356SOL    HW127701   2.049   4.536  12.776  2.2685  0.2647  1.7319
 5356SOL    HW227702   2.091   4.467  12.903 -0.2994 -1.0613 -0.5484
 5357SOL     OW27703   1.935   0.393  10.932  0.2713  0.5037 -0.1360
 5357SOL    HW127704   1.950   0.464  10.994  1.5714 -0.6422  0.8651
 5357SOL    HW227705   1.996   0.425  10.865 -0.6220  1.3576 -0.5349
 5358SOL     OW27706   3.743   4.514   4.615 -0.6787  0.1180  0.3342
 5358SOL    HW127707   3.791   4.597   4.611  0.8702 -0.8471 -1.0193
 5358SOL    HW227708   3.679   4.531   4.684  0.2918  1.0073  1.0243
 5359SOL     OW27709   0.918   4.200   7.534 -0.3393  0.0636  0.1365
 5359SOL    HW127710   0.962   4.227   7.454 -0.0575  2.0693  0.9460
 5359SOL    HW227711   0.869   4.126   7.499 -1.5425  0.9257 -0.0125
 5360SOL     OW27712   0.106   1.964   9.105 -0.0416  0.5958  0.1403
 5360SOL    HW127713   0.091   1.900   9.175  0.3519  2.1453  1.6344
 5360SOL    HW227714   0.136   1.895   9.046  2.4078  1.0639  0.8196
 5361SOL     OW27715   3.587   2.232   7.572 -0.1097 -0.1650 -0.0986
 5361SOL    HW127716   3.676   2.201   7.553  0.0748 -1.3092  2.6253
 5361SOL    HW227717   3.558   2.148   7.608 -0.6423  0.1737  0.2611
 5362SOL     OW27718   0.807   0.271  14.150 -0.7337  0.9822 -0.5648
 5362SOL    HW127719   0.860   0.196  14.177 -1.5687  0.5120 -0.2110
 5362SOL    HW227720   0.749   0.238  14.082 -1.6069 -1.0414  1.1552
 5363SOL     OW27721   3.277   0.917   6.714 -0.2438  0.4245 -0.2668
 5363SOL    HW127722   3.244   0.986   6.657 -0.7729  0.3123 -0.1002
 5363SOL    HW227723   3.215   0.847   6.694 -0.1321  0.3367 -0.3068
 5364SOL     OW27724   0.073   1.938   3.833 -0.1746  0.0749  0.3639
 5364SOL    HW127725   0.107   1.855   3.866 -0.8938 -2.6537 -5.6430
 5364SOL    HW227726   0.011   1.962   3.901 -1.3666 -2.2130  0.0887
 5365SOL     OW27727   0.277   4.409   1.684  0.1092 -0.3040  0.5800
 5365SOL    HW127728   0.357   4.406   1.737  0.0373  0.3685  0.7374
 5365SOL    HW227729   0.210   4.458   1.733  2.2247  1.7446  1.4512
 5366SOL     OW27730   4.677   3.342   4.882 -0.1753  0.3666  0.3026
 5366SOL    HW127731   4.727   3.339   4.801 -1.0923 -2.9545 -0.1705
 5366SOL    HW227732   4.598   3.369   4.836 -0.7320  0.3013  1.2202
 5367SOL     OW27733   3.866   3.805  11.604 -0.1878 -0.1191  0.2081
 5367SOL    HW127734   3.907   3.851  11.677  2.8490 -0.7127 -1.1254
 5367SOL    HW227735   3.776   3.837  11.615 -0.4598 -0.3890 -1.2804
 5368SOL     OW27736   1.614   3.845  11.637 -0.2012  0.2801  0.7267
 5368SOL    HW127737   1.571   3.931  11.636  1.4638  1.0946 -0.4021
 5368SOL    HW227738   1.539   3.790  11.661  1.5849 -3.4246 -2.2516
 5369SOL     OW27739   0.524   0.887   7.454 -0.1192 -0.3220  0.1866
 5369SOL    HW127740   0.547   0.964   7.505 -1.0496  0.3730 -0.4521
 5369SOL    HW227741   0.443   0.852   7.491 -0.6189  1.7212  1.0008
 5370SOL     OW27742   0.877   4.306   4.916 -0.2417 -0.1196 -0.1842
 5370SOL    HW127743   0.820   4.310   4.993 -1.2505 -1.3121 -0.8607
 5370SOL    HW227744   0.953   4.357   4.944 -0.2256  0.7953 -1.8840
 5371SOL     OW27745   0.952   0.029  11.461  0.7686 -0.2808 -0.0834
 5371SOL    HW127746   0.995   4.718  11.535 -0.6011 -0.2287  0.7473
 5371SOL    HW227747   0.905   0.102  11.502 -1.8591 -1.5314 -0.8273
 5372SOL     OW27748   4.544   4.051  16.122 -0.3952  0.0578  0.1107
 5372SOL    HW127749   4.451   4.033  16.136 -0.8339  2.4515  0.2250
 5372SOL    HW227750   4.570   4.067  16.212 -0.7014 -3.0080  0.7473
 5373SOL     OW27751   0.202   1.408   7.044  0.2550  0.0968 -0.6238
 5373SOL    HW127752   0.177   1.479   6.985 -0.6171 -0.3665 -0.8104
 5373SOL    HW227753   0.258   1.460   7.102 -0.7847 -0.7414  1.1326
 5374SOL     OW27754   3.564   0.505   2.160 -0.5860  0.5201  0.1064
 5374SOL    HW127755   3.542   0.412   2.165  0.2334  0.2651 -1.1595
 5374SOL    HW227756   3.498   0.545   2.217  1.8959  0.7550  2.8169
 5375SOL     OW27757   1.816   2.544   6.334 -0.3582 -0.0308 -0.1778
 5375SOL    HW127758   1.817   2.448   6.332 -1.6380 -0.0170 -1.6846
 5375SOL    HW227759   1.724   2.563   6.319 -0.5601 -2.0459 -1.5346
 5376SOL     OW27760   1.510   0.566   6.882 -0.5924 -0.6629  0.0375
 5376SOL    HW127761   1.421   0.577   6.916  0.3257 -1.1922  2.6078
 5376SOL    HW227762   1.552   0.604   6.959 -1.7843  0.0930  0.3227
 5377SOL     OW27763   3.121   1.667   0.258  0.5129 -0.1833 -0.0958
 5377SOL    HW127764   3.151   1.627   0.176  0.4123  1.8764 -1.1319
 5377SOL    HW227765   3.030   1.678   0.229  0.7715 -0.8068 -1.1400
 5378SOL     OW27766   0.570   0.127   3.273 -0.2502 -0.0670 -0.3148
 5378SOL    HW127767   0.537   0.122   3.183  1.0191 -0.0505 -0.7859
 5378SOL    HW227768   0.658   0.164   3.262 -0.2812  0.3695  0.9178
 5379SOL     OW27769   2.696   4.480   5.507  0.2122 -0.4050  0.1883
 5379SOL    HW127770   2.781   4.524   5.502  0.4564 -0.7802  1.0488
 5379SOL    HW227771   2.663   4.480   5.417  1.9458 -1.9920 -0.4530
 5380SOL     OW27772   2.686   2.822   2.403  0.5948  0.5424 -0.0590
 5380SOL    HW127773   2.667   2.730   2.381  1.8007  0.2882 -0.0307
 5380SOL    HW227774   2.630   2.833   2.480  1.2473 -0.1780  0.5175
 5381SOL     OW27775   1.946   0.688   8.911 -0.3934  0.2154 -0.6353
 5381SOL    HW127776   1.854   0.712   8.908 -0.0738  1.4754 -0.4599
 5381SOL    HW227777   1.939   0.594   8.893  0.9248  0.6881 -3.6393
 5382SOL     OW27778   0.774   3.582  11.228 -0.6878 -0.3379  0.5453
 5382SOL    HW127779   0.716   3.512  11.257 -1.8092 -0.7738 -2.7028
 5382SOL    HW227780   0.710   3.627  11.173  2.3673  1.1753 -1.7876
 5383SOL     OW27781   3.185   0.418   2.964 -0.0931 -0.2283  0.1905
 5383SOL    HW127782   3.185   0.449   3.055 -1.3145  0.1519  0.0578
 5383SOL    HW227783   3.277   0.400   2.945 -0.0916  2.1177 -1.9708
 5384SOL     OW27784   2.931   3.708  17.558  0.1226 -0.2859  0.0853
 5384SOL    HW127785   2.949   3.802  17.562 -1.2850  0.0403 -1.0332
 5384SOL    HW227786   2.865   3.714  17.489 -0.8093 -0.0952  0.9946
 5385SOL     OW27787   2.578   3.316   1.920 -0.5526 -0.6433  0.1106
 5385SOL    HW127788   2.631   3.236   1.925 -2.4102 -1.8250  1.1216
 5385SOL    HW227789   2.644   3.382   1.942  0.4585 -2.1301  1.4785
 5386SOL     OW27790   1.707   1.161   6.638 -0.5060  0.0902  0.0420
 5386SOL    HW127791   1.646   1.136   6.707 -0.4584 -0.8060 -0.2390
 5386SOL    HW227792   1.796   1.144   6.668 -0.6834 -2.2674 -0.7518
 5387SOL     OW27793   1.817   2.474   3.840  0.1974 -0.6093 -0.1371
 5387SOL    HW127794   1.796   2.382   3.820  1.5381 -1.1063  0.7548
 5387SOL    HW227795   1.847   2.512   3.758 -2.0158  1.9876  0.2492
 5388SOL     OW27796   3.470   1.547  13.016  0.0119  0.0975 -0.6555
 5388SOL    HW127797   3.460   1.500  13.099  3.2624 -1.5828 -1.2009
 5388SOL    HW227798   3.382   1.540  12.979 -0.2897 -1.6620  0.4016
 5389SOL     OW27799   0.402   4.606  14.876  0.4148 -0.2792 -0.3481
 5389SOL    HW127800   0.313   4.576  14.856  1.1170 -1.3790 -1.7658
 5389SOL    HW227801   0.393   4.699  14.855  1.5159 -0.1430 -0.2039
 5390SOL     OW27802   2.779   2.011  16.112 -0.5590  0.4511  0.4387
 5390SOL    HW127803   2.868   2.046  16.105 -0.8672  0.8083 -1.7973
 5390SOL    HW227804   2.756   2.044  16.199 -0.7928 -1.1064  0.9680
 5391SOL     OW27805   2.830   1.481   4.678  0.2955 -0.5462 -0.0598
 5391SOL    HW127806   2.799   1.548   4.618  0.2294 -2.6195 -2.3335
 5391SOL    HW227807   2.745   1.437   4.689 -0.1021  0.6414  1.6079
 5392SOL     OW27808   2.187   4.117  10.025  0.1171  0.1208 -0.1450
 5392SOL    HW127809   2.232   4.188   9.980 -0.8406  0.8473  0.0250
 5392SOL    HW227810   2.177   4.156  10.111 -0.7992 -0.7312  0.1400
 5393SOL     OW27811   2.301   4.432  13.227 -0.4413 -0.1136  0.5416
 5393SOL    HW127812   2.272   4.509  13.276  2.1087 -1.0356  3.4582
 5393SOL    HW227813   2.227   4.420  13.168  0.6280  0.5282 -0.9345
 5394SOL     OW27814   2.449   3.227   8.129  0.0787 -0.1660  1.1775
 5394SOL    HW127815   2.425   3.257   8.041  0.3449  1.3318  1.6160
 5394SOL    HW227816   2.444   3.304   8.185 -0.0812  1.7617 -1.4947
 5395SOL     OW27817   1.600   4.094   9.656  0.2718 -0.3609  0.0832
 5395SOL    HW127818   1.659   4.168   9.639 -0.3633 -0.1276 -1.1065
 5395SOL    HW227819   1.586   4.059   9.568  0.5968  0.5937 -0.3574
 5396SOL     OW27820   2.264   2.956   9.618  0.3987 -0.0049  0.0830
 5396SOL    HW127821   2.308   2.886   9.666  0.4876 -1.0026 -1.4612
 5396SOL    HW227822   2.221   3.014   9.681  0.6660  0.5184 -0.2207
 5397SOL     OW27823   3.540   2.830   5.424  0.1137 -0.4484  0.4578
 5397SOL    HW127824   3.598   2.874   5.362 -0.1378  0.2360  0.7007
 5397SOL    HW227825   3.556   2.881   5.504 -1.4725  1.6257 -0.5454
 5398SOL     OW27826   3.468   2.385   8.443 -0.5399 -0.0531  0.5742
 5398SOL    HW127827   3.467   2.303   8.393 -0.1064  0.8404 -0.8860
 5398SOL    HW227828   3.468   2.438   8.364 -0.9694  0.9717  1.2620
 5399SOL     OW27829   1.380   2.274  11.972 -0.4279 -0.4162 -0.0092
 5399SOL    HW127830   1.391   2.352  12.027 -1.1927  0.3858 -0.9866
 5399SOL    HW227831   1.296   2.294  11.930 -0.3305  0.2490  0.1095
 5400SOL     OW27832   0.646   2.083  14.469 -0.0764 -0.4867 -0.4224
 5400SOL    HW127833   0.659   2.176  14.490  0.2707 -0.3322 -1.3512
 5400SOL    HW227834   0.725   2.041  14.502  0.9789  0.5536 -1.6422
 5401SOL     OW27835   3.928   3.990  11.064 -0.0347  0.4843  0.2172
 5401SOL    HW127836   3.951   3.898  11.050  1.4433  0.7430  0.8993
 5401SOL    HW227837   3.833   3.986  11.052 -0.1706  1.6965  0.8091
 5402SOL     OW27838   1.757   4.697   5.176  0.0210 -0.0267 -0.4181
 5402SOL    HW127839   1.787   0.007   5.256 -0.1799 -1.5268  0.4421
 5402SOL    HW227840   1.818   4.624   5.168  1.7862  1.5141 -1.2387
 5403SOL     OW27841   3.601   1.319  13.538 -1.0392  0.3517  0.2499
 5403SOL    HW127842   3.669   1.346  13.599 -0.2578  1.5057 -1.1497
 5403SOL    HW227843   3.658   1.281  13.470  1.0748 -1.5474  3.0774
 5404SOL     OW27844   4.512   0.196   5.624 -0.1143  0.2763  0.6495
 5404SOL    HW127845   4.556   0.113   5.605  1.5140  0.9279  1.5851
 5404SOL    HW227846   4.420   0.171   5.611  0.1248  0.9005 -2.2005
 5405SOL     OW27847   1.553   4.070   7.838 -0.0797 -0.1066  0.1938
 5405SOL    HW127848   1.490   4.057   7.767  0.8214  1.5774 -0.9153
 5405SOL    HW227849   1.487   4.072   7.907 -1.5255 -0.3847 -1.1880
 5406SOL     OW27850   1.386   4.664   7.257  0.1147 -0.0398 -0.4500
 5406SOL    HW127851   1.341   4.595   7.208  1.2135 -0.8619 -0.2903
 5406SOL    HW227852   1.430   4.716   7.189  1.5094 -0.1797  0.3556
 5407SOL     OW27853   2.921   1.045   7.620  0.5356 -0.5348  0.1785
 5407SOL    HW127854   2.984   1.002   7.679 -0.3513 -0.3347  1.2655
 5407SOL    HW227855   2.972   1.037   7.539  0.6305 -1.2208  0.3011
 5408SOL     OW27856   1.143   2.876  12.824 -0.1832 -0.4255  0.1315
 5408SOL    HW127857   1.136   2.845  12.733 -2.1930 -2.0084  0.8264
 5408SOL    HW227858   1.153   2.790  12.864  2.3746  0.2705  1.0033
 5409SOL     OW27859   3.409   2.316   9.394  0.1459  0.0362  0.0978
 5409SOL    HW127860   3.378   2.375   9.463  0.1309  2.5889 -2.0786
 5409SOL    HW227861   3.412   2.238   9.449 -2.4201 -0.7005 -0.8191
 5410SOL     OW27862   1.222   0.116   7.365 -0.1638 -0.5260  0.0447
 5410SOL    HW127863   1.251   0.025   7.355  0.4285 -0.1655 -1.5024
 5410SOL    HW227864   1.154   0.126   7.299 -0.5106  0.3791  0.5358
 5411SOL     OW27865   2.877   0.444   8.946  0.3137  0.5862  0.4084
 5411SOL    HW127866   2.947   0.443   9.011  0.9504  1.1396 -0.2634
 5411SOL    HW227867   2.802   0.437   9.005  1.0007  1.3967  1.3638
 5412SOL     OW27868   3.480   4.555  10.804  0.0596  0.4348  0.3082
 5412SOL    HW127869   3.495   4.546  10.899  1.3854 -0.1325  0.0561
 5412SOL    HW227870   3.476   4.650  10.802  1.4029  0.5571  2.0816
 5413SOL     OW27871   0.783   4.208   8.813  0.2095  0.1503 -0.1890
 5413SOL    HW127872   0.831   4.180   8.891 -0.0886 -4.3290 -1.5992
 5413SOL    HW227873   0.832   4.154   8.750 -1.0057  0.9716 -1.8274
 5414SOL     OW27874   3.265   0.118   5.419  0.5941  0.2165  0.2298
 5414SOL    HW127875   3.275   0.210   5.394  0.6765  0.2687  0.4561
 5414SOL    HW227876   3.196   0.090   5.359  0.5063  1.7744 -0.3984
 5415SOL     OW27877   3.881   3.675   2.445  0.3621 -0.3346 -0.0067
 5415SOL    HW127878   3.878   3.584   2.475  1.9754 -0.2058  0.5783
 5415SOL    HW227879   3.856   3.674   2.353  1.6887  2.0783 -0.4036
 5416SOL     OW27880   0.072   0.495   9.627 -0.4580 -0.0985 -0.3723
 5416SOL    HW127881   0.009   0.437   9.669 -0.5650 -0.7360 -1.4356
 5416SOL    HW227882   0.063   0.574   9.681  1.4383 -1.5601  2.0492
 5417SOL     OW27883   4.486   4.243   8.395  0.2002 -0.5075  0.0611
 5417SOL    HW127884   4.525   4.252   8.307 -0.0641  1.5291  0.1646
 5417SOL    HW227885   4.447   4.157   8.376 -1.6973  0.6431 -1.2459
 5418SOL     OW27886   3.231   3.349   8.530  0.5099 -0.2208  0.3629
 5418SOL    HW127887   3.261   3.438   8.509 -3.5811  1.3420  1.1610
 5418SOL    HW227888   3.211   3.339   8.623  0.5768  1.1182  0.5246
 5419SOL     OW27889   4.604   3.718  11.573 -0.1987 -0.3083 -0.0384
 5419SOL    HW127890   4.683   3.757  11.534 -1.5069 -0.8826 -3.2897
 5419SOL    HW227891   4.573   3.794  11.622  0.8397 -1.0545  1.7893
 5420SOL     OW27892   3.148   3.037   5.358  0.1312 -0.2237  0.4396
 5420SOL    HW127893   3.165   3.052   5.451  1.8163  0.4477  0.0443
 5420SOL    HW227894   3.211   3.095   5.315 -0.9544 -0.6640 -1.7404
 5421SOL     OW27895   3.377   2.280   4.504 -0.0910 -0.5917 -0.1176
 5421SOL    HW127896   3.354   2.196   4.465 -0.7914 -0.3436 -0.2527
 5421SOL    HW227897   3.325   2.343   4.454  1.4634  0.7207 -0.0788
 5422SOL     OW27898   4.492   3.811   3.444 -0.2534 -0.0409  0.4076
 5422SOL    HW127899   4.475   3.717   3.454 -2.8928  0.3355 -0.6112
 5422SOL    HW227900   4.566   3.806   3.382  0.6205  1.5915  1.3311
 5423SOL     OW27901   4.003   0.408   9.245 -0.3423 -0.3088 -0.3315
 5423SOL    HW127902   4.055   0.377   9.319 -0.8724 -2.1613 -0.7344
 5423SOL    HW227903   3.995   0.499   9.274  2.5825 -0.3389  0.6244
 5424SOL     OW27904   3.503   1.533   2.596  0.6864  0.1980  0.4550
 5424SOL    HW127905   3.574   1.513   2.535 -0.2625 -3.3012  0.4717
 5424SOL    HW227906   3.473   1.613   2.554  1.1395  0.9289  1.5210
 5425SOL     OW27907   4.028   4.306   3.385 -0.5901 -0.3037  0.1792
 5425SOL    HW127908   4.119   4.336   3.377 -1.4596  1.5981 -2.5320
 5425SOL    HW227909   4.050   4.215   3.365  3.9870  0.9437 -0.4289
 5426SOL     OW27910   0.797   3.158   2.559 -0.4291 -0.3431  0.2083
 5426SOL    HW127911   0.818   3.150   2.466 -1.5015  1.6822 -0.2068
 5426SOL    HW227912   0.877   3.175   2.607  1.0146  0.0409 -2.3487
 5427SOL     OW27913   0.498   0.784   1.894 -0.1385  0.6203 -0.1669
 5427SOL    HW127914   0.589   0.783   1.925 -0.2314 -1.7216 -0.0013
 5427SOL    HW227915   0.487   0.869   1.852 -1.2063  1.1525  1.1948
 5428SOL     OW27916   2.946   4.454   8.195 -0.1493  0.0846 -0.3751
 5428SOL    HW127917   3.014   4.442   8.128  2.7283 -0.0943  2.5823
 5428SOL    HW227918   2.996   4.443   8.276 -1.9767  0.1974  0.7794
 5429SOL     OW27919   2.982   1.282   7.984 -0.0366  0.5239 -0.1967
 5429SOL    HW127920   3.029   1.203   7.957 -0.5917  0.9376 -2.3641
 5429SOL    HW227921   2.893   1.274   7.949  0.3394 -1.5575 -0.7085
 5430SOL     OW27922   3.896   0.420   8.138  0.0384  0.1997 -0.0374
 5430SOL    HW127923   3.936   0.460   8.061  2.1826  0.5734  1.2892
 5430SOL    HW227924   3.845   0.500   8.155 -1.0234  0.0827 -2.6430
 5431SOL     OW27925   2.503   2.617   6.685 -0.3517 -0.3527 -0.2671
 5431SOL    HW127926   2.432   2.581   6.739  0.4999 -2.6895 -0.7044
 5431SOL    HW227927   2.538   2.676   6.752 -0.2076  0.2005 -0.8335
 5432SOL     OW27928   1.682   2.717  15.266 -0.1813 -0.2121  0.0811
 5432SOL    HW127929   1.744   2.759  15.326  2.1693 -2.2192 -0.9488
 5432SOL    HW227930   1.739   2.656  15.219  0.2945  0.1350  0.2027
 5433SOL     OW27931   2.803   3.194   2.323  0.9960 -0.0525  0.2493
 5433SOL    HW127932   2.888   3.237   2.314 -0.8550  3.9168  1.9328
 5433SOL    HW227933   2.835   3.105   2.340  1.8166  0.4106  1.1735
 5434SOL     OW27934   0.608   3.327   9.512  0.5027  0.4398  0.3080
 5434SOL    HW127935   0.626   3.233   9.504 -1.0276  0.0655  1.4491
 5434SOL    HW227936   0.516   3.321   9.488 -0.3467  1.1491  3.4513
 5435SOL     OW27937   0.598   2.921   6.977  0.0652  0.7849 -0.0821
 5435SOL    HW127938   0.675   2.962   6.939  1.2684 -0.6069  0.8640
 5435SOL    HW227939   0.639   2.836   6.993  1.4078  1.6777  1.2021
 5436SOL     OW27940   1.201   1.465   3.853 -0.4189 -0.6479 -0.7791
 5436SOL    HW127941   1.228   1.498   3.939  0.7724 -0.1799 -1.3301
 5436SOL    HW227942   1.132   1.528   3.833  0.9288  0.3944 -2.1306
 5437SOL     OW27943   3.896   0.333   2.064 -0.1660  0.4350 -0.4142
 5437SOL    HW127944   3.915   0.394   1.993 -0.7372 -0.7931 -1.6017
 5437SOL    HW227945   3.846   0.261   2.026 -0.1607  0.0411  0.3046
 5438SOL     OW27946   1.731   0.856   5.484  0.3270  0.0613  0.2353
 5438SOL    HW127947   1.701   0.851   5.393  1.2811  4.3511 -0.3129
 5438SOL    HW227948   1.647   0.849   5.529  0.4014 -2.0525  0.0356
 5439SOL     OW27949   2.535   0.807   4.287 -0.3403 -0.3425  0.3412
 5439SOL    HW127950   2.455   0.795   4.235 -0.0905  2.1750 -0.6119
 5439SOL    HW227951   2.584   0.726   4.271  1.1949  0.5539  0.5163
 5440SOL     OW27952   3.251   3.210   5.961  0.8751  0.3475 -0.3416
 5440SOL    HW127953   3.182   3.245   6.018  0.8674 -0.0487 -0.1044
 5440SOL    HW227954   3.203   3.217   5.879  6.0164  1.0402 -3.2277
 5441SOL     OW27955   4.709   4.195   2.040 -0.7144  0.2725 -0.1634
 5441SOL    HW127956   4.671   4.166   2.123  0.0901 -0.9193 -0.2104
 5441SOL    HW227957   4.630   4.218   1.991  0.6829  3.6850 -0.8489
 5442SOL     OW27958   3.872   2.726   5.397 -0.1216 -0.5285  0.5911
 5442SOL    HW127959   3.786   2.761   5.374  0.6219  0.4385 -0.7144
 5442SOL    HW227960   3.845   2.639   5.426  0.3748 -0.0827  2.3478
 5443SOL     OW27961   4.518   0.191  10.014 -0.5978 -0.2923  0.2250
 5443SOL    HW127962   4.484   0.102  10.027 -3.6443  0.6569 -1.1437
 5443SOL    HW227963   4.434   0.238  10.015  0.1502  1.0809 -1.8939
 5444SOL     OW27964   2.790   1.697   8.427  0.3740  0.2025 -0.0127
 5444SOL    HW127965   2.834   1.648   8.357 -2.3382  0.1352 -1.6975
 5444SOL    HW227966   2.728   1.749   8.376 -0.8805 -2.0861 -0.8619
 5445SOL     OW27967   2.775   2.487   1.524 -0.3647 -1.1795  0.4102
 5445SOL    HW127968   2.692   2.440   1.521 -1.2818  0.3616  1.4093
 5445SOL    HW227969   2.848   2.433   1.494 -1.2346 -0.3806 -3.0576
 5446SOL     OW27970   1.202   2.387   1.424 -0.2756 -0.3044  0.2348
 5446SOL    HW127971   1.171   2.477   1.414  1.7935  0.4549  0.5370
 5446SOL    HW227972   1.226   2.381   1.516 -0.6654  0.5794  0.4006
 5447SOL     OW27973   1.268   3.163   1.673  0.0277 -0.4097 -0.1033
 5447SOL    HW127974   1.195   3.158   1.734  2.0627  0.5969  2.3770
 5447SOL    HW227975   1.325   3.097   1.714  0.9927 -0.8242 -2.0926
 5448SOL     OW27976   4.017   3.244   3.572  0.1503  0.0500 -0.3869
 5448SOL    HW127977   4.083   3.186   3.610  0.6446  1.3025  0.6972
 5448SOL    HW227978   3.957   3.256   3.646  2.2472  0.4315  1.2475
 5449SOL     OW27979   0.031   1.755   7.646  0.1405  0.2183 -0.2842
 5449SOL    HW127980   4.729   1.683   7.697  1.7304  0.6497  1.4197
 5449SOL    HW227981   0.093   1.711   7.587 -1.1577 -0.0631 -1.4440
 5450SOL     OW27982   1.550   1.280  12.273  0.7036 -0.0894 -0.3824
 5450SOL    HW127983   1.544   1.269  12.368  2.1512 -0.8954 -0.3838
 5450SOL    HW227984   1.645   1.271  12.261  0.8951 -0.5562  1.4983
 5451SOL     OW27985   3.786   0.400   5.770  0.6253 -0.0899  0.1291
 5451SOL    HW127986   3.806   0.426   5.860  2.0130  2.2208 -0.8345
 5451SOL    HW227987   3.814   0.309   5.780  1.0669  0.2213  1.8288
 5452SOL     OW27988   0.344   4.570   3.605 -0.2044 -0.0097  0.0108
 5452SOL    HW127989   0.339   4.528   3.691  1.5320  1.1790  0.6868
 5452SOL    HW227990   0.439   4.584   3.601 -0.4476  1.3786 -0.6376
 5453SOL     OW27991   1.312   0.711  14.017  0.0173 -0.1323  0.0421
 5453SOL    HW127992   1.340   0.659  13.942 -1.1889 -0.4493 -0.1747
 5453SOL    HW227993   1.334   0.656  14.093  0.0194  1.7942  1.4458
 5454SOL     OW27994   1.033   3.923   4.630 -0.7759  0.1777  0.1826
 5454SOL    HW127995   1.050   3.961   4.544  0.4461 -1.4362 -0.3002
 5454SOL    HW227996   1.091   3.846   4.624 -0.9978  0.0446 -0.2397
 5455SOL     OW27997   3.779   3.579   5.998 -0.3609 -0.4395  0.2672
 5455SOL    HW127998   3.789   3.495   6.044  0.5971  1.2510  3.1307
 5455SOL    HW227999   3.685   3.595   5.995 -0.3394 -0.4536 -0.5752
 5456SOL     OW28000   4.489   3.253  11.969  0.1787  0.1942  0.1395
 5456SOL    HW128001   4.525   3.312  12.036 -0.1170 -0.3314  0.7554
 5456SOL    HW228002   4.497   3.301  11.886 -0.4696  0.0803  0.0077
 5457SOL     OW28003   3.201   4.218   3.586  0.3238  0.5273  0.4062
 5457SOL    HW128004   3.120   4.185   3.627  0.2529 -0.1381 -0.2658
 5457SOL    HW228005   3.178   4.184   3.499 -2.6542  1.2348  0.9021
 5458SOL     OW28006   2.910   1.864  14.109  0.1890  0.4583 -0.5413
 5458SOL    HW128007   2.916   1.851  14.014  0.5645 -1.0274 -0.3089
 5458SOL    HW228008   2.900   1.959  14.117  1.0599  0.6637 -1.7502
 5459SOL     OW28009   1.091   0.342   6.132  0.7072 -0.2187  0.7119
 5459SOL    HW128010   1.161   0.388   6.086 -0.0179 -1.9412 -2.1001
 5459SOL    HW228011   1.045   0.298   6.060  1.8391 -2.0462  1.0919
 5460SOL     OW28012   2.008   2.469  17.240  0.5224 -0.2488  0.1330
 5460SOL    HW128013   1.926   2.454  17.286  0.7203 -0.6961  0.3431
 5460SOL    HW228014   2.035   2.556  17.268  0.4327  0.1077 -0.8969
 5461SOL     OW28015   4.612   2.755  10.405 -0.1719 -0.2179 -0.4246
 5461SOL    HW128016   4.673   2.823  10.376 -1.6214  1.1033 -0.3458
 5461SOL    HW228017   4.539   2.804  10.443  1.5551 -0.4919  3.2598
 5462SOL     OW28018   0.467   1.993   2.175  0.3343  0.2908 -0.3180
 5462SOL    HW128019   0.416   1.944   2.239 -2.5161 -0.3330 -3.0878
 5462SOL    HW228020   0.453   1.934   2.101  1.2422 -0.5042  0.1379
 5463SOL     OW28021   1.822   3.690   6.074 -0.5900  0.8593 -0.2693
 5463SOL    HW128022   1.907   3.670   6.034 -1.8309 -1.7770 -1.5623
 5463SOL    HW228023   1.844   3.725   6.161  0.0804 -1.1700  0.3826
 5464SOL     OW28024   2.932   1.775   2.678  0.4249  0.1703  0.7761
 5464SOL    HW128025   2.988   1.852   2.686 -0.3205  0.7658  0.2374
 5464SOL    HW228026   2.881   1.794   2.599 -2.2317 -0.9204  2.2099
 5465SOL     OW28027   1.295   1.960   4.003 -0.1053 -0.0997  0.1211
 5465SOL    HW128028   1.375   2.009   3.981  0.1786  0.2168  1.8234
 5465SOL    HW228029   1.251   2.022   4.061 -0.1121  1.5264 -1.6057
 5466SOL     OW28030   0.149   0.170  15.783  0.1298  0.1655  0.0857
 5466SOL    HW128031   0.105   0.136  15.861  1.8844 -0.0378  0.9998
 5466SOL    HW228032   0.190   0.254  15.801 -2.2133  0.3618  4.3278
 5467SOL     OW28033   1.917   3.790   9.985  0.2255 -0.9383 -0.1862
 5467SOL    HW128034   1.855   3.847  10.031  1.6662  0.5357 -0.0538
 5467SOL    HW228035   1.868   3.767   9.906  0.6803 -1.2339 -0.3785
 5468SOL     OW28036   1.468   3.606   8.371  0.3824  0.1064 -0.3453
 5468SOL    HW128037   1.513   3.688   8.349 -0.4708  0.0668 -2.3001
 5468SOL    HW228038   1.404   3.605   8.300 -0.3687  0.4238  0.3301
 5469SOL     OW28039   1.794   2.509   2.208 -0.3553 -0.3045 -0.4791
 5469SOL    HW128040   1.863   2.564   2.170 -0.7351 -0.6303 -1.6366
 5469SOL    HW228041   1.818   2.417   2.196 -1.6496 -1.0635  2.8237
 5470SOL     OW28042   2.815   1.710   4.923  0.0618 -0.2873 -0.1299
 5470SOL    HW128043   2.762   1.657   4.863 -1.1076  0.8985 -0.1412
 5470SOL    HW228044   2.753   1.781   4.939 -0.4648 -0.4335 -1.4196
 5471SOL     OW28045   4.002   0.763  11.766 -0.1752 -0.2693  0.4820
 5471SOL    HW128046   4.012   0.852  11.731  1.4515  0.8733  3.8659
 5471SOL    HW228047   3.908   0.748  11.771 -0.3609  1.2427  1.4248
 5472SOL     OW28048   0.675   1.081   9.125  0.2073  0.7797 -0.3551
 5472SOL    HW128049   0.624   1.126   9.057 -2.2141  2.4014  2.4798
 5472SOL    HW228050   0.702   1.001   9.082  2.8223  2.2919 -1.5043
 5473SOL     OW28051   0.912   3.409   3.393  0.0454 -0.0770  0.3321
 5473SOL    HW128052   0.844   3.469   3.362 -0.2901 -1.2366 -1.1372
 5473SOL    HW228053   0.871   3.378   3.474 -1.0100  1.4908  0.4048
 5474SOL     OW28054   3.533   0.035   7.964 -0.4138 -0.4673  0.7489
 5474SOL    HW128055   3.554   4.718   8.043  0.6831  0.4565  1.0317
 5474SOL    HW228056   3.606   0.016   7.905  0.9769  1.0253  1.9951
 5475SOL     OW28057   4.216   0.022   0.987  0.3370 -0.9561  0.6266
 5475SOL    HW128058   4.231   4.719   1.074 -1.9042 -0.5553  1.1670
 5475SOL    HW228059   4.272   4.708   0.925 -0.4163 -0.8529 -0.1427
 5476SOL     OW28060   3.643   4.502   7.687  0.3076 -0.0237  0.3537
 5476SOL    HW128061   3.703   4.549   7.745 -0.4518 -2.0787  2.7937
 5476SOL    HW228062   3.684   4.417   7.703  0.9044 -0.4043 -3.0011
 5477SOL     OW28063   0.734   2.241   7.360  0.1395  0.3296  0.1798
 5477SOL    HW128064   0.692   2.159   7.386  2.8794 -0.5977  1.7118
 5477SOL    HW228065   0.815   2.213   7.317  1.0402 -0.2173  2.2365
 5478SOL     OW28066   3.711   3.034  17.556 -0.1363  0.7348 -0.2972
 5478SOL    HW128067   3.726   3.124  17.584 -0.2578 -0.1772  2.6960
 5478SOL    HW228068   3.639   3.012  17.615  0.7968 -0.7333  0.3044
 5479SOL     OW28069   0.719   2.180   2.407  0.2210 -0.1963  0.3507
 5479SOL    HW128070   0.801   2.214   2.371 -0.0766  0.7208  0.5316
 5479SOL    HW228071   0.664   2.256   2.424 -1.5618 -0.7182 -3.1524
 5480SOL     OW28072   4.209   1.440   8.868  0.3064  0.1886 -0.3899
 5480SOL    HW128073   4.274   1.462   8.801 -1.3364 -0.5420 -2.2252
 5480SOL    HW228074   4.169   1.365   8.824  1.5286 -1.5552  1.4319
 5481SOL     OW28075   0.900   0.369   6.625  0.0557  0.3502 -0.3771
 5481SOL    HW128076   0.990   0.351   6.655 -0.4102 -0.8999  0.2773
 5481SOL    HW228077   0.918   0.398   6.536 -0.3546  0.3195 -0.4688
 5482SOL     OW28078   3.187   0.522   3.224  0.6290 -0.2263 -0.3739
 5482SOL    HW128079   3.237   0.581   3.281  0.4159 -2.2543  1.9243
 5482SOL    HW228080   3.136   0.460   3.276 -0.9912  0.4267 -1.1753
 5483SOL     OW28081   2.612   3.778   6.567 -0.6946  0.0886  0.3089
 5483SOL    HW128082   2.637   3.699   6.520  0.0884  0.2466  0.4506
 5483SOL    HW228083   2.631   3.847   6.504  0.1016 -1.0040 -0.6479
 5484SOL     OW28084   2.226   0.460   7.604 -0.0761 -0.2779 -0.4717
 5484SOL    HW128085   2.173   0.407   7.545 -0.5720 -0.1038 -0.1825
 5484SOL    HW228086   2.177   0.450   7.685  1.0587  0.1907  0.2846
 5485SOL     OW28087   0.073   1.359  16.485  0.1743  0.2786  0.2167
 5485SOL    HW128088   0.135   1.287  16.475  0.9105  1.1188 -1.2059
 5485SOL    HW228089   4.731   1.327  16.537  0.0683 -0.3867 -0.3502
 5486SOL     OW28090   3.126   2.075   7.343 -0.4771  0.2323 -0.3062
 5486SOL    HW128091   3.179   2.111   7.272  1.1553 -1.8809 -0.1567
 5486SOL    HW228092   3.178   2.009   7.389 -2.3815 -1.4005 -0.4632
 5487SOL     OW28093   3.038   1.901  17.097  0.4041 -0.0379 -0.4772
 5487SOL    HW128094   2.943   1.898  17.092  0.4985 -1.2367 -1.2999
 5487SOL    HW228095   3.042   1.995  17.079  0.2747 -0.2303 -1.4857
 5488SOL     OW28096   2.087   3.857  14.578 -0.2990 -0.2731 -0.1087
 5488SOL    HW128097   2.178   3.852  14.549  0.4472  0.6616  2.1162
 5488SOL    HW228098   2.078   3.763  14.594 -0.3465 -0.6070 -2.0788
 5489SOL     OW28099   1.965   2.661   8.762 -0.2438 -0.6887  0.0391
 5489SOL    HW128100   2.033   2.595   8.778 -0.0733 -0.6362 -0.4574
 5489SOL    HW228101   1.964   2.658   8.666  1.4340 -0.2455  0.0053
 5490SOL     OW28102   1.326   0.843  17.155  0.6458 -0.1105 -0.2378
 5490SOL    HW128103   1.304   0.762  17.201 -2.3835  0.9386  0.1180
 5490SOL    HW228104   1.241   0.885  17.165  0.0199 -1.7307  1.1406
 5491SOL     OW28105   3.388   2.167   6.460 -0.1540  0.8847  0.2236
 5491SOL    HW128106   3.358   2.177   6.370 -1.7092 -3.3268  0.2416
 5491SOL    HW228107   3.318   2.211   6.509 -0.6842 -1.4998  1.6199
 5492SOL     OW28108   3.715   2.824  15.592  0.1955  0.0866  0.0955
 5492SOL    HW128109   3.708   2.732  15.614 -0.0131  0.4726  1.6899
 5492SOL    HW228110   3.631   2.859  15.621  0.1530 -0.4924  0.6725
 5493SOL     OW28111   3.851   4.604  14.241 -0.2803 -0.1486  0.3116
 5493SOL    HW128112   3.790   4.573  14.174  1.2667 -0.2162 -1.0520
 5493SOL    HW228113   3.817   4.550  14.312 -1.7053  1.5593  0.9475
 5494SOL     OW28114   4.048   2.891   2.337 -0.1094 -0.3818  0.3067
 5494SOL    HW128115   3.973   2.911   2.393 -1.0383 -1.3101 -0.6165
 5494SOL    HW228116   4.112   2.863   2.402  1.4471  0.5553 -0.8113
 5495SOL     OW28117   3.028   2.317   5.890 -1.2671 -0.2876  0.1526
 5495SOL    HW128118   3.004   2.340   5.800  2.0415 -0.0657 -0.6946
 5495SOL    HW228119   3.119   2.287   5.886 -1.3215 -0.3139 -1.0428
 5496SOL     OW28120   3.430   4.004   0.786 -0.0363  0.1559 -0.2645
 5496SOL    HW128121   3.431   3.993   0.881  1.7626  3.0371  0.0717
 5496SOL    HW228122   3.397   3.921   0.753 -0.8326  0.0261  0.8610
 5497SOL     OW28123   2.366   1.970   5.797  0.6244 -0.5584 -0.0628
 5497SOL    HW128124   2.326   1.884   5.815 -1.6124  0.5164  0.0608
 5497SOL    HW228125   2.287   2.019   5.777  1.1006  1.3182  2.6946
 5498SOL     OW28126   2.298   1.940   6.374 -0.2913  0.0464 -0.0898
 5498SOL    HW128127   2.281   2.031   6.350  3.2801  0.5676 -0.6250
 5498SOL    HW228128   2.206   1.917   6.389  0.1945 -2.0026 -0.2277
 5499SOL     OW28129   1.844   4.516   6.061 -0.5751  0.5542  0.0483
 5499SOL    HW128130   1.755   4.493   6.033 -0.7181 -0.2185  1.1202
 5499SOL    HW228131   1.828   4.590   6.119  0.6150  1.2253 -0.4799
 5500SOL     OW28132   1.434   3.327  13.465  0.3694  0.2264 -0.6945
 5500SOL    HW128133   1.497   3.373  13.410  1.6313 -0.7905 -0.1014
 5500SOL    HW228134   1.484   3.329  13.547 -1.4162 -0.4007  0.4279
 5501SOL     OW28135   4.547   4.216   7.065  0.0486 -0.0084  0.2296
 5501SOL    HW128136   4.508   4.206   7.152 -1.9528 -0.8652 -0.7591
 5501SOL    HW228137   4.560   4.311   7.057 -1.3935  0.3162  1.7617
 5502SOL     OW28138   3.052   1.535   4.930  0.9701  0.4905 -1.1592
 5502SOL    HW128139   2.984   1.602   4.923 -0.4532 -0.8187  0.0221
 5502SOL    HW228140   3.022   1.479   4.859  0.8968 -1.3538  0.3442
 5503SOL     OW28141   2.570   2.867   4.777  0.2475 -0.1182  0.3175
 5503SOL    HW128142   2.591   2.792   4.832 -3.1661  0.0579  1.8823
 5503SOL    HW228143   2.487   2.835   4.741 -0.3399  1.4436  0.3005
 5504SOL     OW28144   4.040   1.104  13.003  0.1361  0.4977 -0.6027
 5504SOL    HW128145   4.135   1.104  12.995  0.4371 -1.2613  2.9639
 5504SOL    HW228146   4.012   1.054  12.926 -1.1250  1.3848 -0.7223
 5505SOL     OW28147   4.120   3.976   6.255  0.5719  0.2397 -0.3032
 5505SOL    HW128148   4.110   4.066   6.287 -1.3401  0.6764 -2.1332
 5505SOL    HW228149   4.173   3.999   6.179  0.1557  1.7011 -0.1525
 5506SOL     OW28150   1.013   4.491   7.247 -0.3392 -0.0732 -0.2459
 5506SOL    HW128151   0.954   4.553   7.203 -0.8488 -0.4138 -0.0393
 5506SOL    HW228152   1.037   4.532   7.330  1.4051 -0.3385 -0.6208
 5507SOL     OW28153   3.327   1.339   6.109  0.5102 -0.1713  0.1925
 5507SOL    HW128154   3.283   1.407   6.161  0.2074 -0.5578  0.4393
 5507SOL    HW228155   3.256   1.301   6.058 -1.4336 -0.0351  2.8252
 5508SOL     OW28156   3.487   3.181   7.120  0.6371  0.1878  0.1021
 5508SOL    HW128157   3.491   3.102   7.067  2.8182 -0.5718  1.4021
 5508SOL    HW228158   3.517   3.149   7.205 -1.5984  0.5978  1.0619
 5509SOL     OW28159   0.885   3.640  10.835  0.0654 -0.6062 -0.0326
 5509SOL    HW128160   0.873   3.693  10.756  1.6636  0.1620  0.2429
 5509SOL    HW228161   0.835   3.685  10.902 -0.4535 -1.6504  0.2796
 5510SOL     OW28162   0.376   4.205  16.371  0.0780 -0.3402 -0.7063
 5510SOL    HW128163   0.336   4.175  16.290 -0.7690  0.3273 -0.5301
 5510SOL    HW228164   0.358   4.129  16.427  0.4541 -0.8130 -1.2238
 5511SOL     OW28165   0.798   3.781   4.764  0.5493 -0.0074  0.4834
 5511SOL    HW128166   0.877   3.832   4.748 -0.3700  1.5783  0.8723
 5511SOL    HW228167   0.754   3.850   4.816  0.6282  0.9237 -0.6917
 5512SOL     OW28168   4.169   2.858  13.883 -0.9072  0.7030 -0.0146
 5512SOL    HW128169   4.199   2.769  13.864  1.3699  1.1736  1.3334
 5512SOL    HW228170   4.182   2.871  13.977  1.7657 -2.3344  0.0369
 5513SOL     OW28171   2.594   0.856   7.413 -0.1797  1.0901 -0.4004
 5513SOL    HW128172   2.664   0.805   7.373 -1.1355  1.5353 -2.6560
 5513SOL    HW228173   2.632   0.882   7.497  2.1932 -0.6223 -0.9553
 5514SOL     OW28174   0.935   3.447   0.275  0.0484  0.2129  0.0135
 5514SOL    HW128175   0.863   3.510   0.264  0.5694  0.5674 -1.3616
 5514SOL    HW228176   0.895   3.407   0.352  2.1856  0.5607  1.3030
 5515SOL     OW28177   0.208   3.777   5.911 -0.2343 -0.2230 -0.1179
 5515SOL    HW128178   0.185   3.685   5.901 -1.2178 -0.1599  1.5216
 5515SOL    HW228179   0.162   3.810   5.834 -0.9933 -0.7268  0.1199
 5516SOL     OW28180   4.661   3.960   5.205 -0.1002 -0.2062  0.2724
 5516SOL    HW128181   4.690   4.000   5.287  0.4299  2.0024 -0.9913
 5516SOL    HW228182   4.610   3.889   5.244  1.5975 -1.3712  0.3875
 5517SOL     OW28183   0.016   0.848  14.521  0.1157 -0.5517  0.4003
 5517SOL    HW128184   0.068   0.927  14.508  0.7102 -1.1667 -0.8644
 5517SOL    HW228185   0.074   0.779  14.489  0.0520  0.0764 -1.0263
 5518SOL     OW28186   0.540   2.668  17.168 -0.1409  0.1755 -0.1270
 5518SOL    HW128187   0.514   2.751  17.128  0.0055  1.2738  2.0642
 5518SOL    HW228188   0.601   2.692  17.238 -1.2664 -0.3305  1.0349
 5519SOL     OW28189   4.574   0.727  10.876  0.1815 -0.0432 -0.0352
 5519SOL    HW128190   4.633   0.651  10.875 -0.0023 -0.1487 -1.5930
 5519SOL    HW228191   4.618   0.769  10.951  0.0376 -0.3543  0.2227
 5520SOL     OW28192   4.389   2.408   3.163  0.0095  0.5249 -0.8338
 5520SOL    HW128193   4.451   2.480   3.174 -0.1158  0.3378  1.0965
 5520SOL    HW228194   4.307   2.456   3.149 -2.3453 -3.6834 -1.6280
 5521SOL     OW28195   3.771   0.113   1.947 -0.2713  0.2422 -0.5798
 5521SOL    HW128196   3.699   0.051   1.935 -0.4028  0.8352 -2.7979
 5521SOL    HW228197   3.771   0.160   1.864  2.0275 -0.4285 -0.9646
 5522SOL     OW28198   3.524   1.239   2.126 -0.8177  0.3416 -0.2811
 5522SOL    HW128199   3.450   1.188   2.092 -1.3547 -0.1906  1.6606
 5522SOL    HW228200   3.547   1.190   2.205 -1.7169 -1.8416 -1.3712
 5523SOL     OW28201   0.353   0.242   7.690  0.2345  0.0778 -0.1546
 5523SOL    HW128202   0.348   0.326   7.646 -0.2253 -1.2715 -2.6562
 5523SOL    HW228203   0.318   0.267   7.776  0.1413  1.7624 -0.6839
 5524SOL     OW28204   3.954   0.138   0.949  0.1577 -0.1641  0.5401
 5524SOL    HW128205   4.030   0.093   0.986 -0.4021 -0.8942  0.8114
 5524SOL    HW228206   3.985   0.174   0.865 -1.4083  0.8950  0.4163
 5525SOL     OW28207   1.988   2.054   8.873  0.7401 -0.0697 -0.7910
 5525SOL    HW128208   2.022   2.046   8.784  2.9590 -1.2081  0.1546
 5525SOL    HW228209   1.910   1.999   8.868 -1.6146  3.1401  0.2564
 5526SOL     OW28210   1.463   3.117   8.653 -0.3872  1.0447 -0.0037
 5526SOL    HW128211   1.482   3.188   8.714 -1.8842  0.7146  0.8309
 5526SOL    HW228212   1.385   3.073   8.687  0.0893 -0.5674 -0.9869
 5527SOL     OW28213   2.954   2.547  12.784  0.1576 -1.0236 -0.0527
 5527SOL    HW128214   3.010   2.507  12.717  1.1351  1.0370 -0.4754
 5527SOL    HW228215   3.002   2.629  12.795  1.6760 -1.7831 -0.9864
 5528SOL     OW28216   0.667   4.279   8.505  0.0029 -0.1819  0.0273
 5528SOL    HW128217   0.757   4.294   8.535  0.1522 -2.2787  0.6322
 5528SOL    HW228218   0.619   4.348   8.550 -1.9430 -1.0342 -0.7485
 5529SOL     OW28219   1.257   2.993   7.232  0.2178  0.4679 -0.7993
 5529SOL    HW128220   1.270   2.905   7.196 -1.6401  0.1446 -0.7227
 5529SOL    HW228221   1.226   3.038   7.153  0.0961  1.4102 -0.2124
 5530SOL     OW28222   4.543   0.776   0.216  0.1550  0.4002  0.6322
 5530SOL    HW128223   4.579   0.860   0.243 -0.2267  0.2391  1.6612
 5530SOL    HW228224   4.615   0.713   0.214 -0.0772  0.0939  1.6946
 5531SOL     OW28225   1.686   3.284   2.552  0.1570 -0.3233 -0.0384
 5531SOL    HW128226   1.637   3.231   2.615 -1.6102  1.0831 -0.2153
 5531SOL    HW228227   1.691   3.224   2.477 -1.5663 -1.4786  0.7707
 5532SOL     OW28228   2.679   3.450   0.145 -0.2789  0.4098 -0.1757
 5532SOL    HW128229   2.675   3.359   0.117  0.4930 -0.1602  1.5735
 5532SOL    HW228230   2.758   3.478   0.099 -0.4146 -0.3116 -0.8438
 5533SOL     OW28231   2.510   3.728   0.544 -0.3099  0.1810  0.1987
 5533SOL    HW128232   2.457   3.649   0.533 -0.5159  0.2821  0.4758
 5533SOL    HW228233   2.494   3.785   0.468  0.3695 -0.1239 -0.1700
 5534SOL     OW28234   3.072   1.303  12.300  0.2583 -0.3064  0.5525
 5534SOL    HW128235   3.026   1.249  12.236 -0.0577  0.8599 -0.1969
 5534SOL    HW228236   2.995   1.312  12.356  0.1068 -3.0856  0.8319
 5535SOL     OW28237   3.143   0.865  12.396  0.2946  0.2395  0.4694
 5535SOL    HW128238   3.164   0.780  12.359  0.1661 -0.6070  2.3524
 5535SOL    HW228239   3.192   0.913  12.329 -0.0250 -0.8205 -0.5306
 5536SOL     OW28240   2.189   0.726  12.758 -0.0655  0.3126  0.6031
 5536SOL    HW128241   2.234   0.654  12.801  0.3808  1.5187  2.1344
 5536SOL    HW228242   2.174   0.780  12.835 -0.4624 -0.1655  0.8590
 5537SOL     OW28243   0.925   3.489   7.558 -0.0805 -0.3979 -0.3458
 5537SOL    HW128244   0.921   3.492   7.463 -2.3826 -0.6593 -0.2573
 5537SOL    HW228245   0.911   3.581   7.580  0.4878 -0.5515  0.6739
 5538SOL     OW28246   1.908   1.728   5.854  0.0185 -0.6348  0.5828
 5538SOL    HW128247   1.926   1.635   5.865 -2.2316 -1.1774 -0.3376
 5538SOL    HW228248   1.941   1.774   5.931  2.6001  0.3499 -1.1239
 5539SOL     OW28249   2.655   2.673   8.647  0.2479  0.0165 -0.4361
 5539SOL    HW128250   2.683   2.599   8.593  2.3232  1.5611 -1.4951
 5539SOL    HW228251   2.736   2.687   8.696  0.2170  1.0919 -0.6833
 5540SOL     OW28252   3.189   2.761  16.731  0.5366 -0.3623 -0.0399
 5540SOL    HW128253   3.155   2.724  16.812 -0.0291  1.4928  0.5707
 5540SOL    HW228254   3.276   2.794  16.757  0.9330 -0.1894 -1.5992
 5541SOL     OW28255   0.784   1.008   9.375  0.6175 -0.0848  0.5286
 5541SOL    HW128256   0.717   0.940   9.380 -0.6593  1.2077  0.9692
 5541SOL    HW228257   0.761   1.036   9.286  3.4493 -1.1252 -0.5189
 5542SOL     OW28258   0.856   0.335  12.367 -0.0229 -0.3532  0.1548
 5542SOL    HW128259   0.815   0.312  12.450  0.1010  1.6221  0.7626
 5542SOL    HW228260   0.781   0.378  12.326 -1.0019 -1.9441  0.2795
 5543SOL     OW28261   0.505   0.109   0.873 -0.3241  0.2605 -0.7615
 5543SOL    HW128262   0.484   0.086   0.963 -1.5322  1.3629 -0.7486
 5543SOL    HW228263   0.463   0.039   0.824  2.1782 -2.3266  0.8598
 5544SOL     OW28264   2.283   2.286   1.273  0.1464 -0.1436  0.5636
 5544SOL    HW128265   2.210   2.343   1.296 -0.9627 -1.1624 -0.4322
 5544SOL    HW228266   2.315   2.255   1.358  0.2156 -1.8572 -0.0892
 5545SOL     OW28267   1.464   0.965   2.311 -0.7856 -0.5144 -0.0128
 5545SOL    HW128268   1.416   1.043   2.337 -0.2876 -0.7290  1.5337
 5545SOL    HW228269   1.554   0.981   2.339 -0.4431  0.8718 -1.8757
 5546SOL     OW28270   4.261   0.438   4.635 -0.1538 -0.6377  0.0794
 5546SOL    HW128271   4.296   0.375   4.572  2.0180  2.0356 -1.3527
 5546SOL    HW228272   4.334   0.499   4.631 -0.0412 -0.8246 -0.8054
 5547SOL     OW28273   0.315   4.625   8.472  0.6127  0.6192 -0.4406
 5547SOL    HW128274   0.250   4.685   8.510 -0.2057 -0.9789  0.6850
 5547SOL    HW228275   0.280   4.616   8.383  0.6478 -1.7172 -0.2171
 5548SOL     OW28276   1.129   2.276   6.187 -0.0279  0.3991 -0.5158
 5548SOL    HW128277   1.113   2.321   6.270  0.2923  0.2554 -0.3775
 5548SOL    HW228278   1.155   2.188   6.213 -1.1669 -0.0857 -0.9978
 5549SOL     OW28279   4.626   3.214   3.946  0.2181 -0.3091  0.0720
 5549SOL    HW128280   4.581   3.265   4.014  0.8315 -1.0717  1.0329
 5549SOL    HW228281   4.689   3.166   3.999 -0.1046 -0.0667  0.6766
 5550SOL     OW28282   1.350   2.932   6.145 -0.3018 -0.1457  0.2669
 5550SOL    HW128283   1.407   2.956   6.072 -0.0548  2.0331  1.1696
 5550SOL    HW228284   1.276   2.880   6.113 -0.5034  1.1882 -1.3854
 5551SOL     OW28285   0.126   0.678  11.335 -0.5466  0.6188  0.4374
 5551SOL    HW128286   0.148   0.767  11.361  2.0383  0.5963 -1.5658
 5551SOL    HW228287   0.118   0.621  11.411  0.2629 -1.1603 -0.7943
 5552SOL     OW28288   3.689   1.293   4.411  0.3570  0.1363 -0.2751
 5552SOL    HW128289   3.614   1.285   4.470  0.8918 -1.8962  0.1188
 5552SOL    HW228290   3.664   1.238   4.337  0.1719 -0.8842  0.5469
 5553SOL     OW28291   1.621   3.217   3.288  0.4086  0.1984  0.6166
 5553SOL    HW128292   1.701   3.165   3.289  1.5003  1.8444  0.1681
 5553SOL    HW228293   1.603   3.200   3.380  0.8017  2.6316  1.1554
 5554SOL     OW28294   1.757   1.487  17.331 -0.4217 -0.1024 -0.2273
 5554SOL    HW128295   1.846   1.503  17.301 -0.8249  3.4030  0.4942
 5554SOL    HW228296   1.732   1.412  17.277 -2.9266  1.1366 -0.7867
 5555SOL     OW28297   3.229   3.791   2.122 -0.0711  0.1086 -0.1028
 5555SOL    HW128298   3.237   3.877   2.165 -0.0520  0.0313  0.0501
 5555SOL    HW228299   3.182   3.734   2.182  1.6365 -0.1157  1.0275
 5556SOL     OW28300   1.904   3.023   3.026 -0.1226  0.3716  0.4459
 5556SOL    HW128301   1.976   2.972   2.989 -0.4649  0.1993  0.0112
 5556SOL    HW228302   1.836   2.958   3.009  1.8474 -2.1857  2.4387
 5557SOL     OW28303   1.904   3.997   9.032 -0.0046 -0.1150 -0.0741
 5557SOL    HW128304   1.885   4.039   9.115  0.8248  1.3195 -0.6128
 5557SOL    HW228305   1.986   4.039   9.007 -1.0841  0.7348 -2.2054
 5558SOL     OW28306   0.483   2.883  17.051  0.2984 -0.3442  0.3015
 5558SOL    HW128307   0.443   2.956  17.098  1.7680  0.4548  0.3202
 5558SOL    HW228308   0.537   2.927  16.986  1.2722 -0.5381  0.9791
 5559SOL     OW28309   2.221   4.548  12.268  0.2595  0.0057  0.2032
 5559SOL    HW128310   2.222   4.456  12.292 -1.3775  0.9010  3.6412
 5559SOL    HW228311   2.293   4.584  12.320 -0.3211  1.4353  0.0322
 5560SOL     OW28312   3.645   3.138  12.378 -0.0342  0.2968 -0.3405
 5560SOL    HW128313   3.736   3.165  12.382 -0.1275  1.0259 -3.2945
 5560SOL    HW228314   3.625   3.177  12.293 -1.8350 -0.7733 -0.4077
 5561SOL     OW28315   1.769   0.895   9.544 -0.0642 -0.0639 -0.3242
 5561SOL    HW128316   1.751   0.881   9.452 -1.4547  3.1345 -0.5419
 5561SOL    HW228317   1.830   0.826   9.570  2.1807  0.9107 -3.1453
 5562SOL     OW28318   3.261   0.397   4.361  0.0866 -0.1993  0.2733
 5562SOL    HW128319   3.207   0.330   4.403  0.4084 -0.4470  0.2938
 5562SOL    HW228320   3.292   0.359   4.279  0.9226 -1.1895  1.0454
 5563SOL     OW28321   0.827   2.677   2.963 -0.2061  0.3697  0.3653
 5563SOL    HW128322   0.867   2.590   2.965  0.9920  0.8957 -0.6533
 5563SOL    HW228323   0.749   2.665   3.017 -0.2003 -0.2526  0.2400
 5564SOL     OW28324   1.254   4.642  11.314 -0.1256  0.0544  0.0819
 5564SOL    HW128325   1.271   4.710  11.380  0.6644 -0.6453  0.6009
 5564SOL    HW228326   1.250   4.561  11.364  3.6568  1.0523  2.0365
 5565SOL     OW28327   0.157   3.873   2.696  0.1681 -0.2386 -0.1602
 5565SOL    HW128328   0.138   3.782   2.676 -1.2707  0.2290 -0.9235
 5565SOL    HW228329   0.136   3.880   2.789  0.4533  1.3101 -0.2114
 5566SOL     OW28330   3.725   4.425  17.579  0.0496  0.3154  0.5139
 5566SOL    HW128331   3.630   4.434  17.576 -0.0513 -0.3952  1.8065
 5566SOL    HW228332   3.742   4.468  17.495 -0.8169 -0.6591 -0.1597
 5567SOL     OW28333   0.118   4.214   7.360 -0.0211  0.2441 -0.4329
 5567SOL    HW128334   0.134   4.272   7.434 -1.6590  0.9149 -0.5967
 5567SOL    HW228335   0.120   4.132   7.410  0.8798  0.2789 -0.4129
 5568SOL     OW28336   2.313   1.981   4.065  0.2213  0.1921 -0.1795
 5568SOL    HW128337   2.343   2.057   4.015  0.7230  3.0749  4.4826
 5568SOL    HW228338   2.327   1.915   3.997  1.0684 -0.6532  0.8206
 5569SOL     OW28339   0.806   2.001   5.138  0.3082 -0.2344  0.2174
 5569SOL    HW128340   0.737   2.034   5.196 -1.7350 -0.0603 -2.3299
 5569SOL    HW228341   0.811   1.909   5.164  2.6348 -0.5881 -1.5245
 5570SOL     OW28342   4.069   2.996   9.561  0.0887  0.6259  0.0701
 5570SOL    HW128343   4.065   3.058   9.634 -0.9478  2.4482 -1.5396
 5570SOL    HW228344   4.069   3.060   9.490 -0.2889  1.2930  0.6665
 5571SOL     OW28345   1.684   2.354   6.624 -0.2823 -0.5334  0.2302
 5571SOL    HW128346   1.726   2.386   6.704  0.8925  1.2993 -1.1119
 5571SOL    HW228347   1.650   2.433   6.581  0.7220 -0.6003 -0.6868
 5572SOL     OW28348   1.332   4.386   5.923  0.2427 -0.0482 -0.2998
 5572SOL    HW128349   1.252   4.434   5.943  0.9573  0.9989  0.0153
 5572SOL    HW228350   1.297   4.298   5.906  0.4577 -0.4430  1.2243
 5573SOL     OW28351   4.210   3.297   9.080  0.2776 -0.8036 -0.0089
 5573SOL    HW128352   4.276   3.316   9.013  0.2503  0.2352  0.2615
 5573SOL    HW228353   4.163   3.223   9.041  2.4056 -1.6653 -0.9538
 5574SOL     OW28354   4.424   2.445   3.544 -0.0252  0.2684  0.8370
 5574SOL    HW128355   4.417   2.530   3.500 -0.6431 -0.5941 -0.7185
 5574SOL    HW228356   4.372   2.469   3.621 -0.6292  0.5981  0.3189
 5575SOL     OW28357   4.048   0.801  14.499 -0.3211 -0.1473  0.0916
 5575SOL    HW128358   4.132   0.756  14.484 -0.1706  0.7360 -1.7644
 5575SOL    HW228359   4.057   0.828  14.590  0.0001 -3.4578  1.0553
 5576SOL     OW28360   2.097   4.156  16.059  0.8756 -0.3619 -0.6445
 5576SOL    HW128361   2.017   4.207  16.068  0.9994 -0.4686  1.0360
 5576SOL    HW228362   2.107   4.165  15.965  1.6205  1.7642 -0.3610
 5577SOL     OW28363   0.511   4.665   0.307  0.0273 -0.1655 -0.1252
 5577SOL    HW128364   0.472   4.694   0.389  0.5500 -0.4096  0.2150
 5577SOL    HW228365   0.599   4.698   0.329  0.4146 -0.4849 -1.1793
 5578SOL     OW28366   3.316   4.192  12.770 -0.1821 -0.0866 -0.2005
 5578SOL    HW128367   3.305   4.119  12.831  2.4174  0.4961  0.9804
 5578SOL    HW228368   3.359   4.152  12.694  0.2086 -2.3313  1.1920
 5579SOL     OW28369   0.437   1.410   5.571 -0.2674  0.0173 -0.5516
 5579SOL    HW128370   0.419   1.459   5.651  0.0847 -0.3764 -0.2277
 5579SOL    HW228371   0.360   1.353   5.571 -0.6505  0.5332  1.3090
 5580SOL     OW28372   0.825   1.674  12.770  0.2617 -0.2717  0.5970
 5580SOL    HW128373   0.909   1.643  12.736 -0.4159  0.5798 -1.8597
 5580SOL    HW228374   0.847   1.764  12.794  0.8107  0.2653 -1.9149
 5581SOL     OW28375   3.373   2.708   0.226  0.3189  0.6056 -0.5821
 5581SOL    HW128376   3.348   2.656   0.150 -0.8390 -0.1635  0.3310
 5581SOL    HW228377   3.285   2.742   0.242  0.9329  2.0687 -0.3560
 5582SOL     OW28378   1.090   1.761   3.940 -0.2602 -0.2352 -0.3381
 5582SOL    HW128379   1.159   1.825   3.957 -2.3781  2.1173 -0.7788
 5582SOL    HW228380   1.059   1.754   4.030  0.7304  1.0558  0.1046
 5583SOL     OW28381   4.659   2.270   2.852  0.1482  0.2355  0.1013
 5583SOL    HW128382   4.633   2.184   2.820 -0.9683 -0.1869  2.1086
 5583SOL    HW228383   4.653   2.246   2.944  0.9546 -2.8012 -0.6684
 5584SOL     OW28384   0.676   0.507  14.321 -0.2024  0.1542 -0.4410
 5584SOL    HW128385   0.738   0.483  14.253 -0.0600 -2.8511  0.7618
 5584SOL    HW228386   0.676   0.437  14.387 -0.3272  0.6671  0.0992
 5585SOL     OW28387   4.471   1.117  17.065  0.0330  0.3261  0.3618
 5585SOL    HW128388   4.449   1.175  17.138 -1.2258  0.3861 -0.0502
 5585SOL    HW228389   4.456   1.032  17.105  1.4906 -0.0157  0.1566
 5586SOL     OW28390   3.751   4.142   4.841 -0.3421  0.3756  0.4678
 5586SOL    HW128391   3.770   4.063   4.892  0.8643  0.9746  0.9404
 5586SOL    HW228392   3.799   4.212   4.886 -0.1629  0.3632  0.2923
 5587SOL     OW28393   3.989   3.104  17.032  0.1584 -0.1747  0.3117
 5587SOL    HW128394   4.001   3.190  17.071 -0.5250 -0.6215  1.4932
 5587SOL    HW228395   4.051   3.108  16.959  0.2526  0.8842  0.4546
 5588SOL     OW28396   4.345   3.691   4.066  0.4954  0.0777  0.4252
 5588SOL    HW128397   4.358   3.783   4.086  0.7989  0.7226 -2.7659
 5588SOL    HW228398   4.428   3.644   4.059  0.1764 -0.4896  0.4291
 5589SOL     OW28399   2.838   3.780  13.077  0.1634  0.3006 -0.6319
 5589SOL    HW128400   2.912   3.738  13.122 -1.5124 -1.1856  0.7259
 5589SOL    HW228401   2.812   3.722  13.006 -0.0298 -0.3982  0.0121
 5590SOL     OW28402   0.488   2.038  16.434 -0.2377  0.1327  1.1254
 5590SOL    HW128403   0.564   1.999  16.477  0.7581  1.1533  0.3172
 5590SOL    HW228404   0.464   1.963  16.380 -2.1004  0.7687  1.0549
 5591SOL     OW28405   4.380   1.121   1.450  0.5424 -0.6534 -0.1149
 5591SOL    HW128406   4.328   1.180   1.505  1.4119 -0.6917  0.7488
 5591SOL    HW228407   4.423   1.065   1.515 -0.3917 -0.6607  0.5032
 5592SOL     OW28408   3.266   2.859   6.551  0.5862 -0.1970  0.4008
 5592SOL    HW128409   3.215   2.796   6.499 -0.0007  1.4982 -1.1066
 5592SOL    HW228410   3.259   2.819   6.637  1.4807  1.5119  1.2726
 5593SOL     OW28411   3.314   4.356   9.744  0.5386 -0.3473 -0.0112
 5593SOL    HW128412   3.385   4.298   9.716  0.2247 -1.0903  0.7314
 5593SOL    HW228413   3.249   4.339   9.677 -1.1530  1.0481  1.2625
 5594SOL     OW28414   4.458   4.202   5.480  0.0361 -0.3698 -0.2384
 5594SOL    HW128415   4.484   4.292   5.458 -0.3714 -0.5394 -1.4093
 5594SOL    HW228416   4.383   4.221   5.536  1.0108  0.2324  0.8748
 5595SOL     OW28417   4.390   2.787   3.778 -0.5006  0.9514  0.1535
 5595SOL    HW128418   4.446   2.815   3.851 -1.7440  1.4647  0.8990
 5595SOL    HW228419   4.384   2.860   3.717  3.4816  1.4143  0.3071
 5596SOL     OW28420   3.323   0.283  12.848  0.3350  0.1715  0.2921
 5596SOL    HW128421   3.254   0.221  12.825 -2.1469  3.0476 -0.0153
 5596SOL    HW228422   3.385   0.254  12.781  2.2925  0.5251  1.9562
 5597SOL     OW28423   1.266   2.399  14.634  0.3075 -0.6180  0.0417
 5597SOL    HW128424   1.187   2.346  14.636 -0.2050  0.2161  2.4251
 5597SOL    HW228425   1.318   2.364  14.562 -0.4259 -2.4615  0.4265
 5598SOL     OW28426   3.401   3.440   4.660 -1.0181 -0.2075  0.2910
 5598SOL    HW128427   3.334   3.374   4.677 -1.5698  0.3374  0.2358
 5598SOL    HW228428   3.476   3.381   4.657 -0.9768 -0.0534 -2.0931
 5599SOL     OW28429   3.684   3.194   6.780 -0.4041  0.7560  0.0307
 5599SOL    HW128430   3.761   3.173   6.832  0.3015  2.2199 -0.3945
 5599SOL    HW228431   3.687   3.290   6.782 -0.0986  0.7239  0.7712
 5600SOL     OW28432   4.607   4.726   5.098 -0.2431  0.2226  0.1433
 5600SOL    HW128433   4.546   4.701   5.028 -1.0752 -0.2654  1.0313
 5600SOL    HW228434   4.685   4.682   5.065  0.6389  1.2896  0.8450
 5601SOL     OW28435   1.334   2.344  15.824  0.0647  0.8289  0.0590
 5601SOL    HW128436   1.241   2.329  15.805 -0.3830  0.9799  2.1272
 5601SOL    HW228437   1.378   2.350  15.740 -0.5590  0.4745 -0.2905
 5602SOL     OW28438   4.017   3.747   4.299  0.9117 -0.1345 -0.2962
 5602SOL    HW128439   4.026   3.652   4.305 -1.3025 -0.2759  0.6907
 5602SOL    HW228440   4.000   3.762   4.206 -2.7145  0.2512  0.4263
 5603SOL     OW28441   2.479   1.869   8.522 -0.6015 -0.2407  0.0208
 5603SOL    HW128442   2.409   1.910   8.573 -1.3997 -0.5199 -0.8673
 5603SOL    HW228443   2.553   1.894   8.579 -2.3531 -0.8634  2.5798
 5604SOL     OW28444   1.474   4.153  13.582 -0.1500  0.0041 -0.8832
 5604SOL    HW128445   1.430   4.075  13.548 -2.9804  0.5888  1.4094
 5604SOL    HW228446   1.452   4.150  13.675 -2.3472  0.7006 -1.3740
 5605SOL     OW28447   0.531   1.769   6.317 -0.0820 -0.4507  0.3401
 5605SOL    HW128448   0.572   1.808   6.240  0.2915  0.3289  0.9247
 5605SOL    HW228449   0.442   1.758   6.284 -0.4734  1.4344  0.7439
 5606SOL     OW28450   2.417   4.675   2.993  0.2753  0.0835  0.0568
 5606SOL    HW128451   2.412   4.712   2.905 -1.3754  0.2411  0.2156
 5606SOL    HW228452   2.401   4.582   2.976  2.0329  0.3543 -3.0287
 5607SOL     OW28453   4.687   0.193   6.365  0.0213  0.5931 -0.0705
 5607SOL    HW128454   0.041   0.190   6.324  0.0320 -2.9045  0.2425
 5607SOL    HW228455   4.712   0.183   6.457  0.1347  1.3670 -0.0146
 5608SOL     OW28456   2.921   3.575   7.356 -0.5147  0.0291 -0.3161
 5608SOL    HW128457   2.910   3.575   7.261 -2.2839 -1.1604 -0.1140
 5608SOL    HW228458   2.833   3.582   7.393  0.3014  0.0884  1.5884
 5609SOL     OW28459   0.839   4.371  15.792 -0.1831  0.3590  0.0655
 5609SOL    HW128460   0.840   4.462  15.822 -0.4498  0.3022  0.2347
 5609SOL    HW228461   0.777   4.380  15.719  1.5458 -0.5419 -1.5247
 5610SOL     OW28462   0.655   2.390   9.138 -0.0890 -0.3164 -0.4000
 5610SOL    HW128463   0.734   2.406   9.188 -0.4646  1.5211 -0.3717
 5610SOL    HW228464   0.641   2.295   9.136  0.2913 -0.3854  0.6411
 5611SOL     OW28465   1.085   2.542   7.084  0.0918 -0.2809 -0.9243
 5611SOL    HW128466   1.114   2.453   7.103  1.3568  0.2385 -0.4434
 5611SOL    HW228467   0.999   2.519   7.047 -0.5410 -2.0143  1.6669
 5612SOL     OW28468   3.355   1.012  11.013 -0.2290  0.2678 -0.4064
 5612SOL    HW128469   3.401   1.091  10.985  0.0417  0.1471 -0.3045
 5612SOL    HW228470   3.425   0.948  10.999 -0.2446  0.5625 -1.7645
 5613SOL     OW28471   1.608   0.093   3.767  0.5283 -0.3234  0.7465
 5613SOL    HW128472   1.634   0.152   3.697 -0.6760 -0.4507  0.1967
 5613SOL    HW228473   1.523   0.067   3.732  0.8411 -0.9889  0.4868
 5614SOL     OW28474   1.703   3.801  10.312 -0.0569  0.5984  0.2620
 5614SOL    HW128475   1.685   3.854  10.390 -1.2331  1.6948 -0.7846
 5614SOL    HW228476   1.658   3.852  10.246 -1.5751  0.3464  1.1091
 5615SOL     OW28477   2.480   0.533   5.470  0.5255 -0.1885  0.4707
 5615SOL    HW128478   2.477   0.560   5.378  1.8113  0.0921  0.5094
 5615SOL    HW228479   2.475   0.621   5.508  1.5428  0.1750 -0.2408
 5616SOL     OW28480   4.356   4.012   4.575 -0.0700 -0.1930  0.0379
 5616SOL    HW128481   4.378   4.105   4.570 -1.3941  0.0846 -0.6500
 5616SOL    HW228482   4.394   3.996   4.661 -2.7002  3.7002  1.9085
 5617SOL     OW28483   4.203   0.427   3.018 -0.3676 -0.5007  0.2566
 5617SOL    HW128484   4.274   0.413   2.955 -0.4710 -1.8431  0.4383
 5617SOL    HW228485   4.253   0.433   3.100 -2.1031  0.1232  1.2613
 5618SOL     OW28486   3.181   2.976  17.728 -0.4098  0.1531  0.2540
 5618SOL    HW128487   3.185   2.976  17.632 -1.4273 -0.2996  0.2089
 5618SOL    HW228488   3.091   2.952   0.021 -0.3325 -0.6543 -0.3086
 5619SOL     OW28489   2.107   2.909   6.318 -0.1654  0.6108 -0.1434
 5619SOL    HW128490   2.166   2.837   6.299  0.5161  1.5921 -1.6868
 5619SOL    HW228491   2.023   2.877   6.286  0.1670 -0.7223  0.3112
 5620SOL     OW28492   2.177   4.039  14.297  1.3646 -0.5093  0.3599
 5620SOL    HW128493   2.239   4.063  14.366  0.5273  1.8254  0.3002
 5620SOL    HW228494   2.162   4.130  14.274  1.5205 -0.3052  1.0653
 5621SOL     OW28495   0.216   4.654  15.385 -0.3237  0.4267  0.2397
 5621SOL    HW128496   0.259   4.587  15.332 -1.9596  0.1418 -0.7198
 5621SOL    HW228497   0.292   4.702  15.418 -0.7527  0.7315  0.7969
 5622SOL     OW28498   0.556   1.217   2.272 -0.1246 -0.2445  0.1480
 5622SOL    HW128499   0.476   1.182   2.232 -0.5258  1.1302 -0.2645
 5622SOL    HW228500   0.574   1.138   2.323  0.8741  0.1608  0.4062
 5623SOL     OW28501   3.968   1.023   3.339 -0.0569 -0.2911  0.6621
 5623SOL    HW128502   4.046   1.001   3.391 -2.0830 -2.1038  2.9534
 5623SOL    HW228503   3.912   0.949   3.363  0.2040 -0.3350  1.1588
 5624SOL     OW28504   3.503   3.873   6.183 -0.0129  0.0519  0.0101
 5624SOL    HW128505   3.451   3.804   6.142 -1.8792  1.6175 -0.2367
 5624SOL    HW228506   3.479   3.934   6.113  0.8559  2.7795  2.1128
 5625SOL     OW28507   4.653   0.690   7.848  0.1522 -0.1826 -0.2248
 5625SOL    HW128508   4.619   0.621   7.905  0.0752 -0.9794 -1.2409
 5625SOL    HW228509   4.670   0.764   7.906  0.0107 -1.7150  1.7814
 5626SOL     OW28510   3.387   1.702   5.229 -0.1251  0.1609  0.8439
 5626SOL    HW128511   3.315   1.760   5.252 -0.4454  0.7988 -1.7616
 5626SOL    HW228512   3.355   1.644   5.159  0.3596 -1.2678  1.8084
 5627SOL     OW28513   4.641   0.277   1.443  0.2393 -0.6811 -0.3606
 5627SOL    HW128514   4.626   0.185   1.465  0.6994 -0.4584  0.8699
 5627SOL    HW228515   4.709   0.267   1.376  1.3492  0.8919  0.5055
 5628SOL     OW28516   4.445   1.808   4.138  0.3030  0.5431 -0.4081
 5628SOL    HW128517   4.423   1.790   4.230 -0.0652 -1.8259 -0.9624
 5628SOL    HW228518   4.369   1.859   4.112 -1.8601 -2.4224  0.1582
 5629SOL     OW28519   1.041   0.323  15.002  0.1026 -0.0893 -0.3189
 5629SOL    HW128520   0.995   0.403  14.978 -0.6920  0.2689  2.3845
 5629SOL    HW228521   1.075   0.287  14.920 -1.6248 -0.5799 -0.8143
 5630SOL     OW28522   1.301   2.911   8.016 -0.1838 -0.0125  0.3009
 5630SOL    HW128523   1.369   2.969   8.051  1.0457 -0.2986 -1.6276
 5630SOL    HW228524   1.264   2.886   8.100  0.2128 -3.1885 -0.4747
 5631SOL     OW28525   3.118   2.995   8.804 -0.1585  0.4722  0.3448
 5631SOL    HW128526   3.086   2.907   8.783  2.6757 -0.2023 -1.1458
 5631SOL    HW228527   3.180   2.999   8.731  2.4026 -1.1125  2.3813
 5632SOL     OW28528   0.940   4.530  10.268  0.2220  0.3056  0.0251
 5632SOL    HW128529   0.959   4.476  10.345 -0.7493 -0.7639 -0.5009
 5632SOL    HW228530   1.012   4.593  10.280  0.1437  1.4768 -5.4854
 5633SOL     OW28531   4.361   2.302   2.895 -0.0183 -0.0733 -0.3170
 5633SOL    HW128532   4.403   2.386   2.875 -2.5209  0.6681 -2.5312
 5633SOL    HW228533   4.344   2.320   2.987  1.1765 -1.7316  0.2277
 5634SOL     OW28534   3.205   4.711   3.546 -0.5552  0.6155 -0.0780
 5634SOL    HW128535   3.143   4.639   3.534  2.1676 -1.5820 -0.7298
 5634SOL    HW228536   3.151   0.055   3.568 -1.6745 -0.0730 -0.4604
 5635SOL     OW28537   1.025   2.594   7.464  0.7066 -0.0967  0.1475
 5635SOL    HW128538   1.083   2.606   7.539  2.2325  1.1767 -1.2275
 5635SOL    HW228539   1.089   2.585   7.394  1.0167 -1.1827  0.5673
 5636SOL     OW28540   2.288   3.146   8.584  0.4941  0.1395  0.2721
 5636SOL    HW128541   2.383   3.144   8.585  0.4912 -0.4012 -1.1546
 5636SOL    HW228542   2.266   3.236   8.611  0.6268  0.0932  0.5380
 5637SOL     OW28543   2.178   2.093   5.371 -0.5031 -0.1915 -0.1663
 5637SOL    HW128544   2.214   2.005   5.367 -0.6836 -0.2996  0.5691
 5637SOL    HW228545   2.253   2.137   5.410  0.3630  0.2737 -2.3446
 5638SOL     OW28546   2.009   1.616   7.572  0.1788 -0.1119 -0.0527
 5638SOL    HW128547   2.009   1.522   7.551 -1.8074 -0.2678  0.6172
 5638SOL    HW228548   1.921   1.641   7.544  0.2346 -0.7238 -0.7721
 5639SOL     OW28549   1.840   1.860  10.820 -0.1346  0.4500  0.0164
 5639SOL    HW128550   1.930   1.836  10.798 -0.3785 -0.9739  0.5737
 5639SOL    HW228551   1.820   1.768  10.838  1.6504 -0.1212 -0.8377
 5640SOL     OW28552   1.394   4.598  10.079  0.7275  0.7995  0.0922
 5640SOL    HW128553   1.483   4.623  10.053  0.0993  2.3333 -0.5601
 5640SOL    HW228554   1.401   4.598  10.175 -1.1604  3.5468  0.2077
 5641SOL     OW28555   1.118   3.520  16.042 -0.3381  0.0088  0.5839
 5641SOL    HW128556   1.141   3.591  15.982  1.7001 -0.8734  0.3005
 5641SOL    HW228557   1.204   3.478  16.048 -0.0711  0.4231 -0.3036
 5642SOL     OW28558   3.575   4.282  12.458  0.1229 -0.1021 -0.0254
 5642SOL    HW128559   3.573   4.193  12.424  0.9960  1.0127 -2.9560
 5642SOL    HW228560   3.615   4.315  12.378 -0.0993  0.5942  0.1525
 5643SOL     OW28561   0.416   3.879  17.017  0.2536  0.1648 -0.2855
 5643SOL    HW128562   0.421   3.969  16.984 -2.5299  0.0261 -1.0922
 5643SOL    HW228563   0.499   3.866  17.062 -0.3607 -1.4075  0.4229
 5644SOL     OW28564   2.912   1.016  14.289 -0.3303 -0.6086  0.1858
 5644SOL    HW128565   2.925   1.110  14.303  3.2858 -1.0864  0.2056
 5644SOL    HW228566   2.944   0.982  14.373 -0.8103 -0.9829  0.2127
 5645SOL     OW28567   1.094   0.393   2.438 -0.6727  0.1053 -0.4147
 5645SOL    HW128568   1.041   0.434   2.507 -0.6057 -0.8583  0.1997
 5645SOL    HW228569   1.070   0.446   2.362  1.4424 -0.8625 -1.7439
 5646SOL     OW28570   2.148   0.819   7.950  0.4116  0.0516 -0.0550
 5646SOL    HW128571   2.099   0.817   7.868  0.0598 -1.0679  0.1855
 5646SOL    HW228572   2.163   0.914   7.950 -2.2525  0.4507  1.1774
 5647SOL     OW28573   3.508   1.088   6.320 -0.0951  0.4489  0.0843
 5647SOL    HW128574   3.473   1.136   6.395  1.2544  3.1439 -1.0023
 5647SOL    HW228575   3.531   1.005   6.362 -2.1005 -0.1221  0.0442
 5648SOL     OW28576   2.055   4.210   3.269  0.4847 -0.0200 -0.4002
 5648SOL    HW128577   2.063   4.299   3.237  1.0338 -0.7313 -2.2359
 5648SOL    HW228578   2.013   4.166   3.195 -0.4403 -2.0151  1.2795
 5649SOL     OW28579   2.859   4.025   9.233  0.4046 -0.3502 -0.1966
 5649SOL    HW128580   2.786   4.055   9.179  0.8396 -1.4069 -1.3811
 5649SOL    HW228581   2.927   4.018   9.167  1.3540 -2.6388  1.0062
 5650SOL     OW28582   0.166   3.676   4.705 -0.6911 -0.3603  0.0795
 5650SOL    HW128583   0.157   3.591   4.748 -0.5918 -1.2728 -1.7505
 5650SOL    HW228584   0.166   3.647   4.614 -1.3026  0.5451 -0.2149
 5651SOL     OW28585   2.459   1.315   4.311  0.0892 -0.1974 -0.4738
 5651SOL    HW128586   2.473   1.299   4.218 -2.3593  0.3936 -0.9412
 5651SOL    HW228587   2.471   1.222   4.330  0.4301  0.6572  3.5379
 5652SOL     OW28588   3.211   1.464   2.507 -0.1292 -0.3857  0.0454
 5652SOL    HW128589   3.119   1.441   2.498  0.1190 -2.3142  2.4962
 5652SOL    HW228590   3.220   1.459   2.602 -1.5584 -0.0451  0.2008
 5653SOL     OW28591   3.926   4.213   8.886  0.1081  0.2411  0.3392
 5653SOL    HW128592   3.993   4.202   8.954 -1.0651 -0.7178  1.3409
 5653SOL    HW228593   3.859   4.161   8.930  2.6554 -1.1596  2.6004
 5654SOL     OW28594   3.224   4.279   6.737 -0.4292 -0.7134  0.0088
 5654SOL    HW128595   3.209   4.352   6.677 -0.9968  0.0924  1.1360
 5654SOL    HW228596   3.234   4.326   6.820 -1.4031 -2.5473  1.1606
 5655SOL     OW28597   2.053   4.679  17.291  0.3013  0.5769  0.5162
 5655SOL    HW128598   2.081   0.033  17.263 -0.6536  1.3202  1.8650
 5655SOL    HW228599   2.067   4.685  17.386  1.7097  2.4325  0.2009
 5656SOL     OW28600   2.056   2.265   7.478 -0.3340 -0.5077  0.2621
 5656SOL    HW128601   1.995   2.316   7.531 -0.2065  0.7908 -0.8656
 5656SOL    HW228602   2.003   2.267   7.399  1.5896 -0.7592 -1.0371
 5657SOL     OW28603   1.343   2.730   6.497 -1.0301  0.3054 -0.0034
 5657SOL    HW128604   1.248   2.721   6.503 -0.9555 -1.4183 -1.2128
 5657SOL    HW228605   1.345   2.822   6.473  0.5922  0.1263 -0.5471
 5658SOL     OW28606   0.944   4.263   6.932 -0.2218  0.0603  0.3619
 5658SOL    HW128607   0.858   4.305   6.931 -0.5445 -0.6173 -1.1279
 5658SOL    HW228608   0.989   4.278   6.849  1.5082  0.8343  1.4575
 5659SOL     OW28609   0.184   4.685   5.961 -0.3393 -0.3108 -0.8846
 5659SOL    HW128610   0.089   4.698   5.951 -0.6869 -1.8780  0.3811
 5659SOL    HW228611   0.202   4.660   5.870  2.0704  0.4385 -0.6042
 5660SOL     OW28612   0.642   1.477   8.889  0.5162 -0.4974 -0.2586
 5660SOL    HW128613   0.566   1.506   8.938  2.2154  0.7000  1.6758
 5660SOL    HW228614   0.704   1.469   8.962  0.3918 -0.1595 -0.1199
 5661SOL     OW28615   1.031   4.658   4.872 -0.3631 -0.2164 -0.6828
 5661SOL    HW128616   0.978   4.602   4.929  0.6386 -0.1169  0.3508
 5661SOL    HW228617   1.070   4.713   4.940  1.5753  0.0504 -2.0108
 5662SOL     OW28618   3.842   0.887   2.882 -0.2860  0.0732  0.3339
 5662SOL    HW128619   3.919   0.936   2.911 -2.0083  1.0223  3.3321
 5662SOL    HW228620   3.777   0.941   2.927  1.3154  1.1455  1.3413
 5663SOL     OW28621   3.220   1.878   2.123 -0.0188  0.3648 -0.1808
 5663SOL    HW128622   3.171   1.911   2.047  0.1816  0.8157 -0.1152
 5663SOL    HW228623   3.310   1.895   2.096  0.5874 -2.1899  0.2812
 5664SOL     OW28624   4.427   2.320   5.731  0.2941  0.0722 -0.2490
 5664SOL    HW128625   4.520   2.321   5.709 -0.2396 -1.1574 -2.5224
 5664SOL    HW228626   4.427   2.378   5.808 -2.3911  0.8620 -0.8490
 5665SOL     OW28627   3.111   4.108   4.045  0.0730  0.0581  0.4014
 5665SOL    HW128628   3.142   4.178   4.102 -1.8213 -0.5414  2.1510
 5665SOL    HW228629   3.047   4.154   3.991  0.8244 -0.0749 -0.6055
 5666SOL     OW28630   2.228   0.631   1.314 -0.3648  0.2395 -0.7553
 5666SOL    HW128631   2.199   0.599   1.229 -0.2290  0.3979 -0.8634
 5666SOL    HW228632   2.323   0.619   1.312 -0.5065 -1.1893  1.0097
 5667SOL     OW28633   1.417   4.686   5.628  0.4139 -0.1296  0.0492
 5667SOL    HW128634   1.439   4.664   5.537  1.6002 -2.0184  0.8158
 5667SOL    HW228635   1.391   4.608   5.676 -1.3198  0.3407 -0.1273
 5668SOL     OW28636   1.228   0.953  16.785  0.1249 -0.8028 -0.3832
 5668SOL    HW128637   1.312   0.908  16.789  1.6700  2.3013  1.3968
 5668SOL    HW228638   1.233   0.991  16.697 -1.8010 -0.8040 -0.4868
 5669SOL     OW28639   4.507   3.554   6.947  0.1934  0.2841 -0.4258
 5669SOL    HW128640   4.541   3.581   6.861  1.3450 -2.0297 -0.6966
 5669SOL    HW228641   4.519   3.637   6.994 -1.9056  0.4907 -0.2733
 5670SOL     OW28642   0.565   1.928   4.357 -0.2817 -0.2642  0.2757
 5670SOL    HW128643   0.549   1.982   4.435 -2.0935  1.3791 -1.2217
 5670SOL    HW228644   0.494   1.864   4.363 -0.8717  0.3692  0.1518
 5671SOL     OW28645   3.001   3.404   6.848 -0.6303 -0.1417  0.3132
 5671SOL    HW128646   3.037   3.387   6.761  1.8263  2.8879  0.7496
 5671SOL    HW228647   3.077   3.383   6.903 -1.0384  0.2666  1.0251
 5672SOL     OW28648   1.477   0.142   5.299  0.0944  0.0848 -0.1566
 5672SOL    HW128649   1.463   0.168   5.208 -0.5956  0.0677 -0.0619
 5672SOL    HW228650   1.538   0.209   5.329  3.0392 -2.0711 -1.4154
 5673SOL     OW28651   1.553   4.562  13.486  0.3796  0.5418  0.1879
 5673SOL    HW128652   1.507   4.514  13.417 -0.1567 -0.8855  1.5237
 5673SOL    HW228653   1.589   4.490  13.538  0.9939  1.2948  0.7947
 5674SOL     OW28654   4.291   2.781  12.064 -0.1991  0.3583 -0.3137
 5674SOL    HW128655   4.358   2.846  12.040  1.6208 -0.9058  1.4216
 5674SOL    HW228656   4.307   2.714  11.998 -4.3474  0.1679 -1.1316
 5675SOL     OW28657   0.882   4.293  16.864  0.5730  0.0121  0.2189
 5675SOL    HW128658   0.862   4.277  16.771  0.9392 -0.9867  0.3123
 5675SOL    HW228659   0.832   4.217  16.894 -2.6481  1.6897 -0.9285
 5676SOL     OW28660   3.149   3.489   4.942 -0.1181  0.8799  0.0221
 5676SOL    HW128661   3.232   3.443   4.950 -0.3712  0.3693 -0.2845
 5676SOL    HW228662   3.186   3.573   4.970 -1.6175  1.5208  0.0802
 5677SOL     OW28663   3.937   3.297   4.603 -0.0290 -0.1145 -0.1588
 5677SOL    HW128664   3.886   3.235   4.551 -1.6623  0.0388  1.2678
 5677SOL    HW228665   3.877   3.320   4.675 -0.3365 -1.4315  0.0065
 5678SOL     OW28666   1.345   3.569  17.029  0.2758  0.3001  0.1957
 5678SOL    HW128667   1.329   3.490  17.082  0.1900 -0.3519 -0.8111
 5678SOL    HW228668   1.311   3.545  16.943  0.0287 -1.1507  0.6904
 5679SOL     OW28669   2.776   3.695   8.855 -0.0437 -0.2968 -0.3435
 5679SOL    HW128670   2.790   3.706   8.949 -1.7853 -1.2022  0.0091
 5679SOL    HW228671   2.741   3.606   8.850 -0.2519 -0.3345  1.7268
 5680SOL     OW28672   2.380   3.805  14.572  0.0351  1.0058  0.0362
 5680SOL    HW128673   2.440   3.756  14.516 -3.0966 -1.7375 -0.8547
 5680SOL    HW228674   2.360   3.738  14.637  2.6971  0.9773  0.8364
 5681SOL     OW28675   1.924   0.974   5.658  0.1887  0.1033  0.1371
 5681SOL    HW128676   1.939   0.884   5.687 -1.5956  0.5088  2.2607
 5681SOL    HW228677   1.866   0.952   5.586  0.8809  2.1064 -1.0384
 5682SOL     OW28678   2.971   2.801   4.850  0.1673  0.0437 -0.0499
 5682SOL    HW128679   2.911   2.739   4.809  1.8702 -0.1796 -2.2424
 5682SOL    HW228680   2.914   2.855   4.904  1.4514  0.7649  0.6015
 5683SOL     OW28681   2.812   0.292  15.861 -0.0526  0.2876 -0.3242
 5683SOL    HW128682   2.818   0.380  15.899 -0.2991 -0.6298  1.8090
 5683SOL    HW228683   2.861   0.246  15.928  0.7221  1.5760  0.0004
 5684SOL     OW28684   0.821   1.835  12.512  0.6043 -0.3879 -0.7793
 5684SOL    HW128685   0.822   1.790  12.597 -2.0157 -0.2534 -0.6885
 5684SOL    HW228686   0.877   1.778  12.461  0.1466 -0.0298 -1.6841
 5685SOL     OW28687   4.452   0.109   8.631  0.4353 -0.5376  0.3432
 5685SOL    HW128688   4.364   0.125   8.664 -0.3197 -2.8696 -0.5670
 5685SOL    HW228689   4.478   0.045   8.696 -0.3650 -0.9214  0.2702
 5686SOL     OW28690   3.572   1.884   4.301  0.1569  0.1180 -0.1970
 5686SOL    HW128691   3.481   1.854   4.307 -0.4500  2.1297  0.6259
 5686SOL    HW228692   3.601   1.872   4.211  0.4620  0.0217 -0.0843
 5687SOL     OW28693   1.157   1.234   5.536 -0.2860 -0.3257 -0.0670
 5687SOL    HW128694   1.139   1.328   5.535 -0.3712 -0.3370  0.7109
 5687SOL    HW228695   1.236   1.226   5.481  0.8715  1.5015  1.3458
 5688SOL     OW28696   4.274   3.353   6.430 -0.0505  0.1793  0.3714
 5688SOL    HW128697   4.294   3.426   6.489  0.2866 -2.5374  3.5801
 5688SOL    HW228698   4.324   3.378   6.352 -1.5185  2.9249  0.2949
 5689SOL     OW28699   3.123   1.804   1.794 -0.1583 -0.3190 -0.4548
 5689SOL    HW128700   3.179   1.767   1.726 -1.6993  0.9158 -2.4107
 5689SOL    HW228701   3.063   1.862   1.747 -2.8030 -0.3591  2.8366
 5690SOL     OW28702   1.415   1.111   8.050 -0.2999  0.3117 -0.3117
 5690SOL    HW128703   1.457   1.062   8.121  2.0964  1.8651 -0.6825
 5690SOL    HW228704   1.326   1.075   8.050  0.2887 -1.1408 -1.8216
 5691SOL     OW28705   2.984   3.521   4.717 -0.3399 -0.3605  1.0208
 5691SOL    HW128706   3.054   3.484   4.771  1.2396  1.6959  0.3632
 5691SOL    HW228707   3.015   3.609   4.697  1.5931 -1.5073 -1.0501
 5692SOL     OW28708   3.773   3.970   5.045  0.0758 -0.7864 -0.2511
 5692SOL    HW128709   3.809   3.914   5.114 -0.6702 -0.2569  0.5639
 5692SOL    HW228710   3.797   4.056   5.079 -1.0962 -0.4112 -0.3905
 5693SOL     OW28711   2.211   1.349  16.107  0.1310  0.4980 -0.2082
 5693SOL    HW128712   2.161   1.428  16.129  0.1700  0.4170  0.1578
 5693SOL    HW228713   2.205   1.349  16.011 -1.7160 -0.3777 -0.1111
 5694SOL     OW28714   1.378   0.404   3.694  0.0724 -0.6279  0.1686
 5694SOL    HW128715   1.408   0.338   3.632  1.6458 -0.9053  1.2251
 5694SOL    HW228716   1.298   0.365   3.728 -1.5228  0.4945 -2.2916
 5695SOL     OW28717   3.370   3.595   3.297 -0.7459 -0.0670  0.1005
 5695SOL    HW128718   3.446   3.597   3.355  0.0711  0.8739 -0.9853
 5695SOL    HW228719   3.313   3.627   3.367 -0.4706 -0.1783  0.3738
 5696SOL     OW28720   0.215   4.618   9.099  0.0515 -0.0327  0.1434
 5696SOL    HW128721   0.141   4.635   9.157 -0.6207  0.0534 -0.7247
 5696SOL    HW228722   0.293   4.599   9.150 -0.3895 -2.2752  0.0062
 5697SOL     OW28723   1.817   1.255   4.601  0.4069 -0.7001  0.7055
 5697SOL    HW128724   1.742   1.197   4.614  2.3953 -3.0765  1.6126
 5697SOL    HW228725   1.797   1.331   4.656  0.9937 -0.5565  0.7145
 5698SOL     OW28726   2.546   1.751   7.672  0.0894  0.0915 -0.4992
 5698SOL    HW128727   2.454   1.771   7.690 -0.2655 -2.2826  0.2235
 5698SOL    HW228728   2.563   1.670   7.718  1.6825  1.6284  1.6048
 5699SOL     OW28729   1.226   0.192   8.125  0.0827  0.1558  0.1508
 5699SOL    HW128730   1.238   0.103   8.158  0.2390 -0.4281 -1.4701
 5699SOL    HW228731   1.140   0.177   8.085  0.8986 -1.0303 -1.1733
 5700SOL     OW28732   2.245   1.083   6.331 -0.6958  0.1206  0.4067
 5700SOL    HW128733   2.238   1.101   6.424  3.1171 -0.9119  0.9105
 5700SOL    HW228734   2.173   1.026   6.304 -0.4291  0.5967 -1.3332
 5701SOL     OW28735   3.265   0.390   6.547 -0.5115  0.4501 -0.4720
 5701SOL    HW128736   3.191   0.345   6.587 -0.9629  1.2034 -0.4639
 5701SOL    HW228737   3.323   0.413   6.620  0.5270  0.3493 -1.2655
 5702SOL     OW28738   3.945   4.040  16.907  0.1102 -0.2062  0.1794
 5702SOL    HW128739   3.949   4.088  16.989  3.3534  0.3914 -0.3092
 5702SOL    HW228740   3.955   3.948  16.930  0.1731 -0.2688 -0.0917
 5703SOL     OW28741   1.064   2.116  15.561  0.8671  0.9590 -0.8800
 5703SOL    HW128742   0.973   2.142  15.547  0.1654 -1.2492 -0.3477
 5703SOL    HW228743   1.097   2.120  15.471  1.6072  1.2285 -0.6018
 5704SOL     OW28744   3.655   4.440   6.982 -0.1076  0.3762 -0.0395
 5704SOL    HW128745   3.668   4.374   6.914 -1.3366  2.0711 -1.8909
 5704SOL    HW228746   3.594   4.386   7.033 -0.9064  0.5866 -0.7716
 5705SOL     OW28747   4.310   1.623   5.133  0.1364 -0.6168  0.0761
 5705SOL    HW128748   4.306   1.615   5.228 -2.8171  0.3403  0.0320
 5705SOL    HW228749   4.239   1.571   5.095 -0.7300  2.8028 -2.9920
 5706SOL     OW28750   2.079   1.499  12.641 -0.2687  0.1874  0.0050
 5706SOL    HW128751   2.077   1.424  12.702  3.3318  0.9324  1.0101
 5706SOL    HW228752   2.010   1.484  12.576 -0.4385 -2.4931  0.7831
 5707SOL     OW28753   2.782   3.108   3.565  0.5796  0.1544 -0.1142
 5707SOL    HW128754   2.839   3.132   3.638 -0.7463  0.2296  0.8902
 5707SOL    HW228755   2.843   3.086   3.494  0.2216  0.7112 -0.5909
 5708SOL     OW28756   1.196   1.466   8.658 -0.0414  0.0994 -0.2370
 5708SOL    HW128757   1.143   1.461   8.578  2.9179  0.0041 -2.1786
 5708SOL    HW228758   1.159   1.544   8.701 -1.9901  0.1197 -1.9355
 5709SOL     OW28759   2.407   1.845   6.982  0.1245 -0.3262  0.0702
 5709SOL    HW128760   2.480   1.868   6.924 -0.1756  0.7498  0.1230
 5709SOL    HW228761   2.336   1.871   6.924  0.4634 -1.5261 -0.8952
 5710SOL     OW28762   2.690   0.589   8.648  0.3857 -0.2506  0.1009
 5710SOL    HW128763   2.609   0.587   8.598  0.5757  1.7887 -0.2840
 5710SOL    HW228764   2.652   0.602   8.735  0.2211  0.3774 -0.0627
 5711SOL     OW28765   3.376   2.369   3.044 -0.0746 -0.0889 -0.0759
 5711SOL    HW128766   3.324   2.289   3.049 -1.5244  0.9739  1.7437
 5711SOL    HW228767   3.460   2.345   3.082  0.3639 -0.8324 -1.4883
 5712SOL     OW28768   4.530   1.430   7.555 -0.2846 -0.3085  0.3680
 5712SOL    HW128769   4.450   1.414   7.505  0.3150 -0.4327 -0.5562
 5712SOL    HW228770   4.525   1.525   7.562  0.3618 -0.2401 -0.1557
 5713SOL     OW28771   3.985   1.770  10.525  0.7421  0.5219  0.2040
 5713SOL    HW128772   3.906   1.804  10.565  0.9558  2.4403 -1.0134
 5713SOL    HW228773   4.034   1.745  10.603  1.8818  0.5377 -0.4990
 5714SOL     OW28774   1.156   3.534   3.300  0.3358  0.4727 -0.3786
 5714SOL    HW128775   1.072   3.511   3.338  0.5423  0.2567 -0.0550
 5714SOL    HW228776   1.215   3.474   3.345 -1.8730  0.8624  2.9433
 5715SOL     OW28777   4.631   1.003   2.190 -0.1012 -0.3604 -0.3426
 5715SOL    HW128778   4.664   0.913   2.183  0.6673 -0.3101  2.4529
 5715SOL    HW228779   4.553   0.995   2.244 -0.2514  0.5292 -0.4263
 5716SOL     OW28780   4.389   0.107   6.282 -0.3592 -0.0236  0.1568
 5716SOL    HW128781   4.303   0.100   6.240  0.0206 -2.5875 -0.1820
 5716SOL    HW228782   4.430   0.173   6.226  1.2205  0.0975  1.4824
 5717SOL     OW28783   3.598   2.528   3.740  0.1409 -0.2688 -0.3109
 5717SOL    HW128784   3.693   2.519   3.736  0.1906  0.2241 -0.3281
 5717SOL    HW228785   3.579   2.532   3.646 -0.5776  1.4549 -0.0950
 5718SOL     OW28786   3.304   2.292   5.801 -0.3469  0.4681  0.5449
 5718SOL    HW128787   3.357   2.370   5.820  1.2284 -1.1310  2.7710
 5718SOL    HW228788   3.278   2.322   5.714 -2.6997  3.2796  2.2278
 5719SOL     OW28789   0.299   2.070   9.426 -0.3286  0.5040 -0.1029
 5719SOL    HW128790   0.340   1.985   9.441 -0.7513  0.5747  1.4475
 5719SOL    HW228791   0.244   2.070   9.504  2.0588  3.5409  1.5798
 5720SOL     OW28792   4.456   2.070   4.901 -0.2924  0.3819  0.0443
 5720SOL    HW128793   4.380   2.127   4.901  0.4232  1.3264  0.9049
 5720SOL    HW228794   4.414   1.985   4.886 -2.0282  1.2041  0.3275
 5721SOL     OW28795   1.774   3.273   1.405 -0.1478  0.2254 -0.4608
 5721SOL    HW128796   1.788   3.304   1.494  0.7801 -0.5111 -0.3583
 5721SOL    HW228797   1.844   3.321   1.361 -0.2839 -0.0343 -0.9608
 5722SOL     OW28798   4.440   2.077   7.542 -0.1226  0.3153 -0.1280
 5722SOL    HW128799   4.436   2.108   7.452 -0.8830 -2.0124 -0.8883
 5722SOL    HW228800   4.519   2.026   7.522  0.4406  0.2866  2.1974
 5723SOL     OW28801   0.896   3.807  17.289 -0.6800  0.1187 -0.4568
 5723SOL    HW128802   0.986   3.817  17.258 -0.5035 -1.6107 -0.5024
 5723SOL    HW228803   0.885   3.712  17.297  2.1678 -0.2027 -0.2951
 5724SOL     OW28804   0.658   3.811   2.186  0.3048  0.2541  0.3511
 5724SOL    HW128805   0.744   3.773   2.204  1.4005  2.4819 -0.1585
 5724SOL    HW228806   0.670   3.905   2.172 -0.4858  0.3929  0.5784
 5725SOL     OW28807   1.974   3.080  17.429 -0.3034  0.6501 -0.0934
 5725SOL    HW128808   1.901   3.091  17.369  1.4738 -4.7202 -3.1775
 5725SOL    HW228809   2.049   3.058  17.375 -0.0029 -1.2083  1.0793
 5726SOL     OW28810   1.988   2.701   7.836 -0.0631  0.2314 -0.0407
 5726SOL    HW128811   2.074   2.696   7.877 -0.0436 -1.8164 -0.3080
 5726SOL    HW228812   1.926   2.720   7.905  1.2938  0.4299  1.1174
 5727SOL     OW28813   1.530   1.189  14.362  0.2936  0.5661 -0.4618
 5727SOL    HW128814   1.463   1.243  14.322 -0.6832  0.8621  1.5647
 5727SOL    HW228815   1.599   1.256  14.364  0.8391 -0.1021  3.1393
 5728SOL     OW28816   2.315   3.979   8.287 -0.0262 -0.3354 -0.2922
 5728SOL    HW128817   2.265   3.960   8.367  0.0327  2.6305  0.4612
 5728SOL    HW228818   2.380   4.038   8.325  0.8057 -0.1502 -2.0165
 5729SOL     OW28819   0.560   1.566  13.716  0.7081 -1.0812 -0.3376
 5729SOL    HW128820   0.595   1.654  13.734 -3.1345  0.4329 -0.2211
 5729SOL    HW228821   0.491   1.555  13.780  2.5690  0.6945  1.9826
 5730SOL     OW28822   0.915   3.164   0.921 -0.5989 -0.5039 -0.1926
 5730SOL    HW128823   0.854   3.198   0.855 -0.3877  1.1058  0.4311
 5730SOL    HW228824   0.862   3.170   1.000 -0.1397  4.9542 -0.2934
 5731SOL     OW28825   2.700   3.335   2.899 -0.0089 -0.7160  0.2513
 5731SOL    HW128826   2.703   3.335   2.804 -1.9362 -2.5228  0.1945
 5731SOL    HW228827   2.695   3.426   2.927 -0.3997 -0.9865  1.0595
 5732SOL     OW28828   2.665   3.120   1.536 -0.1837 -0.4186 -0.3127
 5732SOL    HW128829   2.685   3.206   1.573  1.2763 -0.2549 -1.4641
 5732SOL    HW228830   2.577   3.115   1.572  0.2806  1.5472  1.1177
 5733SOL     OW28831   3.059   3.883   7.441 -0.1285 -0.0319  0.2123
 5733SOL    HW128832   3.100   3.841   7.365 -2.4415  1.1694 -1.6890
 5733SOL    HW228833   2.968   3.853   7.439  0.7170 -2.5298 -1.5689
 5734SOL     OW28834   4.179   1.834   5.528  0.1806  0.1406  0.6663
 5734SOL    HW128835   4.123   1.757   5.540 -0.3292  0.6213  1.3705
 5734SOL    HW228836   4.234   1.812   5.453  1.0125  0.9811  1.0308
 5735SOL     OW28837   2.169   1.460   3.251  0.0385  0.8476 -0.0025
 5735SOL    HW128838   2.140   1.511   3.176 -0.7063  0.8850  0.3061
 5735SOL    HW228839   2.095   1.399   3.244  0.0303  0.6820  1.4306
 5736SOL     OW28840   0.788   1.508   7.329  0.0284  0.4292  0.2479
 5736SOL    HW128841   0.768   1.453   7.405  0.1194  0.3605  0.2221
 5736SOL    HW228842   0.726   1.465   7.270  1.5535  0.4801 -1.3852
 5737SOL     OW28843   1.653   3.088   7.386  0.4532  0.0038 -0.3523
 5737SOL    HW128844   1.575   3.094   7.331  0.0226 -1.3716  0.0922
 5737SOL    HW228845   1.618   3.129   7.465  0.7339  0.0336 -0.2421
 5738SOL     OW28846   1.879   4.503   2.663 -0.3499 -0.1810 -0.7112
 5738SOL    HW128847   1.908   4.435   2.724  0.4838 -0.9069 -1.9361
 5738SOL    HW228848   1.784   4.499   2.677 -0.4142 -1.3458 -1.5081
 5739SOL     OW28849   4.545   4.305   0.360 -0.2540 -0.1579 -0.1212
 5739SOL    HW128850   4.585   4.228   0.319  2.7136 -0.9559  4.3405
 5739SOL    HW228851   4.481   4.277   0.425 -0.9388 -0.8225 -1.0668
 5740SOL     OW28852   0.219   0.083   2.085  0.7888 -0.4438 -0.2792
 5740SOL    HW128853   0.208   0.106   2.177 -1.5963 -1.5645 -0.2842
 5740SOL    HW228854   0.130   0.061   2.058  1.2383 -2.4217 -0.1450
 5741SOL     OW28855   4.257   3.277   4.207  1.0540  0.4645 -1.0211
 5741SOL    HW128856   4.163   3.258   4.211  1.0110  1.0473  1.0273
 5741SOL    HW228857   4.248   3.371   4.225 -1.2797 -0.4922  2.7671
 5742SOL     OW28858   4.235   2.860   8.265 -0.1062  0.2497 -0.0322
 5742SOL    HW128859   4.183   2.937   8.287  1.0969  0.9309  0.4079
 5742SOL    HW228860   4.186   2.831   8.188  0.3158 -0.3086 -0.0891
 5743SOL     OW28861   1.482   2.691   2.127  0.1700  0.4069 -0.6429
 5743SOL    HW128862   1.522   2.629   2.190 -0.3355  0.1643 -0.5616
 5743SOL    HW228863   1.562   2.732   2.093 -0.6718  1.1385 -1.7110
 5744SOL     OW28864   2.978   3.090   9.343 -0.4147  0.0226  0.4221
 5744SOL    HW128865   2.919   3.053   9.276  0.2171  0.2831 -0.2816
 5744SOL    HW228866   2.944   3.179   9.343 -0.4864 -0.0038  0.2332
 5745SOL     OW28867   2.801   3.674   3.621  0.2269 -0.3010 -0.2031
 5745SOL    HW128868   2.787   3.588   3.579  1.1816 -0.8833  0.6776
 5745SOL    HW228869   2.879   3.648   3.670 -0.8312 -2.0445  0.5543
 5746SOL     OW28870   0.184   3.619  12.441 -0.2067 -0.1658 -0.5941
 5746SOL    HW128871   0.113   3.574  12.393  0.1085 -1.3565  0.0557
 5746SOL    HW228872   0.253   3.621  12.375 -0.4332 -0.3307 -0.8379
 5747SOL     OW28873   1.856   2.892   3.844 -0.3998 -0.1033  0.1239
 5747SOL    HW128874   1.775   2.923   3.885 -0.8212  1.0783 -1.6007
 5747SOL    HW228875   1.915   2.919   3.914 -2.1802 -0.2393  1.6935
 5748SOL     OW28876   0.588   4.532   3.028 -0.4466  0.5024 -0.2747
 5748SOL    HW128877   0.563   4.622   3.051  0.6494  0.7474 -0.0031
 5748SOL    HW228878   0.671   4.554   2.986  0.6214 -2.8792  0.0515
 5749SOL     OW28879   1.096   1.091  15.022 -0.0543  0.4025 -0.7955
 5749SOL    HW128880   1.013   1.044  15.029 -0.6208  1.1038 -2.9771
 5749SOL    HW228881   1.108   1.091  14.927 -1.7507 -0.2437 -1.0110
 5750SOL     OW28882   4.505   2.711   8.910  0.1762 -0.4494 -0.6693
 5750SOL    HW128883   4.586   2.731   8.861  0.7400  1.7876  1.2281
 5750SOL    HW228884   4.447   2.647   8.869  1.1530  0.5074 -3.5566
 5751SOL     OW28885   0.230   0.077  16.750  0.1804  0.4192 -0.5672
 5751SOL    HW128886   0.141   0.046  16.735  0.4226 -0.0204 -1.0715
 5751SOL    HW228887   0.241   0.146  16.685 -2.2316  0.2959 -1.0804
 5752SOL     OW28888   4.163   0.287   8.215 -0.7319 -0.0489  0.1721
 5752SOL    HW128889   4.173   0.271   8.309  1.4017  2.2690  0.3467
 5752SOL    HW228890   4.068   0.296   8.216 -0.6487  0.8930 -0.1511
 5753SOL     OW28891   1.912   2.990   8.651  0.3314  0.4535  0.5222
 5753SOL    HW128892   1.940   2.899   8.662  0.2675  0.4946  1.0017
 5753SOL    HW228893   1.942   3.019   8.565  0.5765  1.2121  0.8673
 5754SOL     OW28894   0.099   4.318   2.647 -0.1502 -0.1035 -0.3522
 5754SOL    HW128895   0.191   4.299   2.630  0.6675  2.5883  1.0907
 5754SOL    HW228896   0.093   4.307   2.742 -0.1443  1.2651 -0.2038
 5755SOL     OW28897   0.816   4.041  13.362  0.6311 -0.5024 -0.2644
 5755SOL    HW128898   0.894   4.070  13.409  0.4151 -1.5983  0.7574
 5755SOL    HW228899   0.851   4.031  13.273  0.8599  0.6831 -0.3036
 5756SOL     OW28900   2.008   3.436   7.956  0.3312 -0.0083  0.0639
 5756SOL    HW128901   2.086   3.488   7.941  0.6828  0.4849  3.7439
 5756SOL    HW228902   1.937   3.483   7.913 -1.3284 -1.2052  1.5063
 5757SOL     OW28903   2.591   4.504   6.306 -0.5271  0.4862 -0.3360
 5757SOL    HW128904   2.511   4.475   6.263 -1.1468  1.9426 -0.1390
 5757SOL    HW228905   2.579   4.453   6.386 -2.7817  0.9031 -0.4191
 5758SOL     OW28906   2.267   3.447  12.352  0.3369 -0.0073 -0.3471
 5758SOL    HW128907   2.232   3.496  12.426  2.0675  0.9616 -0.1643
 5758SOL    HW228908   2.264   3.360  12.390 -0.8579 -0.1058 -0.6709
 5759SOL     OW28909   4.584   2.673   2.165  0.2100  0.1084 -0.1227
 5759SOL    HW128910   4.585   2.597   2.223 -0.4414 -1.6713 -2.4353
 5759SOL    HW228911   4.656   2.666   2.102 -0.5747  1.0899 -1.1283
 5760SOL     OW28912   1.451   2.447   8.223 -0.2604  0.1467  0.2853
 5760SOL    HW128913   1.476   2.468   8.313  2.1676 -1.0032 -0.0981
 5760SOL    HW228914   1.359   2.427   8.236 -0.4506 -0.0393 -1.2899
 5761SOL     OW28915   0.561   0.195   6.953  0.0827 -0.0021 -0.1530
 5761SOL    HW128916   0.599   0.277   6.921 -1.0080  0.5337 -0.1004
 5761SOL    HW228917   0.636   0.139   6.932  1.2131  0.8743  1.5377
 5762SOL     OW28918   3.127   1.084  11.831 -0.1438 -0.1012  0.2459
 5762SOL    HW128919   3.125   0.999  11.789  0.1843  0.2145 -0.4004
 5762SOL    HW228920   3.113   1.142  11.756 -1.6184 -0.4754  0.2255
 5763SOL     OW28921   2.552   3.026   9.915 -0.0681 -0.2756 -0.5252
 5763SOL    HW128922   2.598   3.092   9.968 -2.4824  0.8862  0.0870
 5763SOL    HW228923   2.562   3.075   9.834  2.0334 -0.0906 -0.1674
 5764SOL     OW28924   2.542   0.604   8.885  0.0503 -0.3679 -0.4696
 5764SOL    HW128925   2.567   0.512   8.872  0.3852 -0.3828  0.2929
 5764SOL    HW228926   2.454   0.591   8.849 -0.0842  0.8522 -0.5594
 5765SOL     OW28927   1.795   0.741   4.482 -0.7940  0.4252 -0.1878
 5765SOL    HW128928   1.703   0.719   4.468 -0.3280 -1.5259 -0.0680
 5765SOL    HW228929   1.805   0.824   4.436  2.3369 -0.9260 -1.9298
 5766SOL     OW28930   4.452   4.702   7.894  0.2648 -0.4213 -0.2697
 5766SOL    HW128931   4.433   4.693   7.988 -0.0719 -0.3938 -0.3355
 5766SOL    HW228932   4.374   0.005   7.852 -0.3301  0.0360  1.1994
 5767SOL     OW28933   2.031   0.747  13.730 -0.3668 -0.1048 -0.1139
 5767SOL    HW128934   1.974   0.808  13.775 -0.9849  0.3149 -1.4651
 5767SOL    HW228935   1.990   0.669  13.693  0.3037 -1.1778  1.3801
 5768SOL     OW28936   2.057   4.536   3.442  0.3770  0.2534 -0.5439
 5768SOL    HW128937   2.112   4.572   3.372  1.7396  0.0162  0.3927
 5768SOL    HW228938   1.987   4.499   3.388 -0.1732  0.4104  0.0610
 5769SOL     OW28939   0.721   1.327  11.277  1.0069 -0.1619 -0.5468
 5769SOL    HW128940   0.682   1.380  11.207  1.2932  0.3924 -0.2820
 5769SOL    HW228941   0.781   1.268  11.231  1.4732  0.7420 -1.1033
 5770SOL     OW28942   2.021   1.025   7.130  0.3066  0.1902  0.1127
 5770SOL    HW128943   1.968   1.058   7.057 -0.5194  0.7868  0.9889
 5770SOL    HW228944   2.061   1.106   7.161 -0.0065  0.6389 -0.6524
 5771SOL     OW28945   2.407   2.425   8.963 -0.1598  0.9314  0.4501
 5771SOL    HW128946   2.426   2.474   9.043 -3.5358  0.0973  1.7760
 5771SOL    HW228947   2.493   2.390   8.942 -0.0297  1.3041  0.3604
 5772SOL     OW28948   0.997   2.174   9.222 -0.0252 -0.4885  0.0439
 5772SOL    HW128949   1.010   2.082   9.200 -0.8908 -0.4573 -0.5625
 5772SOL    HW228950   0.910   2.165   9.260 -0.3615 -0.9806 -0.8665
 5773SOL     OW28951   1.143   3.592   2.492  0.0664  0.0365  0.2348
 5773SOL    HW128952   1.153   3.499   2.470 -0.5387  0.1139 -0.3905
 5773SOL    HW228953   1.049   3.609   2.481 -0.1259  0.2626  2.2494
 5774SOL     OW28954   3.199   0.285   2.419  0.2364 -0.4651  0.1121
 5774SOL    HW128955   3.157   0.356   2.468  1.2230  0.1793  0.0331
 5774SOL    HW228956   3.208   0.231   2.497  2.9347 -0.7046 -0.3523
 5775SOL     OW28957   2.189   4.474   3.675  0.1058 -0.1734  0.4337
 5775SOL    HW128958   2.279   4.489   3.644  0.4319  1.3920  2.1400
 5775SOL    HW228959   2.137   4.474   3.595  0.3746 -0.8641  0.2641
 5776SOL     OW28960   3.790   0.772   5.964  0.4339 -0.3183 -1.1373
 5776SOL    HW128961   3.782   0.856   6.011  0.2273 -1.4854  0.9220
 5776SOL    HW228962   3.702   0.757   5.928 -1.2155  1.5604  2.0501
 5777SOL     OW28963   0.659   3.249  11.646 -0.6618  0.1029 -0.3635
 5777SOL    HW128964   0.732   3.258  11.707 -0.7849  0.3114 -0.2442
 5777SOL    HW228965   0.587   3.244  11.709 -1.0970 -0.7401 -0.9338
 5778SOL     OW28966   4.163   1.292  10.051  0.2159 -0.5560  0.4798
 5778SOL    HW128967   4.084   1.259  10.095 -0.7691 -0.3681 -1.1721
 5778SOL    HW228968   4.126   1.360   9.996 -1.1898 -2.6937 -1.2385
 5779SOL     OW28969   1.132   4.474   3.733 -0.3243  0.8321 -0.5537
 5779SOL    HW128970   1.129   4.440   3.823 -1.3400  1.2731 -0.4229
 5779SOL    HW228971   1.063   4.418   3.698 -1.5172  0.6513  2.1244
 5780SOL     OW28972   2.737   0.763   5.015  0.1254 -0.0051  0.4225
 5780SOL    HW128973   2.736   0.726   4.927  0.6504 -0.2455  0.5149
 5780SOL    HW228974   2.645   0.783   5.029  0.6480  2.6869 -0.0949
 5781SOL     OW28975   0.087   2.450   7.940 -0.0128  0.1239  0.0706
 5781SOL    HW128976   0.141   2.477   7.866 -0.2635  2.4917  0.7331
 5781SOL    HW228977   0.037   2.532   7.934 -1.4691 -0.7854 -0.1449
 5782SOL     OW28978   3.269   0.940   9.162  0.7226  0.1821  0.0033
 5782SOL    HW128979   3.297   0.850   9.172  4.6451  1.6332  2.1116
 5782SOL    HW228980   3.187   0.947   9.210  0.8324  0.0471  0.2099
 5783SOL     OW28981   2.509   1.579   8.951  0.3397 -0.4055 -0.8396
 5783SOL    HW128982   2.520   1.660   9.001  2.6740 -0.7420 -0.8138
 5783SOL    HW228983   2.597   1.544   8.961 -0.6695 -1.8577  2.9668
 5784SOL     OW28984   4.069   0.502   6.198  0.0167 -0.4444  0.0628
 5784SOL    HW128985   4.073   0.466   6.109  0.2368 -0.0761 -0.0793
 5784SOL    HW228986   4.144   0.562   6.194 -0.8259  0.7222  1.6643
 5785SOL     OW28987   3.913   3.340  10.817 -0.1453  0.5083  0.7392
 5785SOL    HW128988   4.006   3.350  10.833 -0.0695  0.1149  0.5459
 5785SOL    HW228989   3.885   3.285  10.890 -0.4457  1.0632  1.0382
 5786SOL     OW28990   3.671   4.492   2.327  0.0917 -0.4757  0.2675
 5786SOL    HW128991   3.765   4.504   2.311  0.1029 -1.3033 -0.2698
 5786SOL    HW228992   3.631   4.569   2.287 -0.4103 -1.2031 -0.6244
 5787SOL     OW28993   1.708   0.374   8.113 -0.9700  0.1502  0.1777
 5787SOL    HW128994   1.708   0.302   8.049 -1.4798  0.9271 -0.6960
 5787SOL    HW228995   1.656   0.434   8.060 -1.1169 -0.2043 -0.0771
 5788SOL     OW28996   3.106   3.307   2.332 -0.6300  0.1344 -0.2695
 5788SOL    HW128997   3.114   3.215   2.356 -0.4240  0.6376  1.5944
 5788SOL    HW228998   3.191   3.347   2.350 -0.6060 -0.2035  0.3598
 5789SOL     OW28999   3.172   3.521  14.660  0.1048 -0.0473  0.2451
 5789SOL    HW129000   3.188   3.458  14.590 -0.9052 -1.7474  1.5588
 5789SOL    HW229001   3.258   3.529  14.701  1.7285 -2.0253 -2.8433
 5790SOL     OW29002   0.214   0.116   6.261 -0.3304 -0.5552  0.7751
 5790SOL    HW129003   0.191   0.024   6.264  0.8554 -0.8461  1.0139
 5790SOL    HW229004   0.298   0.118   6.308  0.6066 -1.7095 -0.8393
 5791SOL     OW29005   0.600   2.569   7.989 -0.3326 -0.0674 -0.1908
 5791SOL    HW129006   0.614   2.654   7.948 -1.7050  0.6864  0.9228
 5791SOL    HW229007   0.517   2.587   8.033 -0.6623  0.6705 -1.1125
 5792SOL     OW29008   3.221   4.696   6.418  0.4347 -0.2333 -0.3121
 5792SOL    HW129009   3.167   0.030   6.377  0.7466  1.3123  1.8003
 5792SOL    HW229010   3.293   4.687   6.356  0.6202 -0.8696 -0.0072
 5793SOL     OW29011   3.270   4.324   4.143 -1.2524  0.2093  0.6656
 5793SOL    HW129012   3.363   4.325   4.121 -1.4266  0.1907 -0.0637
 5793SOL    HW229013   3.265   4.380   4.221 -1.5096  0.0101  0.7915
 5794SOL     OW29014   3.999   2.254   8.785 -0.7247 -0.1879 -0.3598
 5794SOL    HW129015   4.033   2.242   8.697  2.1701  2.0403  0.4895
 5794SOL    HW229016   3.916   2.207   8.770  0.7195 -2.4709 -1.1755
 5795SOL     OW29017   0.738   3.956  10.412 -0.7387 -0.0297 -0.2876
 5795SOL    HW129018   0.741   3.897  10.337  1.4172  1.8801 -1.6957
 5795SOL    HW229019   0.760   4.036  10.365 -1.1100  0.1623 -0.1356
 5796SOL     OW29020   0.775   3.757  10.620  0.1405 -0.1107  0.1699
 5796SOL    HW129021   0.790   3.698  10.546  3.1183  0.8141  0.0194
 5796SOL    HW229022   0.767   3.838  10.569  1.5552  0.2877  0.5832
 5797SOL     OW29023   0.530   3.721   6.937  0.8101 -0.3869 -0.4598
 5797SOL    HW129024   0.550   3.656   7.005  1.7108  0.6141  0.2258
 5797SOL    HW229025   0.529   3.799   6.993  0.5448 -2.0548  1.8666
 5798SOL     OW29026   1.268   4.457   8.643 -0.1349  0.0232  0.0858
 5798SOL    HW129027   1.279   4.431   8.735  0.9419  0.9746  0.2245
 5798SOL    HW229028   1.359   4.454   8.612  0.5924  0.2693  2.1713
 5799SOL     OW29029   2.225   0.774   8.918  0.1853  0.6426 -0.3002
 5799SOL    HW129030   2.130   0.774   8.918  0.1545 -3.9849  1.2601
 5799SOL    HW229031   2.255   0.865   8.922 -0.6072  0.8413  0.9737
 5800SOL     OW29032   2.514   0.911   6.749 -0.6821  0.1664 -0.6885
 5800SOL    HW129033   2.594   0.871   6.783 -0.7351 -0.4487 -1.2816
 5800SOL    HW229034   2.490   0.843   6.686  0.7032 -2.1800  1.3007
 5801SOL     OW29035   3.595   2.321  15.785  0.3838 -0.8551 -0.1661
 5801SOL    HW129036   3.525   2.268  15.824 -0.2077  1.7386  2.2665
 5801SOL    HW229037   3.648   2.323  15.864  0.5751 -0.7713 -0.2974
 5802SOL     OW29038   0.503   2.721   3.116  0.5054  0.0984  0.0634
 5802SOL    HW129039   0.415   2.687   3.101 -0.4585  1.8766  1.8293
 5802SOL    HW229040   0.555   2.647   3.084 -1.3274 -1.0891 -0.1822
 5803SOL     OW29041   4.248   4.468   8.126 -0.4559 -0.0810  0.3844
 5803SOL    HW129042   4.226   4.561   8.127 -0.7597 -0.1497  0.1759
 5803SOL    HW229043   4.251   4.444   8.219  1.8671 -3.4030 -0.5631
 5804SOL     OW29044   3.054   4.212  15.823  0.1698 -0.2065 -0.6440
 5804SOL    HW129045   3.070   4.122  15.793  2.5537 -0.5002  1.4857
 5804SOL    HW229046   3.014   4.252  15.746 -1.2069 -0.1624  0.0973
 5805SOL     OW29047   0.167   3.479  13.857 -0.6264 -0.0344 -0.0694
 5805SOL    HW129048   0.227   3.552  13.877  2.3182 -2.0122 -1.6865
 5805SOL    HW229049   0.139   3.505  13.770 -0.8451 -1.1393 -0.3237
 5806SOL     OW29050   3.309   2.076   3.051 -0.1920  0.4946  0.0832
 5806SOL    HW129051   3.233   2.021   3.034  0.7360 -0.4612 -0.9408
 5806SOL    HW229052   3.378   2.019   3.017 -0.6562 -1.2167  2.0480
 5807SOL     OW29053   4.281   0.796   1.237 -0.0569  0.5821  0.0484
 5807SOL    HW129054   4.254   0.861   1.172 -0.7665  1.8264  1.5966
 5807SOL    HW229055   4.377   0.796   1.228  0.0261 -1.3087  0.9724
 5808SOL     OW29056   2.020   2.741   5.137 -1.0311  0.0952 -0.4842
 5808SOL    HW129057   1.985   2.710   5.054 -0.5522 -0.4386 -0.4836
 5808SOL    HW229058   2.102   2.694   5.149 -1.1216  0.4732  1.5773
 5809SOL     OW29059   0.271   2.862  16.794 -0.1382  0.8546 -0.7930
 5809SOL    HW129060   0.268   2.785  16.737  4.1179 -0.4086  0.7201
 5809SOL    HW229061   0.337   2.839  16.859 -0.1147  0.3218 -1.0056
 5810SOL     OW29062   0.314   0.030   4.993  0.6502 -0.4583  0.3940
 5810SOL    HW129063   0.262   0.090   5.046  0.6667 -0.7005  0.6849
 5810SOL    HW229064   0.403   0.035   5.029 -0.1743  0.4497  2.3035
 5811SOL     OW29065   2.480   2.586   0.179 -0.0202  0.5175  0.0650
 5811SOL    HW129066   2.494   2.563   0.271 -1.7466  1.2519  0.5108
 5811SOL    HW229067   2.388   2.565   0.161  0.2687  0.4307 -1.2575
 5812SOL     OW29068   1.801   4.509   8.578 -0.0401 -0.6420  0.6189
 5812SOL    HW129069   1.830   4.524   8.488 -1.3039 -0.8513  0.1709
 5812SOL    HW229070   1.827   4.591   8.618 -1.2978 -0.1450  0.4243
 5813SOL     OW29071   4.707   3.945   1.588  0.4691 -0.2621 -0.6840
 5813SOL    HW129072   0.025   4.015   1.627 -0.1366  0.1844 -0.7082
 5813SOL    HW229073   4.719   3.881   1.658  2.4708 -0.4153 -1.1603
 5814SOL     OW29074   3.936   3.788   6.278 -0.0705  0.3008 -0.1951
 5814SOL    HW129075   3.915   3.848   6.350  1.7672 -0.5146  1.0273
 5814SOL    HW229076   4.007   3.836   6.236  0.6408 -0.4315  0.1733
 5815SOL     OW29077   2.916   3.812   6.703  0.6760  0.1428 -0.5187
 5815SOL    HW129078   2.892   3.898   6.667 -2.1870 -0.8010 -0.7973
 5815SOL    HW229079   2.917   3.829   6.798  2.0493 -3.3467  0.0669
 5816SOL     OW29080   0.708   2.027  14.785  0.0652 -0.4656 -0.2597
 5816SOL    HW129081   0.616   2.022  14.812  0.2800 -2.0112  0.1842
 5816SOL    HW229082   0.734   2.100  14.843  0.3384 -0.9752  0.2577
 5817SOL     OW29083   4.227   3.321   4.605  0.1978  0.0920 -0.1465
 5817SOL    HW129084   4.133   3.317   4.626  0.3847  1.1608  0.8950
 5817SOL    HW229085   4.230   3.370   4.522  2.0492 -0.6066 -0.4781
 5818SOL     OW29086   2.865   0.432   9.389  0.2029 -0.2405  0.5547
 5818SOL    HW129087   2.928   0.504   9.399  0.8263 -0.9730  1.7855
 5818SOL    HW229088   2.855   0.413   9.482  0.9730 -0.4022  0.6029
 5819SOL     OW29089   3.776   3.883   0.599  0.2893  0.1515  0.3827
 5819SOL    HW129090   3.685   3.897   0.572 -0.5464 -2.4578  1.9256
 5819SOL    HW229091   3.815   3.967   0.573  1.5683 -0.9872 -1.4580
 5820SOL     OW29092   3.231   2.764  16.448 -0.3036  0.5960 -0.1172
 5820SOL    HW129093   3.187   2.750  16.531  2.1097 -1.6777  0.7773
 5820SOL    HW229094   3.158   2.781  16.388 -1.8201 -0.1453  1.5261
 5821SOL     OW29095   3.009   1.989  11.870 -0.4033  0.4068 -0.0278
 5821SOL    HW129096   3.090   1.968  11.917  0.3981 -1.1810 -2.1539
 5821SOL    HW229097   3.025   2.070  11.821 -0.4590  0.8224  0.6400
 5822SOL     OW29098   3.049   3.597  12.190 -0.4195 -0.3218  0.0630
 5822SOL    HW129099   3.080   3.555  12.270  1.6382 -1.4668 -1.3086
 5822SOL    HW229100   2.958   3.619  12.206 -0.8156 -1.4566 -0.6594
 5823SOL     OW29101   3.035   1.338   3.568 -0.4498  0.1152 -0.3296
 5823SOL    HW129102   3.056   1.373   3.655 -2.1363  2.7789 -1.0022
 5823SOL    HW229103   3.072   1.250   3.579  1.0400  0.6977 -0.6424
 5824SOL     OW29104   0.799   2.641   4.380 -0.0099  0.2560 -0.0472
 5824SOL    HW129105   0.796   2.721   4.328  1.4054  1.1296  1.2207
 5824SOL    HW229106   0.723   2.645   4.438 -0.5408  1.0978 -0.8004
 5825SOL     OW29107   0.388   0.756   4.215 -0.4462  0.1692 -0.1216
 5825SOL    HW129108   0.448   0.743   4.289 -0.5248  1.3884  0.1602
 5825SOL    HW229109   0.409   0.846   4.190 -0.9711  0.7855  1.6626
 5826SOL     OW29110   2.354   1.660   1.825  0.1415 -0.2859 -0.2753
 5826SOL    HW129111   2.321   1.712   1.752  1.1301  0.0344 -0.4904
 5826SOL    HW229112   2.290   1.589   1.822 -0.8888  0.5851  1.1182
 5827SOL     OW29113   1.900   1.908   8.127 -0.0298 -0.2197  0.2284
 5827SOL    HW129114   1.993   1.915   8.149  0.0446  0.1759 -0.1961
 5827SOL    HW229115   1.888   1.817   8.099  1.1301 -0.7765  1.5345
 5828SOL     OW29116   3.435   4.471  10.537 -1.0031 -0.1889  0.3371
 5828SOL    HW129117   3.478   4.520  10.607 -0.2969 -0.7210  0.2767
 5828SOL    HW229118   3.471   4.382  10.543 -2.6993 -0.9735 -1.0642
 5829SOL     OW29119   1.672   2.662   7.788 -0.0410 -0.1996  0.0507
 5829SOL    HW129120   1.655   2.568   7.791 -1.4906  0.0024 -1.3188
 5829SOL    HW229121   1.582   2.677   7.758  0.2500  0.5878 -0.4332
 5830SOL     OW29122   3.379   3.309   2.012  0.1220  0.5431 -0.2795
 5830SOL    HW129123   3.321   3.376   1.977 -1.2406  0.9987  2.9394
 5830SOL    HW229124   3.418   3.266   1.935  1.0230  0.6505  0.1166
 5831SOL     OW29125   3.615   0.864   6.453 -0.1263 -0.2099  0.0111
 5831SOL    HW129126   3.699   0.890   6.416 -0.2844  1.4614  0.8695
 5831SOL    HW229127   3.639   0.808   6.528  0.0454 -0.9532 -0.5926
 5832SOL     OW29128   1.762   2.275   6.250  0.1936  0.2801  0.0659
 5832SOL    HW129129   1.763   2.201   6.189  1.6853  0.2671  0.0961
 5832SOL    HW229130   1.667   2.284   6.250  0.2144  0.4937 -0.0657
 5833SOL     OW29131   0.360   1.494  11.828  0.5903 -0.2240  0.4381
 5833SOL    HW129132   0.377   1.443  11.907  0.7470 -1.1589 -0.2006
 5833SOL    HW229133   0.444   1.487  11.782 -0.8375 -0.7720 -2.1201
 5834SOL     OW29134   2.325   2.311   2.879  0.2396  0.0986  0.7247
 5834SOL    HW129135   2.415   2.285   2.899 -0.5359 -1.9303  1.5977
 5834SOL    HW229136   2.280   2.304   2.964 -1.2138  1.1041  0.0459
 5835SOL     OW29137   4.208   2.882   5.002 -0.1947  0.0211  0.2483
 5835SOL    HW129138   4.166   2.880   5.089 -1.1554 -2.9118 -0.2768
 5835SOL    HW229139   4.191   2.796   4.963  0.8842 -0.2727  0.4046
 5836SOL     OW29140   3.359   0.254   5.685  0.2716 -0.3372 -0.0643
 5836SOL    HW129141   3.287   0.204   5.647  1.1309 -1.5360 -0.1447
 5836SOL    HW229142   3.341   0.261   5.779  1.6911 -0.6245  0.2312
 5837SOL     OW29143   2.300   3.443   0.631  0.1219 -0.5706  0.2299
 5837SOL    HW129144   2.298   3.348   0.637 -2.4273 -0.5030  0.5725
 5837SOL    HW229145   2.257   3.435   0.546  1.0801  1.1592 -0.4259
 5838SOL     OW29146   3.245   2.915   1.365 -0.2254  0.1937 -0.5018
 5838SOL    HW129147   3.153   2.922   1.341 -0.7382 -2.0865  0.8103
 5838SOL    HW229148   3.274   2.837   1.318  0.7149  0.1248  0.1786
 5839SOL     OW29149   3.100   2.144   4.998 -0.1511 -0.2250  0.1150
 5839SOL    HW129150   3.037   2.152   5.070  0.1619  2.0372  0.1278
 5839SOL    HW229151   3.080   2.055   4.969  1.2305 -0.6091  0.3837
 5840SOL     OW29152   3.478   1.099  13.680 -0.3820  0.0752  0.5675
 5840SOL    HW129153   3.554   1.103  13.738 -0.3309 -1.2379  0.5914
 5840SOL    HW229154   3.493   1.167  13.615  0.1673 -0.1710  0.4303
 5841SOL     OW29155   1.868   1.800   8.486  0.4038 -0.0432 -0.1122
 5841SOL    HW129156   1.938   1.756   8.535 -0.1054  0.0485  0.7074
 5841SOL    HW229157   1.907   1.819   8.401 -0.3542  2.2015  0.0409
 5842SOL     OW29158   0.860   0.956   9.974 -0.5649  0.2717  0.8984
 5842SOL    HW129159   0.816   0.972   9.891  0.9393  0.8239  0.2118
 5842SOL    HW229160   0.895   1.045   9.975 -1.2498  0.5561 -0.8190
 5843SOL     OW29161   1.870   1.340  16.141  0.9417  0.1177  0.3175
 5843SOL    HW129162   1.949   1.371  16.186 -0.2242  1.4308  1.4686
 5843SOL    HW229163   1.833   1.428  16.133  2.4124  0.7554  0.4908
 5844SOL     OW29164   4.141   0.957   1.072  0.2800 -0.2320 -0.4517
 5844SOL    HW129165   4.174   1.018   1.006  1.5837 -0.1885  0.2534
 5844SOL    HW229166   4.046   0.973   1.070 -0.0124 -1.7895  0.9197
 5845SOL     OW29167   4.114   1.650   2.109 -0.3708 -0.1008  0.4515
 5845SOL    HW129168   4.054   1.712   2.150 -0.9032 -0.8421  0.7959
 5845SOL    HW229169   4.123   1.584   2.178  1.3854 -0.0549  0.2592
 5846SOL     OW29170   3.943   2.641  13.006  0.0949 -0.5424 -0.2161
 5846SOL    HW129171   3.920   2.710  12.944  0.9739  0.0836  0.1458
 5846SOL    HW229172   4.038   2.635  12.998  0.0592 -1.0610 -0.2350
 5847SOL     OW29173   2.264   4.035  12.931  0.1326 -0.0009 -0.3298
 5847SOL    HW129174   2.185   4.023  12.879 -0.7134  1.1634  0.6768
 5847SOL    HW229175   2.235   3.977  13.002 -1.2236 -1.0194 -1.7405
 5848SOL     OW29176   2.719   0.304   8.539 -0.5507  0.6685 -0.1241
 5848SOL    HW129177   2.749   0.390   8.569 -2.5539  1.4384 -0.3132
 5848SOL    HW229178   2.794   0.249   8.516 -0.7343 -0.4189  1.8997
 5849SOL     OW29179   0.396   0.115   6.705 -0.3643 -0.2590  0.1480
 5849SOL    HW129180   0.433   0.203   6.708 -1.0631  0.0971 -2.5823
 5849SOL    HW229181   0.421   0.084   6.792  2.4813 -1.0629 -0.9678
 5850SOL     OW29182   1.239   2.403   1.685 -0.1138 -0.0972  0.3637
 5850SOL    HW129183   1.199   2.340   1.745  0.9663  0.1169  1.2964
 5850SOL    HW229184   1.244   2.482   1.737 -1.1857  0.1167  0.1412
 5851SOL     OW29185   2.031   3.944   7.135 -0.3568 -0.3044  0.8723
 5851SOL    HW129186   2.081   3.866   7.160 -0.6018 -0.8632 -0.3683
 5851SOL    HW229187   1.987   3.919   7.053  1.2970  1.2151 -0.4767
 5852SOL     OW29188   0.063   2.214  14.634 -0.0889 -0.4970  0.1389
 5852SOL    HW129189   0.147   2.260  14.641 -0.3834 -0.4266  3.2334
 5852SOL    HW229190   4.732   2.283  14.653  0.0213 -0.3488 -0.0302
 5853SOL     OW29191   0.239   0.201   4.049 -0.3065 -0.3021  0.1154
 5853SOL    HW129192   0.230   0.145   3.972 -0.0051 -2.5653  1.7087
 5853SOL    HW229193   0.330   0.228   4.063 -1.0080  1.3117  1.5736
 5854SOL     OW29194   2.687   0.781   9.399  0.5766  0.2340  0.4316
 5854SOL    HW129195   2.692   0.818   9.310 -1.5559 -2.1593 -0.6643
 5854SOL    HW229196   2.727   0.854   9.447 -1.7962  1.8634 -0.0925
 5855SOL     OW29197   3.282   1.571  11.528 -0.3734  0.1610  0.1134
 5855SOL    HW129198   3.341   1.496  11.537 -0.6937 -0.2615 -1.3594
 5855SOL    HW229199   3.201   1.521  11.535  0.9789 -1.9916  0.2521
 5856SOL     OW29200   0.328   2.972   9.694 -0.3993  0.6439  0.5223
 5856SOL    HW129201   0.423   2.972   9.706 -0.4560 -2.1905  1.0540
 5856SOL    HW229202   0.319   3.006   9.605  0.7205  0.3824  0.3000
 5857SOL     OW29203   0.306   4.306   2.315  0.4575 -0.4767 -0.8686
 5857SOL    HW129204   0.370   4.371   2.287  0.5829 -0.3293 -0.2338
 5857SOL    HW229205   0.227   4.356   2.334 -0.9568 -2.2674 -1.9199
 5858SOL     OW29206   4.584   3.683   9.875  0.2121  0.1769  0.1032
 5858SOL    HW129207   4.547   3.733   9.948  1.1985  1.7152 -0.4406
 5858SOL    HW229208   4.561   3.736   9.799  0.0755  0.7054  0.5107
 5859SOL     OW29209   2.841   1.262   2.194 -0.0165  0.0628  0.0021
 5859SOL    HW129210   2.807   1.333   2.140  2.4054  3.3597  2.8858
 5859SOL    HW229211   2.798   1.282   2.277  1.2550 -1.6619  1.0678
 5860SOL     OW29212   0.323   0.604   3.222  0.7204 -0.2667 -0.1723
 5860SOL    HW129213   0.229   0.588   3.231  0.5856  0.5037 -0.1322
 5860SOL    HW229214   0.374   0.535   3.265 -2.7010 -1.8683  1.2523
 5861SOL     OW29215   1.185   2.976   3.259 -0.0811 -0.2533  0.2005
 5861SOL    HW129216   1.214   2.988   3.169 -2.3109  0.4095 -0.4092
 5861SOL    HW229217   1.164   2.883   3.258 -1.5125  0.0942 -1.7752
 5862SOL     OW29218   2.534   4.226  11.963  0.1955 -0.1357  0.1070
 5862SOL    HW129219   2.489   4.292  11.911  0.2846  0.5832  0.9381
 5862SOL    HW229220   2.627   4.240  11.946 -0.2222 -2.2947 -3.8270
 5863SOL     OW29221   2.372   3.895   3.921 -0.3189  0.2287  0.6585
 5863SOL    HW129222   2.448   3.947   3.947  0.6923  0.3710 -2.5431
 5863SOL    HW229223   2.324   3.959   3.869 -0.6377 -0.4755  0.0799
 5864SOL     OW29224   0.671   2.665  11.125 -0.6536 -0.6872  0.3435
 5864SOL    HW129225   0.656   2.627  11.039  0.4955 -0.5751  0.0912
 5864SOL    HW229226   0.717   2.743  11.094 -0.3397 -1.5334 -1.3059
 5865SOL     OW29227   0.900   1.580   8.187  0.6115  0.4293  0.2582
 5865SOL    HW129228   0.840   1.572   8.261  1.5985 -0.7109  0.9325
 5865SOL    HW229229   0.967   1.641   8.218 -0.5928  1.6025  0.5401
 5866SOL     OW29230   1.642   0.699   7.063 -0.5572 -0.0257 -0.1757
 5866SOL    HW129231   1.592   0.741   7.133  2.0241  2.4036  0.2305
 5866SOL    HW229232   1.670   0.775   7.012 -1.8440  1.5890  1.4981
 5867SOL     OW29233   2.106   0.150   4.244 -0.1401  0.1634  0.5220
 5867SOL    HW129234   2.064   0.193   4.318 -0.3078  2.5538 -0.9669
 5867SOL    HW229235   2.032   0.097   4.214  0.2852  1.4374 -2.6992
 5868SOL     OW29236   3.753   2.504  13.545 -0.7634 -0.3608 -0.9147
 5868SOL    HW129237   3.786   2.551  13.469  2.8395 -1.3573  0.0018
 5868SOL    HW229238   3.770   2.566  13.616 -2.1058 -0.8962 -0.1168
 5869SOL     OW29239   1.820   3.081   1.990  0.0951 -0.3457  0.8436
 5869SOL    HW129240   1.913   3.102   1.996  0.5217 -2.0513  0.1104
 5869SOL    HW229241   1.830   3.023   1.914 -1.2658 -0.5038  0.7879
 5870SOL     OW29242   4.558   3.539  10.957  0.3164  0.5436 -0.9896
 5870SOL    HW129243   4.568   3.517  11.050  1.8181  0.5373 -1.1603
 5870SOL    HW229244   4.473   3.583  10.961  0.6424  1.2236 -1.5093
 5871SOL     OW29245   4.254   0.207   2.099 -0.0653 -0.2306 -0.4789
 5871SOL    HW129246   4.175   0.191   2.151 -0.7954  1.1569 -1.1370
 5871SOL    HW229247   4.308   0.245   2.168 -0.2055 -0.3443 -0.3079
 5872SOL     OW29248   0.903   3.153   5.708 -0.1382  0.3669  0.7394
 5872SOL    HW129249   0.857   3.211   5.648 -0.0612  1.6599  1.9272
 5872SOL    HW229250   0.962   3.106   5.649 -0.0711  0.6641  0.5685
 5873SOL     OW29251   3.832   3.568  16.040  0.0832  0.0052  0.0641
 5873SOL    HW129252   3.876   3.554  16.124  0.4785  0.0542 -0.1377
 5873SOL    HW229253   3.741   3.585  16.063  0.2871  0.5214  0.4806
 5874SOL     OW29254   1.308   2.468  11.722 -0.8690  0.4883  0.1848
 5874SOL    HW129255   1.349   2.499  11.803 -0.1634  2.7839 -1.0555
 5874SOL    HW229256   1.232   2.421  11.758  0.8827 -1.3692  1.5222
 5875SOL     OW29257   2.231   1.122   4.156 -0.2445  0.1388  0.6375
 5875SOL    HW129258   2.319   1.160   4.154 -0.3467  0.3140 -0.2262
 5875SOL    HW229259   2.210   1.137   4.064 -1.3104 -0.7444  0.7262
 5876SOL     OW29260   2.825   0.276   6.770  0.7139 -0.1659 -0.1461
 5876SOL    HW129261   2.764   0.295   6.699 -0.0777 -0.1672  0.5341
 5876SOL    HW229262   2.827   0.353   6.827  0.6397  0.1856 -0.6214
 5877SOL     OW29263   4.247   3.051   3.481 -0.3006 -0.1030  0.2221
 5877SOL    HW129264   4.341   3.040   3.464 -0.0701 -1.2661  2.1784
 5877SOL    HW229265   4.243   3.064   3.576  1.4701  0.2114  0.2686
 5878SOL     OW29266   1.284   4.520  10.561 -0.7626 -0.0434  0.0409
 5878SOL    HW129267   1.212   4.550  10.506 -0.8084  0.8652  0.6053
 5878SOL    HW229268   1.235   4.492  10.637  1.9323  0.0319  1.8193
 5879SOL     OW29269   1.101   0.232  16.500 -0.0221 -0.2605  0.3341
 5879SOL    HW129270   1.190   0.199  16.515 -0.2608 -0.7085  0.7351
 5879SOL    HW229271   1.128   0.304  16.442  0.4899 -0.0612  0.8200
 5880SOL     OW29272   2.817   4.675   6.785  0.3222 -0.0124  0.6285
 5880SOL    HW129273   2.849   0.005   6.851 -0.9156  1.6936 -0.3931
 5880SOL    HW229274   2.885   4.673   6.717  0.0003  0.6043  0.2887
 5881SOL     OW29275   3.959   4.141   6.718  0.5527 -0.5721 -0.0256
 5881SOL    HW129276   3.959   4.168   6.626 -1.2235 -0.0186  0.1452
 5881SOL    HW229277   4.050   4.116   6.732  0.7601  1.0160  1.5768
 5882SOL     OW29278   3.048   0.754   4.379 -0.6460 -0.5335 -0.7087
 5882SOL    HW129279   2.999   0.711   4.309 -0.7962 -1.9725  0.2875
 5882SOL    HW229280   3.043   0.849   4.370  1.8865 -0.2550  0.9265
 5883SOL     OW29281   3.685   1.517   6.131  0.7174  0.2503 -0.1317
 5883SOL    HW129282   3.610   1.576   6.139 -0.8528 -1.6660 -0.7375
 5883SOL    HW229283   3.634   1.437   6.143  0.4090 -0.0316 -3.5038
 5884SOL     OW29284   1.574   1.777   4.639  1.0308  0.0098 -0.5113
 5884SOL    HW129285   1.550   1.685   4.627 -2.5256  1.0105 -1.2141
 5884SOL    HW229286   1.489   1.819   4.653 -0.4895 -2.5242 -2.1696
 5885SOL     OW29287   3.061   2.371   8.580 -0.4367  0.1424 -0.3250
 5885SOL    HW129288   3.063   2.392   8.673  4.8560  1.9699 -0.8852
 5885SOL    HW229289   3.050   2.276   8.575 -3.1111  0.1919  4.9243
 5886SOL     OW29290   4.641   0.196   9.282  0.0477  0.1973 -0.0461
 5886SOL    HW129291   4.689   0.169   9.360 -0.2808 -2.3261 -0.7159
 5886SOL    HW229292   4.608   0.279   9.316 -2.1693 -1.2213  1.2605
 5887SOL     OW29293   2.733   1.094   4.765 -0.0734  0.5108  0.0461
 5887SOL    HW129294   2.646   1.110   4.729  0.0976  2.0593  0.3117
 5887SOL    HW229295   2.793   1.120   4.695  0.3600  0.8244  0.5354
 5888SOL     OW29296   0.635   3.103   8.124  0.0125  0.2807 -0.1790
 5888SOL    HW129297   0.660   3.184   8.170 -0.0330  0.4339 -0.4241
 5888SOL    HW229298   0.710   3.046   8.143 -0.8307 -0.7356  0.0500
 5889SOL     OW29299   4.622   1.316  10.342 -0.0653 -0.6392 -0.2085
 5889SOL    HW129300   4.577   1.240  10.304 -2.4559  0.1791  0.9512
 5889SOL    HW229301   4.618   1.289  10.434  2.3203 -1.7057 -0.4275
 5890SOL     OW29302   1.449   3.802  16.945  0.0949 -0.5261  0.2824
 5890SOL    HW129303   1.526   3.758  16.911 -0.9368 -1.2594 -1.1131
 5890SOL    HW229304   1.386   3.735  16.973  1.1126 -1.9514 -0.8244
 5891SOL     OW29305   3.183   1.649   5.981  0.0299  0.9080 -0.7224
 5891SOL    HW129306   3.139   1.727   5.948  0.4249  1.9405  1.2354
 5891SOL    HW229307   3.196   1.610   5.894 -1.0106 -0.3862 -0.3077
 5892SOL     OW29308   3.439   3.073  14.037 -0.1421 -0.1455 -0.2987
 5892SOL    HW129309   3.344   3.075  14.050  0.0774 -0.0302  1.2856
 5892SOL    HW229310   3.443   3.050  13.944 -1.4071 -0.8772 -0.1689
 5893SOL     OW29311   4.565   3.221  12.346  0.3149 -0.1034  0.3313
 5893SOL    HW129312   4.610   3.301  12.370  0.5631  0.0534 -0.6835
 5893SOL    HW229313   4.637   3.169  12.309  0.4850 -0.0859  0.6393
 5894SOL     OW29314   4.390   1.855   6.361  0.2215  0.1720  0.3027
 5894SOL    HW129315   4.378   1.946   6.386 -0.6938  0.4041 -1.0428
 5894SOL    HW229316   4.385   1.816   6.449 -0.7825 -1.2666 -0.3960
 5895SOL     OW29317   2.958   3.084  16.180  0.6267  0.2465 -0.7482
 5895SOL    HW129318   2.920   3.047  16.100 -2.0373  0.8740  0.2259
 5895SOL    HW229319   2.949   3.008  16.238  1.0724  0.2993 -0.6118
 5896SOL     OW29320   4.338   1.127   9.249  0.1539  0.3150  0.5755
 5896SOL    HW129321   4.276   1.196   9.271 -0.9563 -0.1815 -1.0271
 5896SOL    HW229322   4.281   1.050   9.245 -0.1595  0.6324 -0.8813
 5897SOL     OW29323   0.466   1.034   3.118  0.2019 -0.6245  0.4806
 5897SOL    HW129324   0.438   1.049   3.028 -1.4810  2.2810  1.4855
 5897SOL    HW229325   0.556   1.067   3.119  0.0185 -0.0279 -2.4934
 5898SOL     OW29326   0.696   1.931   8.772  0.1515  0.3842  0.5043
 5898SOL    HW129327   0.781   1.971   8.757  0.5011  0.0106  1.4718
 5898SOL    HW229328   0.721   1.890   8.855 -0.1987  1.2132  1.0184
 5899SOL     OW29329   0.435   1.330   1.050  0.0158  0.7496  0.4835
 5899SOL    HW129330   0.515   1.305   1.003 -1.4807 -1.7552 -0.6827
 5899SOL    HW229331   0.363   1.277   1.017  0.6697  0.2626 -0.1652
 5900SOL     OW29332   2.774   1.130   6.944 -0.3544  0.0820  0.6379
 5900SOL    HW129333   2.846   1.190   6.960 -0.3269  0.0971  0.4578
 5900SOL    HW229334   2.804   1.108   6.855 -0.5097 -0.0537  0.6180
 5901SOL     OW29335   2.933   3.905   9.793  0.0673  0.5009  0.0828
 5901SOL    HW129336   3.006   3.908   9.855  0.2199 -1.9732  0.0252
 5901SOL    HW229337   2.990   3.914   9.716  0.9208  1.2649  0.8109
 5902SOL     OW29338   2.039   2.424   6.985  0.1373  0.3694 -0.4435
 5902SOL    HW129339   2.054   2.489   7.054  1.1109 -0.7134  0.3758
 5902SOL    HW229340   2.014   2.347   7.036  1.2388  1.0904  1.1774
 5903SOL     OW29341   0.304   0.619   9.479  0.0379  0.0859  0.6729
 5903SOL    HW129342   0.220   0.584   9.448  0.6444 -0.9950  0.2493
 5903SOL    HW229343   0.269   0.681   9.543 -0.2692 -0.0686  0.6564
 5904SOL     OW29344   1.072   2.250   6.743 -0.1562  0.6544 -0.0340
 5904SOL    HW129345   1.082   2.250   6.648  0.1495 -0.7306 -0.0112
 5904SOL    HW229346   1.102   2.340   6.758 -0.9340  0.5298  2.3451
 5905SOL     OW29347   1.520   3.975   6.536 -0.1988  0.4361  0.3884
 5905SOL    HW129348   1.611   3.953   6.558 -0.6824 -0.1815  1.7583
 5905SOL    HW229349   1.486   3.888   6.517  2.2842 -0.7347  1.3281
 5906SOL     OW29350   0.742   0.080   9.209  0.1675 -0.5237  0.3545
 5906SOL    HW129351   0.688   0.024   9.153 -2.0828  2.8713 -0.8863
 5906SOL    HW229352   0.788   0.020   9.267 -0.2241 -1.3330 -0.1741
 5907SOL     OW29353   3.702   2.559  12.036  0.2301  0.5761  0.0616
 5907SOL    HW129354   3.717   2.646  12.072 -0.1824  0.4214  0.6032
 5907SOL    HW229355   3.715   2.499  12.109 -0.0435 -0.0131 -0.3721
 5908SOL     OW29356   2.986   2.108   5.231  0.1158 -0.2959  0.5759
 5908SOL    HW129357   2.890   2.107   5.236  0.0461 -0.3624 -0.7846
 5908SOL    HW229358   3.007   2.133   5.321  0.4684 -0.3676  0.5136
 5909SOL     OW29359   2.467   3.267   5.112 -0.1935  0.1812 -0.4757
 5909SOL    HW129360   2.526   3.203   5.075  0.0220  0.7133 -1.0531
 5909SOL    HW229361   2.435   3.322   5.040 -0.8201  0.0592 -0.2955
 5910SOL     OW29362   4.081   0.658   2.433 -0.1956 -0.3076  0.1797
 5910SOL    HW129363   3.992   0.634   2.407 -0.0069 -1.5279  0.6824
 5910SOL    HW229364   4.062   0.692   2.521  1.6991  0.5898  0.2422
 5911SOL     OW29365   3.063   4.058   4.410 -0.4532  0.1666  0.1995
 5911SOL    HW129366   2.986   4.029   4.362 -1.2739  2.0584  0.3550
 5911SOL    HW229367   3.022   4.132   4.454 -2.0572  0.5801 -2.0276
 5912SOL     OW29368   2.905   0.108   8.946 -1.0821 -0.0954 -0.0020
 5912SOL    HW129369   2.913   0.196   8.984 -1.1192 -0.0288 -0.1486
 5912SOL    HW229370   2.903   0.059   9.029 -1.1062  2.1420  1.3260
 5913SOL     OW29371   1.078   4.183   8.751  0.0681 -0.2981  0.0698
 5913SOL    HW129372   1.149   4.204   8.812 -0.6457 -0.7424  1.0642
 5913SOL    HW229373   1.119   4.116   8.696 -0.0109  0.3836 -0.8141
 5914SOL     OW29374   3.700   4.039   0.280 -0.2160 -0.0851 -0.1648
 5914SOL    HW129375   3.678   4.086   0.200  0.4884  0.4561 -0.0417
 5914SOL    HW229376   3.637   4.080   0.339  0.5640  0.1720  0.4806
 5915SOL     OW29377   2.333   2.421   9.708 -0.1264 -0.3208 -0.1440
 5915SOL    HW129378   2.274   2.470   9.651 -2.2286 -0.3310  2.0379
 5915SOL    HW229379   2.283   2.427   9.790 -0.4962  1.7217 -0.5134
 5916SOL     OW29380   3.718   2.058   8.375 -0.1957  0.0742  0.4220
 5916SOL    HW129381   3.755   2.107   8.449 -0.9825  1.2515  0.0408
 5916SOL    HW229382   3.764   2.111   8.310 -2.1379 -0.1578 -1.1319
 5917SOL     OW29383   0.643   2.621  10.501  0.1189 -0.2907  0.0010
 5917SOL    HW129384   0.653   2.660  10.414 -0.8966 -1.2924 -0.5690
 5917SOL    HW229385   0.568   2.563  10.491 -0.7671  0.6366  1.4258
 5918SOL     OW29386   2.421   0.158   5.437 -0.3081  0.2011 -0.5370
 5918SOL    HW129387   2.371   0.214   5.376  0.6094  0.6605 -0.8656
 5918SOL    HW229388   2.451   0.090   5.378  0.9590  1.0533 -0.8791
 5919SOL     OW29389   3.082   2.789   2.466  0.1871  0.0168 -0.2568
 5919SOL    HW129390   3.114   2.711   2.422  0.1666 -2.3592  4.0092
 5919SOL    HW229391   3.153   2.787   2.530 -0.2463 -3.5711  0.0645
 5920SOL     OW29392   1.623   4.278   6.505  0.2384 -0.3128  0.2218
 5920SOL    HW129393   1.679   4.260   6.430  1.5141  1.4024  0.7555
 5920SOL    HW229394   1.541   4.254   6.462  1.1267 -2.5974 -0.2082
 5921SOL     OW29395   1.889   2.986   5.158 -0.4468  0.0604  0.1843
 5921SOL    HW129396   1.840   2.988   5.076 -0.3687 -0.9205  0.1126
 5921SOL    HW229397   1.943   2.908   5.145 -2.0888 -0.8249 -1.3769
 5922SOL     OW29398   2.887   0.107   8.381  0.5838 -0.7139  0.2763
 5922SOL    HW129399   2.867   0.040   8.315 -1.3755 -1.0513  1.2381
 5922SOL    HW229400   2.897   0.178   8.317 -0.7995 -1.1522 -0.4367
 5923SOL     OW29401   1.985   1.404   1.604  0.0483  0.5897  0.2430
 5923SOL    HW129402   1.983   1.488   1.560  0.2169 -0.2394 -1.3303
 5923SOL    HW229403   1.903   1.368   1.569  0.5217  0.1824 -0.4349
 5924SOL     OW29404   1.357   2.434  16.589 -0.0240  0.0425  0.3091
 5924SOL    HW129405   1.419   2.363  16.610  0.3225  0.3697  0.3902
 5924SOL    HW229406   1.321   2.445  16.677  1.1547  0.1763  0.7711
 5925SOL     OW29407   2.081   0.372  17.098  0.3935  0.3872  0.0408
 5925SOL    HW129408   2.134   0.344  17.172  1.1678  0.1334 -0.6004
 5925SOL    HW229409   2.145   0.382  17.027  0.9547 -1.9895  0.2150
 5926SOL     OW29410   4.091   2.125   7.372  0.3700  0.4448 -0.0980
 5926SOL    HW129411   4.108   2.220   7.366  2.0291  0.1721  0.2169
 5926SOL    HW229412   4.134   2.115   7.457 -0.0127 -0.5059 -0.0244
 5927SOL     OW29413   4.451   0.229   6.979 -0.2734  0.3347  0.0283
 5927SOL    HW129414   4.489   0.215   6.892  0.1075  2.9193 -0.2174
 5927SOL    HW229415   4.359   0.230   6.953 -0.9054 -1.5582  2.1872
 5928SOL     OW29416   2.686   2.735   1.470 -0.0042 -0.0342 -0.2307
 5928SOL    HW129417   2.603   2.738   1.422  0.0028 -2.5683 -0.3892
 5928SOL    HW229418   2.716   2.644   1.469  0.2799  0.0542  0.2551
 5929SOL     OW29419   3.882   1.054   4.140  0.4829  0.5430  0.4057
 5929SOL    HW129420   3.849   1.012   4.219  2.0482  0.5399  1.0566
 5929SOL    HW229421   3.962   1.099   4.168  0.5425  0.1917  0.7981
 5930SOL     OW29422   0.415   3.259   4.909  0.8574 -0.2939  0.2838
 5930SOL    HW129423   0.353   3.325   4.941  1.5400  0.6157 -0.2650
 5930SOL    HW229424   0.485   3.323   4.896  0.1889  0.1584 -1.1252
 5931SOL     OW29425   4.082   4.007   7.044  0.2685  0.2777  0.3334
 5931SOL    HW129426   4.004   4.033   6.993  1.0099 -0.5616 -1.2295
 5931SOL    HW229427   4.091   4.098   7.073  3.3990 -0.2923  1.0397
 5932SOL     OW29428   2.085   3.473  17.462  0.2025  0.1053  0.1914
 5932SOL    HW129429   2.032   3.459  17.540 -1.6726  1.4099 -0.8548
 5932SOL    HW229430   2.066   3.564  17.439 -0.7275  0.6382  3.1663
 5933SOL     OW29431   4.491   1.895   9.373  0.4819  0.1441 -0.0912
 5933SOL    HW129432   4.508   1.985   9.344  1.2283  0.5488  1.5597
 5933SOL    HW229433   4.430   1.866   9.306  0.2559  0.0331  0.1626
 5934SOL     OW29434   2.432   2.535  12.198  0.1081  0.2255  0.6433
 5934SOL    HW129435   2.363   2.475  12.170  0.7974  0.0243 -0.6360
 5934SOL    HW229436   2.377   2.594  12.249  0.3494  0.5842  0.4864
 5935SOL     OW29437   1.033   2.136   3.928 -0.4003  0.2318  0.2009
 5935SOL    HW129438   0.949   2.182   3.938 -0.7309  0.1640 -2.2578
 5935SOL    HW229439   1.008   2.073   3.861  0.8716 -0.9188  0.8244
 5936SOL     OW29440   1.971   3.035   2.253  0.3920 -0.5011 -0.4707
 5936SOL    HW129441   2.058   3.016   2.217  0.3945 -1.0087 -0.1997
 5936SOL    HW229442   1.966   2.981   2.332 -1.8737 -1.1901 -1.0879
 5937SOL     OW29443   3.589   3.039   7.339  0.2036  0.2427 -0.5186
 5937SOL    HW129444   3.682   3.019   7.343 -0.0217 -0.5087  1.0457
 5937SOL    HW229445   3.572   3.064   7.430  0.5483  2.1554 -0.9926
 5938SOL     OW29446   3.281   1.523   5.045 -0.1717  0.5246 -0.3129
 5938SOL    HW129447   3.268   1.430   5.067 -2.6445  0.6519 -1.2667
 5938SOL    HW229448   3.192   1.529   5.012  0.2234  0.9259 -1.3139
 5939SOL     OW29449   0.923   3.670   0.968 -0.6254 -0.6092  0.6157
 5939SOL    HW129450   0.906   3.711   1.053  0.5277 -0.1207  0.6153
 5939SOL    HW229451   0.966   3.586   0.984  1.2674  0.2115 -0.0958
 5940SOL     OW29452   2.123   2.126   6.599 -0.5738  0.0744  0.2251
 5940SOL    HW129453   2.103   2.138   6.506 -1.4602  1.4900  0.5822
 5940SOL    HW229454   2.037   2.143   6.638 -0.6544  0.8168 -0.2766
 5941SOL     OW29455   4.508   4.159   4.820  0.9805  0.1915 -0.4480
 5941SOL    HW129456   4.450   4.185   4.892 -0.4487 -1.0683 -1.1322
 5941SOL    HW229457   4.534   4.245   4.787  0.8305  0.3632 -0.1219
 5942SOL     OW29458   2.145   2.582   3.501 -0.3384 -0.2729  0.4047
 5942SOL    HW129459   2.218   2.644   3.496 -1.7749  1.4045  0.0862
 5942SOL    HW229460   2.083   2.636   3.549  2.7678  2.7491  1.0613
 5943SOL     OW29461   3.460   2.427   3.388 -0.1988  0.3078  0.1884
 5943SOL    HW129462   3.390   2.363   3.381 -0.9428  1.1019  0.4401
 5943SOL    HW229463   3.519   2.383   3.327  1.1105  1.3642  0.6957
 5944SOL     OW29464   1.115   1.423   5.023 -0.6635  0.0440 -0.4714
 5944SOL    HW129465   1.105   1.485   4.950  3.1501  1.2091 -0.0244
 5944SOL    HW229466   1.176   1.358   4.989 -0.3832 -0.8717  1.7652
 5945SOL     OW29467   4.523   2.187  17.430  0.2158  0.2710 -0.1004
 5945SOL    HW129468   4.615   2.213  17.420 -0.3684  2.2972 -0.3478
 5945SOL    HW229469   4.527   2.098  17.395 -0.9812 -1.2415  3.6107
 5946SOL     OW29470   3.478   3.181   9.535 -0.0824  0.1043 -0.0289
 5946SOL    HW129471   3.395   3.137   9.515  1.1965 -1.7233 -1.2724
 5946SOL    HW229472   3.452   3.271   9.558  2.5432  0.8237  0.1587
 5947SOL     OW29473   1.377   1.290   5.346  0.7383 -0.7064 -0.0866
 5947SOL    HW129474   1.473   1.285   5.344  0.7931 -0.5270  2.0471
 5947SOL    HW229475   1.366   1.357   5.278 -0.0589 -2.0675 -1.2808
 5948SOL     OW29476   2.910   4.494  15.883 -0.2899 -0.1791 -0.4333
 5948SOL    HW129477   2.946   4.465  15.799 -2.0491  1.2855 -1.6903
 5948SOL    HW229478   2.894   4.414  15.933  0.3101 -1.1989 -1.8631
 5949SOL     OW29479   2.551   1.623   0.086 -0.1305  0.8315 -0.1476
 5949SOL    HW129480   2.606   1.700   0.071  1.8396 -0.2448  1.4855
 5949SOL    HW229481   2.611   1.553   0.062  0.4460  1.8981 -1.7967
 5950SOL     OW29482   3.385   0.736  11.905 -0.4365  0.0954 -0.3800
 5950SOL    HW129483   3.467   0.700  11.938  0.4345  0.3572 -2.2342
 5950SOL    HW229484   3.335   0.661  11.875  0.8712  0.1461 -2.7183
 5951SOL     OW29485   1.975   1.402   8.512  0.9410  0.3583 -0.2577
 5951SOL    HW129486   1.959   1.315   8.475 -2.2201  0.4918  0.7841
 5951SOL    HW229487   1.984   1.380   8.605 -0.6113  1.0503  0.0472
 5952SOL     OW29488   1.017   0.673   4.399 -0.2219 -0.3073 -0.4495
 5952SOL    HW129489   1.003   0.753   4.448 -0.9444  0.4166 -1.8334
 5952SOL    HW229490   0.950   0.619   4.441 -1.1984  0.1389 -1.4364
 5953SOL     OW29491   0.293   1.349  12.114  0.3103  0.9258 -0.1971
 5953SOL    HW129492   0.235   1.325  12.187  1.1620 -0.0548  0.1498
 5953SOL    HW229493   0.281   1.275  12.055  0.1326 -0.3325  1.4179
 5954SOL     OW29494   4.517   2.533   7.187  0.0136 -0.2509  0.0265
 5954SOL    HW129495   4.585   2.490   7.238  2.1875 -1.4330 -3.9181
 5954SOL    HW229496   4.490   2.463   7.129 -3.3805  0.3588  0.8694
 5955SOL     OW29497   0.174   2.147   5.613 -0.0272  0.3247 -0.3766
 5955SOL    HW129498   0.124   2.121   5.536  2.1967 -0.8623 -1.4100
 5955SOL    HW229499   0.142   2.088   5.682  1.0194 -1.7044 -1.6179
 5956SOL     OW29500   3.070   1.812   3.273  0.6951  0.5191  0.1380
 5956SOL    HW129501   3.043   1.904   3.278 -1.8918 -0.2125 -0.2596
 5956SOL    HW229502   2.991   1.771   3.239  1.9058 -1.6773 -0.0071
 5957SOL     OW29503   4.663   3.339   7.035  0.3350 -0.3426 -0.0134
 5957SOL    HW129504   4.621   3.421   7.010 -0.8192 -1.8708 -3.0178
 5957SOL    HW229505   4.588   3.287   7.064  1.8483 -2.0165  0.9370
 5958SOL     OW29506   2.104   4.135  13.291  0.3942  0.1480  0.0823
 5958SOL    HW129507   2.167   4.193  13.333 -0.9214  1.4461  0.2515
 5958SOL    HW229508   2.020   4.175  13.314 -0.2958 -1.0122 -0.3892
 5959SOL     OW29509   0.470   3.157   4.655 -0.0199  0.1476 -0.1578
 5959SOL    HW129510   0.562   3.185   4.652  0.1735 -0.4702 -0.0543
 5959SOL    HW229511   0.457   3.164   4.749  0.5889 -1.9013  0.0646
 5960SOL     OW29512   2.988   2.753   7.663  0.2798 -0.3770 -0.2834
 5960SOL    HW129513   3.040   2.691   7.613  0.0988  0.3251 -1.3427
 5960SOL    HW229514   2.906   2.705   7.658  0.0898 -0.2647  1.8727
 5961SOL     OW29515   1.717   2.997   4.910 -0.2129  0.1984 -0.8610
 5961SOL    HW129516   1.675   2.926   4.862 -1.6843  0.9644 -0.6845
 5961SOL    HW229517   1.646   3.046   4.950  0.6601 -1.4949  2.7729
 5962SOL     OW29518   0.310   2.222   9.195  0.1681  0.0378 -0.1494
 5962SOL    HW129519   0.246   2.167   9.149 -0.8887  2.3465 -1.4689
 5962SOL    HW229520   0.327   2.166   9.270 -3.4121 -2.1013 -0.9123
 5963SOL     OW29521   2.973   3.087   8.504 -0.3001 -0.0101  0.5261
 5963SOL    HW129522   3.066   3.068   8.521 -1.2050 -5.6132 -0.7206
 5963SOL    HW229523   2.958   3.032   8.427 -2.1048  1.1972  0.0215
 5964SOL     OW29524   4.717   0.748   4.660  0.3002  0.1118  0.1509
 5964SOL    HW129525   4.663   0.781   4.732  0.0415 -0.6271  0.2992
 5964SOL    HW229526   4.720   0.826   4.605 -1.9151 -0.3818 -0.6902
 5965SOL     OW29527   1.335   3.745  17.271  0.2349  0.0432 -0.5947
 5965SOL    HW129528   1.373   3.711  17.351 -0.7900 -1.3657 -0.7064
 5965SOL    HW229529   1.385   3.692  17.208 -0.6335 -0.9805 -0.4226
 5966SOL     OW29530   3.656   1.888   4.046 -0.0716 -0.0006 -0.0307
 5966SOL    HW129531   3.682   1.797   4.060 -0.2121  0.0076  0.2843
 5966SOL    HW229532   3.618   1.874   3.960 -0.1482  0.4841 -0.0799
 5967SOL     OW29533   4.407   3.346   6.190  0.2876 -0.1004 -0.2307
 5967SOL    HW129534   4.411   3.395   6.107  0.1172  1.5977  0.7655
 5967SOL    HW229535   4.329   3.294   6.169  0.3204 -0.3309  0.2263
 5968SOL     OW29536   3.173   0.458   2.665 -0.2933  0.1342  0.2657
 5968SOL    HW129537   3.267   0.465   2.649 -0.3222  1.5900  0.6823
 5968SOL    HW229538   3.175   0.424   2.754  2.1895 -4.6822 -1.6489
 5969SOL     OW29539   2.789   2.157   8.221 -0.4467  0.7739 -0.0703
 5969SOL    HW129540   2.725   2.087   8.207 -1.7324  1.6430  1.6663
 5969SOL    HW229541   2.768   2.191   8.307 -2.3013 -1.0047  0.1606
 5970SOL     OW29542   2.595   4.282   7.642 -0.2851 -0.0549 -0.2707
 5970SOL    HW129543   2.574   4.252   7.553 -1.5500 -0.6670  0.2378
 5970SOL    HW229544   2.601   4.196   7.684  0.0853  0.2250  0.2433
 5971SOL     OW29545   3.247   1.536  15.314 -1.1771  0.4083 -0.0688
 5971SOL    HW129546   3.257   1.503  15.225 -0.7096  1.2851 -0.3397
 5971SOL    HW229547   3.229   1.445  15.340  0.9392  0.0538  0.2356
 5972SOL     OW29548   3.651   4.050   7.878  0.2757  0.3522  0.2233
 5972SOL    HW129549   3.677   3.999   7.800 -1.8016 -1.6902  0.8516
 5972SOL    HW229550   3.736   4.060   7.921  0.5471 -2.6462  0.4044
 5973SOL     OW29551   2.658   3.691   4.217 -0.1118 -0.2067 -0.5152
 5973SOL    HW129552   2.632   3.670   4.127 -1.7330  0.1824 -0.1378
 5973SOL    HW229553   2.666   3.599   4.241 -1.2423 -0.1028  0.2673
 5974SOL     OW29554   1.613   0.294   2.531  0.2805 -0.3348 -0.7077
 5974SOL    HW129555   1.535   0.308   2.477  0.8094 -0.3866 -1.4894
 5974SOL    HW229556   1.626   0.201   2.513  1.1189 -0.1553 -1.0605
 5975SOL     OW29557   0.514   4.088  15.707 -0.1209 -0.8549 -0.1087
 5975SOL    HW129558   0.489   4.136  15.786  0.4707 -1.6194  0.5396
 5975SOL    HW229559   0.429   4.076  15.664 -1.0667  1.5527  1.0529
 5976SOL     OW29560   2.032   3.887  17.231 -0.1827 -0.2276  0.4226
 5976SOL    HW129561   2.078   3.847  17.157  0.2999 -0.7937  1.0258
 5976SOL    HW229562   2.020   3.976  17.197 -0.5795 -0.4793 -0.0942
 5977SOL     OW29563   1.378   0.443  15.396  0.1864  0.0753  0.1509
 5977SOL    HW129564   1.382   0.401  15.310  1.6704  0.6574 -0.0827
 5977SOL    HW229565   1.435   0.519  15.383 -0.2702  0.5993  1.2116
 5978SOL     OW29566   0.518   1.251  10.124 -0.2340  0.2780  0.3670
 5978SOL    HW129567   0.595   1.251  10.181  1.2940 -1.0906 -1.7353
 5978SOL    HW229568   0.551   1.298  10.048 -1.1346 -1.7584 -1.2778
 5979SOL     OW29569   2.835   1.271   2.860 -0.0249 -0.0791 -0.2753
 5979SOL    HW129570   2.922   1.303   2.883 -0.2619  1.6806 -1.7708
 5979SOL    HW229571   2.861   1.183   2.835  0.5394  0.4630 -1.6145
 5980SOL     OW29572   1.486   1.561   7.730 -0.1178  0.5021  0.4532
 5980SOL    HW129573   1.477   1.604   7.816 -0.1809  0.4874  0.4545
 5980SOL    HW229574   1.448   1.476   7.754 -1.2798  0.7021 -0.6741
 5981SOL     OW29575   2.449   2.077  11.257  0.4214 -0.0271  0.3935
 5981SOL    HW129576   2.536   2.037  11.262  0.3041 -0.2220  0.8576
 5981SOL    HW229577   2.394   1.999  11.252  0.7292 -0.2542  0.4864
 5982SOL     OW29578   2.176   2.152   5.770  0.1920  0.3291 -0.1763
 5982SOL    HW129579   2.178   2.234   5.720  0.2022  1.6226  1.9728
 5982SOL    HW229580   2.091   2.152   5.814  1.3419 -4.0341  2.0823
 5983SOL     OW29581   3.974   2.282   2.669 -0.1248  0.0161 -0.2435
 5983SOL    HW129582   3.901   2.343   2.677  0.3333  0.6017 -0.5276
 5983SOL    HW229583   4.032   2.302   2.742  1.3456 -1.3171 -1.0539
 5984SOL     OW29584   2.108   1.310  15.014 -0.0993 -0.0202  0.3824
 5984SOL    HW129585   2.187   1.276  15.057 -0.7324  0.1750  1.6951
 5984SOL    HW229586   2.040   1.250  15.047  1.2302 -1.9120 -0.3051
 5985SOL     OW29587   3.903   2.408   7.605 -0.5201 -1.0689 -0.3190
 5985SOL    HW129588   3.972   2.377   7.664  0.4744  0.5522 -0.6229
 5985SOL    HW229589   3.956   2.462   7.546 -2.3880  0.5379 -0.5044
 5986SOL     OW29590   0.118   2.687   2.630 -0.4676 -0.1409  0.3795
 5986SOL    HW129591   0.041   2.666   2.684 -0.9575  1.6347  0.3588
 5986SOL    HW229592   0.152   2.598   2.620  0.0403 -0.2272  3.0494
 5987SOL     OW29593   0.766   0.998   6.355  0.3763  0.1956  0.4631
 5987SOL    HW129594   0.777   0.995   6.450 -0.2404 -1.7587  0.4653
 5987SOL    HW229595   0.860   0.997   6.337  0.1620 -0.4366 -0.6086
 5988SOL     OW29596   2.915   0.764  11.410 -0.0557 -0.4501  0.4007
 5988SOL    HW129597   2.930   0.739  11.501  1.3162  0.0762  0.3115
 5988SOL    HW229598   2.916   0.678  11.367  2.8577 -1.0932  1.7384
 5989SOL     OW29599   2.731   2.707   4.300  0.0842 -0.4714  0.2076
 5989SOL    HW129600   2.686   2.780   4.343  1.3551  1.9457 -2.5247
 5989SOL    HW229601   2.738   2.740   4.210 -0.9035 -0.7967  0.0153
 5990SOL     OW29602   1.650   1.333   5.539  0.0922 -0.3046  0.3135
 5990SOL    HW129603   1.646   1.429   5.533  4.1605 -0.1397  0.5675
 5990SOL    HW229604   1.659   1.295   5.452 -1.6541  1.8810 -0.8344
 5991SOL     OW29605   1.761   0.799   9.276  0.7970  0.0515 -0.3654
 5991SOL    HW129606   1.853   0.778   9.260  1.7970  2.4550  2.3000
 5991SOL    HW229607   1.715   0.759   9.202 -0.9200  1.8041 -0.2291
 5992SOL     OW29608   2.659   3.446   3.825 -0.1036  0.1722  0.3834
 5992SOL    HW129609   2.686   3.386   3.894  1.2259  0.5237  0.1715
 5992SOL    HW229610   2.642   3.524   3.877 -1.3924  0.1138  0.0623
 5993SOL     OW29611   2.130   0.245   5.784 -0.2216  0.9672 -0.6105
 5993SOL    HW129612   2.206   0.270   5.837  0.1784 -0.2997 -0.5828
 5993SOL    HW229613   2.105   0.162   5.826  0.9854 -0.4973 -2.7817
 5994SOL     OW29614   2.698   2.756   5.542  0.0571 -0.4203 -0.3752
 5994SOL    HW129615   2.743   2.840   5.542 -2.4296  0.9017 -1.3337
 5994SOL    HW229616   2.717   2.715   5.626 -0.7945 -2.1397 -1.0233
 5995SOL     OW29617   2.993   3.186   0.385 -0.1975  0.1887 -0.1312
 5995SOL    HW129618   3.002   3.222   0.297 -2.1257  2.4474  0.5876
 5995SOL    HW229619   3.050   3.110   0.379  1.1772  1.3245 -1.1120
 5996SOL     OW29620   1.658   3.877  16.739 -0.5206 -0.0541 -0.2938
 5996SOL    HW129621   1.636   3.785  16.727 -1.8534  0.7298 -3.9568
 5996SOL    HW229622   1.697   3.894  16.653  2.3341  0.8390  1.1530
 5997SOL     OW29623   1.109   3.777   0.239 -0.6777 -0.6275  0.0740
 5997SOL    HW129624   1.090   3.704   0.298  0.7340  0.0328  1.3356
 5997SOL    HW229625   1.182   3.741   0.190  0.5305 -2.9890  3.6260
 5998SOL     OW29626   3.939   1.392   5.399 -0.6049 -0.1228  0.6080
 5998SOL    HW129627   3.865   1.366   5.344 -0.5113 -2.0399  1.3843
 5998SOL    HW229628   3.954   1.484   5.377 -2.7806  0.6592  2.4873
 5999SOL     OW29629   0.485   3.063   6.436  0.3598 -0.5911  0.2853
 5999SOL    HW129630   0.394   3.087   6.455  0.0027 -1.3523 -0.4577
 5999SOL    HW229631   0.470   3.073   6.342  0.8502  0.6549  0.3451
 6000SOL     OW29632   1.563   2.524   2.327 -0.4591  0.3704 -0.4907
 6000SOL    HW129633   1.650   2.505   2.291 -0.8184 -0.8686 -0.6894
 6000SOL    HW229634   1.532   2.442   2.364  0.8081 -1.3922 -3.3239
 6001SOL     OW29635   3.221   3.219   9.129 -0.0589 -0.5026  0.7324
 6001SOL    HW129636   3.145   3.170   9.097 -0.6303  1.4918 -0.9736
 6001SOL    HW229637   3.228   3.190   9.220  0.0907 -1.4872  0.3978
 6002SOL     OW29638   4.403   0.956   2.391  0.2899 -0.0193  0.1501
 6002SOL    HW129639   4.408   1.051   2.403  1.0052 -0.1982  1.2850
 6002SOL    HW229640   4.371   0.952   2.301  1.3690  1.2541 -0.2904
 6003SOL     OW29641   0.729   0.278  12.596 -0.7587  0.4300 -0.0863
 6003SOL    HW129642   0.725   0.333  12.674 -1.8271  1.9235 -1.1926
 6003SOL    HW229643   0.764   0.197  12.633  0.2149  0.5410 -0.7627
 6004SOL     OW29644   0.645   3.185   3.762  0.0365  0.1286  0.1371
 6004SOL    HW129645   0.555   3.156   3.752  0.9573 -2.3302 -1.0378
 6004SOL    HW229646   0.656   3.250   3.693  1.1976  2.2134  2.2593
 6005SOL     OW29647   4.365   0.692   1.884 -0.8735  0.4313  0.3023
 6005SOL    HW129648   4.321   0.637   1.949 -3.6884  1.8270 -0.4217
 6005SOL    HW229649   4.454   0.703   1.917 -1.2194 -0.7448  1.6478
 6006SOL     OW29650   2.343   3.978   7.502  0.0525 -0.8234  0.4385
 6006SOL    HW129651   2.376   4.030   7.429  3.4877 -0.1167  2.4930
 6006SOL    HW229652   2.401   4.016   7.568 -1.2990  1.8724  0.0519
 6007SOL     OW29653   1.875   0.456   7.822 -0.2764 -0.2744 -0.4450
 6007SOL    HW129654   1.785   0.422   7.829  0.1711 -1.3576  0.0131
 6007SOL    HW229655   1.897   0.417   7.738  1.2726 -0.6820  0.1585
 6008SOL     OW29656   2.348   1.583   7.885  0.3088 -0.6042 -0.2424
 6008SOL    HW129657   2.315   1.604   7.972  0.0839 -2.4347  0.1059
 6008SOL    HW229658   2.295   1.647   7.837  2.3189 -0.1388 -1.8774
 6009SOL     OW29659   1.552   4.289   3.512 -0.2326 -0.3081 -0.5781
 6009SOL    HW129660   1.468   4.316   3.550  1.3835  5.3243 -1.0254
 6009SOL    HW229661   1.587   4.236   3.584  1.4328  0.1355 -1.0762
 6010SOL     OW29662   4.448   0.355   6.481  0.1148  0.5651 -0.0090
 6010SOL    HW129663   4.417   0.288   6.542  1.6618  0.9355  1.1934
 6010SOL    HW229664   4.505   0.308   6.421  1.3181 -0.5496  2.0279
 6011SOL     OW29665   0.459   4.649   5.923  0.3769 -0.4147  0.2814
 6011SOL    HW129666   0.369   4.634   5.953  0.5501  0.1896  1.0887
 6011SOL    HW229667   0.457   0.009   5.896  0.3846 -0.3633  0.4578
 6012SOL     OW29668   4.279   4.340   6.806 -0.0512 -0.2170 -0.2113
 6012SOL    HW129669   4.219   4.389   6.750  0.5195  0.0962 -0.5487
 6012SOL    HW229670   4.341   4.407   6.835 -2.2278  2.4047 -1.6515
 6013SOL     OW29671   3.592   3.348   1.435  0.0654 -0.0654  0.4723
 6013SOL    HW129672   3.511   3.367   1.387  0.8855  0.5741 -0.6660
 6013SOL    HW229673   3.659   3.385   1.377  0.1778  0.4805  0.9486
 6014SOL     OW29674   3.728   2.111  12.980 -0.2141  0.1095  0.1908
 6014SOL    HW129675   3.748   2.204  12.972 -0.0103  0.1914  1.5804
 6014SOL    HW229676   3.642   2.109  12.940  0.8012  0.3209 -2.0020
 6015SOL     OW29677   3.831   4.048   2.698  0.0628 -0.2822  0.6569
 6015SOL    HW129678   3.859   3.990   2.627 -0.3966  2.4765 -1.7743
 6015SOL    HW229679   3.914   4.096   2.702 -0.0856 -0.1443  1.8979
 6016SOL     OW29680   2.047   4.587   8.124  0.1542 -0.1271  0.2053
 6016SOL    HW129681   2.117   4.649   8.106  1.3797 -2.0240 -1.5628
 6016SOL    HW229682   2.017   4.577   8.034  1.3727 -0.3884 -0.1665
 6017SOL     OW29683   4.259   1.297   1.620  0.6295 -0.1160 -0.2419
 6017SOL    HW129684   4.280   1.342   1.702 -2.4550 -0.4740  0.7587
 6017SOL    HW229685   4.192   1.241   1.658 -0.3987  1.3533  0.1051
 6018SOL     OW29686   0.019   0.747  11.085  0.1189  0.2027 -0.1499
 6018SOL    HW129687   0.082   0.812  11.117  0.9694 -0.5385 -0.3023
 6018SOL    HW229688   0.014   0.687  11.160 -2.5762 -2.0818 -2.1807
 6019SOL     OW29689   3.406   2.027   3.964  0.0565  0.3903  0.4521
 6019SOL    HW129690   3.317   2.042   3.997  0.0550 -1.4355  1.3009
 6019SOL    HW229691   3.391   1.935   3.941 -0.3906  0.2156  1.4315
 6020SOL     OW29692   0.872   4.364  17.513  0.0417 -0.3208 -0.0485
 6020SOL    HW129693   0.875   4.335  17.422 -1.4999 -0.4897 -0.0473
 6020SOL    HW229694   0.876   4.460  17.520  1.2217 -0.6965  4.6938
 6021SOL     OW29695   0.833   1.238   2.904  0.1313  0.1672  0.3557
 6021SOL    HW129696   0.748   1.266   2.870  0.8973  1.7035 -0.3115
 6021SOL    HW229697   0.882   1.203   2.830 -1.2334  0.7126 -0.8170
 6022SOL     OW29698   3.623   2.372   2.174  0.0347  0.1072  0.1445
 6022SOL    HW129699   3.551   2.436   2.175  0.3710  0.4771  1.5490
 6022SOL    HW229700   3.599   2.322   2.097  2.1159 -0.8617  0.1218
 6023SOL     OW29701   3.455   2.953  15.130 -0.3382 -0.0949  0.3306
 6023SOL    HW129702   3.382   2.922  15.183 -1.1175  0.3886 -0.4728
 6023SOL    HW229703   3.519   2.886  15.154  0.4072  0.2043 -0.8411
 6024SOL     OW29704   3.690   0.216   2.917 -0.4606 -0.4990  0.0605
 6024SOL    HW129705   3.720   0.135   2.875  0.5405 -0.6365  1.0333
 6024SOL    HW229706   3.605   0.232   2.877 -0.9523  1.3116  1.8658
 6025SOL     OW29707   2.966   3.773   1.023 -0.0974 -0.3796 -0.2040
 6025SOL    HW129708   2.893   3.730   0.979 -0.7001  0.3210  0.1058
 6025SOL    HW229709   2.934   3.808   1.107 -1.3004 -1.1486 -0.3372
 6026SOL     OW29710   1.243   3.362   5.417 -0.1299  0.1591 -0.2752
 6026SOL    HW129711   1.195   3.333   5.340  0.3503  0.6847 -0.7737
 6026SOL    HW229712   1.295   3.427   5.370  1.2310 -0.4045  0.4416
 6027SOL     OW29713   2.847   1.344   4.191  0.0498  0.0381 -0.1347
 6027SOL    HW129714   2.942   1.336   4.200  0.3907  1.8896 -2.3685
 6027SOL    HW229715   2.815   1.262   4.231 -0.9799  1.9391  2.9422
 6028SOL     OW29716   0.911   4.240   5.312  0.5503  0.3803 -0.3574
 6028SOL    HW129717   0.907   4.145   5.325 -0.0523  0.5238  0.5176
 6028SOL    HW229718   0.957   4.260   5.394 -2.8614  0.3374  1.5564
 6029SOL     OW29719   3.773   4.727   1.384  0.3928 -0.0716 -0.0424
 6029SOL    HW129720   3.829   0.072   1.381 -2.1203  1.6713 -2.3783
 6029SOL    HW229721   3.826   4.647   1.380  1.3826  0.6139 -0.6602
 6030SOL     OW29722   0.847   3.494   6.941 -0.0302 -0.1578 -0.8053
 6030SOL    HW129723   0.906   3.568   6.954 -1.5960  0.9822 -0.2886
 6030SOL    HW229724   0.772   3.521   6.993  0.3955 -1.2742  0.3821
 6031SOL     OW29725   0.746   4.147   6.639  0.1232 -0.2130 -0.2972
 6031SOL    HW129726   0.737   4.204   6.716  1.9692  0.0849 -0.3059
 6031SOL    HW229727   0.758   4.213   6.571  1.6992 -0.5071 -0.2967
 6032SOL     OW29728   3.892   1.980   9.774  0.3282 -1.0548 -0.3610
 6032SOL    HW129729   3.950   2.008   9.703 -0.9902 -1.1883 -1.4935
 6032SOL    HW229730   3.937   2.015   9.851  0.3286  1.7518 -1.6254
 6033SOL     OW29731   4.234   1.710   3.594 -0.2223  0.0750 -0.4181
 6033SOL    HW129732   4.262   1.619   3.597 -0.0240  0.1725  0.8757
 6033SOL    HW229733   4.158   1.701   3.536 -0.2526 -0.5790 -0.2674
 6034SOL     OW29734   1.411   0.416   3.403  0.3072  0.0991  0.4170
 6034SOL    HW129735   1.440   0.423   3.312  0.0016  3.1975  0.5779
 6034SOL    HW229736   1.463   0.484   3.446  0.6993  0.4519 -0.6100
 6035SOL     OW29737   1.114   1.544   4.566  0.1041  0.4383 -0.0657
 6035SOL    HW129738   1.182   1.608   4.543  0.7998  0.1615  1.1589
 6035SOL    HW229739   1.130   1.480   4.497 -3.2471  2.0253 -2.3388
 6036SOL     OW29740   2.275   2.765  13.278 -0.1219  0.1781 -0.4914
 6036SOL    HW129741   2.197   2.721  13.246 -0.2622  0.4568 -0.5270
 6036SOL    HW229742   2.293   2.833  13.213 -0.3402  0.8513  0.1618
 6037SOL     OW29743   3.223   3.595   3.554 -0.6876  0.5797 -0.3248
 6037SOL    HW129744   3.221   3.690   3.567  0.3508  0.4929  0.5022
 6037SOL    HW229745   3.162   3.567   3.622 -1.3795 -1.2064 -1.6821
 6038SOL     OW29746   1.464   2.220   6.531 -0.7075  0.4688 -0.3047
 6038SOL    HW129747   1.538   2.264   6.573  0.7897 -1.7040 -0.6650
 6038SOL    HW229748   1.410   2.298   6.543 -0.5556  0.4259  0.6294
 6039SOL     OW29749   1.930   0.807   6.515  0.1518  0.1420 -0.6751
 6039SOL    HW129750   1.874   0.743   6.557 -0.1393  0.1536 -1.0474
 6039SOL    HW229751   1.907   0.887   6.562  3.0406 -0.1042  1.1792
 6040SOL     OW29752   3.016   1.271   6.117  0.0228 -0.7490  0.0807
 6040SOL    HW129753   3.069   1.220   6.179  1.0397  0.1935 -0.0181
 6040SOL    HW229754   3.023   1.354   6.165  0.3411 -0.0511 -1.1909
 6041SOL     OW29755   2.367   4.001  13.486 -0.4187 -0.0896  0.1073
 6041SOL    HW129756   2.401   4.072  13.432 -0.2448  1.3472  2.0804
 6041SOL    HW229757   2.375   4.050  13.568  0.2609 -0.4677  0.2729
 6042SOL     OW29758   3.035   0.381   4.075  0.2792  0.6696 -0.3051
 6042SOL    HW129759   3.076   0.309   4.123 -1.0744 -0.8196 -1.3506
 6042SOL    HW229760   3.070   0.360   3.988 -1.3906 -0.8165 -0.6304
 6043SOL     OW29761   1.068   3.317   5.178 -0.0745  0.0618  0.3532
 6043SOL    HW129762   1.079   3.393   5.121 -1.1610  0.4154  0.6138
 6043SOL    HW229763   0.973   3.310   5.170 -0.1953  0.5462  1.3416
 6044SOL     OW29764   1.199   3.739  16.631 -0.1580 -0.1185 -0.6114
 6044SOL    HW129765   1.255   3.782  16.566  1.4711  0.0557  0.8887
 6044SOL    HW229766   1.174   3.821  16.674  2.0181  0.2787 -0.0635
 6045SOL     OW29767   3.568   4.122  15.364 -0.4830 -0.5457  0.4260
 6045SOL    HW129768   3.533   4.128  15.275 -2.0648  0.3518  1.1118
 6045SOL    HW229769   3.497   4.076  15.410  0.5742  0.3842  2.9856
 6046SOL     OW29770   1.584   3.820   7.280  0.0285 -0.4932  0.3804
 6046SOL    HW129771   1.648   3.791   7.345  0.6637 -0.0323 -0.0416
 6046SOL    HW229772   1.577   3.745   7.220  0.0571 -2.6779  3.0710
 6047SOL     OW29773   0.584   4.121   6.027 -0.2831  0.3305 -0.8782
 6047SOL    HW129774   0.500   4.076   6.014  0.8511 -1.9537 -0.3425
 6047SOL    HW229775   0.547   4.181   6.092  0.6629  0.2645 -0.2879
 6048SOL     OW29776   0.528   3.417   2.154 -0.1333  0.3141 -0.1164
 6048SOL    HW129777   0.538   3.389   2.063  1.1685 -3.0802  1.0429
 6048SOL    HW229778   0.522   3.331   2.196 -1.9565 -0.1939 -1.3925
 6049SOL     OW29779   4.260   0.496   1.137 -0.2047 -0.1071 -0.0870
 6049SOL    HW129780   4.308   0.426   1.093  2.1150 -0.1547  2.5016
 6049SOL    HW229781   4.314   0.575   1.140 -0.2495 -0.0594 -0.5968
 6050SOL     OW29782   3.221   1.440   2.783  0.3704  0.0248  0.4765
 6050SOL    HW129783   3.296   1.439   2.842  1.0363 -0.5828 -0.3643
 6050SOL    HW229784   3.165   1.379   2.831 -0.0630  1.0925  1.3169
 6051SOL     OW29785   2.212   1.380   7.774 -0.2086  1.0387  0.2439
 6051SOL    HW129786   2.266   1.448   7.815  0.0639 -0.1126  1.8095
 6051SOL    HW229787   2.266   1.330   7.714 -0.3561  2.8748 -1.4202
 6052SOL     OW29788   4.481   2.989  12.015  0.1962 -0.4348  0.2231
 6052SOL    HW129789   4.482   3.077  11.979 -0.3251 -0.8761 -0.8820
 6052SOL    HW229790   4.572   2.960  12.015 -0.0032 -1.0662  0.7563
 6053SOL     OW29791   2.292   0.705  13.790  0.0429  0.1661  0.1807
 6053SOL    HW129792   2.200   0.718  13.769  0.1506 -0.1731 -0.5335
 6053SOL    HW229793   2.294   0.620  13.834 -0.9068 -0.5674 -1.2078
 6054SOL     OW29794   2.988   1.003   6.418 -0.7865  0.1086  0.2345
 6054SOL    HW129795   2.926   1.071   6.392 -2.0503 -1.5391 -1.0784
 6054SOL    HW229796   2.931   0.928   6.400  0.3730 -0.7199  0.0535
 6055SOL     OW29797   1.490   0.298  11.956  0.3117  0.1377 -0.3277
 6055SOL    HW129798   1.543   0.252  12.021 -1.3434  1.3736  1.8679
 6055SOL    HW229799   1.479   0.225  11.894  1.5934 -1.0376  0.8131
 6056SOL     OW29800   0.665   0.642   4.236  0.0981 -0.2102  0.1723
 6056SOL    HW129801   0.660   0.734   4.262  0.7359 -0.3950  0.9729
 6056SOL    HW229802   0.679   0.604   4.323 -0.3281  0.0806  0.3701
 6057SOL     OW29803   0.602   2.797   5.687 -0.3574  0.2133 -0.3672
 6057SOL    HW129804   0.652   2.746   5.751 -0.8043 -0.5725 -0.6504
 6057SOL    HW229805   0.654   2.777   5.609 -0.7715  2.4255 -1.1955
 6058SOL     OW29806   0.611   0.064   0.082  0.0378  0.9935 -0.1776
 6058SOL    HW129807   0.579   0.025   0.000  0.6225 -1.5081  0.7670
 6058SOL    HW229808   0.579   0.002   0.147 -1.6168  1.3277 -0.6861
 6059SOL     OW29809   0.507   1.218   6.557 -0.1544 -0.0136  0.0805
 6059SOL    HW129810   0.530   1.127   6.538 -1.7537 -0.2395 -0.7764
 6059SOL    HW229811   0.557   1.268   6.492 -2.6680  0.9550 -1.0715
 6060SOL     OW29812   2.989   1.628   8.207 -0.0602 -0.1324  0.0561
 6060SOL    HW129813   3.067   1.641   8.261 -0.1908  0.1386  0.1776
 6060SOL    HW229814   3.009   1.562   8.141 -0.9526  1.8294 -2.1415
 6061SOL     OW29815   1.194   3.055   5.221  0.1933  0.3692 -0.0119
 6061SOL    HW129816   1.142   2.999   5.163 -0.0112  1.1006 -0.5314
 6061SOL    HW229817   1.166   3.144   5.199  1.2206 -0.2142 -3.5471
 6062SOL     OW29818   3.228   4.231   9.517  0.3284 -0.2963  0.0128
 6062SOL    HW129819   3.156   4.267   9.465  1.3993  1.2363 -0.4110
 6062SOL    HW229820   3.292   4.204   9.452  1.5593  1.2081  0.6016
 6063SOL     OW29821   3.253   2.611   3.558 -0.6266  0.3555 -0.3241
 6063SOL    HW129822   3.277   2.598   3.467  1.7234 -0.0549  0.3584
 6063SOL    HW229823   3.337   2.614   3.604  0.3677  1.2948 -2.2225
 6064SOL     OW29824   0.121   1.634  14.676 -0.8839  0.0203  0.3225
 6064SOL    HW129825   0.067   1.589  14.741  1.6625  0.0939  2.4685
 6064SOL    HW229826   0.119   1.574  14.601  0.1173 -1.8011  1.7701
 6065SOL     OW29827   3.904   2.419  11.865 -0.5064  0.1143 -0.2879
 6065SOL    HW129828   3.818   2.455  11.885 -0.4691  0.1336 -0.1646
 6065SOL    HW229829   3.932   2.481  11.798 -0.8035  1.4159  0.8003
 6066SOL     OW29830   4.233   1.172   1.218  0.1660  0.4412  0.4069
 6066SOL    HW129831   4.222   1.088   1.174  1.3118  0.3438  0.2904
 6066SOL    HW229832   4.304   1.158   1.281  1.7346  0.7476 -1.2636
 6067SOL     OW29833   2.306   1.722   6.571  0.0915 -0.2722 -0.5538
 6067SOL    HW129834   2.236   1.662   6.544 -0.1038 -1.2068  2.0530
 6067SOL    HW229835   2.305   1.790   6.504  0.0534 -1.3945 -1.7048
 6068SOL     OW29836   2.500   3.004   5.656 -0.1748 -0.2829 -0.6309
 6068SOL    HW129837   2.499   2.938   5.725  0.2729 -0.2280 -0.5755
 6068SOL    HW229838   2.460   2.957   5.582 -1.4166 -0.9544  0.4582
 6069SOL     OW29839   0.219   3.022   1.232  0.5179 -1.0328 -0.0262
 6069SOL    HW129840   0.183   2.936   1.210 -0.8200 -0.7605  1.1139
 6069SOL    HW229841   0.138   3.073   1.224 -0.4106 -2.4693  0.2804
 6070SOL     OW29842   0.164   2.323   6.891 -0.2661 -0.1910  0.0060
 6070SOL    HW129843   0.214   2.359   6.964 -0.3841  0.5445 -0.2735
 6070SOL    HW229844   0.099   2.285   6.950 -0.1451 -2.0604 -1.0692
 6071SOL     OW29845   1.191   1.378   6.832  0.1345  0.3243  0.0573
 6071SOL    HW129846   1.173   1.454   6.887 -2.6438 -0.9818  0.9587
 6071SOL    HW229847   1.237   1.427   6.764 -0.1242  0.1754 -0.2289
 6072SOL     OW29848   4.704   4.474   4.011  0.5510 -0.5389  0.5778
 6072SOL    HW129849   4.641   4.476   3.939  0.3917  0.5153  0.7475
 6072SOL    HW229850   4.700   4.382   4.035  1.0232 -0.4359  1.0523
 6073SOL     OW29851   4.696   1.169   8.237  0.2031  0.0578 -0.8797
 6073SOL    HW129852   4.674   1.241   8.297 -1.8921 -0.7630 -0.6421
 6073SOL    HW229853   0.011   1.106   8.291  1.3565  1.5291 -0.2010
 6074SOL     OW29854   2.323   1.872   1.003  0.3522  0.4322  0.3935
 6074SOL    HW129855   2.353   1.935   0.938  3.5357 -0.9366  0.5452
 6074SOL    HW229856   2.273   1.930   1.061 -0.3691 -0.1516  0.3634
 6075SOL     OW29857   1.196   4.262   8.037  0.1660  0.6092  0.4163
 6075SOL    HW129858   1.264   4.290   7.976  2.0187  0.3330  2.3574
 6075SOL    HW229859   1.250   4.255   8.116  0.5641 -1.0164  0.0100
 6076SOL     OW29860   4.210   2.424  11.160 -0.2907 -0.3118 -0.9291
 6076SOL    HW129861   4.239   2.513  11.178  1.9552 -1.5110  1.3030
 6076SOL    HW229862   4.122   2.426  11.197 -0.2407 -0.3532 -0.8071
 6077SOL     OW29863   1.825   0.733   9.831 -0.5651 -0.0833  0.5956
 6077SOL    HW129864   1.820   0.721   9.926 -1.1290 -2.5637  0.2482
 6077SOL    HW229865   1.881   0.811   9.829 -2.2899  1.2547  3.4845
 6078SOL     OW29866   1.941   4.556  12.357  0.5097 -0.1919  0.0556
 6078SOL    HW129867   2.020   4.561  12.305 -0.7601  0.8973 -1.7872
 6078SOL    HW229868   1.875   4.543  12.289  0.5112 -0.7879  0.1680
 6079SOL     OW29869   0.940   0.668  17.301 -0.2179  0.1908 -0.0051
 6079SOL    HW129870   0.970   0.756  17.279  1.5323 -0.1666  1.0402
 6079SOL    HW229871   0.985   0.609  17.241  2.0852  2.0396 -0.0585
 6080SOL     OW29872   2.666   1.981   8.697 -0.3958 -0.1956 -0.0410
 6080SOL    HW129873   2.687   1.897   8.738 -0.3499 -1.1134 -1.9891
 6080SOL    HW229874   2.729   2.042   8.737  0.4909 -0.4911 -0.9900
 6081SOL     OW29875   0.113   3.702  10.172 -0.2920  0.2362  0.6083
 6081SOL    HW129876   0.193   3.744  10.204 -0.2115  1.7267 -1.5594
 6081SOL    HW229877   0.060   3.724  10.249  0.3682 -1.0618  1.4543
 6082SOL     OW29878   4.673   3.176   8.364  0.5661  0.1736 -0.0709
 6082SOL    HW129879   4.578   3.170   8.371  0.4645  2.1256  0.1456
 6082SOL    HW229880   4.713   3.104   8.412  0.3653  0.9482  1.2529
 6083SOL     OW29881   0.202   0.700   7.219  0.0679  0.1999  0.0046
 6083SOL    HW129882   0.138   0.755   7.265 -1.3643 -1.5864  0.1146
 6083SOL    HW229883   0.256   0.768   7.177  1.2632  0.4533  1.9379
 6084SOL     OW29884   1.980   3.123  16.877  0.2093 -0.5351  0.0412
 6084SOL    HW129885   1.939   3.069  16.809  2.2876  0.9517 -2.3809
 6084SOL    HW229886   2.008   3.208  16.844 -0.6814 -0.5396 -0.7463
 6085SOL     OW29887   0.754   1.907  16.280 -0.2729 -0.3852 -0.0234
 6085SOL    HW129888   0.797   1.826  16.251 -0.0726 -1.5357  3.4847
 6085SOL    HW229889   0.735   1.869  16.366  0.3755  2.0130  1.1941
 6086SOL     OW29890   1.244   4.194   4.370  0.1571  0.4624  0.4402
 6086SOL    HW129891   1.335   4.219   4.385  0.2083  0.9917 -0.7358
 6086SOL    HW229892   1.210   4.281   4.392 -1.1861 -0.1017  0.5961
 6087SOL     OW29893   2.505   4.531   6.711 -0.0150 -0.5222  0.9235
 6087SOL    HW129894   2.431   4.520   6.651  0.3917 -0.5388  0.4272
 6087SOL    HW229895   2.525   4.621   6.685 -0.8554 -1.0678 -1.6349
 6088SOL     OW29896   2.484   2.406  13.753  0.2898 -0.1853  0.4157
 6088SOL    HW129897   2.448   2.483  13.710  4.0068  1.1446 -0.2953
 6088SOL    HW229898   2.460   2.415  13.845  1.0953  1.0549  0.5078
 6089SOL     OW29899   0.110   3.278   5.483  0.0471 -0.3463 -0.0088
 6089SOL    HW129900   0.123   3.330   5.404 -0.6544  1.8348  1.2954
 6089SOL    HW229901   0.147   3.193   5.460 -1.4604 -0.7300 -1.0376
 6090SOL     OW29902   4.305   1.032  11.851  0.2214 -0.0124  0.1840
 6090SOL    HW129903   4.317   1.100  11.786  0.6286  0.5864  0.8849
 6090SOL    HW229904   4.238   1.081  11.899 -2.1142 -1.1836 -1.8353
 6091SOL     OW29905   3.082   1.624   8.513 -0.0144 -0.2111  0.3571
 6091SOL    HW129906   3.079   1.530   8.493  2.7816  0.0400 -1.3633
 6091SOL    HW229907   2.994   1.651   8.487 -0.4017 -0.9300  0.9336
 6092SOL     OW29908   1.427   2.085  17.360  0.4133  0.2899 -0.5744
 6092SOL    HW129909   1.452   2.178  17.363 -3.0913  1.1929  0.8077
 6092SOL    HW229910   1.497   2.049  17.415 -0.1980 -1.6530 -1.0852
 6093SOL     OW29911   0.764   1.846   3.969  0.1326  0.0469 -0.1851
 6093SOL    HW129912   0.722   1.760   3.962 -1.9625  1.0026  0.7565
 6093SOL    HW229913   0.846   1.832   4.016  1.2840  1.3582 -1.8074
 6094SOL     OW29914   4.540   1.084   7.386  0.0024 -0.1516 -0.4484
 6094SOL    HW129915   4.512   1.106   7.297  0.8837  1.3633 -0.3556
 6094SOL    HW229916   4.615   1.144   7.390 -2.2627  2.6631 -0.8033
 6095SOL     OW29917   0.074   1.879   4.924  0.7405 -0.0687 -0.3979
 6095SOL    HW129918   0.056   1.960   4.971  0.2587 -0.9505  0.9447
 6095SOL    HW229919   0.146   1.848   4.979 -0.8222 -0.9039  1.1697
 6096SOL     OW29920   4.698   1.979   7.518  0.2458 -0.0400  0.2809
 6096SOL    HW129921   4.684   1.896   7.565  0.7989 -1.5662 -2.2115
 6096SOL    HW229922   0.049   1.960   7.475  0.9071 -1.4761  2.1607
 6097SOL     OW29923   3.204   1.772   8.710 -0.1445  0.3742 -0.0290
 6097SOL    HW129924   3.192   1.732   8.624  1.6582  0.5949 -0.3851
 6097SOL    HW229925   3.286   1.731   8.739 -1.0216 -1.3555  0.0359
 6098SOL     OW29926   1.926   1.460   4.970  0.3373 -0.0274  0.1738
 6098SOL    HW129927   2.003   1.518   4.971 -1.0553  1.7957  2.1675
 6098SOL    HW229928   1.883   1.476   4.886  1.9486  0.7468 -0.5125
 6099SOL     OW29929   3.605   3.149   7.601  0.0441 -0.0783 -0.8422
 6099SOL    HW129930   3.639   3.238   7.603 -2.5900  0.9566 -2.8394
 6099SOL    HW229931   3.566   3.144   7.688  1.1567  1.1338 -0.2859
 6100SOL     OW29932   4.107   4.477   3.879 -0.1998  0.0735  0.1958
 6100SOL    HW129933   4.022   4.516   3.901  0.5952  2.7603 -1.5764
 6100SOL    HW229934   4.127   4.527   3.800 -5.0473  1.1782 -0.3482
 6101SOL     OW29935   1.210   1.036   6.694  0.0298  0.5524  0.0458
 6101SOL    HW129936   1.235   0.975   6.624 -2.3607 -0.0621 -0.2916
 6101SOL    HW229937   1.141   1.093   6.660  1.3404  0.4864 -2.7492
 6102SOL     OW29938   3.487   1.173  16.356 -0.2101  0.6754 -0.4777
 6102SOL    HW129939   3.519   1.125  16.280 -1.0388  0.3839 -0.6502
 6102SOL    HW229940   3.535   1.127  16.425 -1.8803 -1.8816 -1.0142
 6103SOL     OW29941   1.202   2.746  12.334  0.1236 -0.0059  0.0867
 6103SOL    HW129942   1.195   2.737  12.429  0.9813 -1.5835  0.0036
 6103SOL    HW229943   1.174   2.663  12.296 -1.5723  0.0858  1.1506
 6104SOL     OW29944   4.362   0.259   4.473 -0.4532 -0.4737 -0.4472
 6104SOL    HW129945   4.293   0.218   4.421 -0.6027 -1.4070  0.4844
 6104SOL    HW229946   4.413   0.182   4.498 -1.0162 -0.8966 -0.5903
 6105SOL     OW29947   3.632   2.800  10.458  0.4999  0.0396  0.0541
 6105SOL    HW129948   3.557   2.860  10.454  0.0483 -0.5142  0.1803
 6105SOL    HW229949   3.673   2.805  10.372 -0.5271 -3.0447 -0.6158
 6106SOL     OW29950   4.303   4.327   8.679 -0.2891 -0.2117  0.0708
 6106SOL    HW129951   4.248   4.382   8.735 -1.3303 -2.2863  1.0805
 6106SOL    HW229952   4.328   4.263   8.746 -1.7878  0.5139  1.3335
 6107SOL     OW29953   2.559   4.176   7.380 -0.2694 -0.6040 -0.0311
 6107SOL    HW129954   2.634   4.132   7.341 -0.6944  0.7559 -2.3856
 6107SOL    HW229955   2.552   4.241   7.310 -1.7896  0.7506  1.3465
 6108SOL     OW29956   2.775   2.918   3.344  0.1935 -0.7327 -0.3503
 6108SOL    HW129957   2.796   2.896   3.253 -0.4653  0.9509 -0.9104
 6108SOL    HW229958   2.689   2.957   3.328 -0.1907 -2.1391 -1.7616
 6109SOL     OW29959   2.058   0.396   1.883  0.2363  0.0569  0.0980
 6109SOL    HW129960   2.023   0.373   1.797  1.9391 -1.0193 -0.2827
 6109SOL    HW229961   2.035   0.489   1.874 -1.5696 -0.4781 -0.9749
 6110SOL     OW29962   3.740   0.299  10.924 -0.0547 -0.3732 -0.6179
 6110SOL    HW129963   3.818   0.333  10.968  0.3960 -0.2423 -1.5072
 6110SOL    HW229964   3.770   0.286  10.834  0.1591 -4.0816 -0.0294
 6111SOL     OW29965   0.061   3.628  15.073  0.2125  0.3061 -0.5026
 6111SOL    HW129966   0.150   3.639  15.040  0.6994 -1.5441  0.2414
 6111SOL    HW229967   0.080   3.556  15.132  0.2556  0.8569  0.1580
 6112SOL     OW29968   0.542   3.072   2.507 -0.7289  0.1079  0.0786
 6112SOL    HW129969   0.620   3.123   2.529 -0.7143 -0.6901  1.9127
 6112SOL    HW229970   0.490   3.133   2.455  0.9892  2.3782  1.0263
 6113SOL     OW29971   2.729   2.558   5.346 -0.6169 -0.1408 -0.5778
 6113SOL    HW129972   2.727   2.643   5.389  0.2630 -0.0694 -0.6771
 6113SOL    HW229973   2.746   2.588   5.257  2.6399 -0.7705 -0.1595
 6114SOL     OW29974   3.879   4.275   5.719  0.2419  0.0125  0.0311
 6114SOL    HW129975   3.870   4.340   5.649  0.6895 -0.5164 -0.5206
 6114SOL    HW229976   3.792   4.259   5.753 -0.1399 -0.4589 -1.1774
 6115SOL     OW29977   4.683   3.476  13.416  0.3722  0.5872  0.5058
 6115SOL    HW129978   4.591   3.495  13.437  0.3387 -0.4213  1.2841
 6115SOL    HW229979   4.671   3.416  13.342  0.5079 -1.2079  1.9222
 6116SOL     OW29980   2.206   1.914   2.711  0.0911  0.8672  0.2181
 6116SOL    HW129981   2.165   1.977   2.770  1.0178 -0.5957  2.4766
 6116SOL    HW229982   2.278   1.970   2.682 -0.4047  1.6315  0.4750
 6117SOL     OW29983   2.068   2.208   6.349  0.1766  0.2476  0.5856
 6117SOL    HW129984   1.995   2.177   6.296  0.0947 -2.5277  2.2902
 6117SOL    HW229985   2.099   2.280   6.295 -0.8295 -0.4969 -0.9724
 6118SOL     OW29986   4.254   4.378   8.384 -0.2564  0.1569  0.0131
 6118SOL    HW129987   4.216   4.354   8.468  1.0347 -0.7092  0.3481
 6118SOL    HW229988   4.335   4.327   8.387 -0.4545 -0.2399 -1.1443
 6119SOL     OW29989   3.670   1.950   7.411  0.0022  1.0412  0.3175
 6119SOL    HW129990   3.681   1.981   7.501  0.0983 -0.2057  0.7473
 6119SOL    HW229991   3.757   1.911   7.407  0.3422  1.9962 -1.6151
 6120SOL     OW29992   0.471   2.262  11.426 -0.6231 -0.6755  0.3517
 6120SOL    HW129993   0.543   2.324  11.420 -2.1084  1.0720  0.6200
 6120SOL    HW229994   0.443   2.282  11.515  0.2974  0.2191  0.4306
 6121SOL     OW29995   4.281   4.184   7.819 -0.2571 -0.0938  0.4030
 6121SOL    HW129996   4.375   4.198   7.807 -0.0148 -2.2711 -0.2474
 6121SOL    HW229997   4.251   4.131   7.745 -1.0715  0.2623  0.4757
 6122SOL     OW29998   0.542   0.511  15.801 -0.0571  0.1283 -0.1649
 6122SOL    HW129999   0.482   0.449  15.844  0.3985  0.2725  0.6790
 6122SOL    HW230000   0.565   0.472  15.717 -1.0902 -1.5231  0.3006
 6123SOL     OW30001   1.633   3.899   3.503 -0.4779 -0.0655 -0.0704
 6123SOL    HW130002   1.668   3.968   3.448  1.9885 -0.9669  0.3485
 6123SOL    HW230003   1.630   3.954   3.582  0.1420 -0.2509  0.0875
 6124SOL     OW30004   3.792   2.906   9.284  0.0469  0.2277 -0.2526
 6124SOL    HW130005   3.737   2.925   9.207  4.5686 -0.5813 -3.6506
 6124SOL    HW230006   3.800   2.813   9.264 -0.7767  0.0080  0.4305
 6125SOL     OW30007   2.170   1.114   6.608 -0.2668 -0.2952  0.8159
 6125SOL    HW130008   2.117   1.192   6.592  0.1981  0.1633  1.5101
 6125SOL    HW230009   2.256   1.149   6.631 -0.6072  1.3295 -0.4241
 6126SOL     OW30010   0.392   3.976   5.547  0.4999 -0.1902 -0.0861
 6126SOL    HW130011   0.440   4.057   5.566 -0.3848  0.4846 -0.7445
 6126SOL    HW230012   0.408   3.925   5.627  0.4680  0.0496  0.0734
 6127SOL     OW30013   3.433   1.683   8.788 -0.0949  0.6000 -0.0261
 6127SOL    HW130014   3.522   1.718   8.781  0.6470 -1.2174  0.2451
 6127SOL    HW230015   3.442   1.589   8.802  0.6570  0.8374  1.0432
 6128SOL     OW30016   1.325   1.283   9.881  0.1326  0.3456  0.4704
 6128SOL    HW130017   1.278   1.199   9.884  3.0107 -1.2426  0.6275
 6128SOL    HW230018   1.319   1.306   9.789  0.4589  0.3814  0.4593
 6129SOL     OW30019   3.822   0.201   7.988 -0.3921 -0.3959  0.2030
 6129SOL    HW130020   3.848   0.282   8.030 -0.8454  0.3147 -0.8734
 6129SOL    HW230021   3.822   0.221   7.894 -0.1920 -3.2249 -0.4000
 6130SOL     OW30022   3.153   0.252  16.286  0.4018 -0.1435 -0.2142
 6130SOL    HW130023   3.129   0.249  16.193  1.6642 -1.1434 -0.5038
 6130SOL    HW230024   3.098   0.325  16.314  3.1908  2.0503 -0.4803
 6131SOL     OW30025   0.144   3.099  10.113  0.0020  0.0871 -0.4531
 6131SOL    HW130026   0.121   3.030  10.175  0.2718  0.0062 -0.4432
 6131SOL    HW230027   0.144   3.177  10.167 -1.7745  0.6772 -1.3092
 6132SOL     OW30028   0.965   0.805  13.657  0.1986  0.1938 -0.2707
 6132SOL    HW130029   0.944   0.834  13.568 -0.4847  1.6243  0.3604
 6132SOL    HW230030   0.930   0.877  13.709 -0.1303 -0.4973  0.4602
 6133SOL     OW30031   2.091   3.042   1.936 -0.0868  0.5793  0.3575
 6133SOL    HW130032   2.108   2.955   1.972 -1.8310 -0.2382 -0.8082
 6133SOL    HW230033   2.154   3.088   1.991  0.3837  1.6084 -1.0524
 6134SOL     OW30034   4.577   0.498   8.510 -0.0896  0.2764  0.4914
 6134SOL    HW130035   4.498   0.528   8.555 -0.8061 -3.1162  1.5689
 6134SOL    HW230036   4.605   0.420   8.558 -0.4443 -0.2687 -0.1753
 6135SOL     OW30037   2.947   2.959   2.836  0.2675  0.0369  0.0085
 6135SOL    HW130038   2.962   3.031   2.897  0.7062 -0.5568  0.6025
 6135SOL    HW230039   2.890   2.989   2.766  2.0881 -0.0958 -1.5287
 6136SOL     OW30040   0.926   3.247   3.655 -0.0113 -0.1271  0.1169
 6136SOL    HW130041   0.947   3.212   3.742 -0.0483 -0.9410 -0.1986
 6136SOL    HW230042   0.977   3.186   3.601 -0.1119 -0.8694  0.8408
 6137SOL     OW30043   3.143   3.619   5.632  0.0632  0.0184 -0.1890
 6137SOL    HW130044   3.156   3.693   5.573  0.5815 -0.5655 -0.7991
 6137SOL    HW230045   3.147   3.543   5.574  0.7432 -0.6964  0.7794
 6138SOL     OW30046   3.302   0.844   2.682 -0.1382 -0.3335  0.1474
 6138SOL    HW130047   3.256   0.895   2.615 -1.0120 -1.3561 -0.0475
 6138SOL    HW230048   3.247   0.849   2.760 -0.8446 -0.4788 -0.3371
 6139SOL     OW30049   1.774   0.043   4.510  0.2911 -0.5449  0.1012
 6139SOL    HW130050   1.767   0.052   4.605 -2.0820  0.6390 -0.2105
 6139SOL    HW230051   1.850   0.099   4.493  0.4779 -1.3952 -1.9176
 6140SOL     OW30052   4.374   1.153  10.183 -0.3477 -0.3145  0.2767
 6140SOL    HW130053   4.305   1.201  10.137 -0.8243  0.7278  2.0805
 6140SOL    HW230054   4.330   1.070  10.199 -1.4337  0.4752  1.3715
 6141SOL     OW30055   0.955   0.492   8.584  0.0105 -0.1630  0.0552
 6141SOL    HW130056   0.870   0.531   8.563 -0.3408 -1.1263 -0.3284
 6141SOL    HW230057   0.954   0.504   8.679 -1.3109 -0.6803  0.1249
 6142SOL     OW30058   2.662   1.175   2.462  0.1039  0.9216 -0.3792
 6142SOL    HW130059   2.701   1.236   2.523 -1.0445  1.4947 -0.2205
 6142SOL    HW230060   2.587   1.230   2.438  0.0446  0.9834 -0.0535
 6143SOL     OW30061   2.302   4.510   7.764  0.4747 -0.2901 -0.2766
 6143SOL    HW130062   2.306   4.586   7.822 -0.0096 -0.5115  0.0548
 6143SOL    HW230063   2.208   4.491   7.767  0.2727  0.6534 -0.6656
 6144SOL     OW30064   4.133   2.107   5.568  0.5622  0.5065  0.5458
 6144SOL    HW130065   4.132   2.013   5.549  0.2352  0.5148  0.5231
 6144SOL    HW230066   4.075   2.122   5.642  0.2412  0.1223  0.3745
 6145SOL     OW30067   2.118   2.671   2.313 -0.5710  0.2485  0.6013
 6145SOL    HW130068   2.131   2.754   2.359 -1.4650  0.5519  0.3131
 6145SOL    HW230069   2.206   2.635   2.307 -0.5793 -0.4327  4.7599
 6146SOL     OW30070   3.218   4.477   4.388 -0.1155 -0.5510 -0.0258
 6146SOL    HW130071   3.297   4.451   4.436 -0.7436  0.5797  1.6284
 6146SOL    HW230072   3.201   4.564   4.426  0.7217 -0.4954  0.2183
 6147SOL     OW30073   4.681   0.414   5.126 -0.3029  0.1349  0.4806
 6147SOL    HW130074   4.614   0.370   5.074 -0.7064  1.6874 -0.3134
 6147SOL    HW230075   4.671   0.363   5.206 -0.0106 -0.9530 -0.1736
 6148SOL     OW30076   2.148   0.461   5.343 -0.1908 -0.6062  0.2216
 6148SOL    HW130077   2.216   0.490   5.404  0.9715 -0.2478 -1.2570
 6148SOL    HW230078   2.081   0.529   5.338  0.1496 -0.1179  2.4738
 6149SOL     OW30079   2.300   4.572   9.903 -0.3467  0.5372 -0.3009
 6149SOL    HW130080   2.275   4.621   9.825  1.6253 -0.6979 -1.7321
 6149SOL    HW230081   2.320   4.485   9.867 -0.2037  0.3384  0.2610
 6150SOL     OW30082   0.444   3.299   5.308 -0.0778  0.0839 -0.5708
 6150SOL    HW130083   0.486   3.385   5.304 -4.4271  2.2327 -0.0495
 6150SOL    HW230084   0.352   3.320   5.324 -0.2366 -1.5549  0.7398
 6151SOL     OW30085   3.860   0.067   2.771  0.6817  0.2420 -0.0267
 6151SOL    HW130086   3.917   0.136   2.805  0.5576  0.4961 -0.3375
 6151SOL    HW230087   3.836   0.103   2.686  1.1016 -0.8211 -0.5972
 6152SOL     OW30088   3.265   1.695   7.170 -0.3644 -0.6423 -0.0399
 6152SOL    HW130089   3.242   1.611   7.130  1.1013 -1.9965  1.9250
 6152SOL    HW230090   3.219   1.683   7.253 -0.5908 -0.9957 -0.2169
 6153SOL     OW30091   2.418   2.216   7.442  0.2273  0.3706  0.1765
 6153SOL    HW130092   2.509   2.225   7.470  0.1134 -1.1055  0.9980
 6153SOL    HW230093   2.411   2.123   7.424 -0.6801  0.0036  2.4329
 6154SOL     OW30094   1.437   0.899  12.884 -0.0245  0.2045 -0.0616
 6154SOL    HW130095   1.459   0.828  12.945  0.6082  0.7999  0.3987
 6154SOL    HW230096   1.486   0.880  12.804  0.4313  1.2327 -0.0258
 6155SOL     OW30097   0.088   0.072   6.573 -0.1768 -0.4122  0.0138
 6155SOL    HW130098   0.156   0.004   6.576  0.9652  0.6899 -1.3128
 6155SOL    HW230099   0.103   0.118   6.655  0.2862 -2.9925  1.3945
 6156SOL     OW30100   0.811   3.896   4.133 -0.4605 -0.5661  0.2767
 6156SOL    HW130101   0.852   3.961   4.190 -0.7687 -0.0196 -0.1218
 6156SOL    HW230102   0.880   3.831   4.124  1.5401  1.4117  1.2484
 6157SOL     OW30103   3.430   2.226  11.438  0.3219  0.1529 -0.1843
 6157SOL    HW130104   3.425   2.313  11.398  2.6390  1.3799  2.2316
 6157SOL    HW230105   3.499   2.187  11.386 -1.0959 -3.1356  0.4263
 6158SOL     OW30106   3.981   0.040   2.114 -0.3108 -0.0258  0.5599
 6158SOL    HW130107   3.930   0.047   2.194  1.1948  2.0703  1.3286
 6158SOL    HW230108   3.913   0.066   2.052 -0.3796 -0.9959  0.2272
 6159SOL     OW30109   4.729   2.416   8.206  0.4905  0.8470  0.4788
 6159SOL    HW130110   0.043   2.421   8.122 -1.4236  0.8032 -0.5767
 6159SOL    HW230111   4.731   2.510   8.227 -2.0596  0.3914  2.6638
 6160SOL     OW30112   1.185   1.210   3.299  0.5277  0.5960  0.1659
 6160SOL    HW130113   1.273   1.234   3.272  1.0656  0.8944  2.2263
 6160SOL    HW230114   1.129   1.231   3.224  1.3602  1.6234 -0.1649
 6161SOL     OW30115   2.172   3.040   5.801 -0.0863 -0.5574  0.3861
 6161SOL    HW130116   2.226   2.975   5.757  0.8766  1.4914 -1.4486
 6161SOL    HW230117   2.162   3.000   5.888  2.6298 -0.5817  0.6862
 6162SOL     OW30118   2.777   2.311   6.924  0.1683 -0.0562  0.3921
 6162SOL    HW130119   2.773   2.241   6.859 -0.0417 -0.7714  1.1839
 6162SOL    HW230120   2.867   2.344   6.917  0.3066 -0.7063 -0.8954
 6163SOL     OW30121   4.367   1.233  15.077 -0.2057 -0.2198 -0.1059
 6163SOL    HW130122   4.279   1.200  15.094  0.1841 -0.8810  0.5977
 6163SOL    HW230123   4.350   1.319  15.037  0.5515  0.6992  1.5745
 6164SOL     OW30124   1.897   3.635   2.503  0.4205  0.5698  0.3643
 6164SOL    HW130125   1.951   3.645   2.581  2.5267 -0.1358 -0.9830
 6164SOL    HW230126   1.941   3.563   2.457 -2.4629  1.2376 -3.4324
 6165SOL     OW30127   3.053   4.553  16.674 -0.6432 -0.2009 -0.2787
 6165SOL    HW130128   2.964   4.518  16.675 -0.4505 -0.6154  1.1708
 6165SOL    HW230129   3.096   4.475  16.639 -0.7653 -1.2766  1.9629
 6166SOL     OW30130   2.542   3.779   1.985  0.0831  0.0590 -0.0146
 6166SOL    HW130131   2.500   3.852   2.030 -0.8311  0.1682 -1.0458
 6166SOL    HW230132   2.627   3.782   2.031  0.8373  2.2858 -1.5784
 6167SOL     OW30133   3.877   4.545   0.507  0.6367  0.0785  0.6092
 6167SOL    HW130134   3.823   4.523   0.431 -1.0168  0.4309  1.6837
 6167SOL    HW230135   3.798   4.574   0.553  1.1166  2.4270 -0.0296
 6168SOL     OW30136   0.243   4.119   7.723  0.2864 -0.7497 -0.0966
 6168SOL    HW130137   0.289   4.137   7.806  0.5400 -1.8357 -0.0010
 6168SOL    HW230138   0.267   4.029   7.701  3.0893 -0.4426  1.6639
 6169SOL     OW30139   2.570   2.166   6.454 -0.4185  0.1535 -0.7755
 6169SOL    HW130140   2.504   2.135   6.391 -1.3599  0.9654 -0.1882
 6169SOL    HW230141   2.634   2.222   6.410  0.3285 -0.4688 -0.4879
 6170SOL     OW30142   1.822   1.678   6.459 -0.6332  0.1042 -0.0786
 6170SOL    HW130143   1.748   1.726   6.496 -1.4258 -2.3172  1.4546
 6170SOL    HW230144   1.840   1.625   6.536 -0.2505  0.4894  0.1009
 6171SOL     OW30145   0.729   1.327   6.399  0.5246  0.3473 -0.2981
 6171SOL    HW130146   0.679   1.373   6.332  2.3382 -0.4510 -2.2006
 6171SOL    HW230147   0.808   1.381   6.401 -0.3191  1.4177  2.7809
 6172SOL     OW30148   0.196   0.568   6.317  0.4225  0.2538 -0.1639
 6172SOL    HW130149   0.174   0.659   6.336 -2.0280 -0.4615  0.4932
 6172SOL    HW230150   0.109   0.532   6.337  1.0648 -1.6643 -0.8266
 6173SOL     OW30151   1.385   3.051  17.381  0.0533  0.2991  0.0985
 6173SOL    HW130152   1.294   3.076  17.395 -0.2036 -1.1019  0.9135
 6173SOL    HW230153   1.419   3.137  17.356  1.6500  0.0884  1.5402
 6174SOL     OW30154   3.510   1.850   3.046 -0.0148  0.0888  0.2640
 6174SOL    HW130155   3.487   1.828   2.956  0.1320 -1.1454  0.5289
 6174SOL    HW230156   3.532   1.765   3.085  0.8479 -0.8541 -2.2697
 6175SOL     OW30157   1.750   3.934  14.646 -0.3730  0.3228 -0.0021
 6175SOL    HW130158   1.665   3.894  14.662 -0.7542  1.2137  0.1834
 6175SOL    HW230159   1.748   4.003  14.712  0.4965 -1.0613  1.4705
 6176SOL     OW30160   0.462   3.311   8.500 -0.0151  0.6026  0.8821
 6176SOL    HW130161   0.498   3.379   8.556  0.5020  1.6987 -0.7686
 6176SOL    HW230162   0.426   3.249   8.563 -2.6705  0.2365 -1.0022
 6177SOL     OW30163   3.867   0.968   6.172  0.0815 -0.0605  0.0435
 6177SOL    HW130164   3.902   0.988   6.259 -2.1511 -0.3789  1.0238
 6177SOL    HW230165   3.946   0.938   6.129 -1.5385 -2.1183 -1.4615
 6178SOL     OW30166   3.781   4.298   0.912 -0.0168  0.0260  0.0453
 6178SOL    HW130167   3.769   4.386   0.947  2.0775 -0.2947  1.6020
 6178SOL    HW230168   3.837   4.324   0.839  0.7048  0.4888  0.7582
 6179SOL     OW30169   2.873   4.546   6.324  0.0136  0.0632 -0.2292
 6179SOL    HW130170   2.928   4.567   6.249 -0.7540  0.1874 -0.7579
 6179SOL    HW230171   2.789   4.533   6.281  0.0515  4.0329 -1.4366
 6180SOL     OW30172   1.227   2.703   5.904 -0.2203 -0.3080 -0.5264
 6180SOL    HW130173   1.226   2.763   5.829 -0.6017  1.1098  0.6135
 6180SOL    HW230174   1.320   2.714   5.922 -0.6709  0.3855  1.3826
 6181SOL     OW30175   4.128   2.269   4.231  0.3837  0.1907 -0.2263
 6181SOL    HW130176   4.153   2.305   4.146 -0.3856  1.0620 -0.0944
 6181SOL    HW230177   4.036   2.295   4.221  0.6111  1.8234  1.7822
 6182SOL     OW30178   1.856   0.111  17.176 -1.0438  0.0572  0.6091
 6182SOL    HW130179   1.888   0.175  17.240  0.2046 -2.5681  2.5947
 6182SOL    HW230180   1.866   0.034  17.232 -0.3274 -0.7266 -0.5967
 6183SOL     OW30181   0.038   3.120   0.178 -0.0622  0.6395 -0.2187
 6183SOL    HW130182   4.718   3.120   0.259  0.4977 -0.2184  0.1415
 6183SOL    HW230183   4.714   3.078   0.113  1.8335  0.6974 -1.8661
 6184SOL     OW30184   0.000   0.733   8.338  0.3754 -0.1864  0.4659
 6184SOL    HW130185   4.643   0.707   8.358 -0.0360 -0.3721 -1.5568
 6184SOL    HW230186   0.027   0.690   8.256  1.8403 -0.2186  0.9756
 6185SOL     OW30187   3.023   0.293   7.231  0.5357  0.5194  0.3250
 6185SOL    HW130188   3.085   0.229   7.196  0.8082  1.5826 -1.1218
 6185SOL    HW230189   3.069   0.349   7.293  1.4806 -0.0125  0.0975
 6186SOL     OW30190   3.517   2.449  11.165  0.1208  0.5685  0.7759
 6186SOL    HW130191   3.513   2.442  11.070 -1.3473 -1.4193  0.9855
 6186SOL    HW230192   3.610   2.462  11.184  0.1192  0.1066  1.1065
 6187SOL     OW30193   0.186   4.414   4.243  0.1326 -0.0110  0.4641
 6187SOL    HW130194   0.154   4.442   4.157 -0.0284 -1.3604  0.0905
 6187SOL    HW230195   0.105   4.420   4.293 -0.1928  2.4386 -0.3209
 6188SOL     OW30196   2.111   4.132  14.673 -0.1739  0.3746 -0.0506
 6188SOL    HW130197   2.099   4.046  14.632  1.5608  0.4078 -0.6479
 6188SOL    HW230198   2.207   4.134  14.670 -0.1903  1.0550  0.0104
 6189SOL     OW30199   3.303   0.413   5.282  0.4631 -0.0179 -0.0801
 6189SOL    HW130200   3.362   0.412   5.206 -1.3646  1.3219 -1.5135
 6189SOL    HW230201   3.239   0.352   5.246  0.7149  0.1410 -0.8094
 6190SOL     OW30202   3.163   3.015   0.277  0.1775  0.1201 -0.0376
 6190SOL    HW130203   3.195   2.986   0.191  0.3423 -0.0465  0.0794
 6190SOL    HW230204   3.136   2.930   0.310 -2.8334  1.8024  1.8538
 6191SOL     OW30205   1.965   0.190  12.720 -0.1579  0.0081  0.2012
 6191SOL    HW130206   1.877   0.158  12.697 -0.1041 -0.0513  0.0774
 6191SOL    HW230207   1.955   0.256  12.788  2.2320  0.2389  0.3076
 6192SOL     OW30208   2.388   0.661  14.745  0.1741  0.4010 -0.1952
 6192SOL    HW130209   2.461   0.695  14.797 -1.3726  2.2941  0.7757
 6192SOL    HW230210   2.327   0.734  14.760 -0.2710  0.2766 -1.4572
 6193SOL     OW30211   0.063   1.896   5.518  0.4186  1.0607 -0.0491
 6193SOL    HW130212   0.100   1.911   5.431  0.6086  0.7596 -0.0203
 6193SOL    HW230213   4.703   1.888   5.496  0.2588 -0.1510  1.0941
 6194SOL     OW30214   2.161   3.702   3.836  0.0543 -0.2176 -0.2231
 6194SOL    HW130215   2.217   3.750   3.897  2.5826 -1.6226 -1.4203
 6194SOL    HW230216   2.152   3.621   3.885  1.0259  0.0386  0.3885
 6195SOL     OW30217   1.053   1.727  14.816  0.2290  0.2964  0.4156
 6195SOL    HW130218   1.009   1.796  14.766  0.0926  0.1053  0.2751
 6195SOL    HW230219   1.084   1.676  14.742  2.2999  1.1049  0.7149
 6196SOL     OW30220   3.073   2.990  15.446 -0.1367 -0.0073  0.3690
 6196SOL    HW130221   3.014   2.965  15.517  0.0497 -1.3135  0.0750
 6196SOL    HW230222   3.101   3.072  15.485  0.5333 -1.3663  2.7399
 6197SOL     OW30223   3.890   1.519  10.140  0.4132  0.3885  0.0625
 6197SOL    HW130224   3.960   1.578  10.168  2.2589 -2.0518  0.5639
 6197SOL    HW230225   3.835   1.525  10.218 -2.4709  1.1556 -2.0259
 6198SOL     OW30226   4.594   4.185   6.137  0.0601  0.5681 -0.4917
 6198SOL    HW130227   4.588   4.209   6.230 -2.7913 -1.2616 -0.2035
 6198SOL    HW230228   4.637   4.100   6.147  1.4707  1.4952  1.4117
 6199SOL     OW30229   2.662   3.055  11.484  0.6856 -0.2351 -0.6444
 6199SOL    HW130230   2.570   3.079  11.474  0.7917  0.6516  0.5132
 6199SOL    HW230231   2.688   3.119  11.550 -1.8423 -0.4599  0.5699
 6200SOL     OW30232   4.054   4.152  14.427 -0.0556  0.5149  0.4389
 6200SOL    HW130233   3.964   4.144  14.395  0.7540  2.5496 -2.3929
 6200SOL    HW230234   4.065   4.247  14.427 -1.6552  0.7068 -0.4517
 6201SOL     OW30235   2.264   3.747  13.514  0.1653  0.5291 -0.5413
 6201SOL    HW130236   2.309   3.832  13.514 -1.8146  1.5759 -0.1767
 6201SOL    HW230237   2.327   3.691  13.559  0.0447  1.7395  1.1222
 6202SOL     OW30238   3.582   2.314   5.566  0.2239 -0.7334  0.2331
 6202SOL    HW130239   3.578   2.270   5.481 -0.4014 -2.3553  1.1133
 6202SOL    HW230240   3.620   2.243   5.617  1.2518  1.0748  1.9765
 6203SOL     OW30241   3.407   0.074   2.809  0.3664  0.5120 -0.3284
 6203SOL    HW130242   3.330   0.069   2.752  0.7703  1.3980 -0.9584
 6203SOL    HW230243   3.473   0.013   2.775 -0.4760  0.4643 -1.8744
 6204SOL     OW30244   0.262   1.147  16.149  0.2864 -0.2063 -0.4135
 6204SOL    HW130245   0.295   1.097  16.074 -2.0125  2.4608 -3.1760
 6204SOL    HW230246   0.220   1.070  16.188  1.3702 -1.1445 -1.0897
 6205SOL     OW30247   3.627   2.746  15.231  0.2371 -0.0154  0.0082
 6205SOL    HW130248   3.702   2.797  15.262 -2.0996  3.1826  0.4900
 6205SOL    HW230249   3.589   2.706  15.310 -0.3718  0.7706  0.1164
 6206SOL     OW30250   2.477   4.365   2.548 -0.2320 -0.0816  0.2070
 6206SOL    HW130251   2.454   4.405   2.464  0.3059  1.3995  0.7600
 6206SOL    HW230252   2.411   4.400   2.609  0.2591  2.1522 -0.5477
 6207SOL     OW30253   0.504   1.986   3.513  0.1702 -0.4378 -0.3080
 6207SOL    HW130254   0.509   1.973   3.608  1.6297 -0.8106 -0.4434
 6207SOL    HW230255   0.532   1.906   3.469 -0.5391 -0.7099 -0.2684
 6208SOL     OW30256   3.855   4.108   8.053  0.3680  0.1422 -0.5811
 6208SOL    HW130257   3.937   4.151   8.030  1.4780 -0.8766  1.4752
 6208SOL    HW230258   3.883   4.068   8.135  0.3648 -0.1060 -0.6994
 6209SOL     OW30259   3.881   4.114  13.536 -0.2851  0.2923  0.1743
 6209SOL    HW130260   3.803   4.170  13.534  1.1941  2.2873 -3.3701
 6209SOL    HW230261   3.953   4.176  13.544  0.0893  0.1586 -2.1541
 6210SOL     OW30262   3.748   1.264   3.979 -0.0880 -0.2750  0.1539
 6210SOL    HW130263   3.765   1.251   3.885  0.6453 -0.7093  0.3464
 6210SOL    HW230264   3.825   1.217   4.010 -0.5612 -0.5225  0.9553
 6211SOL     OW30265   0.065   0.685   3.903 -0.6083  0.2306 -1.0645
 6211SOL    HW130266   0.073   0.597   3.940 -1.1937  0.8303  0.5048
 6211SOL    HW230267   0.097   0.742   3.972 -0.0405 -0.4329 -0.7770
 6212SOL     OW30268   1.025   1.440   3.173  0.0832 -0.5024  0.3214
 6212SOL    HW130269   1.042   1.422   3.080  2.0890  0.8059  0.4454
 6212SOL    HW230270   1.094   1.499   3.201 -0.7665  1.5540 -1.8713
 6213SOL     OW30271   0.033   2.811   8.515 -0.4236 -0.3708 -0.5320
 6213SOL    HW130272   4.717   2.755   8.576  0.5050  0.4908  0.9877
 6213SOL    HW230273   0.091   2.863   8.570  1.3446 -1.4508 -1.3766
 6214SOL     OW30274   4.696   0.090  16.614 -0.1975  0.8380  0.0531
 6214SOL    HW130275   4.668   0.019  16.672  0.8203  0.0996 -0.3550
 6214SOL    HW230276   4.622   0.092  16.554  1.5643 -1.3489 -2.2067
 6215SOL     OW30277   4.031   0.594   3.171  0.3472 -0.9208 -0.5783
 6215SOL    HW130278   4.126   0.584   3.171  0.4531 -0.0607 -3.2632
 6215SOL    HW230279   4.012   0.542   3.249 -1.5914 -3.1528 -2.5526
 6216SOL     OW30280   0.125   2.653   2.060  0.2136  0.0108  0.0552
 6216SOL    HW130281   0.165   2.675   2.145  0.1306  0.2542  0.0307
 6216SOL    HW230282   0.196   2.682   2.003  0.4250 -0.6469 -0.0177
 6217SOL     OW30283   1.010   4.191  10.015  0.2393 -0.1989  0.1414
 6217SOL    HW130284   1.061   4.258   9.969 -1.0118  0.8687  0.3240
 6217SOL    HW230285   0.928   4.192   9.966  1.1562 -0.2095 -1.3697
 6218SOL     OW30286   4.488   1.412  12.011 -0.0974  0.5687 -1.0401
 6218SOL    HW130287   4.502   1.497  11.969  0.2902  1.5265  1.0488
 6218SOL    HW230288   4.460   1.425  12.101  0.2656  1.1242 -1.0085
 6219SOL     OW30289   3.591   4.205   7.577  0.3460 -0.3473 -0.0736
 6219SOL    HW130290   3.534   4.233   7.505  0.2233 -0.8572 -0.1788
 6219SOL    HW230291   3.534   4.208   7.653 -0.0877  1.2610 -0.4602
 6220SOL     OW30292   0.919   4.593   1.395  0.1887 -0.1677 -0.2761
 6220SOL    HW130293   0.854   4.539   1.351  0.5397 -1.1433  0.3875
 6220SOL    HW230294   0.901   4.680   1.360 -2.6641  0.4979  2.8274
 6221SOL     OW30295   1.838   1.900   1.665  0.0559 -0.2470  0.4176
 6221SOL    HW130296   1.887   1.939   1.592  0.7423 -1.1209  0.4038
 6221SOL    HW230297   1.747   1.913   1.638 -0.3695  0.3670  2.1836
 6222SOL     OW30298   0.203   3.878   5.334 -0.6965  0.1374 -0.0511
 6222SOL    HW130299   0.170   3.955   5.381 -1.4160  0.4617 -1.0694
 6222SOL    HW230300   0.217   3.900   5.242 -1.0881 -1.0731 -0.3928
 6223SOL     OW30301   0.375   2.673   7.270  0.3378 -0.0934 -0.3512
 6223SOL    HW130302   0.364   2.703   7.360 -0.7269 -2.4729  0.3042
 6223SOL    HW230303   0.408   2.583   7.270 -0.3781 -0.3752 -3.1542
 6224SOL     OW30304   1.189   1.328  16.691  0.3617  0.2393 -0.0783
 6224SOL    HW130305   1.281   1.355  16.686 -0.0505  1.3982 -1.4016
 6224SOL    HW230306   1.159   1.346  16.602 -0.7468 -3.8511 -0.5302
 6225SOL     OW30307   2.367   3.511   3.073  0.4346 -0.2886 -0.4581
 6225SOL    HW130308   2.339   3.458   3.148 -0.8025  2.8477  1.2695
 6225SOL    HW230309   2.375   3.600   3.107  1.5505 -0.9024  0.8629
 6226SOL     OW30310   4.100   1.915  16.769 -0.4648 -0.6036  0.4812
 6226SOL    HW130311   4.163   1.901  16.840 -0.8668  1.9847  1.3335
 6226SOL    HW230312   4.125   1.995  16.723 -1.3948 -0.2203  0.6326
 6227SOL     OW30313   3.911   3.849   3.128  0.3385  0.9002  0.0609
 6227SOL    HW130314   3.992   3.852   3.180  2.1136 -0.7725 -2.6080
 6227SOL    HW230315   3.943   3.817   3.044  1.5412 -0.1355  0.9093
 6228SOL     OW30316   1.353   3.424  11.978 -0.1176 -0.5832 -0.3495
 6228SOL    HW130317   1.364   3.351  12.038  0.0441 -0.1941  0.0961
 6228SOL    HW230318   1.443   3.440  11.947  0.2920 -0.9475  0.6348
 6229SOL     OW30319   1.883   0.084   8.308  0.1755  0.0234  0.6190
 6229SOL    HW130320   1.967   0.126   8.330  0.0009  1.3891 -1.3670
 6229SOL    HW230321   1.909   4.726   8.288 -2.0206 -0.2107 -1.0765
 6230SOL     OW30322   4.232   3.344   2.777 -0.7906  0.0596  0.2003
 6230SOL    HW130323   4.300   3.344   2.844 -1.1902  2.0953  0.6078
 6230SOL    HW230324   4.234   3.258   2.735  0.1089  0.1889 -0.0067
 6231SOL     OW30325   1.496   1.903  10.391 -0.1709 -0.0878 -0.0520
 6231SOL    HW130326   1.575   1.907  10.444  0.2043  2.2356 -0.7684
 6231SOL    HW230327   1.495   1.811  10.366 -1.9741  0.0594 -0.5499
 6232SOL     OW30328   3.497   0.733   6.743  0.1272  0.0332 -0.3045
 6232SOL    HW130329   3.433   0.783   6.692  0.9389  1.1389 -0.2400
 6232SOL    HW230330   3.484   0.639   6.727  1.4992 -0.1276 -0.4794
 6233SOL     OW30331   1.153   2.190   1.247  0.2762  0.3749  0.3598
 6233SOL    HW130332   1.059   2.177   1.255  0.2490 -0.6104 -1.6278
 6233SOL    HW230333   1.183   2.257   1.308 -0.5826  1.3228 -0.2478
 6234SOL     OW30334   2.949   1.408   2.467 -0.3979 -0.0473  0.2676
 6234SOL    HW130335   2.933   1.482   2.409 -0.5155 -0.2710  0.0164
 6234SOL    HW230336   2.869   1.403   2.520  0.3398  0.2549  1.4195
 6235SOL     OW30337   3.798   4.643  10.879 -0.0622  0.0913 -0.0971
 6235SOL    HW130338   3.758   4.651  10.792  0.1046  1.1841 -0.0678
 6235SOL    HW230339   3.749   4.700  10.938 -0.5423  1.0222 -1.4049
 6236SOL     OW30340   4.220   1.938   3.760 -0.2119 -0.3749 -0.2136
 6236SOL    HW130341   4.227   1.875   3.689 -1.3180 -1.2961  0.4785
 6236SOL    HW230342   4.157   1.996   3.718  0.4497 -0.6474 -1.5868
 6237SOL     OW30343   0.900   3.370  14.615  0.0905 -0.2454 -0.0854
 6237SOL    HW130344   0.923   3.372  14.708 -0.0807 -1.7603 -0.0133
 6237SOL    HW230345   0.926   3.456  14.580  1.8160 -0.6861  0.1022
 6238SOL     OW30346   2.833   2.733   9.500 -0.0826  0.5690  0.1508
 6238SOL    HW130347   2.774   2.785   9.554  2.7483  2.8065  1.0998
 6238SOL    HW230348   2.909   2.789   9.512 -0.4978  0.8633  1.3475
 6239SOL     OW30349   0.951   3.407   2.075  0.0195  0.3774 -0.3824
 6239SOL    HW130350   1.002   3.438   2.000  0.4899 -0.3371 -0.3511
 6239SOL    HW230351   0.864   3.431   2.043 -0.2586  0.2912  0.3135
 6240SOL     OW30352   3.874   1.356   6.777  0.4097  0.1362 -0.2911
 6240SOL    HW130353   3.927   1.277   6.765 -1.1308 -1.2833  2.4293
 6240SOL    HW230354   3.890   1.406   6.697 -0.1342 -0.9568 -1.0820
 6241SOL     OW30355   3.648   0.168   6.385 -0.6305  0.1637 -0.4650
 6241SOL    HW130356   3.569   0.221   6.394 -0.3485  0.5058 -0.0108
 6241SOL    HW230357   3.697   0.228   6.329 -0.7758  0.9951  0.3128
 6242SOL     OW30358   2.592   0.004   4.657  0.4210  0.2591 -0.5638
 6242SOL    HW130359   2.529   0.009   4.586 -1.2835 -0.8994  0.8413
 6242SOL    HW230360   2.566   4.649   4.688 -0.9862  0.7078 -0.4376
 6243SOL     OW30361   3.938   0.784   0.037  0.5202  0.2201 -1.0185
 6243SOL    HW130362   3.952   0.794  17.673  1.0384  1.6547 -0.7921
 6243SOL    HW230363   3.878   0.857   0.053  1.2875  0.1537  2.1803
 6244SOL     OW30364   1.865   2.769   2.652 -0.4996 -0.6236  0.2109
 6244SOL    HW130365   1.798   2.758   2.585  1.2928 -0.0759 -1.6639
 6244SOL    HW230366   1.926   2.825   2.605 -1.5136 -0.1300 -0.5124
 6245SOL     OW30367   3.172   4.376   5.688 -0.2540 -0.3341  0.2495
 6245SOL    HW130368   3.115   4.309   5.726 -0.4796 -0.1094  0.3062
 6245SOL    HW230369   3.131   4.451   5.730 -1.4519 -1.0153  0.3169
 6246SOL     OW30370   4.597   4.495  15.160 -0.3680 -0.0456 -0.3089
 6246SOL    HW130371   4.555   4.413  15.135 -0.1796 -0.4226  0.6272
 6246SOL    HW230372   4.650   4.446  15.223  0.9099  0.7571 -0.7372
 6247SOL     OW30373   2.133   1.029  16.818  0.0423 -0.2057  0.0123
 6247SOL    HW130374   2.114   1.049  16.909  0.1452 -1.9360  0.4046
 6247SOL    HW230375   2.178   0.947  16.835 -1.6326 -1.2032 -0.3721
 6248SOL     OW30376   4.387   3.791   3.097 -0.0396 -0.4455 -0.0037
 6248SOL    HW130377   4.387   3.879   3.060 -1.2393 -1.4093 -2.2606
 6248SOL    HW230378   4.481   3.772   3.103  0.6488  3.1805  0.7824
 6249SOL     OW30379   2.757   3.091   0.866 -0.4153 -0.2475 -0.3540
 6249SOL    HW130380   2.663   3.103   0.881 -0.3407 -0.8151  0.5276
 6249SOL    HW230381   2.748   3.092   0.770 -0.7396 -0.9265 -0.3336
 6250SOL     OW30382   3.861   1.748   9.639  0.3273 -0.2072  0.2743
 6250SOL    HW130383   3.872   1.834   9.679  1.0336 -0.4530  0.6088
 6250SOL    HW230384   3.888   1.756   9.547 -0.4106 -0.8260  0.0044
 6251SOL     OW30385   3.816   0.728   5.129 -0.2261 -0.0298  0.3617
 6251SOL    HW130386   3.728   0.695   5.109 -0.0906 -0.4802  0.5253
 6251SOL    HW230387   3.828   0.706   5.221  3.0775  2.4727  0.5200
 6252SOL     OW30388   1.515   2.273  16.744 -0.4339 -0.0408  0.6173
 6252SOL    HW130389   1.528   2.180  16.725  1.1509  0.4596 -0.7431
 6252SOL    HW230390   1.601   2.313  16.732 -0.0421 -1.3127 -0.7972
 6253SOL     OW30391   0.682   4.256   5.811 -0.1573 -0.1377  0.4546
 6253SOL    HW130392   0.648   4.197   5.878  1.8319 -0.3885  1.2458
 6253SOL    HW230393   0.655   4.335   5.858 -1.0582  0.8026 -1.6623
 6254SOL     OW30394   3.007   3.573  17.050  0.4486 -0.5362 -0.0908
 6254SOL    HW130395   3.052   3.623  17.119  1.8809 -2.0457  0.0767
 6254SOL    HW230396   3.082   3.529  17.010  1.4904 -0.2760  1.5713
 6255SOL     OW30397   2.431   4.601   8.442  0.4492 -0.7038  0.0639
 6255SOL    HW130398   2.521   4.570   8.452  0.4564 -0.2586  1.3988
 6255SOL    HW230399   2.396   4.555   8.366 -2.1800 -0.5547  1.1998
 6256SOL     OW30400   2.506   3.652   3.978  1.1574 -0.7051 -0.1319
 6256SOL    HW130401   2.437   3.612   4.031  1.0759 -0.9609 -0.4332
 6256SOL    HW230402   2.467   3.735   3.949 -0.0163 -0.9145  0.8348
 6257SOL     OW30403   0.152   1.275   5.259 -0.5600 -0.3016 -0.4567
 6257SOL    HW130404   0.243   1.297   5.238  0.0652 -1.9946  0.4095
 6257SOL    HW230405   0.137   1.247   5.169 -0.9141 -0.4180 -0.3604
 6258SOL     OW30406   0.375   1.855  15.100  0.0894 -0.0479 -0.0981
 6258SOL    HW130407   0.304   1.919  15.105 -1.4000 -1.6692 -0.7757
 6258SOL    HW230408   0.340   1.789  15.040  0.0689  0.3742 -0.5488
 6259SOL     OW30409   1.968   1.903  13.521 -0.1987  0.0537  0.2858
 6259SOL    HW130410   1.874   1.906  13.538  0.5865  0.4114  4.7808
 6259SOL    HW230411   1.980   1.817  13.562 -0.7948  0.3527  1.0914
 6260SOL     OW30412   3.780   4.284   0.077 -0.3802 -0.3880  0.0356
 6260SOL    HW130413   3.826   4.267  17.725 -0.8127  1.8646 -0.6591
 6260SOL    HW230414   3.724   4.354   0.045 -1.3092 -0.1740  2.1205
 6261SOL     OW30415   1.785   3.843   8.088  0.4194 -0.1390 -0.6610
 6261SOL    HW130416   1.764   3.856   7.996 -0.2353  2.1740 -0.2044
 6261SOL    HW230417   1.874   3.810   8.080  1.1563  1.9324 -0.9271
 6262SOL     OW30418   1.740   4.492  14.780 -0.9371  0.1271 -0.0516
 6262SOL    HW130419   1.709   4.577  14.810 -2.1133 -0.3574  0.0956
 6262SOL    HW230420   1.809   4.521  14.720 -3.0345  1.2448 -1.8856
 6263SOL     OW30421   3.624   1.247   9.403 -0.3147 -0.0252 -0.3653
 6263SOL    HW130422   3.695   1.298   9.365  0.2098  0.4724  1.2856
 6263SOL    HW230423   3.562   1.245   9.331 -0.7975  1.0695  0.0199
 6264SOL     OW30424   2.498   0.259  11.657 -0.4596  0.0921 -0.3361
 6264SOL    HW130425   2.532   0.213  11.734 -0.8255  2.5402  1.2975
 6264SOL    HW230426   2.471   0.345  11.689 -1.1678 -0.7467  1.3412
 6265SOL     OW30427   2.011   3.140   2.660  0.0491  0.8587  0.1402
 6265SOL    HW130428   2.082   3.191   2.699 -2.2861  3.2375  1.3011
 6265SOL    HW230429   1.985   3.099   2.743 -1.7974  0.4369 -0.6474
 6266SOL     OW30430   1.654   3.124   7.047  0.8066 -0.2110  0.0081
 6266SOL    HW130431   1.682   3.125   6.955  0.4556  0.9704 -0.0896
 6266SOL    HW230432   1.657   3.031   7.068  0.1216 -0.0787  0.6929
 6267SOL     OW30433   2.316   0.723   7.594 -0.1659  0.1971 -0.1163
 6267SOL    HW130434   2.327   0.732   7.500 -1.2212  0.0383 -0.2510
 6267SOL    HW230435   2.280   0.634   7.601  0.9440 -0.2073  0.5037
 6268SOL     OW30436   0.210   0.073  13.819 -0.4407  0.7022 -0.0828
 6268SOL    HW130437   0.229   4.732  13.761 -0.2348 -0.5723  1.5804
 6268SOL    HW230438   0.290   0.118  13.793  1.7515 -2.3630  1.3227
 6269SOL     OW30439   0.721   2.140   9.293  0.3240  0.5756 -0.4351
 6269SOL    HW130440   0.685   2.181   9.372  1.0374 -0.6386  0.5345
 6269SOL    HW230441   0.736   2.049   9.319  0.8055  1.4882  2.4520
 6270SOL     OW30442   0.137   0.851   8.850  0.2769  0.2820 -0.1126
 6270SOL    HW130443   0.060   0.795   8.851 -0.9007  1.8739 -0.6170
 6270SOL    HW230444   0.100   0.929   8.807  2.6874  0.3190 -2.1552
 6271SOL     OW30445   3.195   1.149   3.050 -0.2015 -0.0776 -0.0386
 6271SOL    HW130446   3.263   1.194   3.101  1.9237 -2.1869 -1.0296
 6271SOL    HW230447   3.147   1.102   3.118 -1.6401  0.2967 -0.7865
 6272SOL     OW30448   3.814   3.860  10.215  0.1068 -0.8448 -0.2650
 6272SOL    HW130449   3.859   3.930  10.262  0.3738 -0.6863 -0.7547
 6272SOL    HW230450   3.798   3.901  10.129 -0.2456 -2.0634 -0.7769
 6273SOL     OW30451   2.810   0.782  14.211  0.4264  0.0103 -0.5583
 6273SOL    HW130452   2.791   0.819  14.125 -0.5144 -0.3375 -0.4996
 6273SOL    HW230453   2.869   0.852  14.238 -0.3283  0.1774  0.6730
 6274SOL     OW30454   3.154   4.371   7.387 -0.2625  0.3033 -0.3334
 6274SOL    HW130455   3.077   4.402   7.338 -0.4218 -1.0276 -0.9176
 6274SOL    HW230456   3.112   4.355   7.472 -1.2491  2.4396 -0.4140
 6275SOL     OW30457   2.146   1.912  11.311 -0.0271  0.2185  0.2258
 6275SOL    HW130458   2.069   1.914  11.368  0.3194  0.2011  0.6965
 6275SOL    HW230459   2.196   1.836  11.342  2.9002  2.2943  0.5698
 6276SOL     OW30460   3.902   1.647   3.538  0.3120  0.0975  0.0223
 6276SOL    HW130461   3.829   1.610   3.489  0.8867 -0.6704 -0.2362
 6276SOL    HW230462   3.950   1.689   3.467 -1.1848 -1.9429 -2.1847
 6277SOL     OW30463   1.375   0.895   1.185  0.4687 -0.1563  0.7341
 6277SOL    HW130464   1.348   0.880   1.275  1.2757  1.3336  1.2188
 6277SOL    HW230465   1.408   0.985   1.191 -0.5907  0.1328  2.2007
 6278SOL     OW30466   3.811   2.023   0.486 -0.0325 -0.4065 -0.2684
 6278SOL    HW130467   3.838   2.062   0.569  2.0173 -2.1840 -0.0836
 6278SOL    HW230468   3.722   2.055   0.472  0.2766  1.2173  1.6274
 6279SOL     OW30469   1.290   0.944   7.714 -0.0871 -0.2630  0.6490
 6279SOL    HW130470   1.312   0.970   7.624 -0.2990 -1.0314  0.3721
 6279SOL    HW230471   1.362   0.984   7.762  0.4526  0.4703 -0.7629
 6280SOL     OW30472   3.905   3.397   7.147  0.0111 -0.1710 -0.1416
 6280SOL    HW130473   3.840   3.463   7.124 -0.3199 -0.0422  1.1831
 6280SOL    HW230474   3.878   3.324   7.092  1.0509 -1.0000  0.4404
 6281SOL     OW30475   1.666   2.587   5.348  0.0860  0.0972  0.0947
 6281SOL    HW130476   1.735   2.523   5.329 -0.0588 -0.3561  1.0650
 6281SOL    HW230477   1.714   2.670   5.344  0.1157  0.0049 -1.3379
 6282SOL     OW30478   2.869   2.151   7.244  0.0041 -0.2360  0.9827
 6282SOL    HW130479   2.938   2.158   7.309  2.4207 -3.0281 -1.3028
 6282SOL    HW230480   2.809   2.222   7.268 -0.5149 -0.1989 -0.3971
 6283SOL     OW30481   3.018   3.324   2.012 -0.1733 -0.4689  0.1657
 6283SOL    HW130482   3.079   3.396   1.995  0.5807 -0.1834  4.2611
 6283SOL    HW230483   3.078   3.257   2.042  0.0389 -0.2310  0.2754
 6284SOL     OW30484   4.678   2.029  10.425 -0.4456  0.5004 -0.6088
 6284SOL    HW130485   4.692   2.059  10.335  0.8386  0.2429 -0.4905
 6284SOL    HW230486   0.010   2.089  10.462  0.6641 -1.4477  0.5781
 6285SOL     OW30487   2.208   3.071   5.411 -0.0138 -0.2077 -0.3208
 6285SOL    HW130488   2.194   3.121   5.330  1.1462  1.0598  0.2623
 6285SOL    HW230489   2.250   3.139   5.464  0.5171 -0.7344 -0.0671
 6286SOL     OW30490   3.561   0.671  10.120 -1.0715  0.0445 -0.2886
 6286SOL    HW130491   3.637   0.635  10.075 -0.3615  1.1364  0.0389
 6286SOL    HW230492   3.605   0.728  10.184  0.6943 -0.9035 -0.6559
 6287SOL     OW30493   0.228   1.748   9.735 -0.3206 -0.6152 -0.0472
 6287SOL    HW130494   0.145   1.786   9.764  0.0004  0.5208 -0.6218
 6287SOL    HW230495   0.257   1.713   9.819  0.4062 -1.2163 -0.5559
 6288SOL     OW30496   2.165   4.141   5.206 -0.0291 -0.6985  0.7695
 6288SOL    HW130497   2.096   4.077   5.189  1.8055 -2.2582 -0.7761
 6288SOL    HW230498   2.165   4.124   5.300  1.4529  2.1004  1.2835
 6289SOL     OW30499   4.316   0.450   8.048 -0.0042 -0.0002  0.3821
 6289SOL    HW130500   4.324   0.528   8.102  1.4041  0.4552 -0.4718
 6289SOL    HW230501   4.278   0.385   8.107 -0.4328  0.0325  0.1377
 6290SOL     OW30502   1.395   2.722   8.840 -0.1747 -0.0217 -0.3727
 6290SOL    HW130503   1.478   2.696   8.881 -0.5421  1.8128  1.5275
 6290SOL    HW230504   1.358   2.761   8.918 -0.7389 -0.0756 -0.6139
 6291SOL     OW30505   1.601   1.189   5.738 -0.4553  0.1699  0.4199
 6291SOL    HW130506   1.514   1.210   5.774 -0.7521  0.4487 -0.4388
 6291SOL    HW230507   1.615   1.243   5.660 -1.4447 -3.5964 -2.3576
 6292SOL     OW30508   1.208   3.702   6.346  0.3185 -0.0502 -0.1371
 6292SOL    HW130509   1.123   3.743   6.364 -0.4788 -1.3285 -0.9717
 6292SOL    HW230510   1.168   3.632   6.295  0.2732 -1.1138  1.3705
 6293SOL     OW30511   2.718   4.349   9.023  0.5954 -0.0822 -0.9522
 6293SOL    HW130512   2.626   4.372   9.011 -0.3438 -3.1009  0.4741
 6293SOL    HW230513   2.714   4.255   9.006 -1.5240  0.2607 -2.3334
 6294SOL     OW30514   2.245   4.597   5.625  0.0995  0.0644  0.0652
 6294SOL    HW130515   2.196   4.543   5.687 -1.4876 -0.4685 -1.6676
 6294SOL    HW230516   2.332   4.561   5.641  0.5338  2.1633  2.5227
 6295SOL     OW30517   0.293   1.374   9.682 -0.1182 -0.5546 -0.3793
 6295SOL    HW130518   0.382   1.389   9.651 -1.0579  1.7251 -2.0301
 6295SOL    HW230519   0.296   1.389   9.776 -1.8779 -0.6614 -0.3118
 6296SOL     OW30520   3.503   1.215  10.945  0.0161 -0.4779 -0.4643
 6296SOL    HW130521   3.577   1.204  10.885  0.6353  0.0226  0.2110
 6296SOL    HW230522   3.561   1.213  11.020 -0.7056  0.9532  0.1482
 6297SOL     OW30523   2.966   1.831   4.087 -0.4785 -0.0582  0.6827
 6297SOL    HW130524   2.920   1.888   4.148  2.6180  0.2174  2.7838
 6297SOL    HW230525   2.941   1.741   4.109  0.7118 -0.1839  1.5443
 6298SOL     OW30526   1.814   2.931   8.959 -0.2125 -0.0728  0.1194
 6298SOL    HW130527   1.909   2.928   8.943 -0.2406 -0.4603  0.0204
 6298SOL    HW230528   1.789   3.013   8.919 -0.8381  0.6310  1.9370
 6299SOL     OW30529   0.264   3.957   0.868 -0.0574 -0.5860 -0.1411
 6299SOL    HW130530   0.324   3.987   0.936  1.2318  2.5293 -2.6354
 6299SOL    HW230531   0.191   3.934   0.926  1.2948  1.7187  2.4958
 6300SOL     OW30532   4.075   2.647   6.589  0.7104  0.0022 -0.3546
 6300SOL    HW130533   4.159   2.672   6.628 -0.2949  0.3686  1.5409
 6300SOL    HW230534   4.049   2.731   6.552  0.2071 -0.5013 -1.1495
 6301SOL     OW30535   2.555   2.271   4.613 -0.1871  0.1548 -0.7767
 6301SOL    HW130536   2.617   2.324   4.564  0.0346 -0.1449 -0.8173
 6301SOL    HW230537   2.505   2.341   4.656  1.7217  2.2521 -1.9570
 6302SOL     OW30538   3.879   4.678   9.167 -0.6674 -0.8845  0.2570
 6302SOL    HW130539   3.954   4.695   9.225 -0.5186 -1.2386  0.1723
 6302SOL    HW230540   3.882   4.584   9.147  1.4560 -0.6561 -0.5109
 6303SOL     OW30541   4.641   4.631  10.099 -0.1306  0.7750 -0.5386
 6303SOL    HW130542   4.662   4.666  10.185  0.0788 -0.0278 -0.2600
 6303SOL    HW230543   4.721   4.652  10.051 -0.1436 -1.8648 -1.7392
 6304SOL     OW30544   1.444   2.050   1.726  0.4582 -0.3293 -0.1058
 6304SOL    HW130545   1.385   2.032   1.799 -3.8268 -0.5934 -3.7005
 6304SOL    HW230546   1.482   2.131   1.762 -0.6026  0.0044  0.2478
 6305SOL     OW30547   4.086   1.303   9.735  0.4373  0.3523  0.5961
 6305SOL    HW130548   4.002   1.337   9.765  0.4187  0.8847 -0.0767
 6305SOL    HW230549   4.151   1.345   9.792  0.5823  1.2248 -0.2197
 6306SOL     OW30550   3.412   3.637   9.045 -0.8431  0.6943 -0.5107
 6306SOL    HW130551   3.424   3.622   8.951 -0.8949  2.5951 -0.8150
 6306SOL    HW230552   3.422   3.730   9.061 -1.1835  0.4170  1.3018
 6307SOL     OW30553   3.348   4.549   2.466 -0.0133 -0.1481  0.2787
 6307SOL    HW130554   3.399   4.594   2.399 -1.7341  0.7899 -0.3929
 6307SOL    HW230555   3.420   4.498   2.502  1.9685  0.4548 -2.8467
 6308SOL     OW30556   3.129   1.500   6.203 -0.1712 -0.9045 -0.3760
 6308SOL    HW130557   3.167   1.548   6.129  1.3555 -1.8717 -0.2092
 6308SOL    HW230558   3.045   1.544   6.214  0.8073  0.5464  1.2811
 6309SOL     OW30559   1.765   2.437   5.981  0.0671  0.0570 -0.0986
 6309SOL    HW130560   1.716   2.412   6.059 -1.0391 -1.8861 -1.3968
 6309SOL    HW230561   1.694   2.418   5.920 -0.6973  0.7668  0.5830
 6310SOL     OW30562   3.546   4.317   3.085 -0.2439 -0.3405 -0.0937
 6310SOL    HW130563   3.633   4.278   3.094  0.0580  0.8617  2.1583
 6310SOL    HW230564   3.500   4.241   3.049  0.2210 -0.6554 -0.0275
 6311SOL     OW30565   1.988   3.829  12.947  0.4310  0.5451 -0.3858
 6311SOL    HW130566   1.965   3.736  12.943 -2.8195  1.2976  0.6214
 6311SOL    HW230567   1.924   3.857  12.882 -0.2766 -1.0603 -0.3812
 6312SOL     OW30568   4.489   3.538   3.527  0.6464  0.2426  0.3604
 6312SOL    HW130569   4.509   3.460   3.578  2.2648  3.0292  4.0021
 6312SOL    HW230570   4.395   3.531   3.542  0.6377 -1.7845 -0.7533
 6313SOL     OW30571   3.111   4.060   9.084 -0.4570 -0.2306  0.5313
 6313SOL    HW130572   3.117   4.148   9.122  0.1011  0.2774 -0.7110
 6313SOL    HW230573   3.073   4.076   8.998  0.8730  0.0899 -0.0024
 6314SOL     OW30574   3.746   1.688   0.719  0.1770  0.3034 -0.4870
 6314SOL    HW130575   3.789   1.757   0.769 -3.0885  1.2991  0.9841
 6314SOL    HW230576   3.818   1.626   0.718  1.1723  1.4416  0.1297
 6315SOL     OW30577   0.862   3.940   7.144  0.0977  0.6997  0.2088
 6315SOL    HW130578   0.852   3.935   7.049  0.9499  0.7572  0.1198
 6315SOL    HW230579   0.872   3.847   7.168  1.9176  1.1270  1.0909
 6316SOL     OW30580   1.264   4.198   3.398 -0.1920 -0.1965 -0.5454
 6316SOL    HW130581   1.215   4.278   3.417 -0.0931 -0.7381  2.0632
 6316SOL    HW230582   1.336   4.233   3.346  0.4091 -1.4061 -0.5367
 6317SOL     OW30583   0.755   0.305   2.072  0.1745  0.0237  0.4253
 6317SOL    HW130584   0.769   0.235   2.136  0.4302  1.7144  2.2258
 6317SOL    HW230585   0.782   0.256   1.994  0.5562  0.4241  0.3088
 6318SOL     OW30586   1.560   3.905  12.791 -0.1989 -0.6887  0.0509
 6318SOL    HW130587   1.513   3.832  12.831 -0.8308 -0.2091  0.1802
 6318SOL    HW230588   1.495   3.944  12.733  0.2461 -0.9833 -0.6477
 6319SOL     OW30589   2.589   3.840   5.684 -0.6707 -0.3521 -0.6431
 6319SOL    HW130590   2.501   3.812   5.706 -0.5488  0.2479  0.5928
 6319SOL    HW230591   2.638   3.797   5.754 -2.0519  0.3024  0.6977
 6320SOL     OW30592   1.108   2.446  15.520  0.6631  0.0504 -0.1828
 6320SOL    HW130593   1.129   2.368  15.468  0.8533 -0.6670  0.9682
 6320SOL    HW230594   1.151   2.516  15.470 -0.4824  1.7302  1.2109
 6321SOL     OW30595   1.425   2.486  12.446 -0.1251 -0.0125  0.1061
 6321SOL    HW130596   1.432   2.566  12.498  1.7464 -2.1247  3.1024
 6321SOL    HW230597   1.460   2.428  12.513  0.7158  0.1977 -0.1521
 6322SOL     OW30598   4.422   3.643   4.940 -0.2049  0.2784  0.7562
 6322SOL    HW130599   4.513   3.626   4.917 -0.9209 -2.3496 -0.2027
 6322SOL    HW230600   4.429   3.734   4.967  0.0456  0.2032  0.9407
 6323SOL     OW30601   0.163   1.448   5.516  0.0760  0.0724 -0.3574
 6323SOL    HW130602   0.096   1.509   5.485  0.4484 -0.0189 -1.3495
 6323SOL    HW230603   0.146   1.380   5.451 -0.4382  1.4140 -1.6101
 6324SOL     OW30604   1.910   3.721   4.036  0.1558  0.3189 -0.0181
 6324SOL    HW130605   1.940   3.647   3.983 -0.1327  1.4361 -1.7390
 6324SOL    HW230606   1.846   3.678   4.093 -1.5628 -0.2566 -2.4163
 6325SOL     OW30607   4.596   0.035   1.560  0.0421  0.3389  0.2519
 6325SOL    HW130608   4.513   0.063   1.598 -1.1837 -0.3282 -1.9373
 6325SOL    HW230609   4.576   4.675   1.544  1.3352  0.1776 -0.4370
 6326SOL     OW30610   3.540   3.555  11.356  0.2183  0.4259  0.2720
 6326SOL    HW130611   3.508   3.470  11.328  2.7352 -0.8780  1.4037
 6326SOL    HW230612   3.551   3.536  11.449 -1.6022  1.9087  0.7894
 6327SOL     OW30613   0.599   0.111  13.094 -0.6281 -0.2324 -0.7201
 6327SOL    HW130614   0.649   0.058  13.031  0.0908 -1.1157  0.5902
 6327SOL    HW230615   0.656   0.094  13.170  2.7655 -0.3321 -3.2548
 6328SOL     OW30616   4.367   2.116   7.808  0.0544  0.1260 -0.6606
 6328SOL    HW130617   4.406   2.059   7.741 -0.6143  1.4294 -2.1548
 6328SOL    HW230618   4.425   2.191   7.797  3.3302 -2.4451 -1.0005
 6329SOL     OW30619   3.912   0.793   6.541  0.0497 -0.0968  0.4840
 6329SOL    HW130620   3.916   0.707   6.500  1.1590 -0.3375  1.0792
 6329SOL    HW230621   3.870   0.776   6.625 -4.6272  2.7781 -1.3078
 6330SOL     OW30622   3.682   3.903   2.888  0.1447 -0.3757  0.5283
 6330SOL    HW130623   3.735   3.948   2.822 -0.4181 -1.0243 -0.3686
 6330SOL    HW230624   3.730   3.822   2.902  1.2799  0.0357 -1.0343
 6331SOL     OW30625   3.003   2.793   4.144  0.2999 -0.6119  0.5496
 6331SOL    HW130626   2.912   2.812   4.166 -0.0780  2.1673 -3.5271
 6331SOL    HW230627   2.984   2.747   4.063 -2.4239 -1.7167  1.8267
 6332SOL     OW30628   3.001   1.912   4.955  0.0235  0.1994  0.3092
 6332SOL    HW130629   3.049   1.834   4.929 -2.0652 -0.7507 -0.7348
 6332SOL    HW230630   2.912   1.879   4.970 -0.0641 -0.0030 -0.6807
 6333SOL     OW30631   2.068   0.911   6.222 -0.3210 -0.4551  0.0759
 6333SOL    HW130632   1.997   0.873   6.272  1.3030 -0.9083  2.0259
 6333SOL    HW230633   2.033   0.908   6.133  0.2081 -0.8750 -0.1168
 6334SOL     OW30634   1.933   3.994   3.712  0.0411 -0.1069  0.4582
 6334SOL    HW130635   1.871   4.064   3.731 -2.1009 -1.7454 -0.4527
 6334SOL    HW230636   1.989   4.035   3.645 -1.6477  0.7793 -0.3987
 6335SOL     OW30637   2.387   2.875  16.843 -0.1184 -0.2079  0.0006
 6335SOL    HW130638   2.423   2.867  16.754 -1.1558 -1.1055 -0.3360
 6335SOL    HW230639   2.358   2.967  16.841  1.6357  0.3832  2.3764
 6336SOL     OW30640   2.403   0.099  15.810 -0.0305  0.2772  0.2496
 6336SOL    HW130641   2.403   0.190  15.839  2.9669  0.3190  0.0736
 6336SOL    HW230642   2.478   0.110  15.752 -2.1695 -1.6221 -2.8763
 6337SOL     OW30643   3.514   3.597   5.939 -0.0895  0.1891  0.7115
 6337SOL    HW130644   3.424   3.624   5.920 -0.3064 -0.6974  0.5013
 6337SOL    HW230645   3.524   3.560   5.851 -0.1655  1.8041  0.0173
 6338SOL     OW30646   3.485   1.142   7.327  0.2339  0.6710 -0.0505
 6338SOL    HW130647   3.525   1.228   7.338  1.1633  0.3340 -0.8536
 6338SOL    HW230648   3.496   1.127   7.233  0.4649  1.3752 -0.1397
 6339SOL     OW30649   0.832   4.091   3.060  0.2093 -0.1089 -0.2891
 6339SOL    HW130650   0.880   4.118   2.981  0.0443  3.2516  0.7341
 6339SOL    HW230651   0.755   4.147   3.049  0.3960  0.1349 -0.3674
 6340SOL     OW30652   2.672   2.244   7.555 -0.8248  0.4807 -0.5219
 6340SOL    HW130653   2.678   2.166   7.610 -0.6953 -0.1764 -1.4556
 6340SOL    HW230654   2.700   2.305   7.623 -0.4109 -0.3519  0.0525
 6341SOL     OW30655   1.207   2.439  16.851 -0.0222 -0.3056 -0.0877
 6341SOL    HW130656   1.220   2.519  16.901 -1.1793 -0.3229  0.2420
 6341SOL    HW230657   1.111   2.442  16.844 -0.0223 -1.2077 -0.4390
 6342SOL     OW30658   1.566   0.926   0.058  0.4040  0.0815  0.1009
 6342SOL    HW130659   1.484   0.942   0.012  0.3202 -0.8617 -0.0795
 6342SOL    HW230660   1.631   0.977   0.009  3.2839 -2.2232  1.4587
 6343SOL     OW30661   0.550   3.448   8.267 -0.4843 -0.2595  0.2715
 6343SOL    HW130662   0.469   3.499   8.275 -0.7782 -0.8624  1.0925
 6343SOL    HW230663   0.531   3.373   8.322  0.1243  0.4506  1.4695
 6344SOL     OW30664   3.286   0.824   7.138  0.2697  0.3868  0.8184
 6344SOL    HW130665   3.301   0.849   7.229 -3.0234  0.1582  1.4312
 6344SOL    HW230666   3.194   0.849   7.133  0.2479  0.1174 -0.1509
 6345SOL     OW30667   1.634   4.513  11.147 -0.0147 -0.0638  0.3196
 6345SOL    HW130668   1.597   4.565  11.075  2.8602  0.3069 -0.9037
 6345SOL    HW230669   1.705   4.570  11.175 -0.4447  0.8967 -0.5165
 6346SOL     OW30670   3.675   1.034   5.060 -0.1300  0.7515 -0.0784
 6346SOL    HW130671   3.598   1.023   5.117  2.0639  0.8233  2.8961
 6346SOL    HW230672   3.726   0.958   5.091 -0.7586  0.4071  0.1185
 6347SOL     OW30673   1.570   2.566   4.903 -0.4659  0.5272 -0.1766
 6347SOL    HW130674   1.622   2.486   4.909 -1.0812  0.1912  0.5773
 6347SOL    HW230675   1.524   2.545   4.984  1.2397  0.1505  0.7003
 6348SOL     OW30676   2.030   3.437  13.031 -0.3067  0.1962  0.4121
 6348SOL    HW130677   2.115   3.477  13.014  0.2194  0.1961  3.0333
 6348SOL    HW230678   1.974   3.488  12.972  1.3041  0.4009 -0.9534
 6349SOL     OW30679   0.721   0.013  17.205 -0.5330  0.9348  0.2635
 6349SOL    HW130680   0.633   0.046  17.189 -0.4281  0.3880 -1.4692
 6349SOL    HW230681   0.767   0.096  17.204 -2.1037  1.7940 -0.1103
 6350SOL     OW30682   0.980   3.889  15.851  0.1974 -0.2818  0.2666
 6350SOL    HW130683   0.901   3.842  15.878 -0.8434  1.1098 -0.2870
 6350SOL    HW230684   0.940   3.975  15.836 -0.6050 -0.7981 -0.6009
 6351SOL     OW30685   1.833   4.454   0.135 -0.0264  0.1782 -0.5203
 6351SOL    HW130686   1.925   4.460   0.160  0.3437 -1.6445 -1.4960
 6351SOL    HW230687   1.827   4.502   0.052 -0.2851 -1.3430 -1.3690
 6352SOL     OW30688   1.550   4.611   7.475  0.7945 -0.0636  0.0923
 6352SOL    HW130689   1.514   4.526   7.500  1.2408 -0.4925 -0.7574
 6352SOL    HW230690   1.507   4.634   7.393  2.0772  0.9111 -0.2921
 6353SOL     OW30691   2.205   1.762   5.736  0.2179 -0.1208 -0.2836
 6353SOL    HW130692   2.128   1.767   5.679 -0.7015 -1.5101  0.8332
 6353SOL    HW230693   2.168   1.692   5.790  0.3551  0.4630  0.5716
 6354SOL     OW30694   4.127   3.694   7.036 -0.1011  0.2135 -0.5537
 6354SOL    HW130695   4.181   3.748   6.978  0.0746 -1.8173 -2.2524
 6354SOL    HW230696   4.061   3.656   6.977 -0.0025 -1.8858  0.7159
 6355SOL     OW30697   1.673   1.751   1.487  0.0509  0.7834 -0.2183
 6355SOL    HW130698   1.660   1.807   1.410 -0.2467  1.3476  0.2356
 6355SOL    HW230699   1.589   1.767   1.531  0.3278  2.1023 -0.1558
 6356SOL     OW30700   1.443   0.558  13.741 -0.3954  0.0758  0.1032
 6356SOL    HW130701   1.369   0.616  13.758  1.5428  1.6326  3.3521
 6356SOL    HW230702   1.506   0.613  13.695  0.5865 -1.4423 -0.3791
 6357SOL     OW30703   0.988   1.689   2.621 -0.5766  0.5652 -0.1360
 6357SOL    HW130704   1.035   1.772   2.628 -0.3670  0.3504  0.9633
 6357SOL    HW230705   0.897   1.715   2.606 -0.7000  0.6500  0.7936
 6358SOL     OW30706   1.585   3.211   6.579  0.6410 -0.3276 -0.1660
 6358SOL    HW130707   1.676   3.189   6.561  0.5608  0.2477 -1.2756
 6358SOL    HW230708   1.595   3.299   6.616 -0.2720 -0.4795  0.4502
 6359SOL     OW30709   4.672   3.526   8.540 -0.5707 -0.2987 -0.3761
 6359SOL    HW130710   4.691   3.508   8.448 -0.2294 -3.0054  0.2395
 6359SOL    HW230711   4.580   3.556   8.540 -1.1296 -2.0373  2.9865
 6360SOL     OW30712   1.892   2.988   7.386 -1.0544  0.2549  0.1853
 6360SOL    HW130713   1.802   3.016   7.372 -0.6594  0.1352 -2.5014
 6360SOL    HW230714   1.868   2.944   7.468  0.1020 -1.2542 -0.2806
 6361SOL     OW30715   1.147   0.345   6.796  0.1147 -0.2768  0.5521
 6361SOL    HW130716   1.145   0.361   6.891  0.5109  0.3254  0.4588
 6361SOL    HW230717   1.206   0.411   6.761  0.2987 -0.2785  0.8564
 6362SOL     OW30718   3.550   2.489   7.103 -0.2553 -0.7595  0.0395
 6362SOL    HW130719   3.476   2.538   7.141 -1.2238 -1.7002 -0.6492
 6362SOL    HW230720   3.573   2.533   7.021  0.0760 -1.0820 -0.0405
 6363SOL     OW30721   4.536   3.649   7.313 -0.2073 -0.6506 -0.2603
 6363SOL    HW130722   4.446   3.681   7.306  0.3744  0.5970 -2.0250
 6363SOL    HW230723   4.576   3.714   7.256 -0.8379 -1.4247 -1.5791
 6364SOL     OW30724   2.828   3.837  14.536  0.0442  0.1723  0.1126
 6364SOL    HW130725   2.846   3.928  14.513  0.7010 -0.1452 -0.6557
 6364SOL    HW230726   2.908   3.817  14.585  0.4381  2.1424  0.2547
 6365SOL     OW30727   4.674   2.949   3.615 -0.0392  0.6534  0.1126
 6365SOL    HW130728   4.610   2.994   3.670 -1.8400  1.6671 -2.8135
 6365SOL    HW230729   0.016   3.010   3.617 -0.0805  0.7224 -0.4334
 6366SOL     OW30730   3.566   3.945   3.817 -0.3917  0.0918 -0.1430
 6366SOL    HW130731   3.550   3.879   3.885  0.9351  1.2241  1.2718
 6366SOL    HW230732   3.490   4.001   3.834  0.2241  0.6538  0.7164
 6367SOL     OW30733   1.656   0.402   1.732 -0.4764  0.1562 -0.1350
 6367SOL    HW130734   1.670   0.423   1.639  0.1592  2.4931  0.5029
 6367SOL    HW230735   1.742   0.364   1.748 -0.5308 -0.6238 -1.6097
 6368SOL     OW30736   0.307   3.425  14.298 -0.0318 -0.0173  0.1950
 6368SOL    HW130737   0.281   3.408  14.388 -0.3347 -2.0302 -0.2735
 6368SOL    HW230738   0.396   3.457  14.311 -0.3295  0.5328  0.8408
 6369SOL     OW30739   3.536   3.121   3.156  0.3884 -0.3328 -0.6393
 6369SOL    HW130740   3.593   3.100   3.230  0.8960  0.3889 -0.8219
 6369SOL    HW230741   3.458   3.074   3.184  0.8618 -0.6324  0.2014
 6370SOL     OW30742   4.593   4.172   4.028  0.1071  0.0085  0.0020
 6370SOL    HW130743   4.540   4.169   4.107  1.6707  1.4926  1.0832
 6370SOL    HW230744   4.533   4.148   3.957 -0.6405  0.1188  0.6016
 6371SOL     OW30745   4.239   0.973   2.909  0.0936  0.1663  0.0595
 6371SOL    HW130746   4.230   1.049   2.850  1.4041  1.1055  1.0627
 6371SOL    HW230747   4.165   0.986   2.968 -1.0660 -1.2414 -1.0888
 6372SOL     OW30748   3.128   2.556   9.410  0.0872  0.7940  0.8756
 6372SOL    HW130749   3.075   2.558   9.490 -0.7220  1.3325  0.3128
 6372SOL    HW230750   3.208   2.601   9.438  1.2231 -0.2149 -0.7589
 6373SOL     OW30751   1.990   3.097  16.030 -0.4474  0.2719 -0.4541
 6373SOL    HW130752   1.965   3.008  16.052  2.2475  0.0935  1.8816
 6373SOL    HW230753   2.067   3.094  15.974 -0.6984 -0.3034 -0.7627
 6374SOL     OW30754   1.228   3.811   5.567 -0.4752 -0.4143  0.4248
 6374SOL    HW130755   1.199   3.778   5.653  1.3107 -2.0580  0.3867
 6374SOL    HW230756   1.153   3.774   5.519  0.7306  1.1231 -2.6244
 6375SOL     OW30757   3.795   0.479   4.156  0.4416  0.3250 -0.0196
 6375SOL    HW130758   3.733   0.411   4.129  1.2605 -0.7456  0.7958
 6375SOL    HW230759   3.874   0.446   4.114  1.4583 -1.4541  3.3090
 6376SOL     OW30760   1.808   3.436   6.901 -0.0435  0.0660  0.4792
 6376SOL    HW130761   1.811   3.357   6.954 -0.3503  0.4261  1.0363
 6376SOL    HW230762   1.838   3.401   6.818 -0.7001 -1.0041  0.6940
 6377SOL     OW30763   4.362   0.622   8.267  0.3379  0.1952 -0.2396
 6377SOL    HW130764   4.361   0.702   8.320 -1.7847  0.7953 -1.2122
 6377SOL    HW230765   4.280   0.584   8.297 -2.0599  4.3932 -1.5345
 6378SOL     OW30766   2.423   3.110   6.829 -0.2001 -0.3752 -0.1728
 6378SOL    HW130767   2.337   3.152   6.825 -0.0886 -0.1248  0.0662
 6378SOL    HW230768   2.474   3.161   6.891 -0.1192 -0.6009 -0.0520
 6379SOL     OW30769   0.452   0.854   9.763 -0.4120  0.0840  0.0591
 6379SOL    HW130770   0.432   0.926   9.822  1.6874  1.5636 -1.0262
 6379SOL    HW230771   0.492   0.786   9.818 -1.3750  0.0293  0.6862
 6380SOL     OW30772   0.807   2.170   4.726 -0.6731 -0.5495  0.7321
 6380SOL    HW130773   0.822   2.250   4.675 -1.7082 -0.1223  1.0902
 6380SOL    HW230774   0.834   2.098   4.669 -0.1352 -0.2425  0.6033
 6381SOL     OW30775   1.245   2.046   1.936 -0.5570  0.4048  0.3864
 6381SOL    HW130776   1.181   1.980   1.907  1.0640  0.4547 -3.3979
 6381SOL    HW230777   1.184   2.116   1.960 -0.1025  1.0995 -0.4911
 6382SOL     OW30778   4.677   2.457   6.732 -0.0664 -0.3819  0.5815
 6382SOL    HW130779   4.602   2.440   6.788 -0.2078 -2.2954 -0.1870
 6382SOL    HW230780   0.018   2.470   6.793  1.2456  0.4858 -1.1673
 6383SOL     OW30781   0.401   3.386   6.110  0.2871 -0.6232  0.1736
 6383SOL    HW130782   0.347   3.428   6.176  0.8168 -0.1011  0.2813
 6383SOL    HW230783   0.415   3.301   6.151 -2.1643 -1.3946 -0.6269
 6384SOL     OW30784   3.152   1.894  11.582 -0.0351 -0.2181  0.3789
 6384SOL    HW130785   3.147   1.959  11.511 -1.3252 -1.3090 -0.5506
 6384SOL    HW230786   3.089   1.937  11.640  0.8294  1.4084  0.1273
 6385SOL     OW30787   3.987   4.505  12.463 -0.3023  0.0050 -0.0730
 6385SOL    HW130788   4.070   4.458  12.448  1.1233  2.6106 -0.2278
 6385SOL    HW230789   3.948   4.450  12.531 -0.6456  0.2139 -0.1031
 6386SOL     OW30790   3.823   3.120  10.369 -0.0556  0.9741  0.0817
 6386SOL    HW130791   3.790   3.166  10.292 -1.6509 -0.6993 -0.2408
 6386SOL    HW230792   3.820   3.026  10.352  2.7873  1.3174 -2.2635
 6387SOL     OW30793   2.421   2.859  11.309 -0.4555 -0.0316  0.4857
 6387SOL    HW130794   2.493   2.819  11.358  0.9489  0.9048 -0.7754
 6387SOL    HW230795   2.459   2.897  11.229  0.8469 -2.2576  0.0477
 6388SOL     OW30796   2.442   0.815   2.619  0.2780  0.0209  0.3841
 6388SOL    HW130797   2.355   0.851   2.604 -0.6128 -1.6794  1.4722
 6388SOL    HW230798   2.426   0.721   2.629  0.6715 -0.0383  0.4808
 6389SOL     OW30799   2.458   1.156   6.648  0.4600  0.4202 -0.2171
 6389SOL    HW130800   2.537   1.207   6.669  0.5207 -0.3620  1.4971
 6389SOL    HW230801   2.476   1.068   6.681  1.3466 -0.2232 -2.4293
 6390SOL     OW30802   0.064   2.550   5.023  0.1836  0.4984  0.2011
 6390SOL    HW130803   4.723   2.496   5.051 -0.0106  0.8720  0.4188
 6390SOL    HW230804   0.102   2.483   4.967  1.2441  0.8485  0.5103
 6391SOL     OW30805   3.240   2.147   3.630 -0.2697  0.1754 -0.0785
 6391SOL    HW130806   3.229   2.207   3.556 -0.6049  0.7022  0.3968
 6391SOL    HW230807   3.267   2.216   3.690  1.4254 -1.7082  1.3365
 6392SOL     OW30808   0.239   4.709   4.670  0.7193 -0.6350  0.0302
 6392SOL    HW130809   0.286   0.053   4.637  1.1149 -1.5201 -1.4454
 6392SOL    HW230810   0.275   4.709   4.759  1.5650 -0.8120 -0.3147
 6393SOL     OW30811   3.351   1.082   9.601  0.3946  0.4352  0.0123
 6393SOL    HW130812   3.381   0.993   9.616  2.6824  1.2418  0.1882
 6393SOL    HW230813   3.398   1.128   9.670  1.8100 -0.2593 -0.4994
 6394SOL     OW30814   1.444   2.642  10.997  1.2535 -0.4006  0.3702
 6394SOL    HW130815   1.509   2.640  10.927  1.4722  3.1399  0.4953
 6394SOL    HW230816   1.499   2.668  11.070  1.3935  1.8484 -0.5552
 6395SOL     OW30817   4.007   4.270   8.621  0.4819  0.1580 -0.4964
 6395SOL    HW130818   4.101   4.256   8.634  0.3194  0.0450  0.5241
 6395SOL    HW230819   3.978   4.254   8.710  0.0739 -1.5980 -0.9503
 6396SOL     OW30820   2.269   2.538  16.897  0.6081 -0.2119 -0.7303
 6396SOL    HW130821   2.336   2.573  16.839  0.9715 -0.9623 -0.7554
 6396SOL    HW230822   2.247   2.605  16.962  1.1828  0.5324 -1.3071
 6397SOL     OW30823   3.423   2.545   2.186 -0.0938  0.2939  0.4033
 6397SOL    HW130824   3.406   2.638   2.172 -0.9866 -0.3121 -2.3858
 6397SOL    HW230825   3.337   2.510   2.166  0.1352 -0.9028  1.5054
 6398SOL     OW30826   4.120   4.379  14.676  0.8583  0.4797 -0.4752
 6398SOL    HW130827   4.064   4.448  14.713  1.7149  1.4594 -1.0164
 6398SOL    HW230828   4.136   4.420  14.591 -0.9879 -0.1237 -1.1220
 6399SOL     OW30829   3.504   1.321  17.104  0.6457 -0.4556  0.1806
 6399SOL    HW130830   3.472   1.307  17.015  0.1626  1.5849  0.0219
 6399SOL    HW230831   3.440   1.387  17.131  0.2777 -1.2001  1.1028
 6400SOL     OW30832   3.908   2.301  13.259 -0.1071  0.7826  0.2996
 6400SOL    HW130833   3.842   2.271  13.321 -0.2441 -0.8441 -0.6336
 6400SOL    HW230834   3.862   2.373  13.214 -2.0394 -0.4059  0.4123
 6401SOL     OW30835   0.689   4.277  10.081 -0.0202  0.0655 -0.4655
 6401SOL    HW130836   0.725   4.308   9.998  1.4735  0.1375  0.2117
 6401SOL    HW230837   0.675   4.351  10.139 -0.1483 -0.9418  0.7974
 6402SOL     OW30838   4.318   1.707  14.895 -0.3741  0.2152  0.2527
 6402SOL    HW130839   4.358   1.766  14.960  1.5075 -0.1105 -0.6067
 6402SOL    HW230840   4.279   1.777  14.842  0.1621  0.0809 -0.3136
 6403SOL     OW30841   1.118   2.207  14.149  0.0408 -0.3627 -0.3221
 6403SOL    HW130842   1.024   2.188  14.151  0.3581 -1.6566  2.3731
 6403SOL    HW230843   1.143   2.136  14.091 -1.1182 -1.2586  0.2831
 6404SOL     OW30844   4.475   2.596   0.502 -0.3827  0.0523 -0.2848
 6404SOL    HW130845   4.566   2.610   0.477 -0.7296  0.5949 -1.2603
 6404SOL    HW230846   4.430   2.680   0.493 -1.4167 -0.5692 -0.9401
 6405SOL     OW30847   1.593   3.553  14.484 -0.3735  0.2564  0.0081
 6405SOL    HW130848   1.517   3.506  14.449  1.2560 -1.0796 -1.7462
 6405SOL    HW230849   1.653   3.481  14.502  1.1498  0.5452 -4.0084
 6406SOL     OW30850   2.978   0.709   3.199 -0.2220 -0.5204 -0.2083
 6406SOL    HW130851   3.044   0.641   3.216 -1.4777 -1.9015 -0.8944
 6406SOL    HW230852   2.898   0.656   3.199 -0.9485  0.5901 -0.2122
 6407SOL     OW30853   4.543   3.758   4.507 -0.7181  0.4489 -0.6421
 6407SOL    HW130854   4.521   3.850   4.498 -0.6660  0.3097 -2.1908
 6407SOL    HW230855   4.623   3.757   4.454 -1.2528  1.0467 -1.4588
 6408SOL     OW30856   0.960   3.999   0.173  0.0956  0.5090  0.7468
 6408SOL    HW130857   1.010   4.031   0.098  0.5938 -0.1150  0.8131
 6408SOL    HW230858   1.024   3.940   0.214 -0.6222 -0.4321  0.5028
 6409SOL     OW30859   2.428   3.484   7.030  0.0748  0.6044 -0.2970
 6409SOL    HW130860   2.384   3.470   7.113 -1.0727  0.8259 -0.8715
 6409SOL    HW230861   2.486   3.409   7.023  1.4484  1.4575  1.8104
 6410SOL     OW30862   1.694   0.444  13.221 -0.0192 -0.1282 -0.0048
 6410SOL    HW130863   1.650   0.449  13.305 -0.3727 -0.4539 -0.1719
 6410SOL    HW230864   1.668   0.358  13.188  0.7561 -0.9620  1.5561
 6411SOL     OW30865   4.326   1.420   2.559  0.1197 -0.0279  0.0006
 6411SOL    HW130866   4.359   1.335   2.528  2.3146  1.4111 -1.6685
 6411SOL    HW230867   4.259   1.443   2.494 -1.5478 -2.1139  0.9846
 6412SOL     OW30868   2.717   2.302   0.032  0.0591  1.0004  0.7344
 6412SOL    HW130869   2.764   2.241  17.704 -1.5070 -0.9858  1.5713
 6412SOL    HW230870   2.637   2.255   0.054  0.7387 -1.1436 -1.4066
 6413SOL     OW30871   2.135   3.914   9.853  0.5109 -0.6648  0.3268
 6413SOL    HW130872   2.064   3.868   9.898  2.1278 -2.1087  1.3850
 6413SOL    HW230873   2.143   3.986   9.915 -0.4757 -0.2321 -0.0473
 6414SOL     OW30874   1.533   1.065   3.258  0.0056  0.4040 -0.1270
 6414SOL    HW130875   1.517   1.152   3.296 -0.8044  0.4598 -0.5959
 6414SOL    HW230876   1.628   1.068   3.251 -0.0105  0.0891 -0.4343
 6415SOL     OW30877   2.853   1.571   7.700  0.1512 -0.1665  0.6932
 6415SOL    HW130878   2.766   1.532   7.713  0.5047 -0.0548  3.3269
 6415SOL    HW230879   2.906   1.492   7.695 -1.8746 -1.4181 -1.5305
 6416SOL     OW30880   0.099   4.609   5.007 -0.2415  0.4677 -0.1735
 6416SOL    HW130881   0.144   4.524   5.000 -0.7868  0.0910  0.8342
 6416SOL    HW230882   0.176   4.664   4.992 -0.1253 -0.0192 -1.3455
 6417SOL     OW30883   3.578   0.135  13.431  0.0581  0.1543 -0.3493
 6417SOL    HW130884   3.512   0.168  13.491  0.1044 -0.2077 -0.1016
 6417SOL    HW230885   3.557   0.186  13.353  0.4434 -0.4714 -0.8669
 6418SOL     OW30886   0.605   4.137   9.111 -0.5471 -0.2142  0.3977
 6418SOL    HW130887   0.684   4.085   9.124  1.2332  1.8147 -2.2091
 6418SOL    HW230888   0.540   4.068   9.101  1.7554 -2.0507 -1.6660
 6419SOL     OW30889   2.303   2.634  11.897 -0.2191 -0.0619  0.0843
 6419SOL    HW130890   2.315   2.659  11.806 -2.0560 -0.8550 -0.3846
 6419SOL    HW230891   2.243   2.561  11.878  1.0012 -0.6529 -1.4722
 6420SOL     OW30892   1.826   1.073   7.357  0.0160 -0.4772 -0.0680
 6420SOL    HW130893   1.840   1.012   7.285 -0.0214 -0.7379  0.1445
 6420SOL    HW230894   1.748   1.121   7.331  0.5177 -0.3053 -1.2546
 6421SOL     OW30895   4.110   1.228   4.138  0.3637 -0.3869  0.0586
 6421SOL    HW130896   4.135   1.316   4.109 -0.2720 -0.3136 -0.2763
 6421SOL    HW230897   4.176   1.176   4.092 -0.7991 -1.3886 -0.4762
 6422SOL     OW30898   2.047   2.238   5.162  0.9907 -0.5510 -0.4689
 6422SOL    HW130899   2.099   2.182   5.219  0.5812  0.5542  0.9820
 6422SOL    HW230900   2.108   2.311   5.151  0.0950  0.1153 -1.0040
 6423SOL     OW30901   4.267   1.955   8.334 -0.0754 -0.4772  0.2234
 6423SOL    HW130902   4.348   1.912   8.304  0.5253  0.7709  0.0601
 6423SOL    HW230903   4.291   1.982   8.423 -1.2710 -0.8290  0.6480
 6424SOL     OW30904   0.888   4.196   1.152 -0.1008  0.0667  0.7597
 6424SOL    HW130905   0.978   4.189   1.184 -0.4392  0.8239  1.8847
 6424SOL    HW230906   0.861   4.285   1.176  1.0527  0.6522 -0.0615
 6425SOL     OW30907   3.719   1.240   3.702  0.1507  0.9085 -0.2497
 6425SOL    HW130908   3.757   1.232   3.615 -1.0589 -1.1534 -0.5846
 6425SOL    HW230909   3.678   1.154   3.706  0.5745  0.7865  1.3657
 6426SOL     OW30910   1.213   2.164  15.330 -0.5659 -0.1479  0.4498
 6426SOL    HW130911   1.251   2.250  15.310 -2.9371  0.2244 -2.4386
 6426SOL    HW230912   1.186   2.138  15.242  2.3426  1.5328 -0.9404
 6427SOL     OW30913   0.750   1.215   9.688  0.1093 -0.1967 -0.0231
 6427SOL    HW130914   0.845   1.225   9.683  0.2643 -1.0007  1.4405
 6427SOL    HW230915   0.740   1.123   9.711  0.1979 -0.6499 -1.7544
 6428SOL     OW30916   0.100   4.704   4.147  0.4429 -0.2999  0.0108
 6428SOL    HW130917   0.104   0.066   4.134  0.2817 -0.2835  0.0873
 6428SOL    HW230918   0.079   4.670   4.060  3.1639 -0.0889 -0.7234
 6429SOL     OW30919   2.082   2.252   4.309  0.5749  0.4169  0.2070
 6429SOL    HW130920   1.994   2.277   4.336 -0.7147 -2.1740 -1.5800
 6429SOL    HW230921   2.108   2.183   4.369  3.1514 -0.5207 -2.0143
 6430SOL     OW30922   0.532   1.761   5.103 -0.2107 -0.7603  0.0568
 6430SOL    HW130923   0.535   1.669   5.080  0.9498 -0.2276 -1.9065
 6430SOL    HW230924   0.619   1.776   5.139 -0.3352 -0.2051  0.1411
 6431SOL     OW30925   4.696   3.756  14.646 -0.1921  0.2488  0.0546
 6431SOL    HW130926   4.666   3.842  14.615 -0.2369 -0.1338 -0.9518
 6431SOL    HW230927   0.053   3.744  14.613 -1.8186 -0.2477 -4.1450
 6432SOL     OW30928   0.853   3.320   0.506  0.7800 -0.3237  0.6793
 6432SOL    HW130929   0.846   3.383   0.577  1.2337 -1.8297  2.0723
 6432SOL    HW230930   0.936   3.278   0.528  0.3607 -0.6159  1.7485
 6433SOL     OW30931   4.412   3.716   0.011  0.6216  0.3125  0.0501
 6433SOL    HW130932   4.486   3.688   0.065  1.1887 -0.3582 -1.0776
 6433SOL    HW230933   4.442   3.732  17.651  0.8891  1.7185  0.3788
 6434SOL     OW30934   0.259   4.679   7.868  0.9622 -0.1187  0.5198
 6434SOL    HW130935   0.217   0.015   7.921 -2.0038  0.0913 -2.1243
 6434SOL    HW230936   0.233   4.595   7.906 -0.3622 -0.0466 -0.2071
 6435SOL     OW30937   4.179   1.259  12.286 -0.0894  0.3455 -0.5194
 6435SOL    HW130938   4.220   1.342  12.310 -1.4480  0.2846  2.0008
 6435SOL    HW230939   4.142   1.223  12.367  0.2487 -1.1153 -1.0178
 6436SOL     OW30940   2.433   3.272  14.567 -0.2072  0.2768  0.0176
 6436SOL    HW130941   2.338   3.281  14.556 -0.3250 -0.0682  0.6991
 6436SOL    HW230942   2.448   3.336  14.637 -1.0258  1.0994 -0.5665
 6437SOL     OW30943   3.643   0.976  11.975  0.6126  0.0939  0.0073
 6437SOL    HW130944   3.631   0.905  12.038 -1.5263 -0.2834 -0.8127
 6437SOL    HW230945   3.551   0.984  11.951  0.7194 -0.3086 -0.5398
 6438SOL     OW30946   3.634   0.337   7.723 -0.5527 -0.1368  0.0959
 6438SOL    HW130947   3.636   0.432   7.732 -1.7110 -0.0726 -0.3519
 6438SOL    HW230948   3.728   0.330   7.703 -0.4769  0.3536  0.2658
 6439SOL     OW30949   3.053   0.246  16.026 -0.0153 -0.1190 -0.2064
 6439SOL    HW130950   3.038   0.154  16.007 -0.1104 -0.5405  1.9758
 6439SOL    HW230951   3.108   0.272  15.951 -0.8553  3.8764  0.5436
 6440SOL     OW30952   2.696   4.723  11.110  0.7459 -0.1790  0.4167
 6440SOL    HW130953   2.757   4.664  11.154  1.5335 -0.9569 -1.7315
 6440SOL    HW230954   2.631   4.715  11.180  0.2278 -0.2632 -0.0824
 6441SOL     OW30955   1.714   2.617   8.056  0.6770  0.2064  0.3524
 6441SOL    HW130956   1.679   2.662   7.979 -0.8229 -0.7654  0.4534
 6441SOL    HW230957   1.800   2.657   8.069  0.6155  0.3705  0.2551
 6442SOL     OW30958   2.269   3.341   4.764 -0.0258 -0.0412  0.1861
 6442SOL    HW130959   2.342   3.402   4.753  0.0290  0.0548  1.1111
 6442SOL    HW230960   2.267   3.307   4.675  1.6851  2.2264 -0.7217
 6443SOL     OW30961   1.775   4.218   5.261  0.0146  0.0805  0.1388
 6443SOL    HW130962   1.849   4.264   5.219 -0.0329  0.2178  0.2040
 6443SOL    HW230963   1.701   4.267   5.225 -0.4455 -1.9695 -1.7330
 6444SOL     OW30964   1.697   2.508   1.589  0.4697 -0.3586 -0.7045
 6444SOL    HW130965   1.663   2.459   1.664  0.5590  0.5905 -0.0543
 6444SOL    HW230966   1.792   2.495   1.589  0.5843  0.5568  0.8584
 6445SOL     OW30967   1.814   0.815   7.950  0.1389 -0.7657 -0.2964
 6445SOL    HW130968   1.823   0.729   7.992  2.7518  0.6272  1.9287
 6445SOL    HW230969   1.897   0.819   7.903 -0.4035 -0.0839 -1.1731
 6446SOL     OW30970   1.016   0.615   9.365  0.4889 -0.6758 -0.1379
 6446SOL    HW130971   1.022   0.655   9.452 -0.9879  0.2936 -0.4918
 6446SOL    HW230972   1.089   0.554   9.373  0.2219 -0.7426  1.8378
 6447SOL     OW30973   3.739   0.060   4.746 -0.4596  0.6807 -0.5678
 6447SOL    HW130974   3.681   0.114   4.692 -2.0668  1.1236  1.5918
 6447SOL    HW230975   3.672   0.006   4.787 -0.3888  1.4999  0.6394
 6448SOL     OW30976   0.434   1.400  10.960 -0.2143 -0.2215 -0.3112
 6448SOL    HW130977   0.511   1.436  11.004  1.1228 -1.0884 -1.9294
 6448SOL    HW230978   0.385   1.482  10.950 -0.2559  0.0711  2.3916
 6449SOL     OW30979   0.374   2.851   0.936  0.3580 -0.0563  0.0347
 6449SOL    HW130980   0.358   2.776   0.993 -1.5389  1.0324  0.9249
 6449SOL    HW230981   0.288   2.863   0.896 -0.6890  2.3559  3.0150
 6450SOL     OW30982   2.755   3.574   2.463  0.3602  0.5153  0.8808
 6450SOL    HW130983   2.810   3.605   2.535 -1.0920  0.6817  1.9152
 6450SOL    HW230984   2.813   3.588   2.388 -2.8325  0.8226 -1.5077
 6451SOL     OW30985   1.343   2.919   1.206 -0.7448  0.5744 -0.1253
 6451SOL    HW130986   1.437   2.904   1.199 -0.6791  1.1908 -0.4968
 6451SOL    HW230987   1.330   2.959   1.121  0.7510  0.4914 -0.3972
 6452SOL     OW30988   4.702   0.666   2.618  0.2055  0.0807 -0.2159
 6452SOL    HW130989   4.626   0.709   2.580  0.4428  2.7772  2.3245
 6452SOL    HW230990   0.016   0.732   2.670  3.2172 -2.6250  0.5042
 6453SOL     OW30991   3.453   0.963   1.077  0.6753 -0.8134 -0.4026
 6453SOL    HW130992   3.524   1.026   1.085  1.5923 -2.1380  1.7422
 6453SOL    HW230993   3.391   0.991   1.145 -0.1685 -1.8480 -0.7336
 6454SOL     OW30994   1.468   4.121   8.675  0.5507  0.2145 -0.4499
 6454SOL    HW130995   1.495   4.210   8.697 -3.1642  1.0443  0.7331
 6454SOL    HW230996   1.536   4.089   8.616  0.1967 -0.4633 -0.4886
 6455SOL     OW30997   1.311   0.497  12.703  0.1220 -0.1877 -0.4229
 6455SOL    HW130998   1.342   0.442  12.631  0.9309  1.3672 -1.2494
 6455SOL    HW230999   1.315   0.588  12.673  1.3982  0.2023  0.9124
 6456SOL     OW31000   1.484   1.908   2.031 -0.6400 -0.1212 -0.2401
 6456SOL    HW131001   1.467   1.868   1.945 -0.1409 -2.7352  0.9024
 6456SOL    HW231002   1.418   1.976   2.042  1.1821  1.7410 -0.5864
 6457SOL     OW31003   4.656   2.456   5.434  0.1185 -0.2707  0.6740
 6457SOL    HW131004   4.571   2.500   5.432 -0.0102 -0.5487 -0.0356
 6457SOL    HW231005   4.718   2.528   5.424 -2.6627  1.9167 -0.7054
 6458SOL     OW31006   4.335   0.518   6.182 -0.2183  0.5371  0.0833
 6458SOL    HW131007   4.356   0.432   6.219  1.3590  0.9290  0.0828
 6458SOL    HW231008   4.370   0.504   6.095 -0.6116  1.1085 -0.1676
 6459SOL     OW31009   0.859   4.288   4.020  0.1206 -0.0559 -0.1694
 6459SOL    HW131010   0.786   4.308   4.078  0.9304  0.9471  0.5125
 6459SOL    HW231011   0.822   4.302   3.933  3.5422 -0.7805 -1.7416
 6460SOL     OW31012   3.860   2.528  16.528  0.2334 -0.0133  0.4780
 6460SOL    HW131013   3.833   2.614  16.496  1.3772  0.4953  0.9069
 6460SOL    HW231014   3.774   2.492  16.552  0.8249 -0.6576  1.6372
 6461SOL     OW31015   1.793   1.196   4.942  0.2416  0.1154 -0.0043
 6461SOL    HW131016   1.845   1.274   4.964 -1.9262  1.4001  0.4882
 6461SOL    HW231017   1.849   1.122   4.965 -1.9208 -1.1356  1.1487
 6462SOL     OW31018   0.022   3.221   9.547 -0.5830 -0.5568 -0.0809
 6462SOL    HW131019   0.009   3.304   9.501 -1.2702 -0.6063  0.0213
 6462SOL    HW231020   0.057   3.250   9.632  0.5543  1.7307 -1.3322
 6463SOL     OW31021   0.361   0.698   5.022  0.1283 -0.3308  0.0774
 6463SOL    HW131022   0.383   0.732   5.108  0.9424  1.7156 -0.9376
 6463SOL    HW231023   0.308   0.619   5.030 -1.1253  0.4158 -0.7044
 6464SOL     OW31024   3.877   3.990   5.547  0.0965 -0.1194  0.1115
 6464SOL    HW131025   3.925   4.055   5.598 -0.1353  0.6013 -0.6024
 6464SOL    HW231026   3.883   3.921   5.613  0.5159  0.3519  0.5590
 6465SOL     OW31027   3.723   2.078   2.881  0.4856  0.1576 -0.0876
 6465SOL    HW131028   3.710   1.984   2.893  0.7189  0.4981  3.0375
 6465SOL    HW231029   3.720   2.097   2.788  0.2380  0.2425 -0.0637
 6466SOL     OW31030   1.668   0.257   8.344 -0.4746 -0.5825  0.4081
 6466SOL    HW131031   1.667   0.306   8.262 -0.6504 -0.0149  0.7484
 6466SOL    HW231032   1.735   0.191   8.327 -1.9687 -1.8667 -0.4967
 6467SOL     OW31033   4.506   1.608   9.000  0.7393 -0.7538 -0.3801
 6467SOL    HW131034   4.499   1.683   8.941  0.6441 -0.0141  0.5577
 6467SOL    HW231035   4.557   1.544   8.951  0.2346 -1.0558 -0.5028
 6468SOL     OW31036   2.046   2.601   7.197  0.3242 -0.0134 -0.8271
 6468SOL    HW131037   2.065   2.688   7.162  0.9343 -0.4124 -1.5099
 6468SOL    HW231038   2.109   2.604   7.270 -2.7525 -0.8768  1.8662
 6469SOL     OW31039   1.387   1.948   6.659 -0.1546  0.5135 -0.2611
 6469SOL    HW131040   1.412   2.040   6.655  0.0513  0.5056  0.7977
 6469SOL    HW231041   1.326   1.937   6.586  1.1011 -1.3974 -1.0269
 6470SOL     OW31042   1.634   2.601  10.807 -0.9563  0.6100  0.3354
 6470SOL    HW131043   1.665   2.690  10.790 -1.1725  0.8514  1.1960
 6470SOL    HW231044   1.702   2.589  10.874 -0.1346 -2.7170 -1.0845
 6471SOL     OW31045   4.113   2.543   3.108 -0.5857 -0.1044 -0.4717
 6471SOL    HW131046   4.118   2.557   3.013 -0.4069  2.5592 -0.0756
 6471SOL    HW231047   4.138   2.631   3.137  0.5700 -0.3282 -0.7730
 6472SOL     OW31048   4.473   4.724  16.109  0.6319  0.3137  0.2548
 6472SOL    HW131049   4.424   4.643  16.126  0.3935  0.3443 -0.2902
 6472SOL    HW231050   4.445   0.004  16.019 -1.7536 -0.3447  0.9145
 6473SOL     OW31051   0.785   2.605   0.771 -0.2920  0.5491  0.0195
 6473SOL    HW131052   0.764   2.630   0.861  0.7266  2.1631 -0.1983
 6473SOL    HW231053   0.849   2.668   0.739  2.0741 -2.8668 -2.0364
 6474SOL     OW31054   3.547   2.254   3.890 -0.0283  0.0464 -0.3135
 6474SOL    HW131055   3.523   2.338   3.851 -1.1233 -0.0629  0.1347
 6474SOL    HW231056   3.471   2.196   3.889  0.4713 -0.5826 -1.2664
 6475SOL     OW31057   2.883   2.604   8.837 -0.9943  0.1985 -0.0550
 6475SOL    HW131058   2.913   2.514   8.852 -1.3900  0.2480  1.0828
 6475SOL    HW231059   2.828   2.623   8.913 -0.4198 -0.6868  0.5902
 6476SOL     OW31060   2.092   2.773  12.476 -0.9423  0.0039  0.0991
 6476SOL    HW131061   2.019   2.809  12.426 -2.2308 -1.2301  1.0675
 6476SOL    HW231062   2.118   2.705  12.414 -0.3799  0.2389  0.0813
 6477SOL     OW31063   1.668   0.718   7.364 -0.2059 -0.5848 -0.4169
 6477SOL    HW131064   1.709   0.642   7.321 -1.3733 -0.8670 -1.0199
 6477SOL    HW231065   1.594   0.739   7.308 -1.5226 -0.8388  1.2419
 6478SOL     OW31066   2.022   0.335  14.512 -0.1635 -0.3105  0.6527
 6478SOL    HW131067   1.985   0.414  14.552 -0.1898 -0.3106  0.6293
 6478SOL    HW231068   1.973   0.260  14.546  0.7672 -1.1899  0.0349
 6479SOL     OW31069   4.690   2.633   8.719  0.0200  0.1319  0.0579
 6479SOL    HW131070   4.644   2.552   8.740  0.9577 -0.4201  0.0040
 6479SOL    HW231071   0.043   2.589   8.717  0.1460  0.4082 -0.9146
 6480SOL     OW31072   3.171   2.102   9.700  0.1283 -0.3075  0.1718
 6480SOL    HW131073   3.214   2.179   9.662  0.4929 -0.9405 -0.6841
 6480SOL    HW231074   3.140   2.150   9.777  0.0144  1.1180 -0.7502
 6481SOL     OW31075   0.085   1.751  12.254  0.1255 -0.7048  0.0587
 6481SOL    HW131076   0.015   1.808  12.222 -0.6687 -1.4752  0.4354
 6481SOL    HW231077   0.153   1.815  12.276  0.2090 -0.2061 -1.6718
 6482SOL     OW31078   3.711   1.724   2.554 -0.1019 -0.6402  0.1706
 6482SOL    HW131079   3.714   1.680   2.469  1.1167  0.9146 -0.5929
 6482SOL    HW231080   3.731   1.649   2.610 -1.6756 -1.3077 -0.1383
 6483SOL     OW31081   2.049   1.721  16.631 -0.3245 -0.3524 -0.4209
 6483SOL    HW131082   2.022   1.812  16.639  0.3747 -0.0340 -1.6520
 6483SOL    HW231083   1.995   1.687  16.703  0.2944  0.3614  0.3710
 6484SOL     OW31084   2.139   3.203  12.929  0.2725 -0.2352 -0.1141
 6484SOL    HW131085   2.091   3.230  13.007  1.9938  1.8137  0.2093
 6484SOL    HW231086   2.071   3.241  12.873 -1.2798  0.4542  2.2384
 6485SOL     OW31087   4.204   2.910   6.673  0.1452 -0.1416 -0.0069
 6485SOL    HW131088   4.218   2.966   6.597  1.6245  2.3495  2.0964
 6485SOL    HW231089   4.274   2.937   6.733 -1.5087 -1.8603  2.7019
 6486SOL     OW31090   2.449   3.582   8.724  0.2848 -0.2508 -0.7327
 6486SOL    HW131091   2.486   3.494   8.720  2.3544  0.5568  0.8174
 6486SOL    HW231092   2.435   3.593   8.818 -3.1398 -0.6479 -1.1789
 6487SOL     OW31093   0.308   1.554  17.095 -0.4091 -0.4905 -0.2596
 6487SOL    HW131094   0.267   1.594  17.019 -0.8758  0.7732  0.6606
 6487SOL    HW231095   0.398   1.586  17.091 -0.9547  1.4423  3.2838
 6488SOL     OW31096   3.857   4.022   5.935 -0.4983 -0.0093  0.4784
 6488SOL    HW131097   3.831   3.936   5.967  0.2542 -0.6013 -0.5340
 6488SOL    HW231098   3.787   4.034   5.870  1.2337  2.6936 -0.8924
 6489SOL     OW31099   0.407   1.747   7.962  0.1867  0.1831 -0.1041
 6489SOL    HW131100   0.426   1.813   8.029 -1.2822  1.2275 -0.7119
 6489SOL    HW231101   0.332   1.700   7.999  0.5556 -0.2411  0.1023
 6490SOL     OW31102   0.900   1.725   8.468  0.1413  0.4560 -0.2327
 6490SOL    HW131103   0.873   1.816   8.480 -2.3181 -0.5015  1.6207
 6490SOL    HW231104   0.858   1.682   8.543  0.7154 -0.9249 -0.7077
 6491SOL     OW31105   3.473   3.819   4.494 -0.0074  0.4057 -0.4404
 6491SOL    HW131106   3.551   3.834   4.548 -0.2731 -1.8208  0.5401
 6491SOL    HW231107   3.428   3.774   4.564  1.1905 -0.7845 -0.4256
 6492SOL     OW31108   4.440   3.373   2.946 -0.4960  0.0046 -0.0411
 6492SOL    HW131109   4.491   3.357   3.025 -1.8295 -1.5522  0.5043
 6492SOL    HW231110   4.512   3.413   2.898 -0.6915  1.7231  1.0962
 6493SOL     OW31111   2.964   1.274   9.364 -0.0739  0.1131 -0.5591
 6493SOL    HW131112   3.057   1.250   9.372  0.0082  0.7602  0.4205
 6493SOL    HW231113   2.958   1.328   9.284 -3.0775 -0.2591 -0.5860
 6494SOL     OW31114   4.653   3.234  17.180 -0.0142 -0.3795  0.2049
 6494SOL    HW131115   4.606   3.300  17.232 -0.6547 -1.1348  0.5885
 6494SOL    HW231116   4.584   3.168  17.171  0.2022 -0.3719 -1.3923
 6495SOL     OW31117   0.024   2.748  16.635 -0.1595 -0.3738 -0.5672
 6495SOL    HW131118   4.675   2.795  16.654  0.4113  1.5163 -2.7772
 6495SOL    HW231119   0.038   2.771  16.543  0.5247  1.7446  0.0649
 6496SOL     OW31120   0.704   2.864   2.551  0.0316  0.0303 -0.7892
 6496SOL    HW131121   0.759   2.910   2.615 -1.2961  2.1403 -1.1383
 6496SOL    HW231122   0.647   2.931   2.513  1.4731  1.2735 -0.7833
 6497SOL     OW31123   0.603   1.150   5.375  0.3875  0.0258 -0.1907
 6497SOL    HW131124   0.531   1.088   5.386  1.0266 -0.1213  3.1865
 6497SOL    HW231125   0.553   1.226   5.347  0.4201 -0.8855 -2.7908
 6498SOL     OW31126   1.201   3.645   0.762 -0.1276  0.0204  0.1698
 6498SOL    HW131127   1.193   3.630   0.856 -1.0827 -0.2908  0.0438
 6498SOL    HW231128   1.263   3.717   0.773 -1.9345  1.8051 -1.4984
 6499SOL     OW31129   2.071   2.118   3.386 -0.3487  0.1894 -0.0554
 6499SOL    HW131130   2.156   2.080   3.363  0.5183  1.7319  0.6122
 6499SOL    HW231131   2.015   2.061   3.333  1.6905 -0.4884 -1.4545
 6500SOL     OW31132   0.694   3.948   0.213  0.1739  0.3828  0.2570
 6500SOL    HW131133   0.786   3.951   0.187 -0.1273  1.3779 -0.6895
 6500SOL    HW231134   0.688   4.010   0.286 -2.6209 -0.6635  0.9095
 6501SOL     OW31135   2.027   1.424  16.743  0.1192 -0.4356  0.0989
 6501SOL    HW131136   2.076   1.360  16.691  2.0920 -0.3139  1.8391
 6501SOL    HW231137   1.944   1.377  16.753 -0.6212  0.5120 -1.4341
 6502SOL     OW31138   1.264   1.881  17.446  0.4593  0.2938  0.6189
 6502SOL    HW131139   1.316   1.953  17.411 -0.2096  0.0235 -0.9626
 6502SOL    HW231140   1.191   1.881  17.383 -0.1711  1.1630  1.3446
 6503SOL     OW31141   1.281   0.757   3.656 -0.1982 -0.0918 -0.2739
 6503SOL    HW131142   1.248   0.827   3.600  0.1461 -1.0931 -1.7266
 6503SOL    HW231143   1.282   0.676   3.605 -1.4312 -0.4624  0.3030
 6504SOL     OW31144   0.891   1.203   4.031  0.5210  0.7690  0.6917
 6504SOL    HW131145   0.928   1.214   3.943 -0.6888  1.6888  0.2890
 6504SOL    HW231146   0.946   1.140   4.077  0.1715  1.0238  1.4550
 6505SOL     OW31147   1.544   2.458   8.487  0.2409 -0.7820  0.1363
 6505SOL    HW131148   1.587   2.464   8.572 -1.2186  2.1465  0.6429
 6505SOL    HW231149   1.587   2.376   8.460  1.2320 -0.7956  1.7468
 6506SOL     OW31150   0.716   2.009  15.773 -0.0767 -0.0487  0.0356
 6506SOL    HW131151   0.675   1.952  15.709 -2.4466  0.3312  1.2220
 6506SOL    HW231152   0.763   2.078  15.727  1.7179 -1.2533  0.0243
 6507SOL     OW31153   4.688   4.245   8.587  0.2983 -0.8758  0.4581
 6507SOL    HW131154   4.606   4.246   8.538  0.3752 -0.2824  0.3329
 6507SOL    HW231155   4.680   4.335   8.619 -0.0349 -0.7966  0.1556
 6508SOL     OW31156   0.654   2.830   6.012  0.6572  0.5316  0.1559
 6508SOL    HW131157   0.583   2.876   5.966  1.0202  0.2722 -0.6572
 6508SOL    HW231158   0.697   2.772   5.949  1.9528 -1.1728  2.6181
 6509SOL     OW31159   2.166   4.677   2.236 -0.4012  0.0895 -0.4966
 6509SOL    HW131160   2.167   0.040   2.230 -0.7887  0.0859 -0.5942
 6509SOL    HW231161   2.084   4.653   2.192 -0.4757  0.3602 -0.5008
 6510SOL     OW31162   1.781   1.375   7.483 -0.3396  0.3346  0.1144
 6510SOL    HW131163   1.713   1.316   7.515 -0.6420  0.1186 -0.9144
 6510SOL    HW231164   1.856   1.324   7.514  1.1673  2.0721 -0.6696
 6511SOL     OW31165   3.608   4.653   7.191 -0.1096 -0.2581 -0.1611
 6511SOL    HW131166   3.605   0.011   7.160 -0.5008 -1.2766 -3.1395
 6511SOL    HW231167   3.663   4.615   7.122  0.3341  2.0952 -1.1382
 6512SOL     OW31168   4.495   2.006  12.397 -1.0333  0.7351  0.5841
 6512SOL    HW131169   4.492   2.095  12.432  1.0487  0.3994  1.6014
 6512SOL    HW231170   4.545   1.957  12.462 -2.8137 -1.9865 -0.0793
 6513SOL     OW31171   0.229   1.191  14.756 -0.3923  0.4165  0.0068
 6513SOL    HW131172   0.133   1.197  14.748 -0.2160  2.5003 -0.5563
 6513SOL    HW231173   0.248   1.158  14.843 -1.2767  1.2416  0.5105
 6514SOL     OW31174   4.333   2.631   4.760  0.0845 -0.0420 -0.1777
 6514SOL    HW131175   4.239   2.643   4.777 -0.8227 -3.6947 -2.5424
 6514SOL    HW231176   4.380   2.657   4.838 -0.8881 -0.4188  0.5332
 6515SOL     OW31177   0.755   1.369   3.250  0.1191 -0.1660  0.5897
 6515SOL    HW131178   0.701   1.447   3.235 -0.7022 -1.1724 -1.7810
 6515SOL    HW231179   0.842   1.383   3.214 -0.0140 -0.9048 -0.0056
 6516SOL     OW31180   2.142   2.369   8.171 -0.1537 -0.2242  0.4881
 6516SOL    HW131181   2.195   2.444   8.196 -0.8373 -0.0844  1.5418
 6516SOL    HW231182   2.156   2.309   8.245  0.7293 -0.3221  0.2320
 6517SOL     OW31183   4.357   2.106   8.563 -0.2282  0.7063 -0.1026
 6517SOL    HW131184   4.432   2.154   8.527 -0.3398  1.5340  0.7851
 6517SOL    HW231185   4.376   2.138   8.651 -0.6283 -1.4211  0.7663
 6518SOL     OW31186   0.080   1.684   6.384  0.5163 -0.5777 -0.4882
 6518SOL    HW131187   0.023   1.610   6.404  0.5112  0.5471  3.7011
 6518SOL    HW231188   0.026   1.729   6.319 -0.1973 -2.3101 -1.1018
 6519SOL     OW31189   0.615   0.154  13.973  0.3451  0.1420  0.7780
 6519SOL    HW131190   0.547   0.176  14.036  0.2872  0.3007  0.6605
 6519SOL    HW231191   0.553   0.145  13.900  0.7340 -2.3998  0.7359
 6520SOL     OW31192   2.243   4.529   4.388  0.1177 -0.0688  0.2705
 6520SOL    HW131193   2.284   4.606   4.428  0.5057 -0.4309  0.5745
 6520SOL    HW231194   2.302   4.522   4.312  0.3062  2.6808  0.1398
 6521SOL     OW31195   4.634   3.686   6.033 -0.0186 -0.0494  0.3559
 6521SOL    HW131196   4.588   3.618   5.983  0.9805 -0.2507 -0.3099
 6521SOL    HW231197   4.634   3.757   5.969  1.2159  0.6914  1.1888
 6522SOL     OW31198   1.036   4.265   5.541 -0.2004 -0.1760  0.1810
 6522SOL    HW131199   1.031   4.354   5.576 -1.4814  0.7302 -2.3208
 6522SOL    HW231200   1.025   4.226   5.628  1.4774 -1.7971 -0.3241
 6523SOL     OW31201   1.038   0.160   2.126  0.2662  0.3365 -0.7528
 6523SOL    HW131202   1.126   0.169   2.088  0.4580  0.1116 -0.3628
 6523SOL    HW231203   1.011   0.073   2.098 -0.0775  0.2852 -0.2461
 6524SOL     OW31204   1.168   2.434   8.272  0.2039  0.2033 -0.5034
 6524SOL    HW131205   1.181   2.430   8.367  0.0451  1.4974 -0.4174
 6524SOL    HW231206   1.135   2.344   8.272  0.1595  0.2204 -0.9677
 6525SOL     OW31207   2.476   4.411   8.932  0.4747  0.2335  0.6267
 6525SOL    HW131208   2.386   4.377   8.932 -0.0810  1.6909  4.4078
 6525SOL    HW231209   2.448   4.502   8.945  0.8081  0.8220 -2.8997
 6526SOL     OW31210   3.435   0.560   4.209  0.4586  1.0909  0.2777
 6526SOL    HW131211   3.383   0.516   4.276  1.1217  0.6106  0.4719
 6526SOL    HW231212   3.440   0.500   4.136 -4.4476  0.6903  0.2766
 6527SOL     OW31213   3.956   1.511  13.582 -0.3254 -0.4425  0.5017
 6527SOL    HW131214   4.043   1.537  13.554 -2.1246  3.5868 -1.3427
 6527SOL    HW231215   3.915   1.498  13.497 -0.2791 -2.3819  0.7786
 6528SOL     OW31216   1.279   3.858   4.328  0.0868 -0.2817  0.6062
 6528SOL    HW131217   1.333   3.796   4.377 -0.6714 -2.0847 -0.8442
 6528SOL    HW231218   1.339   3.880   4.256 -0.3174 -0.5660  0.1799
 6529SOL     OW31219   2.674   4.598  16.472  0.2138 -0.0708 -0.0346
 6529SOL    HW131220   2.618   4.635  16.540  1.6203 -1.0086  1.6456
 6529SOL    HW231221   2.737   4.668  16.457  1.6396 -0.9355  1.9280
 6530SOL     OW31222   2.690   0.069  15.762  0.3461  0.0921 -0.1018
 6530SOL    HW131223   2.733   0.146  15.798  3.9690 -1.0909 -1.9704
 6530SOL    HW231224   2.744   0.003  15.806 -1.3050 -1.8003 -0.9454
 6531SOL     OW31225   4.252   3.991   2.905  0.2198 -0.3200 -0.3704
 6531SOL    HW131226   4.174   3.952   2.942  1.0736 -1.1010  0.5887
 6531SOL    HW231227   4.297   3.919   2.862  1.8056  0.8270 -0.6367
 6532SOL     OW31228   1.410   0.119  13.591 -0.2248  0.1110 -0.3791
 6532SOL    HW131229   1.478   0.094  13.654 -1.4498 -1.2291  0.4174
 6532SOL    HW231230   1.383   0.203  13.627  2.2665  1.1962 -0.9718
 6533SOL     OW31231   0.804   4.648  16.762 -0.4492  0.6039 -0.5249
 6533SOL    HW131232   0.716   4.686  16.771 -0.7602  0.1527 -1.5793
 6533SOL    HW231233   0.854   4.728  16.746  1.4813 -0.9379 -2.1034
 6534SOL     OW31234   0.481   0.787   3.563  0.9363  0.0846 -0.0692
 6534SOL    HW131235   0.398   0.778   3.610  0.9860 -0.0408 -0.0046
 6534SOL    HW231236   0.539   0.728   3.611  1.5232  1.3746  0.7975
 6535SOL     OW31237   1.221   4.023  12.429 -0.1606  0.2397 -0.1753
 6535SOL    HW131238   1.276   3.976  12.492  0.4053 -0.4769 -1.1966
 6535SOL    HW231239   1.285   4.072  12.378  1.6756  0.9210  2.7657
 6536SOL     OW31240   2.878   2.690  15.035 -0.3852 -0.1062  0.1120
 6536SOL    HW131241   2.956   2.642  15.063 -0.9611 -0.4258  1.1594
 6536SOL    HW231242   2.808   2.634  15.069 -2.1605  2.3985  0.5969
 6537SOL     OW31243   2.180   3.318   6.891 -0.4301 -0.0504  0.0901
 6537SOL    HW131244   2.228   3.364   6.959  0.9652 -0.0757 -0.8836
 6537SOL    HW231245   2.110   3.269   6.934 -1.7608 -0.5077 -2.6183
 6538SOL     OW31246   1.281   4.350  16.998 -0.0447 -0.0336  0.1212
 6538SOL    HW131247   1.252   4.400  17.074  0.0639  0.2200 -0.0055
 6538SOL    HW231248   1.225   4.383  16.928 -0.1409 -1.5584 -0.5405
 6539SOL     OW31249   3.851   2.264  10.918 -0.1974 -0.3449  0.1393
 6539SOL    HW131250   3.789   2.325  10.878 -0.0417 -0.5816 -0.4635
 6539SOL    HW231251   3.914   2.333  10.940 -1.0999  1.1486 -1.9100
 6540SOL     OW31252   1.264   0.522   7.579 -0.1219  0.0639 -0.1154
 6540SOL    HW131253   1.170   0.533   7.590  0.1066  1.1519  0.6833
 6540SOL    HW231254   1.275   0.427   7.582 -3.0013 -0.3100 -1.2629
 6541SOL     OW31255   0.743   1.585   2.899  0.0571 -0.1009  0.0557
 6541SOL    HW131256   0.837   1.575   2.883  0.7128  0.6136  3.3197
 6541SOL    HW231257   0.699   1.601   2.816 -1.2622 -2.7962  0.2274
 6542SOL     OW31258   3.774   0.933   7.875 -0.7376  0.5454 -0.2183
 6542SOL    HW131259   3.782   1.001   7.942  0.3939 -1.5933  1.8141
 6542SOL    HW231260   3.807   0.967   7.792 -0.7221  0.2068 -0.3474
 6543SOL     OW31261   4.130   3.167   6.826 -0.3720 -0.3447  0.3030
 6543SOL    HW131262   4.201   3.109   6.797 -0.5059 -0.7955  0.8818
 6543SOL    HW231263   4.177   3.245   6.855 -0.6371 -0.4934  1.1177
 6544SOL     OW31264   2.498   0.652   3.144 -0.1853  0.7391 -0.0720
 6544SOL    HW131265   2.509   0.676   3.052 -0.0485  0.2390 -0.1838
 6544SOL    HW231266   2.469   0.561   3.140  0.7104  0.4578 -0.1344
 6545SOL     OW31267   4.031   2.921   3.392 -0.0864  0.3848  0.0815
 6545SOL    HW131268   4.074   2.860   3.332  0.4891  1.9639 -1.1027
 6545SOL    HW231269   4.103   2.976   3.421  0.1401 -0.3098  0.8331
 6546SOL     OW31270   4.204   1.015   6.431 -0.3170 -0.4288 -0.0322
 6546SOL    HW131271   4.273   1.059   6.381 -1.5271  0.1316 -1.2023
 6546SOL    HW231272   4.209   0.926   6.396  2.9754 -0.1691 -0.2363
 6547SOL     OW31273   0.165   3.531  13.587 -0.5788 -0.0402  0.5942
 6547SOL    HW131274   0.085   3.485  13.561 -0.1148  0.0223 -0.9362
 6547SOL    HW231275   0.227   3.524  13.515 -0.1565  1.1912  0.8467
 6548SOL     OW31276   2.117   4.677   9.047  0.0804  0.4495  0.3056
 6548SOL    HW131277   2.156   4.708   9.129 -0.2282 -2.1416  1.4549
 6548SOL    HW231278   2.201   4.661   9.004 -0.7953  1.1131 -1.6650
 6549SOL     OW31279   0.731   1.639   6.505 -0.2493  0.2353  0.0061
 6549SOL    HW131280   0.673   1.693   6.559 -0.1124  1.1175 -0.7258
 6549SOL    HW231281   0.685   1.631   6.422  1.3885 -1.2643 -0.7387
 6550SOL     OW31282   0.866   3.752   7.651  0.6390  0.7631 -0.1002
 6550SOL    HW131283   0.834   3.743   7.740 -0.4354 -1.4387 -0.7231
 6550SOL    HW231284   0.866   3.846   7.633 -2.1122  0.6770 -0.5365
 6551SOL     OW31285   0.896   1.902  14.662 -0.5414 -0.1355  0.7421
 6551SOL    HW131286   0.843   1.851  14.602  1.4068 -2.4076  0.9385
 6551SOL    HW231287   0.820   1.934  14.710 -0.1714  2.8761 -0.6670
 6552SOL     OW31288   1.630   1.050   4.596  0.2287 -0.7676 -0.2403
 6552SOL    HW131289   1.591   1.002   4.523  0.6234 -0.8881 -0.3711
 6552SOL    HW231290   1.630   0.975   4.656  0.7218  1.8832  3.0815
 6553SOL     OW31291   2.931   2.334   0.204  0.1622  0.2496  0.0912
 6553SOL    HW131292   2.891   2.290   0.279 -1.3511  0.4690 -0.5935
 6553SOL    HW231293   2.870   2.323   0.131 -2.4594 -0.1945  2.3197
 6554SOL     OW31294   0.706   0.649   8.485  0.0833  0.0732 -0.3366
 6554SOL    HW131295   0.612   0.634   8.479 -0.1261  2.9369 -3.8233
 6554SOL    HW231296   0.712   0.717   8.552 -2.9641 -1.0771  1.0867
 6555SOL     OW31297   2.142   1.607   4.043  0.5860 -0.4276 -0.1547
 6555SOL    HW131298   2.051   1.637   4.041  1.0691  1.1227  0.3660
 6555SOL    HW231299   2.158   1.575   4.132  1.0591  1.8350  0.5762
 6556SOL     OW31300   3.677   1.457  15.207  0.5431  0.2376  0.0922
 6556SOL    HW131301   3.643   1.539  15.172  0.7691  1.0702  1.8149
 6556SOL    HW231302   3.702   1.415  15.125  1.2460  1.1468 -0.1622
 6557SOL     OW31303   2.436   2.665   5.455 -0.1923  0.9986  0.1768
 6557SOL    HW131304   2.428   2.593   5.517  0.6024  0.4320 -0.3830
 6557SOL    HW231305   2.514   2.707   5.491  0.3405  1.4338 -1.4879
 6558SOL     OW31306   4.420   0.394   8.828 -0.1850 -0.2078  0.1297
 6558SOL    HW131307   4.358   0.320   8.828  1.5426 -1.6510 -2.5693
 6558SOL    HW231308   4.368   0.453   8.773 -1.3929 -0.7328  0.7252
 6559SOL     OW31309   2.319   0.602   5.930 -0.3716  0.2609  0.3942
 6559SOL    HW131310   2.312   0.551   6.011 -1.7522 -0.5562 -0.2414
 6559SOL    HW231311   2.321   0.530   5.866  1.4723  0.6082  0.0549
 6560SOL     OW31312   2.474   2.221   9.315 -0.5688  0.3296  0.1835
 6560SOL    HW131313   2.392   2.215   9.364 -1.6702  1.7434 -1.4945
 6560SOL    HW231314   2.533   2.186   9.383  0.1584 -0.4794 -0.8692
 6561SOL     OW31315   4.185   3.964   3.639 -0.0454 -0.2086  0.0936
 6561SOL    HW131316   4.114   4.024   3.661 -0.4290 -1.3612  1.9433
 6561SOL    HW231317   4.138   3.909   3.577  0.7184  1.4358 -1.9435
 6562SOL     OW31318   0.238   3.971   8.743 -0.3611 -0.1643 -0.1488
 6562SOL    HW131319   0.153   3.942   8.711 -1.4195 -0.1792  2.6196
 6562SOL    HW231320   0.295   3.959   8.667 -0.4025 -0.1250 -0.1855
 6563SOL     OW31321   2.889   2.823  10.917  0.2390  0.1536 -0.0153
 6563SOL    HW131322   2.856   2.797  11.003 -0.6995 -2.7798 -1.2781
 6563SOL    HW231323   2.815   2.805  10.860 -0.5424  0.1187  1.0146
 6564SOL     OW31324   1.580   2.444   8.756  0.1244  0.2233 -0.2503
 6564SOL    HW131325   1.628   2.497   8.820 -0.5484 -0.2641  0.6705
 6564SOL    HW231326   1.521   2.404   8.820 -0.4180  1.5481  0.0900
 6565SOL     OW31327   1.448   0.348   4.496 -0.4868 -0.3587  0.4259
 6565SOL    HW131328   1.496   0.281   4.545 -0.9731 -0.2630  1.0374
 6565SOL    HW231329   1.384   0.298   4.446 -2.0579  1.8942  0.1859
 6566SOL     OW31330   3.049   2.098  16.450  0.2701 -0.1522 -0.1211
 6566SOL    HW131331   2.999   2.017  16.438 -1.5149  0.7699  0.9686
 6566SOL    HW231332   3.136   2.073  16.419  0.5130 -0.0499  0.4871
 6567SOL     OW31333   0.032   0.117  15.534  0.4984  0.2350  0.0389
 6567SOL    HW131334   0.080   0.115  15.618 -1.0529  2.2086  0.9509
 6567SOL    HW231335   0.085   0.068  15.472  0.6412  2.3799 -1.5300
 6568SOL     OW31336   1.959   2.805   5.922 -0.1380 -0.9119 -0.0087
 6568SOL    HW131337   2.042   2.829   5.963 -0.4566  1.4848 -0.7349
 6568SOL    HW231338   1.987   2.740   5.856  0.8178 -0.6176  0.1041
 6569SOL     OW31339   1.913   1.803  16.351  0.6343 -0.1918  0.2192
 6569SOL    HW131340   1.924   1.897  16.340 -1.0198  0.0390  0.5248
 6569SOL    HW231341   1.988   1.783  16.407  1.1830 -0.3431 -0.5715
 6570SOL     OW31342   2.082   2.918   8.958 -0.8031 -0.1397 -0.9277
 6570SOL    HW131343   2.120   2.850   9.014 -0.8051  1.1676  0.6583
 6570SOL    HW231344   2.131   2.901   8.877  0.8477 -0.2974  0.1052
 6571SOL     OW31345   1.165   2.993   2.212  0.2803 -0.1846  0.0637
 6571SOL    HW131346   1.179   3.082   2.181 -1.6686  0.4516  0.9660
 6571SOL    HW231347   1.100   2.965   2.148 -0.8742  3.4465 -0.3566
 6572SOL     OW31348   1.741   2.087   9.166  0.1090 -0.2109 -0.1497
 6572SOL    HW131349   1.695   2.055   9.088  0.0261 -0.4868  0.0151
 6572SOL    HW231350   1.694   2.167   9.188  0.8544  0.4025 -0.7557
 6573SOL     OW31351   2.020   2.640   5.711 -0.0977  0.2611 -0.1465
 6573SOL    HW131352   2.023   2.689   5.629 -0.8880 -1.2223 -1.0636
 6573SOL    HW231353   1.948   2.580   5.692  1.5668 -1.8782  0.2532
 6574SOL     OW31354   4.078   1.566  10.380 -0.8989  0.5924 -0.4634
 6574SOL    HW131355   4.159   1.608  10.352 -0.3710 -0.6009 -0.7263
 6574SOL    HW231356   4.033   1.646  10.405 -0.7261  0.6164 -0.2355
 6575SOL     OW31357   1.518   1.161  14.698 -0.1060  0.6237  0.5420
 6575SOL    HW131358   1.592   1.149  14.757  0.2994 -1.5777 -0.3928
 6575SOL    HW231359   1.494   1.072  14.673  1.7966  0.2566  0.0365
 6576SOL     OW31360   1.314   2.080   6.332 -0.0061  0.6364  0.5009
 6576SOL    HW131361   1.382   2.135   6.372  0.8481  0.0359 -0.1025
 6576SOL    HW231362   1.245   2.085   6.398 -0.2795 -1.7115  0.4098
 6577SOL     OW31363   3.842   2.924   7.323 -0.1878 -0.4921 -0.0004
 6577SOL    HW131364   3.863   2.907   7.231 -2.2707  0.4874 -0.6537
 6577SOL    HW231365   3.829   2.838   7.361  0.1160 -0.1318  0.9168
 6578SOL     OW31366   3.105   4.432  17.210  0.1861 -0.4098  0.3355
 6578SOL    HW131367   3.065   4.438  17.123 -0.3752  0.1158  0.6373
 6578SOL    HW231368   3.070   4.503  17.263 -0.4036 -0.3221 -0.1726
 6579SOL     OW31369   4.416   0.431   3.489 -0.0021 -0.4762 -0.0167
 6579SOL    HW131370   4.465   0.511   3.510 -0.2271 -0.7481  1.5402
 6579SOL    HW231371   4.385   0.389   3.569  0.8791  1.6069  1.4286
 6580SOL     OW31372   0.259   1.685  10.267  0.3201  0.5161  0.5491
 6580SOL    HW131373   0.171   1.717  10.245 -0.2326 -0.7037  0.9677
 6580SOL    HW231374   0.247   1.603  10.315  0.0064  0.7249  0.8272
 6581SOL     OW31375   0.450   1.492   8.193  0.0720 -0.0318  0.0298
 6581SOL    HW131376   0.489   1.419   8.241 -1.6687  0.1368  1.6769
 6581SOL    HW231377   0.492   1.571   8.228 -1.2158 -0.2367  2.0430
 6582SOL     OW31378   2.452   4.417   2.855 -0.0263  0.3563 -0.5855
 6582SOL    HW131379   2.547   4.407   2.852 -0.2991 -1.5937 -2.3253
 6582SOL    HW231380   2.453   4.491   2.794 -1.9546  1.4293  0.6754
 6583SOL     OW31381   1.013   0.270   7.775  0.0875 -0.1241  0.2641
 6583SOL    HW131382   1.089   0.266   7.717 -1.2131  0.3946 -1.4654
 6583SOL    HW231383   1.043   0.321   7.851 -1.4958 -1.2304  1.6348
 6584SOL     OW31384   1.823   2.342   4.922 -0.0967 -0.6433 -0.7936
 6584SOL    HW131385   1.853   2.256   4.953 -1.0586  0.0840  2.1753
 6584SOL    HW231386   1.779   2.314   4.842 -0.0016 -0.9252 -0.7474
 6585SOL     OW31387   1.331   0.073   2.561 -0.3087  0.1995  0.8772
 6585SOL    HW131388   1.250   0.026   2.543  0.7519 -1.4086  0.1593
 6585SOL    HW231389   1.308   0.159   2.525 -1.5728  0.0876  1.4320
 6586SOL     OW31390   1.105   2.222   5.916 -0.4296  0.3906  0.7113
 6586SOL    HW131391   1.020   2.258   5.893 -0.5998 -0.6265 -0.2529
 6586SOL    HW231392   1.092   2.215   6.011  0.0242  1.6543  0.8596
 6587SOL     OW31393   2.490   2.535   4.657  0.1400 -0.4937 -0.6194
 6587SOL    HW131394   2.435   2.613   4.662  0.6048 -0.3859  2.5992
 6587SOL    HW231395   2.488   2.519   4.563  0.9489 -0.0814 -0.7018
 6588SOL     OW31396   0.857   4.455   2.586 -0.4637  0.1097  0.7213
 6588SOL    HW131397   0.784   4.395   2.602 -0.3560 -0.0856  0.4792
 6588SOL    HW231398   0.923   4.416   2.643 -1.4678 -0.3870  1.5423
 6589SOL     OW31399   2.809   2.376   8.022 -0.2565  0.0550 -0.1361
 6589SOL    HW131400   2.781   2.306   8.081  2.9707  0.4939  1.9227
 6589SOL    HW231401   2.784   2.445   8.083  0.2807  0.0870  0.0469
 6590SOL     OW31402   3.651   2.912   4.974 -0.4724 -0.4106 -0.7853
 6590SOL    HW131403   3.596   2.926   4.897  0.5348  2.8206 -0.9590
 6590SOL    HW231404   3.729   2.873   4.933 -1.3284 -1.0892 -1.7521
 6591SOL     OW31405   4.103   4.668   0.402 -0.4818 -0.1543  0.0916
 6591SOL    HW131406   4.050   4.624   0.469 -0.3865  0.1962  0.3997
 6591SOL    HW231407   4.189   4.629   0.414 -0.5299 -0.1450  0.4754
 6592SOL     OW31408   4.028   3.394  15.006 -1.0024  0.0349 -0.3449
 6592SOL    HW131409   4.049   3.483  15.035 -0.7637 -0.1338  0.0042
 6592SOL    HW231410   3.938   3.394  15.041 -1.5481  0.8814 -1.7610
 6593SOL     OW31411   2.572   4.152   1.842  0.5430  0.2813  0.0833
 6593SOL    HW131412   2.650   4.119   1.798  0.6414 -0.1697  0.5961
 6593SOL    HW231413   2.517   4.074   1.835  1.7460 -0.4120 -1.5910
 6594SOL     OW31414   0.026   3.521   4.239  0.3283 -0.0293 -0.3809
 6594SOL    HW131415   4.686   3.466   4.268 -0.3466  0.0660 -1.8580
 6594SOL    HW231416   4.719   3.570   4.167  1.1187  2.6409  1.0251
 6595SOL     OW31417   3.988   2.245   5.379 -0.8024  0.0410  0.1366
 6595SOL    HW131418   4.020   2.171   5.431 -0.4215  0.6909  0.8281
 6595SOL    HW231419   3.898   2.212   5.372 -0.9481 -0.2938  3.1628
 6596SOL     OW31420   3.045   0.960   9.325 -0.5834  0.2927  0.1683
 6596SOL    HW131421   2.951   0.949   9.310 -0.6458  0.7030  0.2707
 6596SOL    HW231422   3.045   0.934   9.417 -0.1437 -1.8525 -0.4283
 6597SOL     OW31423   0.428   1.668   8.611  0.1873  0.4587 -0.2522
 6597SOL    HW131424   0.446   1.703   8.698 -0.4400 -0.2329  0.1602
 6597SOL    HW231425   0.403   1.750   8.568  0.5365  0.9601  0.5005
 6598SOL     OW31426   1.849   2.778   6.499 -0.1617  0.0854 -0.4376
 6598SOL    HW131427   1.870   2.707   6.439 -1.4841  1.2035 -2.1859
 6598SOL    HW231428   1.929   2.831   6.499  0.9834 -1.6151  1.7703
 6599SOL     OW31429   2.940   3.980   3.255 -0.0527 -0.2083 -0.7294
 6599SOL    HW131430   2.916   3.981   3.347  0.6687  0.4482 -0.5483
 6599SOL    HW231431   2.984   3.895   3.258 -0.5995 -0.5344 -1.9064
 6600SOL     OW31432   0.213   0.744   3.526  0.0763 -0.2399 -0.0369
 6600SOL    HW131433   0.194   0.651   3.511 -0.8673 -0.3272  1.7115
 6600SOL    HW231434   0.242   0.772   3.440  0.3535 -2.0151 -0.5286
 6601SOL     OW31435   2.959   1.843   9.308  0.2088  0.5694  0.1309
 6601SOL    HW131436   2.967   1.749   9.295 -1.7702  0.4681 -0.4140
 6601SOL    HW231437   2.905   1.846   9.387 -0.2686 -2.4124 -0.0786
 6602SOL     OW31438   0.987   3.151   4.829  0.0586 -0.1156  0.3473
 6602SOL    HW131439   1.064   3.193   4.869  2.0064  0.0607 -3.5707
 6602SOL    HW231440   1.001   3.198   4.747  0.9268 -0.9343  0.0163
 6603SOL     OW31441   0.451   2.255   3.633  0.4434  0.7908 -0.6703
 6603SOL    HW131442   0.476   2.189   3.568 -0.4382 -0.0627 -0.1461
 6603SOL    HW231443   0.357   2.238   3.632  0.5169  0.3802 -1.3572
 6604SOL     OW31444   1.494   2.640   4.103  0.1392 -0.0052  0.0836
 6604SOL    HW131445   1.464   2.557   4.141 -0.9369  0.2454 -0.2132
 6604SOL    HW231446   1.437   2.653   4.027  1.0888  0.4471 -0.5499
 6605SOL     OW31447   3.842   2.179   7.497  0.0644 -0.1733 -0.2805
 6605SOL    HW131448   3.906   2.146   7.434 -0.0213 -2.0885  0.6222
 6605SOL    HW231449   3.884   2.254   7.537  1.9280 -0.8445 -0.9967
 6606SOL     OW31450   4.690   3.841   3.800 -0.8136 -0.5254 -0.1212
 6606SOL    HW131451   4.722   3.830   3.710 -0.8394 -0.2289 -0.1681
 6606SOL    HW231452   4.610   3.886   3.774 -0.6073  0.9778  1.8148
 6607SOL     OW31453   0.900   3.115   4.191  0.1549 -0.0743  0.0545
 6607SOL    HW131454   0.858   3.174   4.254  0.1825  0.8391 -0.7759
 6607SOL    HW231455   0.985   3.159   4.187  0.1900 -0.3442 -2.1809
 6608SOL     OW31456   0.793   1.792   7.003 -0.1828 -0.0466 -0.0700
 6608SOL    HW131457   0.879   1.831   6.989 -0.6449  0.7358 -0.7999
 6608SOL    HW231458   0.813   1.708   6.963  0.9970  0.9612 -1.5988
 6609SOL     OW31459   4.055   0.847   4.996  0.3006 -0.4712  0.2616
 6609SOL    HW131460   4.020   0.921   4.947  1.5133  0.7401  1.2204
 6609SOL    HW231461   3.974   0.833   5.044 -0.3476 -0.5280 -0.8350
 6610SOL     OW31462   4.125   1.692   2.446 -0.0046 -0.0467  0.7402
 6610SOL    HW131463   4.080   1.609   2.462 -0.5885 -0.0766 -1.0024
 6610SOL    HW231464   4.073   1.721   2.371  1.8682 -3.1667 -1.7373
 6611SOL     OW31465   1.580   2.756   8.560  0.3032 -0.4138 -0.1795
 6611SOL    HW131466   1.550   2.716   8.641 -0.0507 -0.4456 -0.3282
 6611SOL    HW231467   1.551   2.693   8.493  0.2253 -0.9282  0.3390
 6612SOL     OW31468   1.626   3.813  14.385 -0.1765 -0.0906 -0.1957
 6612SOL    HW131469   1.615   3.719  14.401 -2.4480  0.0283 -1.0753
 6612SOL    HW231470   1.539   3.846  14.410  0.4694  0.6389  1.0968
 6613SOL     OW31471   1.696   0.989  17.291  0.6663 -0.4107 -0.2894
 6613SOL    HW131472   1.745   0.932  17.231 -1.8453 -1.1924 -1.5713
 6613SOL    HW231473   1.630   1.032  17.236  0.4149 -1.0456 -0.4804
 6614SOL     OW31474   1.119   2.701  16.110 -0.1425 -0.1439 -0.4088
 6614SOL    HW131475   1.053   2.753  16.064 -0.0475  0.8052  0.5329
 6614SOL    HW231476   1.096   2.617  16.070 -0.4617 -0.5882  0.7084
 6615SOL     OW31477   2.636   1.104  14.257 -0.7956 -0.0883 -0.2291
 6615SOL    HW131478   2.724   1.067  14.260 -0.7388 -0.0166 -0.8566
 6615SOL    HW231479   2.594   1.030  14.300 -0.9960  1.0562  1.5383
 6616SOL     OW31480   1.508   4.233   2.221  0.4787 -0.7393 -0.2206
 6616SOL    HW131481   1.459   4.283   2.156  1.0698 -0.8808 -0.7742
 6616SOL    HW231482   1.443   4.165   2.238  0.5833 -0.1391  2.6569
 6617SOL     OW31483   4.491   4.549   5.766  0.6920  0.0034 -0.2954
 6617SOL    HW131484   4.528   4.463   5.787 -0.6029 -0.3127  0.6771
 6617SOL    HW231485   4.396   4.540   5.772  0.3167  2.1105 -2.9721
 6618SOL     OW31486   2.224   1.735   2.099  0.5486  0.6154 -0.6503
 6618SOL    HW131487   2.261   1.720   2.012 -0.9844 -0.2109 -1.1608
 6618SOL    HW231488   2.138   1.776   2.085 -0.0790 -0.1632  0.9971
 6619SOL     OW31489   2.598   0.984   0.365  0.0748  0.0721 -0.1144
 6619SOL    HW131490   2.527   0.970   0.303 -0.1642 -0.3102  0.2467
 6619SOL    HW231491   2.612   1.078   0.352 -0.0263  0.1876  0.6277
 6620SOL     OW31492   1.688   3.285   6.233  0.0194  0.0473 -0.4324
 6620SOL    HW131493   1.626   3.221   6.269 -0.3756  2.4406  3.1194
 6620SOL    HW231494   1.640   3.368   6.235 -0.4433 -0.2460  0.3684
 6621SOL     OW31495   3.289   3.932   7.851 -0.6022  0.5089 -0.1541
 6621SOL    HW131496   3.209   3.904   7.807  0.6242 -0.3634 -1.8281
 6621SOL    HW231497   3.292   4.026   7.838 -2.5252  0.3219 -2.0676
 6622SOL     OW31498   1.754   2.808  10.664  0.5780  0.0752  0.8870
 6622SOL    HW131499   1.678   2.866  10.657 -0.8990 -2.1691 -1.4716
 6622SOL    HW231500   1.814   2.868  10.620 -1.7679 -0.7433 -3.3674
 6623SOL     OW31501   2.170   1.936   7.086 -0.4509  0.3140  0.0507
 6623SOL    HW131502   2.245   1.882   7.063  1.5138  3.7945 -1.6993
 6623SOL    HW231503   2.162   1.910   7.178  2.3010  1.4384  0.5845
 6624SOL     OW31504   2.189   2.314  11.525 -0.2692  0.9627  0.0094
 6624SOL    HW131505   2.255   2.304  11.593 -0.8411  1.6177  0.6683
 6624SOL    HW231506   2.241   2.334  11.447 -0.0802  2.7335  0.5835
 6625SOL     OW31507   2.430   2.397   4.917 -0.5136  0.0655 -0.2537
 6625SOL    HW131508   2.500   2.450   4.878 -0.4155  0.4650  0.4616
 6625SOL    HW231509   2.381   2.388   4.836  0.0153  1.0615 -0.6834
 6626SOL     OW31510   0.450   2.099   5.189 -0.5087 -0.0496 -0.2199
 6626SOL    HW131511   0.527   2.109   5.246  0.8308 -3.4822 -1.4378
 6626SOL    HW231512   0.402   2.181   5.201  0.5783  0.7790 -1.5704
 6627SOL     OW31513   3.071   0.597   1.102  0.3041  0.1254 -0.2719
 6627SOL    HW131514   3.103   0.519   1.148  1.6384  0.5926 -0.4095
 6627SOL    HW231515   3.152   0.634   1.069 -0.1381 -0.0452 -1.5730
 6628SOL     OW31516   3.232   3.890   9.386  0.2274  0.0591 -0.1739
 6628SOL    HW131517   3.176   3.853   9.318  1.9946 -2.1040 -0.4618
 6628SOL    HW231518   3.307   3.906   9.329 -0.3201  1.5967 -0.4437
 6629SOL     OW31519   3.361   4.116   4.802 -0.1123  0.2691 -0.2075
 6629SOL    HW131520   3.395   4.103   4.713 -2.8143  0.3043 -1.2450
 6629SOL    HW231521   3.289   4.053   4.804  0.4173 -0.3662 -0.8785
 6630SOL     OW31522   3.226   0.664   6.540 -0.1622  0.3615  0.3737
 6630SOL    HW131523   3.135   0.663   6.511 -0.7300  0.8859  2.1492
 6630SOL    HW231524   3.243   0.570   6.538  1.5693  0.6549  1.0857
 6631SOL     OW31525   3.520   2.174   4.178  0.2656  0.2010  0.0620
 6631SOL    HW131526   3.523   2.169   4.082 -0.9901 -1.2747  0.1133
 6631SOL    HW231527   3.470   2.094   4.195  0.2762  0.1582 -0.1052
 6632SOL     OW31528   2.436   3.231  11.032 -0.1915 -0.3724  0.4970
 6632SOL    HW131529   2.458   3.324  11.032  3.5203 -1.2313 -0.4820
 6632SOL    HW231530   2.361   3.230  10.973  2.4934 -1.0337 -2.9463
 6633SOL     OW31531   1.655   0.848   2.109 -0.2491  0.4026 -0.6374
 6633SOL    HW131532   1.625   0.855   2.018 -3.2378 -0.7990  0.2548
 6633SOL    HW231533   1.597   0.910   2.153 -0.4890 -0.5942  0.4446
 6634SOL     OW31534   2.266   1.557   0.424 -0.0955 -0.2775 -0.0491
 6634SOL    HW131535   2.205   1.626   0.399 -0.5648 -0.7508 -0.2000
 6634SOL    HW231536   2.355   1.590   0.411  0.8991 -2.7489  0.4911
 6635SOL     OW31537   0.961   1.039   8.663  0.7112  0.2421  0.4727
 6635SOL    HW131538   1.038   1.034   8.607 -1.7618 -1.0313 -2.7850
 6635SOL    HW231539   0.994   1.010   8.749 -2.5157  0.3336  1.7301
 6636SOL     OW31540   3.829   3.847   7.723  0.1838  0.1205 -0.3716
 6636SOL    HW131541   3.865   3.804   7.646  1.8904 -0.3113  0.6848
 6636SOL    HW231542   3.896   3.831   7.789  1.7429  0.3215 -1.9061
 6637SOL     OW31543   1.855   0.996   2.912  0.1434  0.5459  0.1316
 6637SOL    HW131544   1.859   1.036   2.999 -2.1664 -0.0596  0.5192
 6637SOL    HW231545   1.771   1.032   2.882 -0.0529  0.6159  0.7581
 6638SOL     OW31546   2.260   1.346   4.543 -0.1987 -0.2762 -0.2017
 6638SOL    HW131547   2.215   1.280   4.491  1.4427 -1.9901  0.5638
 6638SOL    HW231548   2.312   1.381   4.471  0.2827 -1.0793 -0.2382
 6639SOL     OW31549   1.549   1.639   9.320 -0.4202  0.2941 -0.3304
 6639SOL    HW131550   1.609   1.596   9.381  0.3882  0.7319 -0.8106
 6639SOL    HW231551   1.567   1.731   9.344 -0.3631  0.0768  0.4660
 6640SOL     OW31552   2.288   3.595   4.133  0.1516  0.1128 -0.3181
 6640SOL    HW131553   2.311   3.550   4.214 -2.6867  0.8036  0.8534
 6640SOL    HW231554   2.200   3.561   4.122  1.3817 -3.3306  0.3962
 6641SOL     OW31555   0.240   3.629  11.144 -0.5665 -0.2201 -0.0477
 6641SOL    HW131556   0.272   3.640  11.055 -1.6824  1.1062 -0.2949
 6641SOL    HW231557   0.307   3.574  11.184 -0.7850  1.7061  3.0059
 6642SOL     OW31558   1.396   3.473   9.193 -0.2417 -0.2655 -0.1511
 6642SOL    HW131559   1.351   3.434   9.119  0.1186  0.8780 -0.9707
 6642SOL    HW231560   1.419   3.560   9.161  0.4702 -0.4642 -0.1573
 6643SOL     OW31561   4.620   4.702  15.703  0.5214  0.1051 -0.0909
 6643SOL    HW131562   4.700   4.654  15.723  2.0422  1.1852 -3.5206
 6643SOL    HW231563   4.654   0.043  15.653  0.7129  0.2961  0.3221
 6644SOL     OW31564   3.242   2.125  15.734  0.1235 -0.1930  0.1618
 6644SOL    HW131565   3.287   2.157  15.812  3.6151  1.0743 -2.4065
 6644SOL    HW231566   3.157   2.109  15.776 -0.8436 -1.6674 -2.2994
 6645SOL     OW31567   0.356   2.244  17.086 -0.2519  0.2513 -0.2681
 6645SOL    HW131568   0.434   2.299  17.098  0.9642 -1.6931  0.7686
 6645SOL    HW231569   0.295   2.308  17.050 -0.8572  0.1123  0.5207
 6646SOL     OW31570   3.996   3.854   2.876 -0.4206 -0.1508  0.0467
 6646SOL    HW131571   3.979   3.760   2.871  1.5585 -0.3932 -2.4257
 6646SOL    HW231572   3.997   3.876   2.783  0.4249  1.5722  0.4753
 6647SOL     OW31573   1.422   0.581   7.788 -0.3055 -0.2264  0.3028
 6647SOL    HW131574   1.386   0.565   7.701  1.0383 -0.8347 -0.1295
 6647SOL    HW231575   1.484   0.652   7.769 -1.9313  0.7136 -1.6051
 6648SOL     OW31576   1.494   3.938   9.308 -0.7923  0.7984 -0.0601
 6648SOL    HW131577   1.526   3.872   9.247 -4.3140 -1.3797  0.4970
 6648SOL    HW231578   1.441   3.885   9.367 -0.5877  0.7443  0.0778
 6649SOL     OW31579   0.611   3.226   7.337  0.4022 -0.3058 -1.0160
 6649SOL    HW131580   0.592   3.228   7.431  2.2928 -2.0415 -0.6089
 6649SOL    HW231581   0.612   3.133   7.317  0.0424 -0.2839 -1.1369
 6650SOL     OW31582   0.951   0.289   7.389  0.0514 -0.2231 -0.2741
 6650SOL    HW131583   0.928   0.340   7.311  0.1312 -0.0142 -0.1604
 6650SOL    HW231584   0.971   0.350   7.460  0.7680 -0.3140 -0.3990
 6651SOL     OW31585   2.504   2.713   8.885 -0.0630  0.0498 -0.3958
 6651SOL    HW131586   2.483   2.805   8.872  1.4903  0.4247 -0.2829
 6651SOL    HW231587   2.564   2.689   8.814 -0.8598 -1.7576 -0.4421
 6652SOL     OW31588   2.223   3.796   3.577  0.1208 -0.5297 -0.1551
 6652SOL    HW131589   2.194   3.788   3.668 -0.2064 -4.7138 -0.6499
 6652SOL    HW231590   2.305   3.747   3.582  0.5915  0.1311 -1.3369
 6653SOL     OW31591   1.046   2.864   6.893 -0.3196  0.0798 -0.6043
 6653SOL    HW131592   1.047   2.774   6.859 -0.3451 -0.0493 -0.2661
 6653SOL    HW231593   1.045   2.912   6.811 -0.4523 -0.0239 -0.6637
 6654SOL     OW31594   3.846   4.401   9.113  0.2565  0.2003  0.2312
 6654SOL    HW131595   3.941   4.393   9.108 -0.1989 -4.5118 -0.1905
 6654SOL    HW231596   3.828   4.337   9.181 -0.7091 -2.2709 -2.3362
 6655SOL     OW31597   1.940   3.178   7.889  0.0417  0.3610 -0.0128
 6655SOL    HW131598   1.847   3.201   7.887 -0.0294  0.0736  0.0117
 6655SOL    HW231599   1.961   3.264   7.923  0.8028  0.3018 -0.3448
 6656SOL     OW31600   1.888   1.663   2.395  0.0591  0.2623 -0.2028
 6656SOL    HW131601   1.800   1.699   2.407 -0.0135 -0.5789  1.8692
 6656SOL    HW231602   1.952   1.735   2.389 -0.3777  0.6172 -0.5490
 6657SOL     OW31603   0.794   0.179   1.832  0.2674 -0.4547  0.6644
 6657SOL    HW131604   0.803   0.103   1.774  0.5350  0.3912 -0.4084
 6657SOL    HW231605   0.700   0.200   1.827  0.3419  0.0234  1.2683
 6658SOL     OW31606   3.502   0.105   8.743  0.1045  0.0847  0.2146
 6658SOL    HW131607   3.590   0.091   8.778  0.4476  0.0304 -0.6672
 6658SOL    HW231608   3.467   0.182   8.788  0.4904  0.8180 -0.7390
 6659SOL     OW31609   3.188   2.882   1.906  0.8916  0.1160 -0.4050
 6659SOL    HW131610   3.185   2.870   1.811 -3.7096 -0.7013 -0.1246
 6659SOL    HW231611   3.282   2.900   1.912  1.0401 -2.1387  4.3499
 6660SOL     OW31612   3.710   0.769  15.226 -0.2604  0.3835  0.2565
 6660SOL    HW131613   3.670   0.739  15.144  1.2499 -1.4925  0.2144
 6660SOL    HW231614   3.803   0.761  15.206 -0.3046  0.0947  0.1696
 6661SOL     OW31615   2.303   0.579   3.464  0.2331 -0.2105  0.1597
 6661SOL    HW131616   2.358   0.502   3.446 -0.4391 -0.0177 -2.8334
 6661SOL    HW231617   2.374   0.636   3.491 -1.3013  1.6772  0.2044
 6662SOL     OW31618   1.111   3.069   3.518 -0.5472  0.1781  0.0150
 6662SOL    HW131619   1.163   3.147   3.540  0.9542 -1.1476  1.1402
 6662SOL    HW231620   1.152   3.049   3.434  0.3346 -0.8591  0.6956
 6663SOL     OW31621   1.683   3.449   8.146 -0.2460  0.0450  0.0257
 6663SOL    HW131622   1.685   3.398   8.227 -2.4819 -2.5740 -1.5845
 6663SOL    HW231623   1.685   3.543   8.165  2.0137 -0.2664  1.2767
 6664SOL     OW31624   4.535   3.807  10.124 -0.1510  0.1878 -0.2088
 6664SOL    HW131625   4.486   3.860  10.187  0.8044  0.5328  0.2459
 6664SOL    HW231626   4.585   3.872  10.074  0.2313 -1.3699 -1.8532
 6665SOL     OW31627   0.261   1.148   6.910  0.3481 -0.5342 -0.9168
 6665SOL    HW131628   0.213   1.224   6.944  1.4424  0.1190 -0.8259
 6665SOL    HW231629   0.349   1.178   6.888 -0.3906 -0.0054 -3.1603
 6666SOL     OW31630   0.357   0.066   7.307 -0.0467 -0.2299  0.0832
 6666SOL    HW131631   0.362   4.718   7.359  0.1782  0.4967  1.1999
 6666SOL    HW231632   0.427   0.125   7.336 -0.4222 -1.0100  2.6139
 6667SOL     OW31633   3.178   1.909   3.765  0.0555 -0.4217  0.0020
 6667SOL    HW131634   3.085   1.895   3.745 -0.5070  0.8155  1.8172
 6667SOL    HW231635   3.180   1.998   3.732  2.3572 -0.7733 -0.8185
 6668SOL     OW31636   0.362   3.560   5.029 -0.0194 -0.2312  0.3834
 6668SOL    HW131637   0.389   3.637   4.980  0.0134 -1.1873 -1.1148
 6668SOL    HW231638   0.433   3.534   5.087  1.0918  0.1014 -0.8505
 6669SOL     OW31639   4.705   1.729   4.230  0.0251  0.0541 -0.1934
 6669SOL    HW131640   4.683   1.744   4.322  0.9399 -1.6413  0.2912
 6669SOL    HW231641   4.619   1.748   4.192 -0.1742  0.7496  0.6104
 6670SOL     OW31642   1.204   3.723   7.330 -0.5361 -0.0344  0.4062
 6670SOL    HW131643   1.214   3.809   7.289  1.0979 -1.2590 -1.7465
 6670SOL    HW231644   1.197   3.747   7.423 -1.5533 -3.0837  1.0963
 6671SOL     OW31645   3.625   0.100  11.042 -0.1113  0.2721  0.9717
 6671SOL    HW131646   3.658   0.179  10.999 -4.5380  0.9163 -1.2327
 6671SOL    HW231647   3.667   0.109  11.128  0.2251  0.9671  0.7356
 6672SOL     OW31648   1.022   0.989   7.790  0.4153 -0.7554 -0.1371
 6672SOL    HW131649   1.117   0.978   7.791  0.6697  1.6271  1.3089
 6672SOL    HW231650   1.000   1.021   7.703  1.0265  0.0816  0.0199
 6673SOL     OW31651   2.138   1.878   8.376 -0.1369 -0.0721 -0.1888
 6673SOL    HW131652   2.157   1.871   8.282 -0.8011 -0.6596 -0.2869
 6673SOL    HW231653   2.184   1.798   8.403  0.5733 -0.2002 -1.8044
 6674SOL     OW31654   0.546   4.475  16.818  0.0199  0.1566 -0.1378
 6674SOL    HW131655   0.573   4.468  16.909 -2.5520 -0.5004  0.5778
 6674SOL    HW231656   0.523   4.568  16.821 -1.6493 -0.2362 -0.6836
 6675SOL     OW31657   1.114   2.995   0.366  0.2989  0.1280  0.0635
 6675SOL    HW131658   1.196   3.044   0.359  0.2924  0.3719  1.6262
 6675SOL    HW231659   1.154   2.911   0.343 -1.2363 -0.5706 -0.0088
 6676SOL     OW31660   2.412   1.829   5.563 -0.6838 -0.0216  0.6669
 6676SOL    HW131661   2.434   1.889   5.633 -0.6703 -0.1143  0.7424
 6676SOL    HW231662   2.324   1.803   5.587 -0.7649  0.8107  1.2376
 6677SOL     OW31663   4.396   0.446   0.284 -0.0568  0.6370 -0.0137
 6677SOL    HW131664   4.347   0.464   0.204 -0.5106 -1.7427 -0.2784
 6677SOL    HW231665   4.463   0.389   0.247 -0.8040  2.0105 -3.5141
 6678SOL     OW31666   2.469   0.893  10.823 -0.0218  0.0659  0.0215
 6678SOL    HW131667   2.437   0.983  10.824  1.1992  0.5204 -1.3336
 6678SOL    HW231668   2.505   0.881  10.911  1.3014  4.0219  0.0248
 6679SOL     OW31669   3.806   3.301   2.760 -0.0394  0.2340  0.3026
 6679SOL    HW131670   3.770   3.223   2.719 -0.2007  0.2484  0.4191
 6679SOL    HW231671   3.724   3.347   2.774  0.2954  0.9579 -0.1374
 6680SOL     OW31672   1.273   3.093   0.974 -0.1854 -0.6420 -0.6030
 6680SOL    HW131673   1.216   3.129   1.042  0.1314  1.5898 -1.5085
 6680SOL    HW231674   1.212   3.022   0.957 -1.6298  0.4512  0.0177
 6681SOL     OW31675   0.333   3.368   6.379 -0.3287 -0.0522  0.0061
 6681SOL    HW131676   0.371   3.411   6.456  0.5027 -1.9276  0.6535
 6681SOL    HW231677   0.306   3.287   6.423 -1.6072 -0.1825 -1.0578
 6682SOL     OW31678   0.343   1.294  17.202  0.1917 -0.5518  0.2541
 6682SOL    HW131679   0.425   1.339  17.222 -1.0594  2.1309 -0.6169
 6682SOL    HW231680   0.297   1.364  17.156 -3.2220 -2.2131  1.1338
 6683SOL     OW31681   0.984   0.516   7.574 -0.0839  0.4930  1.2180
 6683SOL    HW131682   0.894   0.488   7.586  0.2336 -1.7641 -1.5214
 6683SOL    HW231683   0.973   0.600   7.529 -1.2734 -1.0350 -1.3628
 6684SOL     OW31684   3.558   3.812   6.571 -0.2367 -0.4001  0.1772
 6684SOL    HW131685   3.499   3.820   6.646 -0.4551 -0.4255  0.0101
 6684SOL    HW231686   3.643   3.835   6.609  0.5661 -0.2689 -1.6578
 6685SOL     OW31687   0.601   4.248   3.785  0.5475 -0.5242  0.3702
 6685SOL    HW131688   0.621   4.270   3.694  0.0561 -2.1657 -0.1224
 6685SOL    HW231689   0.640   4.161   3.793  0.0788 -0.6510  1.2475
 6686SOL     OW31690   4.042   1.309  10.378 -0.1150 -0.3924  0.2895
 6686SOL    HW131691   4.067   1.402  10.374 -1.9271  0.0934  0.0428
 6686SOL    HW231692   3.976   1.311  10.308  1.1492  2.8453 -0.8419
 6687SOL     OW31693   3.703   1.627   9.248  0.2695  0.3188 -0.0681
 6687SOL    HW131694   3.788   1.664   9.272  0.7972 -1.1110  0.2309
 6687SOL    HW231695   3.716   1.573   9.170 -0.5713  1.9440 -1.3590
 6688SOL     OW31696   3.005   4.417  11.572 -0.6248 -0.1331 -0.0642
 6688SOL    HW131697   3.030   4.331  11.606 -4.1469 -0.2084  2.3578
 6688SOL    HW231698   3.043   4.481  11.632  2.5887  0.8024 -3.1003
 6689SOL     OW31699   1.540   2.046   5.939 -0.3279 -0.1115  0.4297
 6689SOL    HW131700   1.519   2.139   5.945  1.6026  0.2893  1.0122
 6689SOL    HW231701   1.493   2.003   6.011  0.9073  0.0977  1.3754
 6690SOL     OW31702   0.693   0.047   5.768 -0.6631 -0.6626 -0.2920
 6690SOL    HW131703   0.610   0.086   5.795  0.2906  0.9374  0.3552
 6690SOL    HW231704   0.699   0.068   5.674  2.3519 -0.1293  0.0050
 6691SOL     OW31705   2.281   3.555   1.916 -0.3264 -0.1754 -0.2860
 6691SOL    HW131706   2.284   3.647   1.893  0.6294 -0.0933  0.1579
 6691SOL    HW231707   2.281   3.567   2.011 -0.0955 -1.3779 -0.1299
 6692SOL     OW31708   3.809   3.629   2.869  0.3384 -0.7846 -0.0061
 6692SOL    HW131709   3.894   3.585   2.876  0.4693 -0.6342 -0.6490
 6692SOL    HW231710   3.772   3.590   2.789 -1.8437  1.1489  0.0507
 6693SOL     OW31711   2.972   1.486   3.825  0.4409  0.0161 -0.0059
 6693SOL    HW131712   3.062   1.512   3.846  0.2903 -0.7298  1.6059
 6693SOL    HW231713   2.977   1.403   3.874 -0.4076 -0.8098 -1.3101
 6694SOL     OW31714   3.083   1.890   5.870  0.0280 -0.1188  0.1202
 6694SOL    HW131715   3.033   1.906   5.790 -0.9114 -1.4765  0.4361
 6694SOL    HW231716   3.168   1.931   5.852  0.3290 -0.4157  0.8947
 6695SOL     OW31717   3.383   0.938   6.040  0.2044 -0.0065  0.0166
 6695SOL    HW131718   3.469   0.975   6.059  0.2634 -0.2641  0.2469
 6695SOL    HW231719   3.323   0.976   6.105  2.3392  1.1413  1.3291
 6696SOL     OW31720   1.045   2.581   4.253 -0.2326  0.0067 -0.9533
 6696SOL    HW131721   0.952   2.581   4.277  0.4092  0.2238  1.5572
 6696SOL    HW231722   1.038   2.521   4.180  0.1525 -2.1780  0.8243
 6697SOL     OW31723   0.847   2.681   3.324 -0.3500 -0.5659  0.1658
 6697SOL    HW131724   0.808   2.763   3.293  2.3067  0.9708  0.9703
 6697SOL    HW231725   0.932   2.683   3.281 -1.7054  1.5517 -2.4373
 6698SOL     OW31726   1.229   4.413   1.810  0.6470  0.0880 -0.0507
 6698SOL    HW131727   1.163   4.397   1.742  2.8791  0.1415 -2.2147
 6698SOL    HW231728   1.213   4.507   1.822  0.5952  0.0903 -0.1339
 6699SOL     OW31729   2.417   0.439   6.678  0.3891  0.0597  0.9668
 6699SOL    HW131730   2.486   0.456   6.743  0.8761  0.0246  0.4610
 6699SOL    HW231731   2.349   0.422   6.743 -1.2635 -2.1250 -1.3570
 6700SOL     OW31732   4.263   3.506   5.391  0.3223 -0.1265 -0.5179
 6700SOL    HW131733   4.342   3.463   5.358  2.5378  1.9098  2.1020
 6700SOL    HW231734   4.231   3.445   5.457  1.1580 -0.6869 -0.6269
 6701SOL     OW31735   1.255   0.416   9.192  0.2521  0.4071  0.5758
 6701SOL    HW131736   1.197   0.347   9.161  0.4392  0.2815  0.5016
 6701SOL    HW231737   1.278   0.402   9.284  3.3749  2.4506  0.1358
 6702SOL     OW31738   3.131   2.863  15.815  0.1989  0.3854 -0.0316
 6702SOL    HW131739   3.053   2.891  15.766  1.1526  1.6429 -0.8482
 6702SOL    HW231740   3.199   2.920  15.778  0.2308  0.4398  0.1098
 6703SOL     OW31741   4.383   4.171   0.547 -0.5956  0.0813  0.2215
 6703SOL    HW131742   4.410   4.193   0.636  2.2594 -1.1098 -0.3331
 6703SOL    HW231743   4.302   4.126   0.572 -1.2853  0.7303 -0.8386
 6704SOL     OW31744   3.510   3.480   6.182  0.0104  0.0347  0.2268
 6704SOL    HW131745   3.575   3.541   6.218 -0.7057  0.6656  0.4482
 6704SOL    HW231746   3.489   3.524   6.100  1.8389 -0.0250 -0.2800
 6705SOL     OW31747   4.209   3.999   8.681 -0.0733 -0.4284  0.4782
 6705SOL    HW131748   4.255   4.057   8.742  0.8547  1.9079 -2.4451
 6705SOL    HW231749   4.178   3.931   8.740 -0.9696  0.8876  1.5383
 6706SOL     OW31750   1.398   4.419   7.908 -0.5279 -0.9967 -0.0913
 6706SOL    HW131751   1.454   4.454   7.839 -0.2471 -1.6935 -0.2185
 6706SOL    HW231752   1.412   4.483   7.978  0.9104 -1.2440 -0.1497
 6707SOL     OW31753   3.670   4.396   4.385  0.0322  0.8692  0.0238
 6707SOL    HW131754   3.684   4.427   4.474 -0.6997  0.3056  0.3449
 6707SOL    HW231755   3.581   4.361   4.388  0.9154 -1.3218  0.6071
 6708SOL     OW31756   4.463   1.334  12.512 -0.9463 -0.1720 -0.0026
 6708SOL    HW131757   4.549   1.311  12.546  0.6183  1.1646 -3.0409
 6708SOL    HW231758   4.409   1.264  12.548 -1.4588  1.3103  2.1032
 6709SOL     OW31759   2.689   0.587   6.557  0.3013  0.3140 -0.0115
 6709SOL    HW131760   2.665   0.525   6.488 -2.4387 -1.2672  2.3462
 6709SOL    HW231761   2.599   0.611   6.581  0.7664  1.7531  0.2841
 6710SOL     OW31762   1.426   3.196  12.924  0.0447 -0.1438  0.3356
 6710SOL    HW131763   1.426   3.247  12.843  1.6448 -0.2518  0.2509
 6710SOL    HW231764   1.508   3.226  12.964  0.6516 -2.4092  0.7709
 6711SOL     OW31765   0.572   1.630   7.045 -0.1190 -0.5799 -0.4654
 6711SOL    HW131766   0.639   1.698   7.049  0.1006 -0.9367  1.8306
 6711SOL    HW231767   0.552   1.636   6.952 -0.4059  0.2283 -0.3449
 6712SOL     OW31768   0.793   0.758   7.726  0.1265 -0.1478 -0.3734
 6712SOL    HW131769   0.827   0.761   7.815  0.7650  2.9968 -0.7095
 6712SOL    HW231770   0.699   0.758   7.742  0.4523  2.2592  1.4955
 6713SOL     OW31771   0.064   0.242   8.971  0.1408  0.2425 -0.4869
 6713SOL    HW131772   4.723   0.181   8.979  0.2592  0.4263  1.7593
 6713SOL    HW231773   0.017   0.325   8.981 -0.4375 -0.0126 -1.0417
 6714SOL     OW31774   1.152   3.859   3.961  0.3267  0.2933  0.2855
 6714SOL    HW131775   1.117   3.948   3.961 -0.7105 -0.1071 -2.8122
 6714SOL    HW231776   1.116   3.817   4.039 -1.0754  0.5404 -0.2367
 6715SOL     OW31777   2.855   4.137   4.972  0.2145 -0.3678  0.3355
 6715SOL    HW131778   2.788   4.174   4.915  1.5681 -0.8265 -1.5588
 6715SOL    HW231779   2.817   4.142   5.060 -1.9136  1.1538 -0.6787
 6716SOL     OW31780   0.620   1.644  14.054 -0.1356 -0.5765  0.5211
 6716SOL    HW131781   0.644   1.678  14.140  1.5046 -3.6154  1.2726
 6716SOL    HW231782   0.661   1.711  13.999 -0.1530 -0.6049  0.4726
 6717SOL     OW31783   2.917   1.670   6.274  0.0552 -0.1669  0.5404
 6717SOL    HW131784   2.869   1.720   6.340  0.4425 -0.9533  1.3940
 6717SOL    HW231785   2.985   1.736   6.265  2.7460 -2.6272  3.3365
 6718SOL     OW31786   1.502   3.795  14.683  0.0109  0.1871  0.1099
 6718SOL    HW131787   1.421   3.759  14.650  0.3460  0.0879 -0.5971
 6718SOL    HW231788   1.566   3.730  14.656 -1.5370 -0.6103 -1.6292
 6719SOL     OW31789   1.490   1.791   3.329 -0.0167  0.3985 -0.1629
 6719SOL    HW131790   1.576   1.808   3.369 -0.3381  0.2499  0.5867
 6719SOL    HW231791   1.435   1.751   3.396  1.3932  0.7097  1.1910
 6720SOL     OW31792   4.331   1.908   5.260 -0.5041  0.2532 -0.0065
 6720SOL    HW131793   4.364   1.831   5.215 -1.5468 -0.3452  0.2624
 6720SOL    HW231794   4.246   1.918   5.218  0.4228  0.3647 -1.8756
 6721SOL     OW31795   1.582   0.383   8.899 -0.4073  0.0159 -0.5895
 6721SOL    HW131796   1.499   0.346   8.868 -0.8424 -1.7570  2.6742
 6721SOL    HW231797   1.585   0.455   8.836 -0.7054  1.8181  1.4657
 6722SOL     OW31798   0.680   1.973  14.098 -0.1528 -0.7139  0.5752
 6722SOL    HW131799   0.692   1.909  14.169 -1.8320  0.3523  1.8133
 6722SOL    HW231800   0.711   1.922  14.023  0.8954  0.3340  0.3101
 6723SOL     OW31801   3.408   0.270   4.807 -0.2593 -0.4713  0.2165
 6723SOL    HW131802   3.388   0.364   4.801  2.2668  0.1772  1.9152
 6723SOL    HW231803   3.434   0.246   4.718  0.8025 -0.5420  0.5430
 6724SOL     OW31804   3.257   2.711   3.849 -0.2464  0.3007 -0.3153
 6724SOL    HW131805   3.246   2.806   3.849  1.4359  0.5039  1.5040
 6724SOL    HW231806   3.171   2.675   3.828 -0.4485  0.4276  0.2908
 6725SOL     OW31807   0.259   4.343   7.578 -0.4040 -0.0296 -0.6135
 6725SOL    HW131808   0.252   4.273   7.643 -1.3949  1.4781  0.8819
 6725SOL    HW231809   0.342   4.318   7.536  0.6350 -0.2886  1.6048
 6726SOL     OW31810   3.788   1.970   2.106 -0.3059  0.3833 -0.5713
 6726SOL    HW131811   3.773   2.050   2.157  0.8176  0.8093 -0.9041
 6726SOL    HW231812   3.833   2.010   2.032  1.2943 -2.4829 -1.1094
 6727SOL     OW31813   1.068   4.494  16.882  0.0314  0.1879 -0.4530
 6727SOL    HW131814   0.987   4.545  16.873 -0.3766  0.1035  2.9295
 6727SOL    HW231815   1.022   4.412  16.863  2.1549 -0.7872 -1.3038
 6728SOL     OW31816   2.638   3.223   4.312  0.4609  0.1275 -0.1242
 6728SOL    HW131817   2.685   3.201   4.392 -0.6646  2.7239  1.2523
 6728SOL    HW231818   2.630   3.318   4.308 -0.7553  0.1020  1.5767
 6729SOL     OW31819   0.714   3.102  17.695 -0.3130 -0.1680  0.1120
 6729SOL    HW131820   0.757   3.132   0.045 -0.9939  2.2251 -0.4450
 6729SOL    HW231821   0.677   3.016  17.716 -0.5281 -0.3065 -0.8261
 6730SOL     OW31822   1.661   2.020   7.982  0.0625 -0.4591 -0.3454
 6730SOL    HW131823   1.692   1.996   8.069  0.7701  0.6938 -0.2880
 6730SOL    HW231824   1.743   2.028   7.933  1.4629  1.3379  2.3209
 6731SOL     OW31825   3.359   0.146   5.096 -0.1024  0.3223  0.2249
 6731SOL    HW131826   3.305   0.067   5.106  0.6157 -0.0663  1.0074
 6731SOL    HW231827   3.446   0.105   5.091 -0.5803 -0.6264 -0.3080
 6732SOL     OW31828   3.516   3.161   5.892 -0.7519  0.3415 -0.2675
 6732SOL    HW131829   3.485   3.074   5.918  0.5481  0.3023  1.1702
 6732SOL    HW231830   3.439   3.213   5.915 -1.2587 -0.7495  0.5194
 6733SOL     OW31831   1.719   1.064   2.331  0.6991 -0.0606 -0.2986
 6733SOL    HW131832   1.766   1.137   2.290  1.6857  2.0004  4.5157
 6733SOL    HW231833   1.761   0.984   2.298  1.2274  0.8292 -1.7821
 6734SOL     OW31834   2.724   2.452   8.493 -0.3742 -0.2927 -0.0562
 6734SOL    HW131835   2.738   2.451   8.398  2.5966 -1.0562  0.3942
 6734SOL    HW231836   2.735   2.361   8.519  1.0914 -0.3790 -0.9945
 6735SOL     OW31837   3.498   0.760   9.832  0.4307 -0.4082  0.4129
 6735SOL    HW131838   3.568   0.825   9.823  0.0512 -0.2582 -1.3554
 6735SOL    HW231839   3.521   0.728   9.919 -1.5849  0.3174  1.2082
 6736SOL     OW31840   2.638   4.415  14.679 -0.2570  0.0120  0.6521
 6736SOL    HW131841   2.595   4.356  14.741 -0.3597 -1.8953 -1.2284
 6736SOL    HW231842   2.724   4.373  14.669  1.3475  3.5515 -0.4356
 6737SOL     OW31843   3.596   2.495  14.554 -0.1109 -0.7002 -0.1755
 6737SOL    HW131844   3.613   2.522  14.645  0.2411 -0.1806 -0.3947
 6737SOL    HW231845   3.669   2.545  14.519 -0.5937 -1.5123 -2.3325
 6738SOL     OW31846   4.110   4.389   9.161  0.0802 -0.0306 -0.0781
 6738SOL    HW131847   4.107   4.340   9.243 -1.5317 -1.4818 -1.0059
 6738SOL    HW231848   4.205   4.388   9.152  0.2459  2.2674  1.3278
 6739SOL     OW31849   2.614   3.835   4.699  0.7033  0.3807 -0.2533
 6739SOL    HW131850   2.649   3.809   4.784  0.0004 -0.0474 -0.0920
 6739SOL    HW231851   2.693   3.849   4.647  0.8606  0.9495  0.1476
 6740SOL     OW31852   1.721   1.953   2.187  0.0718  0.6587 -0.3027
 6740SOL    HW131853   1.635   1.941   2.147  0.6994  1.9449 -2.0380
 6740SOL    HW231854   1.729   2.045   2.210  0.6095  1.0545 -2.0460
 6741SOL     OW31855   3.924   3.570   7.797 -0.5352  0.3171  0.5104
 6741SOL    HW131856   3.865   3.616   7.738 -1.0678  1.0379  1.6007
 6741SOL    HW231857   3.876   3.567   7.880 -1.3559 -0.7645 -0.0010
 6742SOL     OW31858   3.717   1.855  16.611  0.1559  0.3851 -0.6108
 6742SOL    HW131859   3.748   1.924  16.671 -1.8767  2.3326 -1.8109
 6742SOL    HW231860   3.736   1.780  16.667  1.0740  0.7886 -0.3667
 6743SOL     OW31861   1.808   0.284   5.631 -0.0846 -0.1805  0.5995
 6743SOL    HW131862   1.903   0.278   5.646  0.0610 -0.1557 -0.3465
 6743SOL    HW231863   1.783   0.362   5.682 -0.2831 -2.4523  4.0036
 6744SOL     OW31864   4.559   0.839   4.859 -0.2653 -0.4788  0.0930
 6744SOL    HW131865   4.495   0.795   4.916 -0.9966  2.0522  1.1940
 6744SOL    HW231866   4.593   0.909   4.915  2.7333 -1.7764 -0.0845
 6745SOL     OW31867   0.775   1.053   0.684 -0.5519  0.1277 -0.2866
 6745SOL    HW131868   0.757   0.961   0.701 -0.5214  0.5177  1.8699
 6745SOL    HW231869   0.867   1.063   0.708  0.2682 -0.0264 -3.3913
 6746SOL     OW31870   4.109   2.611   2.543 -0.2355  0.2698  0.3366
 6746SOL    HW131871   4.157   2.542   2.498  0.6543  0.7653  0.5308
 6746SOL    HW231872   4.015   2.601   2.527  0.1427  0.6573 -2.1286
 6747SOL     OW31873   1.184   3.361   3.051  0.0101  0.1159  0.5197
 6747SOL    HW131874   1.203   3.443   3.096  1.4925 -0.0471  0.1841
 6747SOL    HW231875   1.115   3.327   3.107  1.0343 -2.7919  0.0350
 6748SOL     OW31876   2.211   0.258  12.885  0.1281 -0.1187 -0.0754
 6748SOL    HW131877   2.147   0.217  12.827  0.2621 -1.0192  0.4127
 6748SOL    HW231878   2.230   0.185  12.944 -2.6911  1.2396  2.4772
 6749SOL     OW31879   1.329   2.326  17.586  0.1795  0.1211  0.4923
 6749SOL    HW131880   1.387   2.331  17.509 -3.6455 -0.6458 -2.4424
 6749SOL    HW231881   1.301   2.417  17.588 -0.5814 -0.0877 -0.5261
 6750SOL     OW31882   1.568   1.724   8.207 -0.3891  0.0730 -0.7764
 6750SOL    HW131883   1.501   1.694   8.268  2.5922 -2.3327  1.3388
 6750SOL    HW231884   1.612   1.642   8.186  1.4470  0.9461 -0.3668
 6751SOL     OW31885   1.859   2.174   3.949 -0.0349  0.0972 -0.0065
 6751SOL    HW131886   1.880   2.144   3.861  0.8451 -0.0762  0.2668
 6751SOL    HW231887   1.789   2.110   3.966  0.5269 -0.3139  0.7907
 6752SOL     OW31888   4.059   1.458  11.338 -0.4275  0.2867 -0.0202
 6752SOL    HW131889   4.112   1.482  11.414 -1.6668  1.7757  0.3715
 6752SOL    HW231890   4.124   1.469  11.269 -0.1278  2.8902  0.6797
 6753SOL     OW31891   3.551   2.168  10.790  0.5544 -0.4398 -0.5619
 6753SOL    HW131892   3.609   2.238  10.760  1.1501 -0.5063  0.4266
 6753SOL    HW231893   3.603   2.088  10.783 -0.8949 -1.2068 -2.6280
 6754SOL     OW31894   1.470   2.609   5.579 -0.1673 -0.3118  0.5457
 6754SOL    HW131895   1.387   2.631   5.537 -0.8102 -0.6317  1.6402
 6754SOL    HW231896   1.523   2.611   5.499 -0.5831 -0.9062  0.2527
 6755SOL     OW31897   2.423   0.370  15.868 -0.0190 -0.4534 -0.1631
 6755SOL    HW131898   2.376   0.450  15.891 -0.1361 -1.6280  3.6103
 6755SOL    HW231899   2.475   0.396  15.792  1.4563 -2.0621  0.2859
 6756SOL     OW31900   4.211   2.661  12.942  0.7259  0.2810 -0.3118
 6756SOL    HW131901   4.209   2.700  13.029  1.1356 -0.9668  0.2468
 6756SOL    HW231902   4.306   2.655  12.938  1.0009  2.8777  2.4956
 6757SOL     OW31903   1.178   2.484   6.807 -0.2681 -0.5033  0.8501
 6757SOL    HW131904   1.109   2.545   6.780  0.2527  0.3975  1.5844
 6757SOL    HW231905   1.223   2.529   6.878  0.1144  1.0559 -0.4137
 6758SOL     OW31906   0.249   0.413   2.052 -0.3064 -0.1355 -0.0826
 6758SOL    HW131907   0.202   0.373   1.979  0.5778  0.2472 -0.8626
 6758SOL    HW231908   0.327   0.458   2.018 -1.8994 -0.1038 -3.7399
 6759SOL     OW31909   3.419   0.235   3.852  0.4497  0.0335  0.9954
 6759SOL    HW131910   3.399   0.148   3.817 -0.4942  0.9806 -0.8291
 6759SOL    HW231911   3.497   0.246   3.797 -0.3212  0.6445  0.0123
 6760SOL     OW31912   4.514   2.049   8.052  0.0834 -0.0823 -0.3819
 6760SOL    HW131913   4.477   2.099   8.125 -3.9002  0.4379 -2.7234
 6760SOL    HW231914   4.440   2.057   7.991 -1.6141  0.9518  1.8050
 6761SOL     OW31915   3.488   2.927   9.426  0.3724  0.8759  0.5440
 6761SOL    HW131916   3.439   2.901   9.504 -1.4799  2.5460 -0.0869
 6761SOL    HW231917   3.544   2.996   9.461 -0.4753  1.6110  0.4452
 6762SOL     OW31918   0.469   3.641   1.980  0.5257 -0.5331  1.2422
 6762SOL    HW131919   0.480   3.573   2.046 -2.0482 -1.0475  1.1748
 6762SOL    HW231920   0.445   3.712   2.040  0.1098 -0.2905  0.7872
 6763SOL     OW31921   4.197   0.729   7.148 -0.0498  0.8618 -0.0214
 6763SOL    HW131922   4.220   0.704   7.238 -4.5367  1.1692  1.2039
 6763SOL    HW231923   4.280   0.773   7.130  1.0454  0.4645  3.9780
 6764SOL     OW31924   2.420   4.626   3.282 -0.2078 -0.8937  0.1154
 6764SOL    HW131925   2.335   4.627   3.238  0.1598 -0.4168 -0.5936
 6764SOL    HW231926   2.464   4.652   3.201  0.6324 -0.2055  0.7895
 6765SOL     OW31927   0.894   4.558   5.122 -0.4449 -0.0234 -0.0020
 6765SOL    HW131928   0.872   4.648   5.147 -0.8061 -0.1599  0.1793
 6765SOL    HW231929   0.824   4.501   5.155  0.9795 -0.8702  1.5467
 6766SOL     OW31930   1.328   3.332   0.677  0.0444  0.2398  0.0726
 6766SOL    HW131931   1.328   3.369   0.765  1.0102 -1.4442  0.7912
 6766SOL    HW231932   1.367   3.398   0.620 -1.0928 -0.7298 -1.8104
 6767SOL     OW31933   3.254   0.303   0.064 -0.0732 -0.5465  0.4637
 6767SOL    HW131934   3.207   0.320   0.145  2.4871 -1.9708  2.2572
 6767SOL    HW231935   3.256   0.392   0.030 -0.8367 -0.3233  1.0202
 6768SOL     OW31936   0.061   0.715   3.069  0.5102 -1.1126  0.0968
 6768SOL    HW131937   0.154   0.735   3.075  0.5949 -1.2833 -0.6124
 6768SOL    HW231938   0.027   0.800   3.043  2.3221 -1.0829 -2.2329
 6769SOL     OW31939   4.417   4.233   1.915 -0.6500 -0.0369  0.3647
 6769SOL    HW131940   4.323   4.233   1.897 -0.6938 -0.6622  0.6103
 6769SOL    HW231941   4.434   4.276   1.999 -2.2803 -3.6390  2.5159
 6770SOL     OW31942   0.906   2.422   9.254  0.0333  0.0274  0.0048
 6770SOL    HW131943   0.935   2.493   9.197 -0.3442 -0.0532 -0.2891
 6770SOL    HW231944   0.962   2.347   9.235 -1.6699 -1.6183  1.4335
 6771SOL     OW31945   0.802   2.112   1.892 -0.6035  0.3704 -0.2890
 6771SOL    HW131946   0.756   2.190   1.863  0.5245  0.3757 -2.0626
 6771SOL    HW231947   0.722   2.062   1.911 -1.2971  1.6825  0.2207
 6772SOL     OW31948   1.043   0.875   6.302  0.3013 -0.0952  0.2122
 6772SOL    HW131949   1.038   0.887   6.207  0.3041 -0.2746  0.1886
 6772SOL    HW231950   1.107   0.804   6.309 -0.8351 -1.4658 -3.2914
 6773SOL     OW31951   4.264   1.933  12.030  0.4015 -0.5629  0.2503
 6773SOL    HW131952   4.237   1.986  12.104  0.5826  0.9904 -0.7941
 6773SOL    HW231953   4.195   1.951  11.966 -0.2062 -1.1256  0.7498
 6774SOL     OW31954   2.704   3.495   5.485  0.4053 -0.2189  0.1774
 6774SOL    HW131955   2.629   3.551   5.504  0.7367 -0.2558  1.5719
 6774SOL    HW231956   2.756   3.503   5.565 -0.5815 -0.7158  0.8563
 6775SOL     OW31957   4.642   2.622   2.822 -0.0150 -0.4087  0.1332
 6775SOL    HW131958   4.681   2.579   2.899  0.5898 -0.3725 -0.1502
 6775SOL    HW231959   4.562   2.574   2.800  0.5366 -1.7683  1.1348
 6776SOL     OW31960   2.126   1.173   5.586  0.0036 -0.0473  0.4956
 6776SOL    HW131961   2.144   1.215   5.670 -0.0955  2.0147 -0.5152
 6776SOL    HW231962   2.052   1.117   5.609  0.6814 -0.5318  1.4799
 6777SOL     OW31963   3.715   2.594   2.001 -0.0461  0.3531  0.3704
 6777SOL    HW131964   3.774   2.546   1.942  0.6646  0.1225  1.2596
 6777SOL    HW231965   3.704   2.523   2.064  0.8383  1.0910  1.3582
 6778SOL     OW31966   3.654   3.237  13.368 -0.5368 -0.2633 -0.8127
 6778SOL    HW131967   3.707   3.315  13.354  0.1556 -0.5073  0.4280
 6778SOL    HW231968   3.611   3.254  13.452  2.4704 -0.0213  0.6934
 6779SOL     OW31969   1.521   2.520   3.538  0.1446  0.0934  0.6135
 6779SOL    HW131970   1.543   2.550   3.626  1.0653 -1.7149  0.9912
 6779SOL    HW231971   1.599   2.565   3.504 -1.6324  1.9662 -1.0454
 6780SOL     OW31972   1.342   2.225   5.233  0.2461 -0.2619 -0.2659
 6780SOL    HW131973   1.318   2.148   5.285 -0.9946  0.1111 -0.2814
 6780SOL    HW231974   1.426   2.235   5.277  0.4489 -1.9357 -0.2920
 6781SOL     OW31975   1.124   0.864  12.492 -0.0383 -0.0190 -0.1161
 6781SOL    HW131976   1.044   0.814  12.509 -0.0964 -0.1510 -0.7668
 6781SOL    HW231977   1.174   0.794  12.449  0.9280 -1.8905  4.1169
 6782SOL     OW31978   3.248   3.052  10.256  0.1765  0.3930 -0.4487
 6782SOL    HW131979   3.286   2.973  10.218  4.4367  1.5158  1.4151
 6782SOL    HW231980   3.238   3.016  10.344 -1.8728  1.8537 -0.0909
 6783SOL     OW31981   1.304   4.122   5.907 -0.5792 -0.2452  0.3304
 6783SOL    HW131982   1.360   4.083   5.840  1.4014  1.1237  1.2332
 6783SOL    HW231983   1.236   4.054   5.910 -0.0708 -0.7912 -0.5702
 6784SOL     OW31984   0.056   0.770   2.183  0.1134  0.2639  0.6237
 6784SOL    HW131985   0.083   0.679   2.187  1.3863  0.6403  0.7476
 6784SOL    HW231986   0.121   0.809   2.124 -2.2780  3.8016  0.3128
 6785SOL     OW31987   3.213   3.378  10.355  0.2812  0.3666 -0.1586
 6785SOL    HW131988   3.144   3.331  10.402  0.2214  0.8889  0.2792
 6785SOL    HW231989   3.278   3.311  10.335 -1.3731 -1.7588  1.6459
 6786SOL     OW31990   1.439   1.551   4.624 -0.0461  0.0624  0.2971
 6786SOL    HW131991   1.427   1.525   4.715  2.2485  0.3160  0.6486
 6786SOL    HW231992   1.463   1.468   4.583  0.8588 -0.0282  1.0328
 6787SOL     OW31993   4.709   0.945   2.967 -0.6442  0.3775  0.7683
 6787SOL    HW131994   4.626   0.944   2.919 -1.2700 -0.3766  1.8692
 6787SOL    HW231995   0.039   0.926   2.897 -0.4218  1.8789  0.5618
 6788SOL     OW31996   4.470   1.705  15.570  0.2675  0.6825  0.1836
 6788SOL    HW131997   4.459   1.796  15.597 -1.2138  0.6896 -0.4498
 6788SOL    HW231998   4.563   1.688  15.556 -0.2511 -0.1211 -2.4982
 6789SOL     OW31999   4.316   0.588   9.728 -0.1806  0.2080 -0.1446
 6789SOL    HW132000   4.308   0.593   9.633 -0.2598 -0.0866 -0.1545
 6789SOL    HW232001   4.383   0.652   9.749 -0.5219  0.5074  0.0409
 6790SOL     OW32002   0.648   2.577   6.562  0.1815 -0.1149  0.0566
 6790SOL    HW132003   0.570   2.633   6.557  0.6081  0.2546 -2.2378
 6790SOL    HW232004   0.713   2.635   6.523 -1.8607  0.8761 -1.9041
 6791SOL     OW32005   0.732   0.048   5.444  0.1164  0.4546 -0.4994
 6791SOL    HW132006   0.713   0.058   5.350  0.0841  0.6984 -0.4679
 6791SOL    HW232007   0.705   0.131   5.483  0.6740 -0.0380  0.9367
 6792SOL     OW32008   4.377   2.314  17.227  0.1252 -0.0206 -0.0211
 6792SOL    HW132009   4.428   2.284  17.302 -0.0106 -3.3724 -1.2504
 6792SOL    HW232010   4.363   2.227  17.189 -3.6689  0.8680 -0.6128
 6793SOL     OW32011   1.925   2.627   9.049 -0.7455 -0.0591  0.0983
 6793SOL    HW132012   1.938   2.651   8.957 -0.9948  0.3963  0.1805
 6793SOL    HW232013   1.860   2.687   9.086  0.9579  0.7073  1.8087
 6794SOL     OW32014   0.894   4.285  14.878  0.0279  0.5086 -0.3519
 6794SOL    HW132015   0.814   4.335  14.892  0.2507  0.0351  2.7405
 6794SOL    HW232016   0.858   4.196  14.879 -0.0446  0.5255 -1.4619
 6795SOL     OW32017   1.037   4.423   7.730 -0.3007  0.2159  0.1324
 6795SOL    HW132018   1.026   4.454   7.820 -0.4961  2.5252 -0.7008
 6795SOL    HW232019   0.985   4.483   7.676 -1.0646  1.9218  2.7804
 6796SOL     OW32020   2.559   3.893   4.356  0.1467  0.1832  0.2860
 6796SOL    HW132021   2.490   3.850   4.407  0.5446 -0.4425  0.2876
 6796SOL    HW232022   2.596   3.825   4.300  1.7626  0.2715  1.2621
 6797SOL     OW32023   1.092   3.419   1.834 -0.2976 -0.0091 -0.0128
 6797SOL    HW132024   1.033   3.347   1.813 -0.5624  0.6304 -1.4305
 6797SOL    HW232025   1.103   3.465   1.751 -0.5328 -0.9901 -0.5897
 6798SOL     OW32026   3.228   4.516   6.613  0.6604 -0.6152  0.0408
 6798SOL    HW132027   3.321   4.529   6.633  0.3000  2.9271 -0.5908
 6798SOL    HW232028   3.219   4.585   6.547  0.4603 -1.0286 -0.3622
 6799SOL     OW32029   4.060   3.814   3.846  0.2574 -0.3227  0.7576
 6799SOL    HW132030   4.094   3.845   3.762  0.8595 -0.2159  1.0351
 6799SOL    HW232031   4.014   3.733   3.827  0.0262 -0.1426  0.5505
 6800SOL     OW32032   1.717   2.030   2.559 -0.5853 -0.2374  0.2846
 6800SOL    HW132033   1.703   1.951   2.508  0.3939 -0.5049  0.4302
 6800SOL    HW232034   1.809   2.055   2.556 -0.5095 -0.6967 -0.8428
 6801SOL     OW32035   1.619   2.785   5.722 -0.0772  0.2750 -0.5267
 6801SOL    HW132036   1.562   2.734   5.666 -0.7483 -0.6604  1.0077
 6801SOL    HW232037   1.608   2.748   5.810 -0.4443  0.2398 -0.5893
 6802SOL     OW32038   1.743   1.219   3.772  0.3465  0.2116  0.7545
 6802SOL    HW132039   1.724   1.276   3.698  3.8435 -0.9890 -1.0440
 6802SOL    HW232040   1.653   1.213   3.806 -0.2754  0.4347 -0.8729
 6803SOL     OW32041   4.003   0.990  15.885  0.5364  0.1568 -0.1257
 6803SOL    HW132042   4.022   1.006  15.792  3.5808 -2.8194 -0.0228
 6803SOL    HW232043   4.035   0.901  15.896  0.5948  0.2368  0.3393
 6804SOL     OW32044   4.502   1.922   5.453  0.2406  0.2678 -0.1124
 6804SOL    HW132045   4.432   1.899   5.392  0.7739  0.4428 -0.7985
 6804SOL    HW232046   4.474   2.012   5.469  0.3087  0.1197  0.8424
 6805SOL     OW32047   2.815   2.956   9.150 -0.2821  0.0333  0.2917
 6805SOL    HW132048   2.730   3.000   9.148  0.1460  0.8623  0.2565
 6805SOL    HW232049   2.796   2.865   9.126 -0.1917  0.1060 -0.0634
 6806SOL     OW32050   1.257   4.350   8.926 -0.1204 -0.3482 -0.2301
 6806SOL    HW132051   1.296   4.438   8.930 -0.1750 -0.1488 -3.8769
 6806SOL    HW232052   1.167   4.381   8.914 -0.1531 -0.0901  0.6943
 6807SOL     OW32053   0.309   1.376   8.797  0.2938 -0.0254  0.5747
 6807SOL    HW132054   0.365   1.320   8.850  0.4951  0.8022  1.2350
 6807SOL    HW232055   0.251   1.412   8.864  0.2279  1.9380 -0.5391
 6808SOL     OW32056   4.666   0.155   2.951 -0.3816 -0.3764 -0.6795
 6808SOL    HW132057   4.614   0.235   2.941  0.8179  0.8300  2.7749
 6808SOL    HW232058   4.610   0.114   3.017 -3.0364  0.8842 -2.1291
 6809SOL     OW32059   0.844   2.799   1.585 -0.3793  0.0825  0.0664
 6809SOL    HW132060   0.825   2.779   1.493 -0.2585 -0.3556  0.1357
 6809SOL    HW232061   0.825   2.892   1.578  1.0231  0.3754  0.1189
 6810SOL     OW32062   0.445   3.087   1.022 -0.2769  0.0521  0.9671
 6810SOL    HW132063   0.374   3.081   1.086 -2.4873  1.9006 -1.3103
 6810SOL    HW232064   0.425   3.006   0.974  0.1647  1.7207 -2.0002
 6811SOL     OW32065   4.323   0.776   5.006  0.2231 -0.2286  0.3177
 6811SOL    HW132066   4.335   0.807   5.096 -0.6099 -0.3582  0.4760
 6811SOL    HW232067   4.244   0.827   4.984  0.8608  1.2705  1.4685
 6812SOL     OW32068   0.703   1.130   3.137 -0.5843 -0.0767 -0.7368
 6812SOL    HW132069   0.738   1.174   3.060 -0.5589 -0.5245 -0.9829
 6812SOL    HW232070   0.702   1.204   3.198 -1.4510 -0.3847 -0.3901
 6813SOL     OW32071   1.176   3.859   1.080  0.0145 -0.1527  0.9703
 6813SOL    HW132072   1.088   3.845   1.045 -0.3588 -1.0366  2.2727
 6813SOL    HW232073   1.221   3.878   0.997 -0.4147 -2.7230  0.1495
 6814SOL     OW32074   0.053   3.955   6.347  0.2115  0.7906  0.4774
 6814SOL    HW132075   0.069   3.935   6.255 -0.6574 -0.8293  0.6868
 6814SOL    HW232076   0.070   4.049   6.355  1.1929  0.5684  1.0724
 6815SOL     OW32077   3.295   4.727   1.191  0.0081  0.5496  0.1170
 6815SOL    HW132078   3.364   4.729   1.125 -0.9089  0.9643 -0.8429
 6815SOL    HW232079   3.331   0.035   1.270  0.9310  1.8566 -0.9759
 6816SOL     OW32080   0.832   3.796   8.139  0.2651 -0.1551  0.4421
 6816SOL    HW132081   0.927   3.800   8.124  0.0877  1.4018 -0.2853
 6816SOL    HW232082   0.828   3.754   8.225 -0.0652 -1.5593 -0.2401
 6817SOL     OW32083   0.001   2.534   5.924 -0.7561 -0.0338  0.2255
 6817SOL    HW132084   4.732   2.461   5.862 -0.1223 -0.1868  0.3924
 6817SOL    HW232085   4.661   2.587   5.891  0.5477  0.5203 -1.7495
 6818SOL     OW32086   3.888   1.301   1.921  0.5362  0.7523 -0.0501
 6818SOL    HW132087   3.917   1.392   1.918  1.6620  0.3738 -0.9064
 6818SOL    HW232088   3.944   1.255   1.859 -1.6512 -0.6062 -1.0355
 6819SOL     OW32089   4.363   4.081   3.376 -0.6471 -0.1366 -0.7976
 6819SOL    HW132090   4.275   4.043   3.368 -0.2105 -1.3036 -0.0284
 6819SOL    HW232091   4.413   3.999   3.376  0.7868  0.7332 -2.8104
 6820SOL     OW32092   4.081   3.935  14.594  0.1115 -0.8328 -0.1512
 6820SOL    HW132093   4.176   3.921  14.585  0.2258  1.1199 -1.9328
 6820SOL    HW232094   4.067   4.003  14.529  0.6010 -1.9432 -1.4237
 6821SOL     OW32095   4.081   0.199   4.627  0.9175  0.7541  0.0873
 6821SOL    HW132096   4.129   0.253   4.691  1.7491 -0.2116  0.2731
 6821SOL    HW232097   4.029   0.265   4.581 -1.5300 -0.4268  1.1631
 6822SOL     OW32098   3.128   4.646   5.790  0.2167 -0.6841  0.0642
 6822SOL    HW132099   3.103   4.715   5.728  1.3263 -0.4127 -0.0899
 6822SOL    HW232100   3.039   4.619   5.812 -0.7347  3.5741  1.4619
 6823SOL     OW32101   2.860   2.119   3.899  0.6719  0.2978  0.6329
 6823SOL    HW132102   2.915   2.051   3.936  0.7835  0.4909  0.8235
 6823SOL    HW232103   2.778   2.070   3.908 -0.2005  1.1623 -2.5773
 6824SOL     OW32104   1.329   1.038   6.060  0.2781  0.0465 -0.5032
 6824SOL    HW132105   1.239   1.042   6.092  1.9223  2.4536  3.7558
 6824SOL    HW232106   1.320   1.087   5.978 -1.7957 -1.4104 -1.1516
 6825SOL     OW32107   1.518   3.346   7.085 -0.2897 -0.1780 -0.0548
 6825SOL    HW132108   1.443   3.304   7.126  0.2581  1.4397  2.6110
 6825SOL    HW232109   1.578   3.272   7.083  0.7694  0.6471  1.6433
 6826SOL     OW32110   2.051   3.293   7.307  0.0261 -0.1231 -0.2201
 6826SOL    HW132111   1.980   3.347   7.273 -0.0085 -0.5826 -0.8798
 6826SOL    HW232112   1.998   3.251   7.375 -1.1574 -1.0656 -1.7350
 6827SOL     OW32113   1.055   3.167   8.362 -0.1995  0.7513 -0.5622
 6827SOL    HW132114   1.044   3.083   8.406 -3.3165  0.5384 -1.8203
 6827SOL    HW232115   1.151   3.171   8.357 -0.2174  0.2809 -1.2069
 6828SOL     OW32116   2.298   3.245   7.599  0.0148  0.7190 -0.3467
 6828SOL    HW132117   2.291   3.327   7.551  1.2642  0.0542 -1.6583
 6828SOL    HW232118   2.205   3.231   7.616  0.7534 -2.0940  1.3659
 6829SOL     OW32119   3.337   1.078   4.119  0.0817 -0.2950  0.0706
 6829SOL    HW132120   3.271   1.128   4.166  0.5449  0.1305  0.2685
 6829SOL    HW232121   3.346   1.001   4.175 -2.6849 -0.2315  0.6018
 6830SOL     OW32122   0.624   2.096  16.008 -0.2020 -0.3274 -0.4048
 6830SOL    HW132123   0.534   2.087  15.976 -0.4055 -0.4236  0.1963
 6830SOL    HW232124   0.672   2.064  15.932  0.7777 -0.3996  0.2400
 6831SOL     OW32125   2.771   4.349  15.348  0.3754  0.2833  0.0629
 6831SOL    HW132126   2.697   4.372  15.404 -1.5132  0.5168 -2.5028
 6831SOL    HW232127   2.841   4.398  15.391 -0.0702  0.2725  0.8100
 6832SOL     OW32128   0.497   4.461   5.636  0.4940 -0.6144  0.2920
 6832SOL    HW132129   0.566   4.498   5.581  3.0721 -1.1371  3.1290
 6832SOL    HW232130   0.488   4.523   5.709  1.4300  0.7347 -0.7541
 6833SOL     OW32131   2.641   2.609   1.728 -0.7781  0.4284  0.6437
 6833SOL    HW132132   2.664   2.564   1.647 -1.5857  2.8566 -0.9488
 6833SOL    HW232133   2.620   2.696   1.693  1.7204  0.3954 -0.8938
 6834SOL     OW32134   4.349   1.813   2.364  0.3177 -0.0757  0.0109
 6834SOL    HW132135   4.338   1.891   2.419  0.7718  0.4630 -0.6607
 6834SOL    HW232136   4.288   1.750   2.402 -0.1024  0.6917  0.6112
 6835SOL     OW32137   0.318   1.872   8.448 -0.1580  0.2334  0.3616
 6835SOL    HW132138   0.278   1.953   8.416 -1.9115  0.1425  2.3312
 6835SOL    HW232139   0.409   1.899   8.460 -0.6849  0.8448  2.9427
 6836SOL     OW32140   3.025   0.709   5.355  0.3343 -0.1880 -0.6000
 6836SOL    HW132141   3.028   0.739   5.446 -0.7228 -0.7226 -0.3890
 6836SOL    HW232142   2.936   0.725   5.325  0.7056 -0.5618 -1.9147
 6837SOL     OW32143   1.220   2.657   2.962 -0.3241 -0.2805  0.4103
 6837SOL    HW132144   1.309   2.624   2.951  0.3604  0.9932  2.1773
 6837SOL    HW232145   1.208   2.717   2.889  1.6445  0.5713  0.7994
 6838SOL     OW32146   4.502   0.970  14.675 -0.3090  0.0126 -0.4018
 6838SOL    HW132147   4.568   0.957  14.606 -0.6413 -0.3441 -0.6529
 6838SOL    HW232148   4.456   1.051  14.650  0.2613  0.2744 -0.6043
 6839SOL     OW32149   4.075   4.162   4.164  0.2858 -0.0879  0.1013
 6839SOL    HW132150   3.984   4.184   4.185  0.6109 -0.1370  1.5549
 6839SOL    HW232151   4.059   4.115   4.082  1.3490 -1.3664  0.6259
 6840SOL     OW32152   0.572   1.057   6.180  0.2743 -0.1118 -0.4364
 6840SOL    HW132153   0.639   1.046   6.247 -0.9548  0.5333  0.9056
 6840SOL    HW232154   0.527   0.974   6.189 -0.8898  0.7699  1.7390
 6841SOL     OW32155   3.365   0.716   3.329 -0.0359  0.1942  0.3473
 6841SOL    HW132156   3.397   0.656   3.396 -0.8140 -1.3790 -0.6748
 6841SOL    HW232157   3.414   0.793   3.355 -1.4296  1.4861 -0.8564
 6842SOL     OW32158   3.872   1.200   5.783  0.5193  0.7685 -0.2535
 6842SOL    HW132159   3.803   1.255   5.820  0.3105 -0.4865  1.2452
 6842SOL    HW232160   3.943   1.249   5.823  0.3381 -0.4688  1.6031
 6843SOL     OW32161   0.375   2.121  10.376 -0.2803 -0.1863 -0.4871
 6843SOL    HW132162   0.344   2.112  10.286  1.4779 -0.4344 -1.0647
 6843SOL    HW232163   0.331   2.048  10.421  0.7084  0.1171  0.9848
 6844SOL     OW32164   2.001   2.071   2.797  0.2379  0.0126 -0.4721
 6844SOL    HW132165   1.966   2.138   2.857 -0.6778 -1.3254  0.4744
 6844SOL    HW232166   1.999   2.120   2.714  0.1636  0.5113 -0.1746
 6845SOL     OW32167   2.563   0.788  15.314  1.4790 -0.5133 -0.5800
 6845SOL    HW132168   2.602   0.875  15.307 -1.4218  0.9715  1.4656
 6845SOL    HW232169   2.473   0.813  15.332  2.2186  0.6294  1.5778
 6846SOL     OW32170   4.391   1.080   4.350 -0.1222  0.0482  0.5896
 6846SOL    HW132171   4.403   1.072   4.444  1.5347  1.2726  0.4921
 6846SOL    HW232172   4.297   1.096   4.356 -0.5345 -1.4617 -1.8691
 6847SOL     OW32173   0.214   0.452  10.518 -0.2779  0.0294  0.2380
 6847SOL    HW132174   0.146   0.511  10.550  0.2912  1.0603 -0.4710
 6847SOL    HW232175   0.231   0.392  10.590  0.4858 -0.0704 -0.0288
 6848SOL     OW32176   2.231   2.571  16.586  0.0697  0.1762 -0.2075
 6848SOL    HW132177   2.323   2.592  16.599 -0.0890  1.0994 -0.5370
 6848SOL    HW232178   2.190   2.649  16.623  1.9301  1.5105 -0.9990
 6849SOL     OW32179   3.689   1.439  12.263 -0.3087 -0.0405 -0.3765
 6849SOL    HW132180   3.648   1.410  12.181  0.3207 -0.8912 -0.3884
 6849SOL    HW232181   3.614   1.467  12.315  0.1008 -0.7022  0.5762
 6850SOL     OW32182   3.978   2.295   2.119 -0.1510 -0.3553  0.2581
 6850SOL    HW132183   3.962   2.319   2.210  1.3869  0.1005  0.4119
 6850SOL    HW232184   4.051   2.233   2.123 -1.1705 -1.6160 -0.5113
 6851SOL     OW32185   1.100   0.954   2.984  0.2190 -0.1668  0.1808
 6851SOL    HW132186   1.131   0.906   3.062  0.7858 -0.6201 -0.3163
 6851SOL    HW232187   1.173   0.925   2.929  0.0740 -1.2388  0.5376
 6852SOL     OW32188   1.814   3.951   6.522 -0.4533  0.3226 -0.4662
 6852SOL    HW132189   1.758   4.014   6.477  0.8267  1.3214 -0.6547
 6852SOL    HW232190   1.836   3.892   6.450 -1.2775  0.2150 -0.6233
 6853SOL     OW32191   2.554   4.296  14.398  0.2335 -0.4786 -0.2757
 6853SOL    HW132192   2.600   4.341  14.468 -0.5381 -0.0766 -0.0271
 6853SOL    HW232193   2.559   4.204  14.423 -0.5090  0.0272  1.7170
 6854SOL     OW32194   4.076   1.135   1.726  0.0853  0.6732  0.4239
 6854SOL    HW132195   3.995   1.089   1.704  0.5339 -0.8709  2.0072
 6854SOL    HW232196   4.132   1.060   1.746  0.6052  0.5939 -1.3295
 6855SOL     OW32197   0.889   1.770   7.291  0.5253  0.0655 -0.0090
 6855SOL    HW132198   0.868   1.680   7.313  1.8662 -0.1537  0.3329
 6855SOL    HW232199   0.909   1.766   7.197  2.0522  0.0217  0.3284
 6856SOL     OW32200   3.543   4.588   0.053 -0.0498 -0.0110 -0.1127
 6856SOL    HW132201   3.505   4.536  17.713 -1.8718  1.9425 -0.5785
 6856SOL    HW232202   3.468   4.643   0.076  0.2137  0.7979 -1.1977
 6857SOL     OW32203   2.211   2.738  11.439  0.3884 -0.7850  0.0895
 6857SOL    HW132204   2.253   2.699  11.516  0.0957 -3.5704 -1.1852
 6857SOL    HW232205   2.284   2.771  11.387 -0.1251 -0.2343 -0.2827
 6858SOL     OW32206   1.888   3.664   8.418 -0.2177 -0.2836  0.4278
 6858SOL    HW132207   1.972   3.679   8.461  2.0340 -1.5954 -3.4900
 6858SOL    HW232208   1.875   3.571   8.435 -1.4031  0.2754  2.4821
 6859SOL     OW32209   3.396   4.629   7.642  0.1183  0.2636 -0.2110
 6859SOL    HW132210   3.438   4.703   7.599 -0.9867  0.5270 -0.8293
 6859SOL    HW232211   3.469   4.580   7.679  1.9352  1.3702 -2.2922
 6860SOL     OW32212   2.596   3.130   6.236  0.8215 -0.5486 -0.1427
 6860SOL    HW132213   2.638   3.216   6.233 -2.4973  1.0356 -1.2192
 6860SOL    HW232214   2.591   3.115   6.330 -0.3107  2.2383  0.2302
 6861SOL     OW32215   4.181   0.669   4.167  0.2563  0.5460  0.1625
 6861SOL    HW132216   4.154   0.642   4.254 -0.4269 -0.7939 -0.4698
 6861SOL    HW232217   4.248   0.602   4.153  1.5008  1.8942 -0.3225
 6862SOL     OW32218   3.598   0.901   3.371  0.2555  0.4059  0.7249
 6862SOL    HW132219   3.607   0.955   3.293 -0.9021 -0.0695  0.2777
 6862SOL    HW232220   3.683   0.858   3.383  0.0907  0.2568  1.3626
 6863SOL     OW32221   0.673   2.072   5.364  0.0908 -0.0967 -0.0643
 6863SOL    HW132222   0.637   2.073   5.453 -0.1042 -0.6498 -0.1351
 6863SOL    HW232223   0.761   2.060   5.398  0.6297  0.7322 -1.1780
 6864SOL     OW32224   3.349   1.761   3.893 -0.0118  0.0345 -0.3026
 6864SOL    HW132225   3.422   1.747   3.833  0.4954 -3.0684  1.0200
 6864SOL    HW232226   3.286   1.814   3.844  0.6928  0.0867 -1.1419
 6865SOL     OW32227   0.148   0.044   8.616  0.4267 -0.7516  0.1430
 6865SOL    HW132228   0.195   0.034   8.699  0.2816  1.2801  0.4699
 6865SOL    HW232229   0.196   0.108   8.563 -0.9816 -0.6987 -1.0568
 6866SOL     OW32230   3.555   0.151   6.047 -0.0371  0.3455  0.2171
 6866SOL    HW132231   3.632   0.100   6.021 -0.3967  1.1637 -2.4407
 6866SOL    HW232232   3.576   0.242   6.025  1.4632  0.1214  0.7476
 6867SOL     OW32233   1.311   3.436   0.964 -0.3893  0.3064 -0.4713
 6867SOL    HW132234   1.343   3.346   0.972  2.1181  1.4763  2.8240
 6867SOL    HW232235   1.385   3.492   0.988  0.6696 -1.1087 -0.4359
 6868SOL     OW32236   2.726   3.141   7.246  0.4771  0.1369  0.6487
 6868SOL    HW132237   2.794   3.156   7.181  1.4717 -0.9909  1.4202
 6868SOL    HW232238   2.769   3.166   7.328  4.0102 -0.8998 -0.8634
 6869SOL     OW32239   1.716   4.530   1.993 -0.5088 -0.4002 -0.2689
 6869SOL    HW132240   1.625   4.541   1.966 -0.6775  2.3837  1.3640
 6869SOL    HW232241   1.753   4.476   1.924 -0.7674 -0.3709 -0.4312
 6870SOL     OW32242   4.441   1.183   3.269 -1.0985  0.5190 -0.3645
 6870SOL    HW132243   4.426   1.095   3.303  0.5468 -0.2270 -1.5829
 6870SOL    HW232244   4.528   1.170   3.233 -0.1717 -0.4770  2.3096
 6871SOL     OW32245   0.670   3.306   2.753 -0.6993 -0.1227 -0.1838
 6871SOL    HW132246   0.730   3.377   2.774 -1.6971  0.3543  1.0436
 6871SOL    HW232247   0.701   3.303   2.663 -1.3965 -2.0625 -0.3628
 6872SOL     OW32248   2.006   2.079   1.824 -0.2165 -0.1478  0.2703
 6872SOL    HW132249   1.919   2.040   1.820  0.2051 -1.0361 -0.0687
 6872SOL    HW232250   2.015   2.098   1.731 -0.5645 -1.0135  0.0624
 6873SOL     OW32251   4.361   1.474  12.305  0.0762 -0.2137 -0.1922
 6873SOL    HW132252   4.397   1.563  12.313 -1.2874  0.1257  2.3237
 6873SOL    HW232253   4.405   1.432  12.379  1.1831  1.3597  0.0485
 6874SOL     OW32254   2.263   2.640   2.989  0.6149 -0.4470 -0.2651
 6874SOL    HW132255   2.324   2.567   2.984 -0.3922 -1.2404 -0.9719
 6874SOL    HW232256   2.208   2.628   2.911  1.7429 -1.6159 -0.8844
 6875SOL     OW32257   3.257   4.452   3.133  0.1244 -0.6883  0.1845
 6875SOL    HW132258   3.343   4.479   3.164 -0.2569 -0.5968  1.1499
 6875SOL    HW232259   3.231   4.391   3.202  3.3971 -0.9090  1.1992
 6876SOL     OW32260   2.247   0.356   8.163  0.1643  0.0714 -0.9971
 6876SOL    HW132261   2.218   0.393   8.079  2.3292  0.7722 -1.4361
 6876SOL    HW232262   2.287   0.435   8.200  0.4892 -0.5087 -0.1367
 6877SOL     OW32263   4.618   2.384   2.594  0.0082  0.0084 -0.7174
 6877SOL    HW132264   4.614   2.304   2.542  0.1625  0.5831 -1.6081
 6877SOL    HW232265   4.640   2.350   2.681 -0.8726  1.0836 -0.0736
 6878SOL     OW32266   2.163   0.955   9.346  0.2054 -0.4431  1.0746
 6878SOL    HW132267   2.198   0.914   9.267 -0.3845 -0.3541  0.7658
 6878SOL    HW232268   2.085   1.003   9.320 -0.6573 -1.6013  1.5641
 6879SOL     OW32269   3.276   2.112  10.037  0.2110  0.2604 -0.2270
 6879SOL    HW132270   3.188   2.117  10.000 -1.1831  0.8753  3.2318
 6879SOL    HW232271   3.252   2.102  10.129 -1.4787  0.7316 -0.6260
 6880SOL     OW32272   3.887   2.836   4.030 -0.0196 -0.6961  0.5081
 6880SOL    HW132273   3.847   2.823   4.116 -2.0785  0.8509 -0.2264
 6880SOL    HW232274   3.973   2.798   4.052  1.1223  1.0101 -1.0587
 6881SOL     OW32275   0.299   4.323   8.729 -0.7300 -0.0341 -0.2216
 6881SOL    HW132276   0.376   4.269   8.709  0.6650  1.3596  1.4364
 6881SOL    HW232277   0.243   4.299   8.656  0.4446  1.5039 -1.6223
 6882SOL     OW32278   3.185   1.001   8.352  0.0890 -0.5262  0.3539
 6882SOL    HW132279   3.217   1.083   8.315  2.3295 -1.2190  0.7520
 6882SOL    HW232280   3.090   1.012   8.354  0.3329  0.9162  3.0916
 6883SOL     OW32281   3.783   1.655   4.118  0.1169  0.1484 -0.3335
 6883SOL    HW132282   3.867   1.610   4.120 -0.9066 -1.7370 -0.5985
 6883SOL    HW232283   3.723   1.583   4.103  0.7913 -0.8029  1.5558
 6884SOL     OW32284   4.460   0.365   3.749  0.1618  0.0981 -0.1182
 6884SOL    HW132285   4.489   0.278   3.775 -0.2136  0.4079  1.3297
 6884SOL    HW232286   4.543   0.408   3.727 -0.0077 -0.1750 -1.2625
 6885SOL     OW32287   0.555   4.200   5.581 -0.1328  0.0107 -0.1511
 6885SOL    HW132288   0.523   4.290   5.578 -1.5111 -0.4387  0.7189
 6885SOL    HW232289   0.614   4.206   5.656  1.4144  1.2373 -1.4798
 6886SOL     OW32290   2.304   3.506   3.388 -0.1674  0.0108 -0.4447
 6886SOL    HW132291   2.235   3.463   3.437  1.8523 -1.1158  1.4104
 6886SOL    HW232292   2.277   3.597   3.387  0.4535  0.1959 -1.3551
 6887SOL     OW32293   0.626   0.047  14.350 -0.9255 -0.2283  0.2113
 6887SOL    HW132294   0.607   0.136  14.379 -0.5773 -0.5839  1.5612
 6887SOL    HW232295   0.541   0.010  14.327 -1.6933  1.5476  0.1925
 6888SOL     OW32296   1.874   2.796   7.580 -0.3824  0.1170 -0.0919
 6888SOL    HW132297   1.910   2.795   7.669  0.9801 -0.3629 -0.6530
 6888SOL    HW232298   1.800   2.735   7.589  1.0163 -1.0207  3.8921
 6889SOL     OW32299   2.554   4.602  10.089  0.1121  0.0728  0.0387
 6889SOL    HW132300   2.630   4.655  10.066 -1.0226  1.7948  0.3178
 6889SOL    HW232301   2.498   4.635  10.019  0.8268 -0.1285 -0.6302
 6890SOL     OW32302   4.013   2.058  15.719 -0.4548 -0.3417 -0.0031
 6890SOL    HW132303   4.027   1.986  15.659 -1.3902 -1.3493  0.9914
 6890SOL    HW232304   3.926   2.091  15.694 -2.2415 -2.3427  3.5674
 6891SOL     OW32305   3.614   4.153   4.595  0.2135  0.1122 -0.1400
 6891SOL    HW132306   3.621   4.085   4.528 -0.4855  0.4894 -0.6023
 6891SOL    HW232307   3.688   4.135   4.653 -0.3332 -0.1177  0.4887
 6892SOL     OW32308   0.407   3.478   2.715  0.1218 -0.2200 -0.2503
 6892SOL    HW132309   0.483   3.420   2.722  1.3030  1.0175 -2.6876
 6892SOL    HW232310   0.441   3.562   2.684  1.8866 -1.0577 -0.5766
 6893SOL     OW32311   1.725   0.408   0.399 -0.0543 -0.0042  0.0922
 6893SOL    HW132312   1.739   0.500   0.376 -1.9069  0.4428  0.7085
 6893SOL    HW232313   1.763   0.409   0.486 -2.5443 -0.6188  1.1860
 6894SOL     OW32314   0.243   2.223   8.052 -0.6394  0.3527  0.0184
 6894SOL    HW132315   0.164   2.277   8.058  0.4012  1.7073  1.7964
 6894SOL    HW232316   0.262   2.220   7.959  2.4764  1.7607  0.5911
 6895SOL     OW32317   3.530   2.652   6.692 -0.1687 -0.1594 -0.4092
 6895SOL    HW132318   3.605   2.594   6.685 -0.0062  0.1235 -0.9970
 6895SOL    HW232319   3.526   2.692   6.605 -0.9783  0.8013  0.0698
 6896SOL     OW32320   2.525   1.230  11.255 -0.1341  0.1542  0.1314
 6896SOL    HW132321   2.510   1.282  11.176  1.7825  1.4433  0.6210
 6896SOL    HW232322   2.612   1.193  11.238 -0.4836 -1.3076  1.4845
 6897SOL     OW32323   0.129   1.635   6.810 -0.4735 -0.6828  0.4153
 6897SOL    HW132324   0.061   1.695   6.781 -0.0580  1.0979  3.1457
 6897SOL    HW232325   0.148   1.674   6.896 -0.8384  0.3285  0.0283
 6898SOL     OW32326   3.204   0.190  15.259  0.0767 -0.3372 -0.0116
 6898SOL    HW132327   3.215   0.282  15.237 -0.2673  0.0386  1.3453
 6898SOL    HW232328   3.159   0.204  15.343  0.1279  1.4438 -0.2994
 6899SOL     OW32329   1.760   4.544   3.281  0.6510 -0.0669  0.4650
 6899SOL    HW132330   1.717   4.482   3.340  0.8653  1.9088  2.6698
 6899SOL    HW232331   1.769   4.494   3.200 -2.9443 -2.6947  1.6891
 6900SOL     OW32332   1.334   1.873   7.580 -0.2994 -0.0786  0.3092
 6900SOL    HW132333   1.269   1.834   7.639 -0.2486 -0.1043  0.3479
 6900SOL    HW232334   1.352   1.955   7.625  0.7774 -0.2337  0.1467
 6901SOL     OW32335   0.279   1.641   0.623  0.0881  0.1391  0.6173
 6901SOL    HW132336   0.231   1.709   0.574 -0.4502 -0.7035 -0.0142
 6901SOL    HW232337   0.352   1.696   0.652  1.7591 -0.4495 -2.5043
 6902SOL     OW32338   2.929   2.693   1.759  0.0462  0.6461 -0.3573
 6902SOL    HW132339   2.908   2.785   1.745 -2.3346  0.0069 -1.0455
 6902SOL    HW232340   2.846   2.645   1.762  0.2130  0.4984  1.6456
 6903SOL     OW32341   1.604   2.271   9.380 -0.4005  0.3886  0.7165
 6903SOL    HW132342   1.542   2.321   9.432 -1.0673  1.6744 -1.3140
 6903SOL    HW232343   1.537   2.211   9.346  2.2542 -1.0039 -2.1157
 6904SOL     OW32344   3.788   2.695   7.466 -0.1623 -0.0055 -0.4105
 6904SOL    HW132345   3.800   2.605   7.437 -0.1103  0.2642 -1.2428
 6904SOL    HW232346   3.860   2.712   7.527 -0.8270 -1.1725  0.6781
 6905SOL     OW32347   3.624   0.702   5.627  0.0777 -0.8230  0.2398
 6905SOL    HW132348   3.610   0.706   5.721 -1.3533 -0.6645  0.0174
 6905SOL    HW232349   3.595   0.612   5.612  3.2568 -1.4413 -2.1767
 6906SOL     OW32350   3.847   3.454   3.304  0.0935  0.1970 -0.1994
 6906SOL    HW132351   3.807   3.449   3.391  0.3918  0.8860 -0.0213
 6906SOL    HW232352   3.781   3.487   3.243  1.9157 -0.5956 -2.5862
 6907SOL     OW32353   4.693   0.684  15.871 -0.5164 -0.2198  0.0577
 6907SOL    HW132354   4.688   0.691  15.966  1.0431  3.2749 -0.1229
 6907SOL    HW232355   4.605   0.707  15.840 -0.8993 -0.7673  0.7338
 6908SOL     OW32356   2.579   2.846   9.515 -0.0781 -0.2684  0.0012
 6908SOL    HW132357   2.506   2.796   9.478 -1.8505  3.7792 -1.9774
 6908SOL    HW232358   2.595   2.915   9.450  0.6907  0.3284  0.8229
 6909SOL     OW32359   0.353   4.207   5.808  0.1999 -0.5804  0.0853
 6909SOL    HW132360   0.446   4.229   5.811  0.3185 -1.2911  2.3363
 6909SOL    HW232361   0.324   4.273   5.871  3.2761 -0.7119  1.6383
 6910SOL     OW32362   1.030   2.165   5.266 -0.0446 -0.4433  0.0823
 6910SOL    HW132363   1.065   2.205   5.345 -0.2051  0.1805 -0.1654
 6910SOL    HW232364   0.985   2.094   5.312  2.6370 -1.5470  0.9992
 6911SOL     OW32365   0.255   0.421   3.543 -0.1579 -0.4221  0.1110
 6911SOL    HW132366   0.340   0.412   3.502 -0.2898  0.5849 -0.3790
 6911SOL    HW232367   0.188   0.420   3.474  1.2490  2.4283 -1.2785
 6912SOL     OW32368   0.914   0.453   4.012 -0.1333 -0.8902 -0.3260
 6912SOL    HW132369   0.883   0.380   3.957 -2.4172  0.3597 -0.6822
 6912SOL    HW232370   0.883   0.424   4.097  1.6431  0.4339  0.7575
 6913SOL     OW32371   4.560   0.691   7.408  0.2958 -0.5952 -0.1299
 6913SOL    HW132372   4.616   0.725   7.477  0.6777 -1.0373 -0.2247
 6913SOL    HW232373   4.513   0.769   7.378  0.3617  0.7076  3.2117
 6914SOL     OW32374   2.745   0.607   5.822  0.5055 -0.1168  0.2324
 6914SOL    HW132375   2.764   0.615   5.728 -0.9410 -0.1775 -0.0750
 6914SOL    HW232376   2.808   0.671   5.855 -1.5598  0.7454  2.4878
 6915SOL     OW32377   0.006   3.370   2.199 -0.3333  0.2437 -0.5616
 6915SOL    HW132378   4.729   3.382   2.294  0.6878 -2.1752 -0.1716
 6915SOL    HW232379   0.048   3.453   2.176 -0.3036  0.8343  1.5780
 6916SOL     OW32380   0.102   3.076   4.065  0.1189 -0.1894  0.4096
 6916SOL    HW132381   0.150   2.993   4.063  1.0201  0.3648 -1.1888
 6916SOL    HW232382   0.169   3.133   4.101  1.1454 -1.5592  0.6749
 6917SOL     OW32383   4.076   2.173  12.730 -0.2551  0.2052 -0.2368
 6917SOL    HW132384   4.083   2.216  12.644  1.4692  0.4892  0.0474
 6917SOL    HW232385   4.072   2.252  12.783 -0.9031 -1.1213  1.6595
 6918SOL     OW32386   1.272   1.540   6.630 -0.0605  0.1074 -0.0221
 6918SOL    HW132387   1.351   1.492   6.606  0.7639  0.5593  1.7316
 6918SOL    HW232388   1.309   1.615   6.676 -0.3640  0.7999 -0.9196
 6919SOL     OW32389   2.943   3.320   5.042  0.0054 -0.5926 -0.1520
 6919SOL    HW132390   2.894   3.388   5.087  0.6137 -0.3501  0.1434
 6919SOL    HW232391   3.019   3.375   5.021 -0.5083 -0.3797 -1.4341
 6920SOL     OW32392   1.090   2.708   3.858  0.4510  0.4395 -0.0471
 6920SOL    HW132393   1.099   2.615   3.840  0.6710  0.3790  0.3610
 6920SOL    HW232394   0.995   2.716   3.847  0.3806 -0.2982  0.0314
 6921SOL     OW32395   3.152   0.913   2.256  0.5101 -0.6759  0.4571
 6921SOL    HW132396   3.164   0.831   2.304 -0.0689  0.2715  2.2044
 6921SOL    HW232397   3.171   0.974   2.328  1.4282  0.6388 -0.8898
 6922SOL     OW32398   0.384   2.724   0.436 -0.4344 -0.2504 -0.4445
 6922SOL    HW132399   0.394   2.674   0.517 -2.3073  0.5111  0.2731
 6922SOL    HW232400   0.449   2.792   0.455 -2.6427  1.9299 -0.5946
 6923SOL     OW32401   3.521   4.328   4.840 -0.6671 -0.3102 -0.2148
 6923SOL    HW132402   3.464   4.251   4.837 -3.3554  1.6518  1.3773
 6923SOL    HW232403   3.602   4.280   4.856 -1.1058 -0.8140  0.4916
 6924SOL     OW32404   0.388   0.788   8.768  0.3548  0.0023 -0.3024
 6924SOL    HW132405   0.298   0.809   8.795  0.7332  0.7727  0.3327
 6924SOL    HW232406   0.406   0.716   8.828  0.5852 -1.7610 -2.4876
 6925SOL     OW32407   1.285   1.716   2.908  0.0904 -0.3208  0.1898
 6925SOL    HW132408   1.231   1.643   2.939  1.2980 -1.5686 -0.6267
 6925SOL    HW232409   1.303   1.766   2.988 -1.8795  1.8867 -0.7410
 6926SOL     OW32410   0.114   4.396  13.805 -0.2719 -0.5334  0.0949
 6926SOL    HW132411   0.075   4.377  13.890  2.0587 -0.7498  1.1245
 6926SOL    HW232412   0.049   4.351  13.752  1.1502 -0.9411 -1.3129
 6927SOL     OW32413   4.517   4.486   7.121 -0.1078 -0.7738 -0.1534
 6927SOL    HW132414   4.562   4.529   7.049 -0.6930  0.3813  0.1707
 6927SOL    HW232415   4.427   4.520   7.118  0.1951  0.0852  0.5764
 6928SOL     OW32416   1.796   1.455   4.021 -0.3774 -0.6021  0.0910
 6928SOL    HW132417   1.815   1.404   4.099  0.3176  0.1236  0.4014
 6928SOL    HW232418   1.702   1.457   4.006 -0.3314  2.2038  0.0685
 6929SOL     OW32419   4.702   0.516   3.683 -0.0719 -0.9058 -0.1319
 6929SOL    HW132420   4.652   0.575   3.626 -0.7786 -0.6957  0.7001
 6929SOL    HW232421   0.038   0.570   3.722 -1.4221 -0.4801  1.7157
 6930SOL     OW32422   1.959   3.098   4.808  0.0648  0.1189 -0.1435
 6930SOL    HW132423   1.932   3.110   4.717  1.5721 -0.0175 -0.6093
 6930SOL    HW232424   1.877   3.065   4.845  0.7539  0.6040  1.8199
 6931SOL     OW32425   1.697   2.173  16.288  0.1913 -0.0518  0.6766
 6931SOL    HW132426   1.664   2.084  16.282 -0.8713  0.4492 -0.9254
 6931SOL    HW232427   1.740   2.168  16.203 -1.2872 -1.8025  0.0276
 6932SOL     OW32428   3.645   3.508   6.840  0.4151  0.3006 -0.7504
 6932SOL    HW132429   3.646   3.475   6.930 -1.1844 -1.7012 -1.4803
 6932SOL    HW232430   3.560   3.550   6.826  0.9982  1.1492 -1.7497
 6933SOL     OW32431   4.113   3.853  12.808  0.4988 -0.5080  0.1155
 6933SOL    HW132432   4.022   3.845  12.834  0.4506 -0.8689 -0.1655
 6933SOL    HW232433   4.130   3.947  12.803 -2.6920  0.0813  0.9252
 6934SOL     OW32434   3.936   2.864  17.216  0.7135  0.1621 -0.2164
 6934SOL    HW132435   3.937   2.927  17.144  0.7384 -0.1166 -0.4585
 6934SOL    HW232436   4.026   2.865  17.249  0.6049 -2.3964  0.1630
 6935SOL     OW32437   4.160   1.378   9.193 -0.6002 -0.3813 -0.1470
 6935SOL    HW132438   4.210   1.454   9.224  0.6901 -1.0201 -0.6443
 6935SOL    HW232439   4.157   1.393   9.099 -1.6404  2.7423  0.3972
 6936SOL     OW32440   3.769   3.680  17.409 -0.4727 -0.0351  0.9162
 6936SOL    HW132441   3.849   3.628  17.417 -0.4766 -0.0626  0.7730
 6936SOL    HW232442   3.760   3.726  17.493 -1.7008  2.1914 -0.4308
 6937SOL     OW32443   4.572   0.215   3.353  0.1343 -0.2826  0.4983
 6937SOL    HW132444   4.561   0.137   3.407  0.0991  0.4176  1.4944
 6937SOL    HW232445   4.498   0.263   3.391  1.5701  1.1330  1.4723
 6938SOL     OW32446   3.685   2.711   6.912 -0.3681  0.5554 -0.6574
 6938SOL    HW132447   3.641   2.741   6.832 -1.4239  2.4938  0.6609
 6938SOL    HW232448   3.779   2.723   6.899 -0.0583  1.5123  2.5917
 6939SOL     OW32449   2.218   2.953  13.069  0.0435  0.5185  0.0481
 6939SOL    HW132450   2.164   2.969  13.146 -0.3124  1.5994 -0.4269
 6939SOL    HW232451   2.165   3.004  13.007  2.3491  0.0317 -2.3546
 6940SOL     OW32452   4.445   4.032   8.041  0.2568 -0.4468  0.7813
 6940SOL    HW132453   4.457   4.093   7.969 -0.7454  0.5826  1.4769
 6940SOL    HW232454   4.369   3.983   8.011 -0.2772  0.8244  0.0688
 6941SOL     OW32455   1.830   2.576  15.109 -0.6256 -0.7018  0.0207
 6941SOL    HW132456   1.921   2.598  15.128 -1.2007 -0.4241  2.4521
 6941SOL    HW232457   1.844   2.482  15.095 -1.4669 -0.9450  0.7863
 6942SOL     OW32458   2.177   3.954   7.816  0.1284 -0.2690 -0.3985
 6942SOL    HW132459   2.263   3.930   7.850  0.0285  1.2203  0.9388
 6942SOL    HW232460   2.140   3.867   7.802  0.0626 -0.3323  0.1878
 6943SOL     OW32461   0.583   3.949   2.776  0.0943 -0.2653 -0.0874
 6943SOL    HW132462   0.586   3.912   2.864  0.5863 -0.4154 -0.1667
 6943SOL    HW232463   0.673   3.978   2.761  0.6724 -0.9899  2.0453
 6944SOL     OW32464   2.335   1.877  16.493  0.2159 -0.2815  0.3992
 6944SOL    HW132465   2.316   1.802  16.437 -1.4735 -0.2651  0.9545
 6944SOL    HW232466   2.243   1.899  16.509 -0.5986 -3.4766 -0.0018
 6945SOL     OW32467   1.992   3.296   2.193  0.3530  0.2340 -0.3173
 6945SOL    HW132468   1.974   3.203   2.206  0.7687  0.2847  0.5946
 6945SOL    HW232469   1.994   3.327   2.284  0.6370  3.5174 -1.4541
 6946SOL     OW32470   3.047   0.480   4.790  0.0592  0.6837 -0.2174
 6946SOL    HW132471   2.959   0.480   4.829  0.6183 -2.0265  1.0231
 6946SOL    HW232472   3.049   0.562   4.740  1.5250  0.1643 -1.0209
 6947SOL     OW32473   3.030   3.122   6.140 -0.0551 -0.2988  0.0585
 6947SOL    HW132474   2.966   3.158   6.079 -0.0842  2.0023  1.4555
 6947SOL    HW232475   2.976   3.052   6.177  2.4743 -3.4778 -2.2429
 6948SOL     OW32476   2.079   2.620  11.116  0.4915  0.3476  0.2165
 6948SOL    HW132477   2.158   2.638  11.167  1.5971 -1.0874 -0.9693
 6948SOL    HW232478   2.092   2.525  11.110  1.1531  0.3195  2.1224
 6949SOL     OW32479   4.296   0.248  16.509  0.2297  0.0662  0.3896
 6949SOL    HW132480   4.225   0.280  16.565  0.5167  1.0321  0.2085
 6949SOL    HW232481   4.338   0.192  16.574 -1.7022 -2.7700 -0.8153
 6950SOL     OW32482   1.452   3.815   8.608  0.1331 -0.1863 -0.1790
 6950SOL    HW132483   1.500   3.886   8.565 -0.2671  0.1685 -0.0387
 6950SOL    HW232484   1.441   3.763   8.528  1.5723 -0.2145 -0.3544
 6951SOL     OW32485   2.641   1.208  16.542  0.1548  0.0705 -0.3559
 6951SOL    HW132486   2.565   1.266  16.538  0.8494  0.9415 -1.0072
 6951SOL    HW232487   2.614   1.130  16.590  1.3452 -0.6481 -0.8462
 6952SOL     OW32488   3.036   3.552  11.907 -0.7071 -0.2096  0.3772
 6952SOL    HW132489   2.957   3.568  11.856  1.5817  0.5676 -2.8848
 6952SOL    HW232490   3.013   3.579  11.996  1.2144 -1.5488  1.2847
 6953SOL     OW32491   1.966   2.880  14.446  0.2238 -0.1657 -0.1559
 6953SOL    HW132492   2.001   2.793  14.423 -0.3240 -0.5129  0.3195
 6953SOL    HW232493   1.912   2.910  14.373  0.6080 -0.5858 -0.6166
 6954SOL     OW32494   2.927   0.848  15.267 -0.3707  0.3774 -0.9056
 6954SOL    HW132495   2.909   0.890  15.351  1.3597 -4.0781  1.6749
 6954SOL    HW232496   2.917   0.754  15.281 -2.2099  0.9510  1.4194
 6955SOL     OW32497   4.634   0.465   8.986 -0.1700 -0.0175  0.2700
 6955SOL    HW132498   4.565   0.431   8.928  0.2338  0.0038 -0.2214
 6955SOL    HW232499   4.642   0.556   8.957 -2.5058 -0.1893 -0.9322
 6956SOL     OW32500   0.234   1.439  16.015 -0.1564 -0.4162  0.0086
 6956SOL    HW132501   0.213   1.450  15.922 -1.3126 -0.9197  0.2002
 6956SOL    HW232502   0.159   1.392  16.053  0.0531  0.8954  1.9938
 6957SOL     OW32503   2.998   4.118   2.609  0.1832  0.1358  0.1668
 6957SOL    HW132504   3.030   4.206   2.630 -1.1021  0.1898  1.9639
 6957SOL    HW232505   2.924   4.113   2.671  0.6818  0.2316  0.7753
 6958SOL     OW32506   1.835   4.587  17.611  0.6032  0.5150 -0.3297
 6958SOL    HW132507   1.778   4.584  17.534  0.2952 -0.0377 -0.0778
 6958SOL    HW232508   1.896   4.654  17.579  0.5881  0.6021 -0.1810
 6959SOL     OW32509   3.803   2.479   5.196 -0.3355  0.6232 -0.3897
 6959SOL    HW132510   3.776   2.390   5.172 -2.4833  1.0984  0.2785
 6959SOL    HW232511   3.840   2.466   5.283 -0.0376  1.0559 -0.4537
 6960SOL     OW32512   1.311   0.693   4.319 -0.0982 -0.3232 -0.0677
 6960SOL    HW132513   1.240   0.635   4.346 -0.4377 -0.1416 -0.5831
 6960SOL    HW232514   1.265   0.769   4.283 -1.7298 -0.1944  2.3314
 6961SOL     OW32515   2.880   0.048   3.255  0.2197  0.0424  0.6332
 6961SOL    HW132516   2.910   4.692   3.235 -0.4048 -0.0332  0.0198
 6961SOL    HW232517   2.955   0.106   3.265 -1.6497  2.6001 -0.2421
 6962SOL     OW32518   0.808   0.553   6.226  0.5800  0.6501 -0.0809
 6962SOL    HW132519   0.728   0.569   6.276  0.4136  0.5589 -0.3170
 6962SOL    HW232520   0.876   0.538   6.292  0.7638  2.5408  0.1424
 6963SOL     OW32521   4.037   1.612   0.448  0.0451  0.0321  0.5324
 6963SOL    HW132522   3.976   1.675   0.408  0.9548 -0.3499 -1.4628
 6963SOL    HW232523   4.117   1.664   0.456 -0.2928  0.5487  0.5629
 6964SOL     OW32524   4.619   0.326  15.929 -0.1252  0.5907  0.4931
 6964SOL    HW132525   4.666   0.349  16.009 -0.8519  0.9766  0.8115
 6964SOL    HW232526   4.540   0.374  15.954 -0.3968  0.2821  0.2140
 6965SOL     OW32527   3.813   0.144  11.546 -0.1848  0.1902 -0.3402
 6965SOL    HW132528   3.763   0.175  11.621  2.3530  0.0858  1.4078
 6965SOL    HW232529   3.901   0.179  11.561 -0.1713 -0.7164  1.7046
 6966SOL     OW32530   3.186   0.899   3.212 -0.0217 -0.2165 -0.1215
 6966SOL    HW132531   3.248   0.850   3.265 -0.8186 -0.9760  0.1149
 6966SOL    HW232532   3.108   0.844   3.227 -1.1347  1.7480  1.2109
 6967SOL     OW32533   1.387   2.939   2.053  0.6919 -0.1589 -0.4708
 6967SOL    HW132534   1.423   2.855   2.078  0.9232  0.0391 -0.1398
 6967SOL    HW232535   1.370   2.981   2.138  0.5539  2.9024 -1.9794
 6968SOL     OW32536   1.148   2.460   3.763  0.1546  0.3766  0.1117
 6968SOL    HW132537   1.181   2.528   3.705  0.2441  1.1029  1.0117
 6968SOL    HW232538   1.095   2.411   3.700  1.8039 -2.0920  0.6216
 6969SOL     OW32539   0.138   2.053   9.649 -0.6783  0.2425  0.0943
 6969SOL    HW132540   0.127   2.148   9.644  1.3108  0.4517  0.0025
 6969SOL    HW232541   0.065   2.025   9.704 -1.6323  0.6086 -0.9877
 6970SOL     OW32542   1.429   1.477  12.136 -0.2390  0.2752  0.1901
 6970SOL    HW132543   1.497   1.543  12.153  1.3375 -0.9852 -1.2581
 6970SOL    HW232544   1.462   1.399  12.180  1.4640 -0.0669 -1.6740
 6971SOL     OW32545   1.187   3.752  15.943 -0.2315 -0.0969  0.1231
 6971SOL    HW132546   1.215   3.781  15.857  0.8746 -0.3515  0.3964
 6971SOL    HW232547   1.110   3.808  15.953 -1.9000 -1.9204 -2.6004
 6972SOL     OW32548   4.395   3.964  14.561 -0.0119  0.6179  0.3977
 6972SOL    HW132549   4.391   4.053  14.597 -0.7791  1.2745 -1.2802
 6972SOL    HW232550   4.486   3.958  14.534 -0.4480  1.0270 -1.1311
 6973SOL     OW32551   2.230   1.617  16.795  0.3414 -0.2782 -0.1730
 6973SOL    HW132552   2.186   1.686  16.746 -0.0640 -0.4947 -0.1152
 6973SOL    HW232553   2.158   1.554  16.798  0.1757 -0.0391  0.9505
 6974SOL     OW32554   3.260   0.512   9.355  0.0192  0.7102  0.0022
 6974SOL    HW132555   3.303   0.549   9.431 -0.8165  2.6538 -0.4739
 6974SOL    HW232556   3.172   0.549   9.351  0.3355  1.4706  0.2473
 6975SOL     OW32557   1.657   2.628   6.623 -0.6221  0.0104  0.4455
 6975SOL    HW132558   1.676   2.657   6.712  1.1916 -0.2423  0.1330
 6975SOL    HW232559   1.718   2.687   6.578  0.0517 -0.3196  0.9280
 6976SOL     OW32560   1.589   3.545  13.053 -0.3950 -0.1341 -0.3874
 6976SOL    HW132561   1.506   3.512  13.088 -0.2115  2.4988  2.5564
 6976SOL    HW232562   1.642   3.466  13.039  0.8337  1.0119 -2.1885
 6977SOL     OW32563   4.672   2.279   3.191 -0.1361  0.1620 -0.0891
 6977SOL    HW132564   4.659   2.374   3.187  3.6831  0.8155  2.5736
 6977SOL    HW232565   4.594   2.248   3.238 -0.1925  0.3570 -0.0552
 6978SOL     OW32566   1.192   4.701   1.213 -0.3904  0.5811 -0.5745
 6978SOL    HW132567   1.143   4.705   1.130 -1.4234  3.3250  0.1664
 6978SOL    HW232568   1.129   0.013   1.269  2.4469  0.4428  2.7075
 6979SOL     OW32569   0.433   0.141  11.005 -0.7180 -0.3852 -0.3719
 6979SOL    HW132570   0.488   0.208  10.963  0.9021 -1.1001  0.5843
 6979SOL    HW232571   0.500   0.073  11.014  0.4482  1.0549  1.9774
 6980SOL     OW32572   1.954   2.694   2.084 -0.6285 -0.9567  0.1690
 6980SOL    HW132573   2.014   2.663   2.016  0.9860 -0.3847  1.3307
 6980SOL    HW232574   2.005   2.690   2.165 -0.0768  0.1350 -0.1185
 6981SOL     OW32575   1.132   4.409   1.222 -0.3189 -0.2928 -0.1716
 6981SOL    HW132576   1.087   4.489   1.250  2.3961 -0.1649  3.7303
 6981SOL    HW232577   1.112   4.349   1.294  1.6387 -2.8964 -1.7956
 6982SOL     OW32578   0.877   3.967   5.342  0.2615 -0.1632 -0.3846
 6982SOL    HW132579   0.835   3.957   5.428 -0.6503 -2.1786 -1.0498
 6982SOL    HW232580   0.960   3.926   5.365  1.4770  3.1339  1.0227
 6983SOL     OW32581   0.462   3.985   7.079 -0.5700  0.3842  0.8069
 6983SOL    HW132582   0.463   3.981   7.174 -1.1725 -1.1852  0.7460
 6983SOL    HW232583   0.385   4.040   7.060  0.8694  1.3538 -2.2237
 6984SOL     OW32584   4.369   1.202   6.274 -0.1054 -0.3380 -0.0298
 6984SOL    HW132585   4.451   1.203   6.323  2.1514 -0.7019 -3.8164
 6984SOL    HW232586   4.388   1.149   6.196  0.8846  0.9281 -0.6411
 6985SOL     OW32587   0.427   1.342   1.315  0.1668  0.2328 -0.2116
 6985SOL    HW132588   0.379   1.419   1.345  0.3798  0.7239 -1.1071
 6985SOL    HW232589   0.437   1.367   1.223  0.0384  0.2577 -0.2187
 6986SOL     OW32590   4.290   4.515   7.536  0.0589 -0.4683 -0.0007
 6986SOL    HW132591   4.232   4.454   7.581 -0.0468  0.4153  1.0839
 6986SOL    HW232592   4.373   4.476   7.563 -0.0793 -0.9435 -0.2774
 6987SOL     OW32593   2.043   2.445   1.292 -0.0307 -0.2903  0.2927
 6987SOL    HW132594   2.025   2.380   1.224 -0.5639  1.4659 -1.2099
 6987SOL    HW232595   1.987   2.515   1.259 -0.2630 -0.3272  0.6022
 6988SOL     OW32596   4.613   3.553   5.341 -0.0110  0.1654  0.2704
 6988SOL    HW132597   4.592   3.467   5.378  0.5442  0.0100  0.2153
 6988SOL    HW232598   4.627   3.524   5.251 -0.6110 -1.5046  0.7095
 6989SOL     OW32599   1.571   0.750   3.124  0.4385 -0.3995 -0.0353
 6989SOL    HW132600   1.642   0.738   3.062  0.3675 -0.9861  0.0026
 6989SOL    HW232601   1.617   0.799   3.192  0.7182 -0.2272 -0.3505
 6990SOL     OW32602   1.783   1.435  12.709 -0.3362  0.2788  0.4249
 6990SOL    HW132603   1.787   1.378  12.632  0.0842 -1.0668  1.4451
 6990SOL    HW232604   1.825   1.385  12.778  0.0505 -0.1798 -0.1477
 6991SOL     OW32605   1.588   4.527   3.816  0.0208 -0.2445 -0.0577
 6991SOL    HW132606   1.553   4.612   3.842  1.6218  1.2506 -2.8312
 6991SOL    HW232607   1.638   4.552   3.739 -1.0900  1.3180 -0.2609
 6992SOL     OW32608   0.652   3.440   7.671 -0.4646 -0.0867 -0.1095
 6992SOL    HW132609   0.735   3.486   7.658  2.1534 -4.1300  2.2272
 6992SOL    HW232610   0.666   3.409   7.761  0.6433 -0.0857 -0.2801
 6993SOL     OW32611   2.719   4.575  17.087  0.6645 -0.6769  0.6207
 6993SOL    HW132612   2.722   4.553  17.180  0.2930 -0.6927  0.6295
 6993SOL    HW232613   2.813   4.564  17.073 -0.0310 -1.9077 -2.9738
 6994SOL     OW32614   0.098   0.945  16.192  0.1418  0.3609 -0.4124
 6994SOL    HW132615   0.094   0.866  16.139  0.0065  0.3817 -0.4324
 6994SOL    HW232616   0.019   0.936  16.245 -0.6211 -0.8380 -1.7334
 6995SOL     OW32617   3.950   1.952  12.331 -0.2325  0.2148  0.5469
 6995SOL    HW132618   3.917   1.999  12.254  0.3710 -0.7533 -0.2995
 6995SOL    HW232619   4.022   1.903  12.291  0.5111  2.1296 -0.4418
 6996SOL     OW32620   1.557   4.728   4.339 -0.2425 -0.5274  0.0764
 6996SOL    HW132621   1.639   0.009   4.386 -0.1091 -1.8149  0.2175
 6996SOL    HW232622   1.553   0.069   4.277 -0.5423  2.0996  3.2152
 6997SOL     OW32623   0.331   3.992   8.471  0.1313 -0.2085 -0.0737
 6997SOL    HW132624   0.240   4.021   8.469  0.0527 -0.3602  1.2213
 6997SOL    HW232625   0.364   4.052   8.404  0.4466  0.1492  0.3976
 6998SOL     OW32626   4.725   2.344   6.134  0.4346 -0.2486  0.4162
 6998SOL    HW132627   0.015   2.263   6.089  3.1733  1.2561 -0.8752
 6998SOL    HW232628   4.689   2.393   6.060 -1.4305 -0.5722  1.1091
 6999SOL     OW32629   2.128   2.401   5.508  0.2849  0.7761 -0.1998
 6999SOL    HW132630   2.051   2.355   5.474  1.5022  0.5293 -2.6136
 6999SOL    HW232631   2.100   2.489   5.483 -1.7596  0.3367  0.4730
 7000SOL     OW32632   2.454   1.560   5.876 -0.2940 -0.4150 -0.1105
 7000SOL    HW132633   2.531   1.601   5.913 -0.6202  0.3275 -0.2602
 7000SOL    HW232634   2.483   1.470   5.894 -0.2290 -0.2852  0.4043
 7001SOL     OW32635   2.155   0.487   2.116 -0.4539 -0.0876  0.4247
 7001SOL    HW132636   2.148   0.445   2.030 -0.6939  0.5867  0.1147
 7001SOL    HW232637   2.200   0.568   2.090  0.7038 -0.6261  0.7706
 7002SOL     OW32638   3.141   4.557  11.963 -0.5934  0.0634 -0.4764
 7002SOL    HW132639   3.170   4.581  11.876 -0.3651  2.3281  0.2326
 7002SOL    HW232640   3.050   4.530  11.952 -0.3933 -0.5681 -0.5619
 7003SOL     OW32641   4.240   3.468   5.057 -0.5592  0.5374 -0.1135
 7003SOL    HW132642   4.297   3.544   5.055 -3.1543  2.4299 -1.2976
 7003SOL    HW232643   4.301   3.400   5.028  0.5356  0.5952  2.0534
 7004SOL     OW32644   1.017   1.203   5.277 -0.0124 -0.1892  1.0560
 7004SOL    HW132645   1.022   1.269   5.345  2.2546  0.4184  0.2916
 7004SOL    HW232646   1.106   1.166   5.282 -0.3142 -0.6921  2.6890
 7005SOL     OW32647   3.930   1.718  16.151 -0.1438 -0.2407 -0.5962
 7005SOL    HW132648   3.978   1.640  16.123 -0.0585 -0.4800  0.2147
 7005SOL    HW232649   3.935   1.769  16.070 -0.4945 -2.5099 -2.0611
 7006SOL     OW32650   0.297   3.299   8.236  0.0202  0.3134 -0.3856
 7006SOL    HW132651   0.259   3.212   8.243  0.0850  0.3596  0.4847
 7006SOL    HW232652   0.303   3.309   8.331 -1.0343 -1.6312 -0.1128
 7007SOL     OW32653   1.104   3.874   2.239  0.1636 -0.4349  0.5275
 7007SOL    HW132654   1.129   3.905   2.152  1.3856  1.6395  1.6258
 7007SOL    HW232655   1.045   3.805   2.209 -1.0009  0.2267  1.2966
 7008SOL     OW32656   1.149   1.250   8.313  0.1982  0.0169 -0.1567
 7008SOL    HW132657   1.116   1.184   8.374 -0.6742 -0.6621 -1.3705
 7008SOL    HW232658   1.243   1.233   8.319 -0.1223 -1.9025 -0.7889
 7009SOL     OW32659   0.395   2.717  12.413 -0.2266  0.6756 -0.0634
 7009SOL    HW132660   0.481   2.690  12.380 -0.7141 -0.6027 -0.3058
 7009SOL    HW232661   0.364   2.630  12.440 -2.2766  1.0892 -1.0791
 7010SOL     OW32662   0.279   3.452   3.951 -0.2658 -0.2681 -0.3029
 7010SOL    HW132663   0.273   3.393   4.026  1.1809  0.8350  0.6660
 7010SOL    HW232664   0.352   3.503   3.985 -0.0756 -2.6985  2.9378
 7011SOL     OW32665   2.107   3.028  11.889  0.1520 -0.3517  0.6121
 7011SOL    HW132666   2.186   3.082  11.899  1.1376 -1.7638  0.4735
 7011SOL    HW232667   2.123   2.968  11.962 -1.5806 -0.6038  0.7733
 7012SOL     OW32668   0.334   1.588   1.318  0.0827 -0.3718 -0.0899
 7012SOL    HW132669   0.386   1.614   1.242  0.4801  0.3498  0.4267
 7012SOL    HW232670   0.293   1.669   1.350  0.0824 -0.4745  0.1677
 7013SOL     OW32671   4.700   1.870   9.817 -0.0135 -0.1915  0.5225
 7013SOL    HW132672   4.623   1.862   9.761 -0.5426  2.6367  0.8191
 7013SOL    HW232673   4.661   1.834   9.896  0.1868  0.8443  1.1024
 7014SOL     OW32674   3.344   3.243  14.863 -0.1129 -0.4863  0.3077
 7014SOL    HW132675   3.286   3.256  14.788 -2.0027 -2.2358  1.4959
 7014SOL    HW232676   3.382   3.330  14.875  1.0096 -0.9318 -0.0315
 7015SOL     OW32677   4.210   2.118   0.706 -0.1418 -0.5027 -0.0645
 7015SOL    HW132678   4.296   2.076   0.714 -0.4345 -0.7844  1.6939
 7015SOL    HW232679   4.205   2.137   0.613  0.6719 -2.3525 -0.4948
 7016SOL     OW32680   3.995   2.301   2.396 -0.4770  0.1028 -0.3856
 7016SOL    HW132681   3.952   2.386   2.394  0.7989  0.8314  2.2363
 7016SOL    HW232682   4.007   2.288   2.490 -0.3229 -1.5624 -0.6394
 7017SOL     OW32683   2.457   1.256   7.147 -0.1111  0.9902  0.6441
 7017SOL    HW132684   2.545   1.227   7.125 -0.8209  0.4969 -1.6694
 7017SOL    HW232685   2.451   1.343   7.108 -0.4659 -0.4243 -2.4964
 7018SOL     OW32686   2.404   2.992  11.767  0.1148  0.6385  0.4053
 7018SOL    HW132687   2.390   3.070  11.821 -0.0857 -0.0429  1.3385
 7018SOL    HW232688   2.364   3.027  11.687 -1.2860 -0.8073  0.4830
 7019SOL     OW32689   4.581   2.300   2.113 -0.4488  0.0030  0.1590
 7019SOL    HW132690   4.618   2.319   2.026  0.7454 -1.3302  0.3767
 7019SOL    HW232691   4.601   2.207   2.117  0.8906  0.4703  3.9388
 7020SOL     OW32692   0.609   2.542  12.051  0.7505 -0.5029 -0.8030
 7020SOL    HW132693   0.593   2.605  12.122  0.9533 -0.7067 -0.5774
 7020SOL    HW232694   0.699   2.559  12.023  0.4790  0.0107 -1.3609
 7021SOL     OW32695   0.814   1.744   5.243 -0.6492 -0.2197 -0.5242
 7021SOL    HW132696   0.813   1.708   5.331 -1.1234 -3.3813 -1.8179
 7021SOL    HW232697   0.884   1.692   5.204 -0.5556 -0.0942 -0.5237
 7022SOL     OW32698   3.085   2.530   9.701 -0.7257 -0.3359  0.1922
 7022SOL    HW132699   3.122   2.602   9.752 -2.1339  0.6502 -0.1682
 7022SOL    HW232700   3.020   2.497   9.763  0.3842 -0.9402  1.0227
 7023SOL     OW32701   1.549   0.400   3.897  0.2649  0.4285  0.6076
 7023SOL    HW132702   1.625   0.381   3.842 -0.9547  1.0038 -1.2651
 7023SOL    HW232703   1.482   0.414   3.831 -0.2838 -0.2350  1.0272
 7024SOL     OW32704   0.375   4.342   4.393  0.0684 -0.3108  0.1698
 7024SOL    HW132705   0.304   4.388   4.349 -0.1911 -1.3031 -0.4501
 7024SOL    HW232706   0.416   4.296   4.320 -0.7877  0.4212 -0.7701
 7025SOL     OW32707   0.770   1.753   4.424 -0.4490  0.7435  0.2236
 7025SOL    HW132708   0.713   1.829   4.424 -3.0971 -1.2246  0.2558
 7025SOL    HW232709   0.761   1.730   4.516 -0.2536 -1.4585 -0.2947
 7026SOL     OW32710   3.857   2.561   2.396  0.0843  0.0563 -0.0898
 7026SOL    HW132711   3.762   2.570   2.401  0.0716 -0.3060  0.3149
 7026SOL    HW232712   3.865   2.623   2.323  2.3815  1.7573  1.6160
 7027SOL     OW32713   4.728   3.434   2.494  0.2303 -0.6315  0.0781
 7027SOL    HW132714   4.732   3.341   2.516 -1.0491 -0.8630 -0.6535
 7027SOL    HW232715   4.634   3.453   2.502  0.7521  1.3151  1.6343
 7028SOL     OW32716   0.417   1.381   3.327  0.0131  0.0548  0.7975
 7028SOL    HW132717   0.447   1.431   3.402 -2.1173  0.0818  1.6473
 7028SOL    HW232718   0.472   1.419   3.259 -1.2632 -0.8182 -0.7505
 7029SOL     OW32719   0.091   1.063   8.673 -0.3831 -0.4796 -0.1558
 7029SOL    HW132720   0.100   1.036   8.582 -2.1152  0.0477 -0.4904
 7029SOL    HW232721   0.183   1.063   8.697 -0.6458  0.1794  0.8904
 7030SOL     OW32722   1.328   3.526  15.765  0.2001 -0.0160  0.0270
 7030SOL    HW132723   1.289   3.602  15.809 -1.2447 -0.3661 -0.6313
 7030SOL    HW232724   1.349   3.468  15.838  1.6860  0.9874  0.3757
 7031SOL     OW32725   1.294   2.837   5.691 -0.3726 -0.1637 -0.2079
 7031SOL    HW132726   1.362   2.838   5.623  0.8521  0.1419  1.0219
 7031SOL    HW232727   1.231   2.901   5.658 -0.5769  1.1093  2.6184
 7032SOL     OW32728   4.226   3.249  15.644 -0.4556  0.0905 -0.5044
 7032SOL    HW132729   4.161   3.191  15.682 -0.2101 -0.1444 -0.4396
 7032SOL    HW232730   4.295   3.254  15.710  1.4937  2.1984 -2.6612
 7033SOL     OW32731   0.677   1.283   9.341 -0.9218  0.3396  0.5525
 7033SOL    HW132732   0.639   1.213   9.287  1.7814 -0.1125 -0.7966
 7033SOL    HW232733   0.769   1.269   9.319 -0.8034  0.4170  1.0041
 7034SOL     OW32734   4.208   0.492   6.482  0.1874  0.7317  0.0330
 7034SOL    HW132735   4.144   0.421   6.489  1.0344 -0.0710 -0.3910
 7034SOL    HW232736   4.287   0.443   6.460 -1.0394 -1.3101  0.1643
 7035SOL     OW32737   2.994   4.534   3.216  0.5602 -0.3651  0.3115
 7035SOL    HW132738   3.042   4.503   3.292  0.1336 -0.3845  0.5710
 7035SOL    HW232739   3.059   4.530   3.145  2.2255 -1.9564  1.9353
 7036SOL     OW32740   2.373   1.774  11.576  0.1564  0.6993  0.4691
 7036SOL    HW132741   2.338   1.860  11.601 -3.4297 -0.6759  0.2343
 7036SOL    HW232742   2.462   1.776  11.610 -0.2584 -0.6315  1.6337
 7037SOL     OW32743   0.928   0.814   4.631  0.0382 -0.2020 -0.3041
 7037SOL    HW132744   0.874   0.760   4.689 -0.1427  0.6962  0.3638
 7037SOL    HW232745   1.005   0.837   4.683  1.8108  1.9871 -3.9214
 7038SOL     OW32746   0.677   3.386   1.606  0.2920  0.6038 -0.3705
 7038SOL    HW132747   0.622   3.328   1.553  1.3477 -1.7644  1.1005
 7038SOL    HW232748   0.757   3.335   1.618 -0.2171 -0.2552 -0.6425
 7039SOL     OW32749   4.647   3.470   2.790 -0.6762  0.0706  0.3787
 7039SOL    HW132750   4.608   3.441   2.708 -1.5432  2.3632 -0.0361
 7039SOL    HW232751   0.003   3.433   2.797 -0.1894  1.4170  1.4381
 7040SOL     OW32752   1.895   2.657  13.814 -0.0589 -0.6495 -0.1990
 7040SOL    HW132753   1.973   2.693  13.771  0.5831 -1.8695 -0.0600
 7040SOL    HW232754   1.905   2.694  13.902 -0.1953 -0.1869 -0.3761
 7041SOL     OW32755   0.195   3.244   6.874  0.1364 -0.0215  0.7896
 7041SOL    HW132756   0.171   3.302   6.801 -0.7158  2.0060  2.6873
 7041SOL    HW232757   0.145   3.166   6.850  0.6997 -0.1837  0.1554
 7042SOL     OW32758   3.874   4.569  16.101  0.0426  0.4973 -0.3112
 7042SOL    HW132759   3.890   4.656  16.064 -0.6695  1.1075  0.8089
 7042SOL    HW232760   3.874   4.515  16.022  0.7875  1.0174 -0.6636
 7043SOL     OW32761   3.858   0.970   8.601  0.2266 -0.2622 -0.2254
 7043SOL    HW132762   3.781   1.002   8.648 -0.0632 -1.0159 -0.1859
 7043SOL    HW232763   3.860   0.876   8.619  1.5284  0.0303  1.2156
 7044SOL     OW32764   1.496   0.582  12.005 -0.1235  0.2226 -0.1723
 7044SOL    HW132765   1.546   0.501  11.995 -2.0286 -0.8028 -1.3681
 7044SOL    HW232766   1.426   0.565  11.942 -0.0317  2.9933 -1.0194
 7045SOL     OW32767   1.067   0.327   5.371  0.0717  0.0694  0.6377
 7045SOL    HW132768   1.109   0.409   5.345 -0.7350  0.0608 -0.6606
 7045SOL    HW232769   1.004   0.312   5.301  0.6893 -1.1567  0.3549
 7046SOL     OW32770   3.122   4.378   7.680  0.2985  0.0583 -0.0336
 7046SOL    HW132771   3.101   4.454   7.734  0.1749 -0.2523  0.3633
 7046SOL    HW232772   3.072   4.311   7.728 -0.6150  0.9708  0.2805
 7047SOL     OW32773   4.241   3.141   4.978  0.4380 -0.1669 -0.7076
 7047SOL    HW132774   4.158   3.174   5.013  1.3972  0.2952  1.1493
 7047SOL    HW232775   4.234   3.046   4.985  2.4884 -0.0346  3.2476
 7048SOL     OW32776   3.711   2.148   2.314 -0.3999 -0.6337 -0.2849
 7048SOL    HW132777   3.690   2.232   2.275  4.5638  1.4438  1.5279
 7048SOL    HW232778   3.724   2.169   2.406  0.9222 -1.5539 -0.2570
 7049SOL     OW32779   3.990   1.764  13.673 -0.1802 -0.1693  0.2898
 7049SOL    HW132780   4.078   1.777  13.637 -0.5646  1.0924 -0.1822
 7049SOL    HW232781   3.984   1.669  13.685  0.9333 -0.3752 -0.7532
 7050SOL     OW32782   3.719   2.540   0.972 -0.1793 -0.0335  0.3631
 7050SOL    HW132783   3.792   2.487   1.005 -0.4418 -0.8965 -0.4520
 7050SOL    HW232784   3.708   2.505   0.884  2.0437 -1.7168  0.7460
 7051SOL     OW32785   1.514   0.500  13.424 -0.5019 -0.4951  0.0729
 7051SOL    HW132786   1.543   0.536  13.508  1.3594 -2.3216  0.2084
 7051SOL    HW232787   1.466   0.573  13.385  0.0028 -1.4790 -2.4048
 7052SOL     OW32788   3.812   1.365  13.779 -0.1716  0.0043  0.1925
 7052SOL    HW132789   3.863   1.382  13.700 -1.2185  1.6548 -0.1194
 7052SOL    HW232790   3.825   1.453  13.814 -1.1652  0.0576  0.4129
 7053SOL     OW32791   4.030   1.475   1.631  0.3010 -0.0859 -0.0925
 7053SOL    HW132792   4.102   1.500   1.689 -0.6938  0.5996  0.8515
 7053SOL    HW232793   4.055   1.395   1.585  0.8100 -0.3495  0.6430
 7054SOL     OW32794   1.815   1.245  16.735  0.1230 -0.0663 -0.7124
 7054SOL    HW132795   1.810   1.157  16.773  0.1360  0.6996  1.0815
 7054SOL    HW232796   1.765   1.236  16.654  0.8639 -1.6214 -1.0031
 7055SOL     OW32797   2.952   1.430   5.530  0.1118  0.3029 -0.2862
 7055SOL    HW132798   2.987   1.391   5.610 -2.2513 -0.5103  0.3406
 7055SOL    HW232799   2.933   1.360   5.467  2.0231  1.0088 -1.6774
 7056SOL     OW32800   3.993   3.351   8.508 -0.0642  0.4703  0.0376
 7056SOL    HW132801   4.009   3.285   8.576 -1.6055 -1.3584 -1.3808
 7056SOL    HW232802   3.942   3.420   8.551 -2.3025 -1.7770  1.0020
 7057SOL     OW32803   1.746   2.576   2.796 -0.8046 -0.0138 -0.7445
 7057SOL    HW132804   1.788   2.589   2.881 -0.7608  1.3773 -0.9897
 7057SOL    HW232805   1.788   2.645   2.745  3.2388 -1.8240  0.1309
 7058SOL     OW32806   0.345   2.066   3.292  0.4612 -0.0410 -0.1638
 7058SOL    HW132807   0.385   2.034   3.373  1.4449 -2.1094 -1.4746
 7058SOL    HW232808   0.404   2.139   3.274  0.6257 -0.7142 -2.3200
 7059SOL     OW32809   0.026   1.934  16.321 -0.1424 -0.1387  0.2995
 7059SOL    HW132810   4.693   1.933  16.251 -0.6094  2.0924  0.6905
 7059SOL    HW232811   0.060   1.845  16.326 -0.9349 -0.4405  0.3789
 7060SOL     OW32812   4.542   4.652  12.305  0.5831 -0.8793 -0.3419
 7060SOL    HW132813   4.587   0.001  12.282 -1.6024  0.5917  0.6044
 7060SOL    HW232814   4.518   4.615  12.220 -2.0965 -0.5155  0.2700
 7061SOL     OW32815   3.809   4.519   6.041 -0.1280  0.4642 -0.1390
 7061SOL    HW132816   3.787   4.492   5.952  0.9537  1.9698 -0.8471
 7061SOL    HW232817   3.792   4.613   6.034  0.7288  0.5232 -1.2614
 7062SOL     OW32818   1.025   2.584  17.576  0.2598 -0.1950  0.1895
 7062SOL    HW132819   1.015   2.604  17.483 -3.2930 -1.4333  0.3213
 7062SOL    HW232820   1.120   2.573  17.573  0.3676  0.7917 -0.0438
 7063SOL     OW32821   1.511   0.586  12.278  1.1366 -0.2145 -0.2527
 7063SOL    HW132822   1.585   0.533  12.311  0.6884 -0.3131  0.6048
 7063SOL    HW232823   1.520   0.584  12.183 -0.3168 -0.1724 -0.3811
 7064SOL     OW32824   0.045   0.292   1.903 -0.3532  0.3930 -0.1699
 7064SOL    HW132825   4.695   0.340   1.895 -0.8889 -0.3389  0.9834
 7064SOL    HW232826   0.041   0.240   1.984 -2.3456 -0.2215 -0.6828
 7065SOL     OW32827   0.781   4.279   8.063  0.0582 -0.2606  0.2680
 7065SOL    HW132828   0.781   4.318   8.150  0.4693  1.5397 -0.5339
 7065SOL    HW232829   0.729   4.199   8.070  0.8214 -0.8061 -0.2171
 7066SOL     OW32830   1.029   2.147  14.658 -0.2057  0.5403 -0.6056
 7066SOL    HW132831   0.976   2.069  14.673  1.4695  0.0812  2.9337
 7066SOL    HW232832   1.021   2.148  14.563 -0.3057 -1.3475 -0.5984
 7067SOL     OW32833   3.826   2.238  13.533 -0.1716 -0.3870 -0.0799
 7067SOL    HW132834   3.795   2.324  13.562 -1.7861 -0.7246 -0.8104
 7067SOL    HW232835   3.878   2.210  13.609  0.4730  0.6047 -0.1592
 7068SOL     OW32836   3.036   0.802   5.620  0.0302  0.1837 -0.4188
 7068SOL    HW132837   3.006   0.716   5.651 -1.0939  1.2890  1.5572
 7068SOL    HW232838   2.989   0.852   5.686 -0.9723 -0.4701 -0.6450
 7069SOL     OW32839   0.454   2.449   4.330 -0.1069  0.2228  0.4340
 7069SOL    HW132840   0.485   2.497   4.253 -0.5546  0.6115  0.4934
 7069SOL    HW232841   0.479   2.515   4.395  3.2061  0.9602 -1.5715
 7070SOL     OW32842   1.708   2.246   1.126  0.0441 -0.1347 -0.3048
 7070SOL    HW132843   1.628   2.262   1.176 -0.4250 -1.6518 -0.5797
 7070SOL    HW232844   1.673   2.190   1.057 -0.8243 -0.5881  0.5081
 7071SOL     OW32845   3.460   4.100   9.308 -0.2277 -0.5161 -0.2329
 7071SOL    HW132846   3.478   4.186   9.270  1.1036 -0.8118 -0.2746
 7071SOL    HW232847   3.458   4.043   9.231 -0.7323 -0.6772 -0.0977
 7072SOL     OW32848   3.349   0.479   7.965  0.2927 -0.4803  0.6594
 7072SOL    HW132849   3.427   0.436   7.999 -0.0468 -1.2274  0.4776
 7072SOL    HW232850   3.287   0.448   8.031 -1.6789 -3.0749 -2.4127
 7073SOL     OW32851   3.477   3.415   7.872  0.0867  0.2705  0.0087
 7073SOL    HW132852   3.475   3.510   7.889  2.2009 -0.2523  3.1520
 7073SOL    HW232853   3.570   3.403   7.888  0.2004 -0.1834 -1.0099
 7074SOL     OW32854   1.055   2.372   2.767  1.0256 -0.4537 -0.7690
 7074SOL    HW132855   0.978   2.429   2.764  0.4968 -1.0457  1.6180
 7074SOL    HW232856   1.118   2.423   2.715  1.0225  0.6962  0.3714
 7075SOL     OW32857   2.907   0.567  11.061  0.3457 -0.2582  0.9423
 7075SOL    HW132858   2.930   0.557  11.154 -3.8178  2.4044  2.2378
 7075SOL    HW232859   2.926   0.476  11.035 -0.8178  0.0326 -0.8785
 7076SOL     OW32860   0.525   4.443   1.107  0.1172 -0.0807  0.4086
 7076SOL    HW132861   0.491   4.412   1.024 -3.0146  2.2046  0.8228
 7076SOL    HW232862   0.474   4.382   1.160  0.9264 -0.0876  1.1876
 7077SOL     OW32863   1.379   1.512   8.255  0.3909 -0.2657  0.0264
 7077SOL    HW132864   1.331   1.499   8.337  0.6802 -1.8870 -0.0570
 7077SOL    HW232865   1.422   1.428   8.268  1.4695 -0.1430 -2.7926
 7078SOL     OW32866   3.109   2.726   5.230  0.0387  0.4784 -0.2359
 7078SOL    HW132867   3.141   2.739   5.319  1.5971  0.7915 -0.8536
 7078SOL    HW232868   3.187   2.707   5.179  0.1265  0.7636 -0.2075
 7079SOL     OW32869   3.121   4.083   2.927  0.5222  0.1424  0.4535
 7079SOL    HW132870   3.182   4.012   2.908  0.2030  0.1338 -0.5486
 7079SOL    HW232871   3.145   4.156   2.869  0.6147  1.5323  2.2055
 7080SOL     OW32872   3.079   0.853   3.530  0.1097  0.2849 -0.5036
 7080SOL    HW132873   3.128   0.925   3.570 -1.6019  0.6013  1.0232
 7080SOL    HW232874   2.991   0.870   3.566 -0.0472  1.0211 -1.2280
 7081SOL     OW32875   4.248   2.378  10.242  0.6138 -0.7161  0.8011
 7081SOL    HW132876   4.284   2.438  10.307  0.6286 -1.6033  1.6136
 7081SOL    HW232877   4.220   2.446  10.181 -0.7052 -1.1359  0.9374
 7082SOL     OW32878   1.946   2.374  11.411 -0.2088  0.0755  0.4091
 7082SOL    HW132879   1.991   2.369  11.327 -3.0819 -0.3106 -1.0995
 7082SOL    HW232880   2.019   2.363  11.473 -0.5966  0.1853  0.8842
 7083SOL     OW32881   2.014   3.182   8.942  0.0931  0.1713  0.3937
 7083SOL    HW132882   2.041   3.189   8.851 -0.6683  1.2976  0.2495
 7083SOL    HW232883   2.037   3.092   8.962  1.5380 -0.1418 -2.6625
 7084SOL     OW32884   3.162   4.704   6.815  0.0681  0.2464 -0.4802
 7084SOL    HW132885   3.170   4.620   6.771  2.7935  1.5293 -2.4262
 7084SOL    HW232886   3.153   4.669   6.904 -0.2972  1.1257 -0.1649
 7085SOL     OW32887   3.951   2.762   6.826 -0.3683 -0.1765  0.7375
 7085SOL    HW132888   4.024   2.814   6.791 -2.2993  1.8632 -0.2370
 7085SOL    HW232889   3.913   2.734   6.743  2.0503 -0.2851 -0.3449
 7086SOL     OW32890   4.358   1.453   3.386 -0.3811  0.2125  0.1841
 7086SOL    HW132891   4.346   1.451   3.291 -1.3498 -2.6881  0.3618
 7086SOL    HW232892   4.410   1.375   3.408  0.6323  1.2101  1.3646
 7087SOL     OW32893   1.283   1.592   8.959  0.4657  0.1874 -0.2801
 7087SOL    HW132894   1.320   1.593   8.871  0.1970  0.7869 -0.3802
 7087SOL    HW232895   1.241   1.508   8.941  0.7749 -0.6066  2.7162
 7088SOL     OW32896   3.170   0.074   0.397 -0.5312 -0.1619  0.2923
 7088SOL    HW132897   3.240   0.107   0.453  1.5762 -2.7772 -0.8124
 7088SOL    HW232898   3.110   0.029   0.457 -0.0504 -1.9874 -0.5875
 7089SOL     OW32899   1.019   3.295  14.365 -0.0051 -0.5011  0.0067
 7089SOL    HW132900   0.926   3.285  14.347 -0.0660  1.8409 -0.9199
 7089SOL    HW232901   1.031   3.279  14.459 -0.3813  1.1847  0.3310
 7090SOL     OW32902   0.599   3.107   9.325  0.3169 -0.2610  0.0235
 7090SOL    HW132903   0.619   3.178   9.265 -1.4561 -0.0870 -0.3485
 7090SOL    HW232904   0.649   3.032   9.293  2.1145  1.3442 -0.9089
 7091SOL     OW32905   1.623   2.222  10.354  0.0017  0.0794 -0.2579
 7091SOL    HW132906   1.578   2.139  10.349  1.2051 -0.6749  1.1652
 7091SOL    HW232907   1.548   2.280  10.342 -0.6753 -0.9991 -1.1511
 7092SOL     OW32908   1.297   1.999   8.217  0.1529 -0.1773  1.4685
 7092SOL    HW132909   1.325   2.042   8.136 -2.6790 -1.5046 -0.1989
 7092SOL    HW232910   1.376   2.013   8.268  2.6145 -0.0768 -2.3752
 7093SOL     OW32911   1.088   1.801   7.055  0.2016  0.6606 -0.2660
 7093SOL    HW132912   1.087   1.871   7.120  0.2986  1.6623 -1.3350
 7093SOL    HW232913   1.119   1.845   6.975  0.4710 -0.9460 -1.0378
 7094SOL     OW32914   3.914   1.343   6.159 -0.2741 -0.2361 -0.5916
 7094SOL    HW132915   3.889   1.275   6.221  1.7628  1.3966  2.0380
 7094SOL    HW232916   3.836   1.398   6.157  0.4864  0.8347 -0.5366
 7095SOL     OW32917   1.672   2.321   4.628  0.0709  0.4985 -0.0919
 7095SOL    HW132918   1.736   2.388   4.605  0.5351  1.3689  3.7210
 7095SOL    HW232919   1.587   2.364   4.622 -0.1283 -0.3650 -3.2004
 7096SOL     OW32920   1.395   0.272   6.189  0.0929  0.2475 -0.4260
 7096SOL    HW132921   1.371   0.212   6.119 -1.9049  0.5864 -0.0357
 7096SOL    HW232922   1.335   0.235   6.253 -0.8301  0.8243 -0.9621
 7097SOL     OW32923   3.852   4.539   2.903  0.0067  0.0241  0.7046
 7097SOL    HW132924   3.812   4.502   2.982 -0.8709  0.7070  0.5726
 7097SOL    HW232925   3.875   4.630   2.917  2.6751 -0.5611  0.1481
 7098SOL     OW32926   3.929   0.449   7.096  0.1505  0.1890  0.3624
 7098SOL    HW132927   4.025   0.445   7.097  0.0352 -2.9818  0.0459
 7098SOL    HW232928   3.916   0.411   7.183  0.2223  1.6387  1.0099
 7099SOL     OW32929   0.589   2.853   0.169 -0.5300 -0.3438  0.0288
 7099SOL    HW132930   0.574   2.947   0.183  0.9177  0.2451 -2.3341
 7099SOL    HW232931   0.618   2.825   0.256 -0.2217 -1.5101 -0.4461
 7100SOL     OW32932   3.888   4.195   7.654  0.1116 -0.1837 -0.0682
 7100SOL    HW132933   3.810   4.221   7.605 -1.1220 -2.6124  0.5929
 7100SOL    HW232934   3.881   4.100   7.656 -1.1832 -0.0592  2.0881
 7101SOL     OW32935   2.447   4.043   5.126  0.1299  0.0032 -0.3976
 7101SOL    HW132936   2.375   4.000   5.172 -1.2172  0.8487 -1.7044
 7101SOL    HW232937   2.417   4.025   5.037 -2.8902 -0.9449  0.8224
 7102SOL     OW32938   1.689   0.710   8.908  0.0482 -0.2786 -0.4935
 7102SOL    HW132939   1.611   0.766   8.902  1.4304  1.5887 -1.0887
 7102SOL    HW232940   1.665   0.646   8.841  0.9985 -0.1211 -0.9917
 7103SOL     OW32941   0.124   0.421   3.968  0.7650 -0.0232 -0.4073
 7103SOL    HW132942   0.206   0.377   3.992  0.5841  0.2972  0.7791
 7103SOL    HW232943   0.074   0.340   3.958 -1.2348  1.0001  1.4014
 7104SOL     OW32944   3.439   0.907   3.034  0.2872 -0.0001  0.0584
 7104SOL    HW132945   3.371   0.964   3.070  0.3738  1.3742 -1.9501
 7104SOL    HW232946   3.424   0.823   3.078  1.6445 -1.9226 -3.1363
 7105SOL     OW32947   3.510   3.803  11.258 -0.2829  0.4321  0.2787
 7105SOL    HW132948   3.599   3.786  11.227  0.7751  3.7269  1.4823
 7105SOL    HW232949   3.494   3.719  11.301  0.3048 -0.4230 -1.1636
 7106SOL     OW32950   2.902   2.727  16.679 -0.6777 -0.1675 -0.2049
 7106SOL    HW132951   2.973   2.783  16.708 -1.7596  1.8954 -1.5314
 7106SOL    HW232952   2.824   2.783  16.686 -2.6022 -2.8820  0.1444
 7107SOL     OW32953   1.104   2.949   8.496  0.0909  0.1871 -0.5139
 7107SOL    HW132954   1.078   2.870   8.544  0.4827 -0.4437 -1.3244
 7107SOL    HW232955   1.175   2.984   8.549  0.6595 -1.3877 -0.2300
 7108SOL     OW32956   4.089   4.694  14.268  0.8231  0.2305  0.5916
 7108SOL    HW132957   3.997   4.674  14.254  1.1341 -0.9960  0.3005
 7108SOL    HW232958   4.105   4.729  14.180 -1.4315  1.9346  0.8718
 7109SOL     OW32959   1.573   1.448   9.891 -0.1527  0.3020  0.8163
 7109SOL    HW132960   1.501   1.386   9.902  0.6171 -0.9955 -1.4790
 7109SOL    HW232961   1.643   1.383   9.884 -0.9175 -0.1847 -2.2524
 7110SOL     OW32962   1.969   4.094  12.438 -0.5595 -0.4410 -0.0529
 7110SOL    HW132963   1.985   4.175  12.487  0.3878  0.0735 -1.1921
 7110SOL    HW232964   1.972   4.124  12.347 -0.6457  1.6195  0.6110
 7111SOL     OW32965   1.036   1.316  15.195  0.4141 -0.0034  0.6564
 7111SOL    HW132966   1.051   1.226  15.164  1.7117  1.1807 -2.1125
 7111SOL    HW232967   1.031   1.359  15.110 -1.8558 -2.0969 -0.3120
 7112SOL     OW32968   2.873   1.605   3.177  0.0423  0.3602 -0.1584
 7112SOL    HW132969   2.857   1.628   3.085 -0.0071 -1.2740 -0.5634
 7112SOL    HW232970   2.837   1.517   3.168 -0.3757  0.3981  1.1951
 7113SOL     OW32971   1.262   1.583  13.649 -0.5004 -0.1943  0.7621
 7113SOL    HW132972   1.174   1.550  13.632 -0.0938 -1.0677  0.3903
 7113SOL    HW232973   1.241   1.673  13.674 -1.8966 -0.1795 -0.4135
 7114SOL     OW32974   3.055   4.108  16.233 -0.2913 -0.4787 -0.0149
 7114SOL    HW132975   3.059   4.013  16.239 -3.0379 -0.4175  2.5201
 7114SOL    HW232976   3.140   4.127  16.191  0.1056  0.3918  1.1924
 7115SOL     OW32977   1.882   3.409   4.428  0.8761 -0.2647 -0.8135
 7115SOL    HW132978   1.790   3.405   4.403  1.0110 -0.3003 -1.2897
 7115SOL    HW232979   1.888   3.325   4.473  1.0842  0.0036 -0.3289
 7116SOL     OW32980   3.905   1.506   7.311 -0.0627  0.3329  0.0609
 7116SOL    HW132981   3.839   1.544   7.253 -1.7281 -3.4063 -0.4510
 7116SOL    HW232982   3.884   1.413   7.303  0.4221  0.0036  2.5304
 7117SOL     OW32983   0.073   1.470   1.978  0.4659 -0.4401  0.1461
 7117SOL    HW132984   0.028   1.435   1.901 -0.5338 -2.7814  1.8073
 7117SOL    HW232985   0.095   1.384   2.015 -1.6304 -0.3742  1.5329
 7118SOL     OW32986   0.915   1.896   3.766 -0.3189  0.0602 -0.7595
 7118SOL    HW132987   0.982   1.835   3.796  0.6040  1.4834  0.0882
 7118SOL    HW232988   0.842   1.883   3.826 -1.1107  1.5845 -1.3949
 7119SOL     OW32989   3.782   2.455   2.685 -0.3781 -0.1966 -0.0629
 7119SOL    HW132990   3.739   2.427   2.604  0.4364  1.6185 -1.1241
 7119SOL    HW232991   3.711   2.434   2.746  0.3709  0.1526  0.9281
 7120SOL     OW32992   4.024   0.789   9.636  0.3950  0.9029 -0.3434
 7120SOL    HW132993   4.096   0.848   9.615  0.8938 -0.2863 -1.9918
 7120SOL    HW232994   4.034   0.776   9.730 -1.3230 -2.4301 -0.5902
 7121SOL     OW32995   2.200   1.449   1.798 -0.0608 -0.1200 -0.0587
 7121SOL    HW132996   2.261   1.375   1.795 -1.6060 -1.4030  0.7027
 7121SOL    HW232997   2.134   1.421   1.735  1.4915  0.9269 -2.1505
 7122SOL     OW32998   2.177   0.508  15.922 -0.4472 -0.1768 -0.0347
 7122SOL    HW132999   2.103   0.569  15.917 -1.5429 -1.4544  0.5298
 7122SOL    HW233000   2.157   0.449  15.995 -1.5796  1.4520  0.9518
 7123SOL     OW33001   2.593   2.448  11.386  0.6962  0.1903 -0.0237
 7123SOL    HW133002   2.629   2.361  11.404 -1.5012 -1.0185 -1.5134
 7123SOL    HW233003   2.675   2.494  11.372  0.3438  1.3454  1.7682
 7124SOL     OW33004   2.525   3.058   3.211  0.5630 -0.0084  0.3963
 7124SOL    HW133005   2.472   2.980   3.225  1.3413 -1.0413 -2.5040
 7124SOL    HW233006   2.484   3.122   3.270 -0.6750 -0.0126 -0.4457
 7125SOL     OW33007   2.014   2.729   1.500  0.2846 -0.1629 -0.2267
 7125SOL    HW133008   2.000   2.721   1.406  0.5145  3.0600 -0.5284
 7125SOL    HW233009   2.029   2.823   1.510  0.1218 -0.2941  1.2279
 7126SOL     OW33010   1.440   0.173  12.606  0.1729  0.2134 -0.1085
 7126SOL    HW133011   1.367   0.121  12.638 -0.0161 -0.6318 -1.9074
 7126SOL    HW233012   1.398   0.258  12.592 -0.9274 -0.3954 -0.4911
 7127SOL     OW33013   1.888   2.352   1.842  0.0100  0.0477 -0.0184
 7127SOL    HW133014   1.921   2.395   1.763  1.0884 -1.2989 -0.2848
 7127SOL    HW233015   1.933   2.268   1.832  0.4263  0.4277 -1.3025
 7128SOL     OW33016   1.309   4.049   6.703  0.2993 -0.1909  0.0675
 7128SOL    HW133017   1.273   3.961   6.695 -1.1592  0.4042  0.0617
 7128SOL    HW233018   1.367   4.039   6.627 -0.3358 -1.8636 -0.1874
 7129SOL     OW33019   2.366   0.983   0.188 -0.2046  0.0045  0.1453
 7129SOL    HW133020   2.325   0.897   0.180 -0.4081  0.4413 -3.4982
 7129SOL    HW233021   2.307   1.032   0.131  0.2238 -1.6126 -1.6921
 7130SOL     OW33022   1.823   4.353  13.032 -0.3879 -0.8327 -0.2380
 7130SOL    HW133023   1.880   4.281  13.005  1.1296  0.8838 -1.5339
 7130SOL    HW233024   1.868   4.426  12.991  0.7404 -1.5866 -0.3481
 7131SOL     OW33025   3.459   3.045   3.986  0.1085 -0.0671  0.4408
 7131SOL    HW133026   3.533   3.031   3.925  0.1637 -0.4642  0.5954
 7131SOL    HW233027   3.384   3.013   3.935  1.1770  1.7244 -2.2900
 7132SOL     OW33028   2.486   1.541   6.339  0.0420 -0.3669  0.4306
 7132SOL    HW133029   2.479   1.613   6.277 -1.2765 -0.7151  0.1804
 7132SOL    HW233030   2.448   1.470   6.287  1.7397  0.2197 -1.5942
 7133SOL     OW33031   3.892   2.811   2.936 -0.0291  0.1560  0.2797
 7133SOL    HW133032   3.840   2.740   2.974 -0.9633  0.5285 -0.2970
 7133SOL    HW233033   3.829   2.882   2.950  0.6225  0.8998 -0.5812
 7134SOL     OW33034   2.043   0.795   7.317 -0.3980  0.3507  0.1840
 7134SOL    HW133035   2.029   0.843   7.235 -0.9522  2.5439  1.5529
 7134SOL    HW233036   1.966   0.829   7.363 -1.5467 -1.2672 -0.5531
 7135SOL     OW33037   2.700   1.853   3.294 -0.5016 -0.7164 -0.0094
 7135SOL    HW133038   2.734   1.835   3.382  1.2338  0.9232 -0.3368
 7135SOL    HW233039   2.637   1.782   3.282  0.2394 -0.6968 -3.9718
 7136SOL     OW33040   1.268   4.553  12.272  0.2041  0.0382  0.2647
 7136SOL    HW133041   1.216   4.607  12.332  1.6981  0.4478  1.2117
 7136SOL    HW233042   1.260   4.463  12.304  0.1065  0.0660  0.3209
 7137SOL     OW33043   3.085   3.772   4.682  0.3767  0.4497 -0.2376
 7137SOL    HW133044   3.082   3.806   4.771  0.1707 -2.1657  0.7495
 7137SOL    HW233045   3.176   3.786   4.653  0.7994 -0.1396  0.8226
 7138SOL     OW33046   1.356   3.953   3.481  0.0398 -0.3205  0.1962
 7138SOL    HW133047   1.320   4.034   3.444 -1.1059 -1.3280 -0.8646
 7138SOL    HW233048   1.448   3.978   3.485  0.2539 -0.7413 -1.9203
 7139SOL     OW33049   1.459   2.539   2.825  0.0063  0.4708 -0.5570
 7139SOL    HW133050   1.539   2.548   2.773 -0.1579  0.1480 -0.8657
 7139SOL    HW233051   1.472   2.457   2.872 -1.7883  0.3443 -0.2840
 7140SOL     OW33052   1.945   1.417   5.857  0.1865  0.1153  0.0761
 7140SOL    HW133053   1.944   1.347   5.923  0.4182  0.6008  0.5917
 7140SOL    HW233054   2.039   1.432   5.846 -0.2971  1.0406 -2.9454
 7141SOL     OW33055   2.198   1.150   3.741  0.2221 -0.7059  0.0922
 7141SOL    HW133056   2.180   1.062   3.707  2.4427 -0.9329 -0.4843
 7141SOL    HW233057   2.163   1.202   3.669 -0.3329 -2.0255 -0.5916
 7142SOL     OW33058   4.355   1.210   4.780  0.2893  0.1322 -0.6499
 7142SOL    HW133059   4.385   1.263   4.854  1.2857  0.7963 -1.5216
 7142SOL    HW233060   4.306   1.154   4.840  1.1505 -0.9921 -0.9996
 7143SOL     OW33061   3.819   1.386  14.956  0.4004 -0.3456  0.5356
 7143SOL    HW133062   3.774   1.423  14.880 -0.9755  0.2521  1.6345
 7143SOL    HW233063   3.823   1.474  14.994 -0.2262  0.5322 -1.4220
 7144SOL     OW33064   4.484   3.350   5.472  0.1680  0.0579  0.2744
 7144SOL    HW133065   4.534   3.356   5.553  0.5570 -1.3330  0.1337
 7144SOL    HW233066   4.428   3.274   5.489 -1.5629  1.4646  0.8730
 7145SOL     OW33067   4.073   1.306   5.955 -0.2835  0.0158 -0.0511
 7145SOL    HW133068   4.042   1.328   6.043  2.3238 -0.0873  0.8909
 7145SOL    HW233069   4.141   1.372   5.938  0.5653 -0.4489  1.5812
 7146SOL     OW33070   3.518   0.477   8.719 -0.5838  0.3609 -0.2962
 7146SOL    HW133071   3.574   0.457   8.794  0.8657  0.1489 -1.4189
 7146SOL    HW233072   3.436   0.437   8.745  0.0337 -1.1268 -0.6654
 7147SOL     OW33073   1.341   0.865   2.802  0.5613  0.7717 -0.4176
 7147SOL    HW133074   1.425   0.909   2.811  0.5069  0.9008 -0.5607
 7147SOL    HW233075   1.346   0.857   2.707  0.9256  1.6950 -0.4744
 7148SOL     OW33076   0.420   2.447  11.643  0.2822 -0.2640  0.0054
 7148SOL    HW133077   0.365   2.520  11.613  2.8469  1.1148 -1.2727
 7148SOL    HW233078   0.356   2.400  11.697  0.3949 -0.7581 -0.2876
 7149SOL     OW33079   4.024   0.586   8.730  0.0303  0.0074 -0.3210
 7149SOL    HW133080   3.968   0.511   8.714 -0.2574  0.3655 -1.0199
 7149SOL    HW233081   4.051   0.608   8.640  0.3434 -2.9105 -0.9148
 7150SOL     OW33082   2.507   1.913   5.289  0.6359 -0.3859  0.3292
 7150SOL    HW133083   2.570   1.842   5.275  2.7299  1.6404 -0.5135
 7150SOL    HW233084   2.463   1.893   5.372  0.2234 -0.4070  0.1041
 7151SOL     OW33085   3.179   3.900  15.959  0.5213 -0.4249 -0.0296
 7151SOL    HW133086   3.098   3.951  15.964  0.1359 -0.9494 -0.8842
 7151SOL    HW233087   3.176   3.863  16.047 -0.2778 -1.1191 -0.3495
 7152SOL     OW33088   2.217   2.226   9.429 -0.1261  0.3738  0.2246
 7152SOL    HW133089   2.149   2.165   9.402  0.0604  0.4168 -0.3516
 7152SOL    HW233090   2.165   2.296   9.468 -0.8091 -0.5533  0.9690
 7153SOL     OW33091   3.332   1.387  11.101  0.2389  0.5231 -0.1188
 7153SOL    HW133092   3.344   1.327  11.027  0.5075  2.2092 -1.4549
 7153SOL    HW233093   3.416   1.432  11.098  1.9415 -2.6743 -0.2234
 7154SOL     OW33094   1.926   0.429   1.017 -0.1590  0.3893  0.3550
 7154SOL    HW133095   1.868   0.498   1.049 -0.1561  1.2383 -1.4987
 7154SOL    HW233096   1.970   0.409   1.100  1.4811  0.9980 -0.3664
 7155SOL     OW33097   0.056   3.434  14.167  0.2784 -0.1152  0.0322
 7155SOL    HW133098   0.010   3.360  14.208 -1.6874 -0.5961 -3.0278
 7155SOL    HW233099   0.137   3.433  14.218  0.3737 -1.5122 -0.1499
 7156SOL     OW33100   0.271   2.568   6.072  0.2430 -0.2106  0.2265
 7156SOL    HW133101   0.180   2.570   6.042 -0.7003  2.9852  3.2956
 7156SOL    HW233102   0.311   2.587   5.987  0.0090  0.3547  0.2464
 7157SOL     OW33103   1.571   4.412   5.095 -0.1130  0.3291 -0.7869
 7157SOL    HW133104   1.588   4.505   5.080 -0.3405  0.4760 -0.1607
 7157SOL    HW233105   1.477   4.424   5.108 -0.2495 -0.4041 -1.1331
 7158SOL     OW33106   1.910   2.600   4.926 -0.1125 -0.1261 -0.6839
 7158SOL    HW133107   1.894   2.507   4.942 -0.6438 -0.0278 -0.6320
 7158SOL    HW233108   1.825   2.622   4.888 -0.5962 -0.0629  0.4224
 7159SOL     OW33109   2.486   0.741   7.819  0.1958 -0.0008  0.4155
 7159SOL    HW133110   2.426   0.741   7.744  0.7282 -1.8658 -0.0059
 7159SOL    HW233111   2.556   0.784   7.770 -0.5363 -0.9193 -1.4682
 7160SOL     OW33112   0.474   1.001   0.834 -0.3994 -0.2694  0.8748
 7160SOL    HW133113   0.522   1.061   0.892 -0.9831  1.0146  0.0263
 7160SOL    HW233114   0.537   0.938   0.799 -0.0392  0.8433 -0.4890
 7161SOL     OW33115   0.589   4.362   8.960  0.3139 -0.5705 -0.3375
 7161SOL    HW133116   0.645   4.341   8.885  0.5778 -0.6884 -0.1060
 7161SOL    HW233117   0.597   4.276   9.000  2.4509 -1.2303 -2.1295
 7162SOL     OW33118   1.366   1.239  17.647 -0.1790  0.1046 -0.3467
 7162SOL    HW133119   1.427   1.236  17.574  2.2024 -0.0434  1.6643
 7162SOL    HW233120   1.286   1.259  17.599 -1.0283  1.3317  1.5594
 7163SOL     OW33121   3.304   2.007   8.793 -0.1397  0.2964 -0.5842
 7163SOL    HW133122   3.371   1.969   8.849 -0.1646 -0.8448 -1.3179
 7163SOL    HW233123   3.258   1.930   8.760  1.0944  0.0726 -1.8012
 7164SOL     OW33124   1.307   0.632   2.966  0.4399  0.0492  0.3694
 7164SOL    HW133125   1.295   0.703   2.903 -2.1756 -0.5299  0.2257
 7164SOL    HW233126   1.384   0.591   2.926 -0.8510 -1.4229 -0.5815
 7165SOL     OW33127   2.959   3.586  16.583  0.2752  0.3024 -0.0416
 7165SOL    HW133128   2.977   3.504  16.630  0.8057  2.1727  2.9931
 7165SOL    HW233129   3.021   3.587  16.511  2.8454 -1.4877  2.1634
 7166SOL     OW33130   1.999   1.420   7.005  0.5466  0.1816 -0.0725
 7166SOL    HW133131   1.997   1.511   6.974  1.1938  0.5595  1.0290
 7166SOL    HW233132   1.947   1.421   7.085 -0.6754  0.0799 -0.8477
 7167SOL     OW33133   0.966   0.761   9.132  0.5279 -0.2234 -0.4397
 7167SOL    HW133134   0.973   0.692   9.198 -0.5035 -0.6036 -0.7312
 7167SOL    HW233135   1.032   0.820   9.168 -0.7397  0.8440  0.1396
 7168SOL     OW33136   0.523   0.763   3.187 -0.3041 -0.5283  0.1321
 7168SOL    HW133137   0.439   0.727   3.212 -1.1693  0.2568 -1.6152
 7168SOL    HW233138   0.501   0.856   3.176 -0.5767 -0.4529  1.4229
 7169SOL     OW33139   0.611   2.447   1.968  0.5813  0.8589 -0.0359
 7169SOL    HW133140   0.698   2.459   2.006  0.7507  0.2005 -0.2151
 7169SOL    HW233141   0.567   2.391   2.032 -1.9770  0.1397 -2.3777
 7170SOL     OW33142   1.764   2.831   5.351 -0.5344 -0.1303  0.5750
 7170SOL    HW133143   1.797   2.846   5.439  0.6738 -2.1925  0.4635
 7170SOL    HW233144   1.817   2.897   5.305  0.3861  0.0452  1.8916
 7171SOL     OW33145   0.443   0.003   1.145 -0.2140  0.1528 -0.2851
 7171SOL    HW133146   0.479   4.647   1.148 -1.6849 -0.4273 -0.1176
 7171SOL    HW233147   0.350   0.003   1.167 -0.2303 -0.0000 -0.3588
 7172SOL     OW33148   3.691   4.239   8.233 -0.9435 -0.3187 -0.1846
 7172SOL    HW133149   3.746   4.183   8.179 -0.3072  0.5772 -0.4464
 7172SOL    HW233150   3.658   4.296   8.164 -1.7811 -0.4285  0.1240
 7173SOL     OW33151   0.448   0.539   2.398 -0.0463 -0.1062 -0.3566
 7173SOL    HW133152   0.482   0.541   2.309 -0.2981 -3.1634 -0.5213
 7173SOL    HW233153   0.356   0.562   2.384  0.0694  0.4714 -0.1592
 7174SOL     OW33154   2.441   0.096   7.801  0.2910 -0.2619 -0.2159
 7174SOL    HW133155   2.443   0.134   7.713 -2.3293 -1.6613 -0.8638
 7174SOL    HW233156   2.535   0.075   7.808  0.1219 -0.8892  0.1592
 7175SOL     OW33157   3.856   4.048  12.843  0.5854  0.1762 -0.2966
 7175SOL    HW133158   3.908   4.128  12.839  1.2999 -0.3825 -1.7757
 7175SOL    HW233159   3.773   4.079  12.880  1.0513  0.9840  0.0784
 7176SOL     OW33160   2.666   2.185   8.492 -0.2808  0.1064 -0.0957
 7176SOL    HW133161   2.578   2.206   8.460 -0.7040  0.4630  1.3142
 7176SOL    HW233162   2.649   2.115   8.555 -0.3330 -0.6402 -0.9389
 7177SOL     OW33163   1.671   2.870   3.414  0.1161 -0.1289 -0.0957
 7177SOL    HW133164   1.739   2.935   3.397  0.4620 -0.2505  0.8304
 7177SOL    HW233165   1.620   2.893   3.491 -0.8486 -0.6945 -0.5684
 7178SOL     OW33166   1.400   1.370   7.954  0.1269  0.0156  0.1116
 7178SOL    HW133167   1.379   1.285   7.993  0.8970  0.2429  1.0369
 7178SOL    HW233168   1.315   1.411   7.967 -0.5006 -1.2770  0.0225
 7179SOL     OW33169   3.786   2.048   5.362 -0.3650  0.0583 -0.2077
 7179SOL    HW133170   3.701   2.082   5.389  0.1986  0.0580  1.5671
 7179SOL    HW233171   3.765   1.954   5.356  2.3472 -0.5774  0.2764
 7180SOL     OW33172   1.393   0.106   7.782  0.7868  0.1951 -0.0417
 7180SOL    HW133173   1.320   0.059   7.821  0.2567  0.4921 -0.6578
 7180SOL    HW233174   1.416   0.164   7.854 -1.4928 -0.0557  0.9113
 7181SOL     OW33175   2.724   4.597   8.302  0.0611 -0.2258  0.2242
 7181SOL    HW133176   2.773   4.526   8.261 -0.3562 -0.6494  0.4568
 7181SOL    HW233177   2.697   4.648   8.226 -0.6228 -1.5085 -0.4004
 7182SOL     OW33178   4.093   1.195   2.726  0.4482 -0.5402  0.5711
 7182SOL    HW133179   3.999   1.199   2.740 -0.0844 -1.6939 -2.6802
 7182SOL    HW233180   4.093   1.147   2.643 -1.8743 -1.0324  0.8706
 7183SOL     OW33181   3.335   0.607   7.521 -0.1853 -0.3154 -0.5430
 7183SOL    HW133182   3.311   0.529   7.572 -0.8095  0.3222  0.1292
 7183SOL    HW233183   3.386   0.657   7.585  1.4547 -2.0064 -0.5372
 7184SOL     OW33184   3.043   4.654  17.342  0.0170 -0.0773 -0.0066
 7184SOL    HW133185   3.015   4.626  17.429 -0.8239  0.9285  0.0379
 7184SOL    HW233186   3.056   0.016  17.349  2.7337 -0.6628  3.4213
 7185SOL     OW33187   2.811   3.109  10.801 -0.0221 -0.0090  0.1087
 7185SOL    HW133188   2.882   3.110  10.866 -0.5892 -2.3609  0.7457
 7185SOL    HW233189   2.803   3.017  10.776  0.4400  0.2186 -0.8668
 7186SOL     OW33190   1.789   3.131  17.222 -0.0325  0.1655 -0.3807
 7186SOL    HW133191   1.709   3.140  17.274  0.3767 -1.1916  0.5086
 7186SOL    HW233192   1.804   3.225  17.214  0.6799  0.1687  1.0920
 7187SOL     OW33193   2.735   0.307   4.147  0.2137  0.8104  0.2273
 7187SOL    HW133194   2.756   0.227   4.098  1.8424  1.0018  0.6324
 7187SOL    HW233195   2.736   0.370   4.075 -1.8905  0.1381 -0.4175
 7188SOL     OW33196   1.834   2.108   1.332  0.3358  0.6357 -0.1764
 7188SOL    HW133197   1.778   2.102   1.409  0.7392 -2.2271 -0.0734
 7188SOL    HW233198   1.776   2.162   1.279 -2.0508 -1.2984  0.4713
 7189SOL     OW33199   2.556   1.054   4.357 -0.3333 -0.1742  0.4119
 7189SOL    HW133200   2.541   0.965   4.325  2.2276 -0.8978  1.2531
 7189SOL    HW233201   2.641   1.075   4.319 -0.1514 -0.5580  0.6077
 7190SOL     OW33202   1.914   1.275  12.904  0.4141 -0.1570  0.1177
 7190SOL    HW133203   1.863   1.256  12.982 -1.3515  2.3980 -0.4225
 7190SOL    HW233204   1.979   1.205  12.913  0.0164 -0.4999  0.2877
 7191SOL     OW33205   0.429   3.110   6.712  0.0045 -0.9019  0.2175
 7191SOL    HW133206   0.430   3.072   6.624  1.1043  1.4648 -0.7718
 7191SOL    HW233207   0.512   3.071   6.737 -0.1006 -0.5366  1.1213
 7192SOL     OW33208   0.836   0.059   7.476  0.3063 -0.1765 -0.7889
 7192SOL    HW133209   0.887   0.131   7.438  1.3225 -1.2347 -1.4495
 7192SOL    HW233210   0.744   0.083   7.465  0.5393  0.3426 -1.5779
 7193SOL     OW33211   3.805   1.741   6.810  0.4912 -0.6979  0.4358
 7193SOL    HW133212   3.767   1.791   6.882 -0.1703 -0.4210 -0.1058
 7193SOL    HW233213   3.880   1.698   6.850  1.1072 -0.7514 -0.7931
 7194SOL     OW33214   3.752   3.972   0.890  0.3556  0.2849  0.1818
 7194SOL    HW133215   3.784   3.975   0.800 -3.6864  0.3961 -1.2393
 7194SOL    HW233216   3.744   4.067   0.904  0.2197 -0.1682  3.1138
 7195SOL     OW33217   0.263   1.157   3.954  0.0592  0.2251  0.3022
 7195SOL    HW133218   0.358   1.166   3.948 -0.0565 -0.1265 -1.8579
 7195SOL    HW233219   0.228   1.217   3.889  0.9141 -0.9715 -1.2567
 7196SOL     OW33220   0.657   4.335   6.841  0.8295 -0.1595 -0.3643
 7196SOL    HW133221   0.585   4.278   6.812 -0.6716  1.2306  0.6483
 7196SOL    HW233222   0.624   4.339   6.931  0.2213 -1.3854 -0.5313
 7197SOL     OW33223   1.388   2.738   6.776 -0.0369  0.2001  0.1155
 7197SOL    HW133224   1.482   2.738   6.794  0.0915  1.0569 -0.5407
 7197SOL    HW233225   1.386   2.753   6.682  1.8773  1.0206  0.2216
 7198SOL     OW33226   3.281   3.061  13.784 -0.3880 -0.4741 -0.5255
 7198SOL    HW133227   3.366   3.097  13.759  0.3699 -0.6964  1.7887
 7198SOL    HW233228   3.234   3.073  13.701 -1.4614 -2.6800 -0.2566
 7199SOL     OW33229   3.366   0.270   8.329 -0.3037 -0.0527 -0.0987
 7199SOL    HW133230   3.391   0.331   8.259  0.0531  1.3184  1.2315
 7199SOL    HW233231   3.443   0.249   8.381  0.5972 -0.5378 -1.6331
 7200SOL     OW33232   0.309   4.374   0.833  0.4017 -0.3252 -0.2544
 7200SOL    HW133233   0.220   4.344   0.851  0.5202 -0.4098  0.2037
 7200SOL    HW233234   0.356   4.291   0.828  0.4531 -0.1684 -2.2139
 7201SOL     OW33235   2.036   3.558   5.396  0.3163  0.2172 -0.3744
 7201SOL    HW133236   2.005   3.477   5.438  2.8799  0.3400  1.7194
 7201SOL    HW233237   2.047   3.534   5.304  0.2005  0.8483 -0.5508
 7202SOL     OW33238   1.370   2.864  15.188  0.2891 -0.1782  0.0277
 7202SOL    HW133239   1.317   2.944  15.189  1.2587  0.4373  0.9426
 7202SOL    HW233240   1.451   2.903  15.220  0.6095  0.0182 -1.0120
 7203SOL     OW33241   2.856   1.823   7.804  0.4225 -0.5828  0.8997
 7203SOL    HW133242   2.842   1.807   7.897  0.4314 -1.0195  0.8255
 7203SOL    HW233243   2.851   1.735   7.767 -2.0356  0.3170 -0.9082
 7204SOL     OW33244   3.769   4.524   1.086 -0.0584 -0.4731  0.0070
 7204SOL    HW133245   3.825   4.551   1.159  0.5479 -0.6173 -0.4102
 7204SOL    HW233246   3.695   4.505   1.143 -1.2139  1.9407 -0.6892
 7205SOL     OW33247   0.880   3.204   7.628  0.2607 -0.0968 -0.5603
 7205SOL    HW133248   0.962   3.182   7.673  0.2264 -1.8379 -1.3517
 7205SOL    HW233249   0.892   3.289   7.587  1.5365 -0.7725 -1.6258
 7206SOL     OW33250   2.197   1.307  15.293 -0.2817 -0.6635  0.5375
 7206SOL    HW133251   2.289   1.315  15.319  0.4756 -0.5877 -2.1372
 7206SOL    HW233252   2.196   1.221  15.251  0.9256 -0.2792 -0.2789
 7207SOL     OW33253   4.420   1.246  14.640 -0.0288  0.0319 -0.4415
 7207SOL    HW133254   4.346   1.223  14.696 -0.8882 -1.6693 -2.2995
 7207SOL    HW233255   4.385   1.319  14.589  1.1719  0.2492 -0.9491
 7208SOL     OW33256   1.803   2.016  11.707  0.5724  0.3618  0.0634
 7208SOL    HW133257   1.716   1.983  11.726  0.3226  0.5423 -0.8106
 7208SOL    HW233258   1.785   2.110  11.715 -1.0025  0.1472 -1.0495
 7209SOL     OW33259   4.663   0.839   7.599  0.0691 -0.7870 -0.0763
 7209SOL    HW133260   4.601   0.903   7.634  0.7765 -0.4745  0.5977
 7209SOL    HW233261   4.684   0.796   7.682 -1.8965  0.9901  1.3470
 7210SOL     OW33262   0.486   0.567   7.291 -0.4156  0.2746 -0.1188
 7210SOL    HW133263   0.531   0.546   7.373  3.3542  0.9289 -2.0203
 7210SOL    HW233264   0.412   0.507   7.300  0.4832 -1.0693 -1.7324
 7211SOL     OW33265   0.813   3.103   6.971  0.3481  0.2693 -0.5108
 7211SOL    HW133266   0.878   3.134   6.909  1.7423 -0.7030  0.4738
 7211SOL    HW233267   0.845   3.131   7.057 -2.2331  1.8374 -0.0378
 7212SOL     OW33268   4.126   1.567   9.546 -0.3040 -0.5401  0.0690
 7212SOL    HW133269   4.119   1.619   9.626  0.1689 -0.7519  0.2473
 7212SOL    HW233270   4.132   1.481   9.588  3.1228  0.5484  1.8393
 7213SOL     OW33271   0.660   1.624   2.529 -0.3960 -0.4625  0.6588
 7213SOL    HW133272   0.616   1.625   2.614 -0.3270 -1.7872  0.7139
 7213SOL    HW233273   0.589   1.660   2.476  0.9966  2.2996  0.6346
 7214SOL     OW33274   4.458   1.523   2.140  0.3094 -0.0023  0.0549
 7214SOL    HW133275   4.543   1.554   2.170 -0.3204  2.6030 -0.8150
 7214SOL    HW233276   4.434   1.600   2.089  0.0667 -2.0060 -2.8997
 7215SOL     OW33277   3.654   1.017  12.956  0.3384  0.3728 -0.1438
 7215SOL    HW133278   3.667   0.970  13.039  3.1489  0.0868 -0.7602
 7215SOL    HW233279   3.586   1.071  12.995  0.4574  1.1340 -0.9889
 7216SOL     OW33280   3.198   3.271   4.726 -0.4710  0.0555  0.2804
 7216SOL    HW133281   3.178   3.181   4.751 -1.7988  0.4768  0.7539
 7216SOL    HW233282   3.111   3.307   4.706 -1.0319 -1.6582 -0.3099
 7217SOL     OW33283   0.509   4.652   8.188  0.0809 -0.9539 -0.4907
 7217SOL    HW133284   0.416   4.663   8.208  0.6192  1.6993  0.4705
 7217SOL    HW233285   0.513   4.560   8.160  3.4966 -0.9382 -0.0540
 7218SOL     OW33286   3.478   4.043   8.074 -0.0833  0.3836  0.0673
 7218SOL    HW133287   3.418   4.005   8.010 -0.1909  2.1808 -0.9277
 7218SOL    HW233288   3.539   4.087   8.014  1.1958 -0.2748  0.8851
 7219SOL     OW33289   0.250   3.712  13.207 -0.0236  0.3282 -0.1970
 7219SOL    HW133290   0.311   3.673  13.269 -3.1010 -2.9765  0.7301
 7219SOL    HW233291   0.258   3.647  13.138  1.2415  2.0179 -1.6483
 7220SOL     OW33292   4.326   2.771   2.195 -0.0631 -0.2950 -0.8492
 7220SOL    HW133293   4.321   2.841   2.130 -0.6751  1.4164  1.0387
 7220SOL    HW233294   4.412   2.735   2.172  0.5893 -0.5796  2.0625
 7221SOL     OW33295   2.426   4.376   1.957  0.4119  0.1848  0.1557
 7221SOL    HW133296   2.362   4.438   1.922  1.3480  1.2595  0.3249
 7221SOL    HW233297   2.435   4.309   1.890 -2.1491  0.4278 -0.4217
 7222SOL     OW33298   1.991   1.449   0.757  0.0872  0.1930  0.3023
 7222SOL    HW133299   2.083   1.468   0.740  0.2202  1.1706  2.0706
 7222SOL    HW233300   1.998   1.427   0.850 -1.2783  3.5029  1.1661
 7223SOL     OW33301   4.251   2.562   3.781  0.2242 -0.5774  0.2306
 7223SOL    HW133302   4.302   2.642   3.781 -2.9562  1.4282  2.0004
 7223SOL    HW233303   4.161   2.590   3.761 -0.0527 -3.2192 -2.3313
 7224SOL     OW33304   4.479   2.903   3.423 -0.4929  0.4726  0.4373
 7224SOL    HW133305   4.552   2.894   3.362  0.9436 -1.3714  2.4235
 7224SOL    HW233306   4.518   2.870   3.504  0.3133 -1.6518 -0.8235
 7225SOL     OW33307   0.841   2.528   6.112  0.0848 -0.0648  0.2488
 7225SOL    HW133308   0.802   2.442   6.095  1.6917 -0.5769 -0.8498
 7225SOL    HW233309   0.782   2.570   6.175 -1.9426 -1.4260 -0.7645
 7226SOL     OW33310   2.743   4.376  10.038 -0.0521 -0.2373  0.5924
 7226SOL    HW133311   2.717   4.446  10.098  0.8561  0.7964 -0.2077
 7226SOL    HW233312   2.802   4.418   9.975  0.0358  0.7243  1.3058
 7227SOL     OW33313   2.687   0.843   9.772 -0.0092 -0.2666 -0.4377
 7227SOL    HW133314   2.696   0.836   9.677  1.3198  0.9681 -0.3997
 7227SOL    HW233315   2.641   0.926   9.783 -0.4901 -0.8978  2.2822
 7228SOL     OW33316   4.585   2.082   1.658 -0.4886  0.4251  0.4074
 7228SOL    HW133317   4.614   2.168   1.630  0.8905 -0.1274  0.1257
 7228SOL    HW233318   4.501   2.112   1.693 -1.3541 -0.9415 -0.4813
 7229SOL     OW33319   3.550   4.485   1.227 -0.4678  0.5467  0.6321
 7229SOL    HW133320   3.460   4.452   1.222 -0.1448 -0.2475  0.0052
 7229SOL    HW233321   3.600   4.409   1.258  0.6056  0.7531 -0.5897
 7230SOL     OW33322   0.836   1.733   7.717 -0.0859 -0.3953 -0.3568
 7230SOL    HW133323   0.773   1.758   7.785  0.6615  0.7958 -0.1086
 7230SOL    HW233324   0.794   1.652   7.686 -0.0369 -1.2190  1.7159
 7231SOL     OW33325   0.930   1.986   5.453  0.0572  0.5211  0.3988
 7231SOL    HW133326   0.909   1.894   5.433 -0.3490  0.4250  1.2656
 7231SOL    HW233327   0.957   1.968   5.543 -0.4486 -1.8108  0.1059
 7232SOL     OW33328   1.387   1.953  13.320 -0.0778 -0.7101 -0.1796
 7232SOL    HW133329   1.360   1.863  13.342 -2.5881 -0.2234 -1.2442
 7232SOL    HW233330   1.479   1.929  13.304 -0.1500  0.3624 -2.2119
 7233SOL     OW33331   2.087   4.470   8.376  0.5250  0.7045 -0.1594
 7233SOL    HW133332   2.089   4.378   8.350  1.1212  0.3801  1.0338
 7233SOL    HW233333   2.093   4.514   8.291  2.6124  1.0659  0.1935
 7234SOL     OW33334   2.665   2.417   7.780  0.8129  0.1452 -0.2464
 7234SOL    HW133335   2.727   2.395   7.850  1.5988  1.0295 -0.6707
 7234SOL    HW233336   2.685   2.504   7.746 -1.2305  1.0523  0.8934
 7235SOL     OW33337   3.085   2.506  15.017 -0.1231 -0.3811 -0.2231
 7235SOL    HW133338   3.177   2.516  14.991 -0.6062  2.5547 -0.7926
 7235SOL    HW233339   3.051   2.436  14.961  3.3774 -2.9750  0.8989
 7236SOL     OW33340   3.058   3.312   2.693  0.9066  0.1732 -0.1309
 7236SOL    HW133341   3.151   3.331   2.706  0.8125 -0.3258  1.1924
 7236SOL    HW233342   3.046   3.253   2.618  1.8127  1.5356 -1.3412
 7237SOL     OW33343   2.889   4.456  17.551  0.3675 -0.2111  0.4776
 7237SOL    HW133344   2.952   4.521  17.582  0.4620 -0.6772  1.2478
 7237SOL    HW233345   2.865   4.414  17.633 -4.4609  0.7265 -0.4683
 7238SOL     OW33346   1.914   2.407   3.565  0.0957  0.1973 -0.3439
 7238SOL    HW133347   1.847   2.440   3.505 -0.8298 -1.0762  0.0023
 7238SOL    HW233348   2.000   2.440   3.539 -0.5273  2.9043  1.0149
 7239SOL     OW33349   2.173   1.565   4.308 -0.2917  0.3315  0.1590
 7239SOL    HW133350   2.197   1.628   4.376  2.4012  0.5559 -0.9784
 7239SOL    HW233351   2.095   1.519   4.337 -0.0294  0.1021  0.5025
 7240SOL     OW33352   1.231   3.480   7.412 -0.2993 -0.0609  0.2416
 7240SOL    HW133353   1.170   3.447   7.346  1.4594  0.1476 -1.4869
 7240SOL    HW233354   1.226   3.574   7.396  0.2624  0.1381  1.2583
 7241SOL     OW33355   0.019   4.020   9.424 -0.2000 -0.0088  0.6503
 7241SOL    HW133356   0.078   4.054   9.356  0.5719 -0.5175  1.0809
 7241SOL    HW233357   0.076   3.960   9.470  1.7715  0.6856 -0.8525
 7242SOL     OW33358   4.223   2.467   5.913 -0.0435 -0.0367 -0.6000
 7242SOL    HW133359   4.237   2.510   5.829  0.2192  1.4595  0.2048
 7242SOL    HW233360   4.190   2.537   5.970  0.0335 -0.2436 -0.3000
 7243SOL     OW33361   0.950   1.193   7.206  0.7845 -0.1969  0.4872
 7243SOL    HW133362   1.008   1.232   7.271 -0.5977  0.4816  1.2957
 7243SOL    HW233363   0.904   1.136   7.268 -0.5129  0.7623  0.4019
 7244SOL     OW33364   0.429   3.095   1.399 -0.2254 -0.2740  0.2868
 7244SOL    HW133365   0.367   3.062   1.334 -1.6823 -0.8231  1.9612
 7244SOL    HW233366   0.441   3.026   1.464  0.0423  1.0357  1.6364
 7245SOL     OW33367   0.372   3.494   1.720 -0.2599 -0.0197  0.3834
 7245SOL    HW133368   0.426   3.536   1.788 -0.9918  0.6425  0.5468
 7245SOL    HW233369   0.374   3.403   1.750  1.3500  0.0076  0.3960
 7246SOL     OW33370   2.174   0.647   5.106  0.0466 -0.8166 -0.7023
 7246SOL    HW133371   2.179   0.551   5.106  0.2571 -0.8186  1.6953
 7246SOL    HW233372   2.210   0.688   5.028  1.2419 -0.1489  0.1978
 7247SOL     OW33373   2.900   0.620   4.162  0.1122  0.1058 -0.5340
 7247SOL    HW133374   2.828   0.558   4.147 -0.1156  0.0673  0.7046
 7247SOL    HW233375   2.980   0.567   4.155 -0.0288 -0.0531 -0.9247
 7248SOL     OW33376   4.021   2.153   3.731 -0.2531  0.1823 -0.2676
 7248SOL    HW133377   3.954   2.178   3.795  0.2502  0.2964  0.2104
 7248SOL    HW233378   3.970   2.156   3.650  0.4450 -2.7110 -0.8135
 7249SOL     OW33379   3.298   0.581   0.672  0.0474 -0.1521 -0.2434
 7249SOL    HW133380   3.259   0.666   0.691 -1.6876 -1.0280  0.0600
 7249SOL    HW233381   3.388   0.594   0.704  0.3182  0.0313 -1.0772
 7250SOL     OW33382   3.782   1.021  17.693 -0.4483 -0.1626  0.4112
 7250SOL    HW133383   3.856   1.075  17.668 -0.9753  0.4571  0.1998
 7250SOL    HW233384   3.742   1.086   0.022 -2.2355 -1.8460  1.0661
 7251SOL     OW33385   1.321   2.248  14.344  0.6825 -0.4988 -0.1639
 7251SOL    HW133386   1.389   2.257  14.277 -1.2807  2.9281 -1.7301
 7251SOL    HW233387   1.246   2.231  14.287 -0.6933 -1.3750  1.8885
 7252SOL     OW33388   4.708   2.725   9.639  0.2237 -0.2614 -0.3688
 7252SOL    HW133389   4.624   2.762   9.666 -0.7251 -2.1401 -0.7586
 7252SOL    HW233390   4.695   2.681   9.555 -4.0171  1.0936 -0.4226
 7253SOL     OW33391   2.760   2.568   9.301  0.1236  0.1947  0.1247
 7253SOL    HW133392   2.780   2.642   9.358 -0.8964  1.1940 -0.8037
 7253SOL    HW233393   2.811   2.493   9.331  0.2917 -0.3137 -1.4216
 7254SOL     OW33394   3.453   3.348  12.820 -0.2332  0.2513 -0.1911
 7254SOL    HW133395   3.395   3.275  12.843 -2.0704  1.7340 -0.0960
 7254SOL    HW233396   3.520   3.304  12.768  0.7247 -1.6127  2.6243
 7255SOL     OW33397   0.415   1.694   7.692  0.2178  1.0607  0.7578
 7255SOL    HW133398   0.414   1.724   7.783  0.7353 -0.0428  1.1290
 7255SOL    HW233399   0.474   1.619   7.687 -1.6366 -0.4764  1.4582
 7256SOL     OW33400   0.932   4.471   9.977 -0.3637 -0.0648 -0.2195
 7256SOL    HW133401   0.917   4.474  10.071 -2.7378  1.5096 -0.6502
 7256SOL    HW233402   0.981   4.552   9.959  0.2859 -0.1616  1.1093
 7257SOL     OW33403   1.175   0.980   2.583  0.0666 -0.1697  0.2361
 7257SOL    HW133404   1.173   0.891   2.548 -1.0367  0.6870 -1.8652
 7257SOL    HW233405   1.105   0.968   2.646 -0.9934  3.0235 -0.3381
 7258SOL     OW33406   3.775   4.665  12.451 -0.0622  0.1552 -0.3223
 7258SOL    HW133407   3.862   4.624  12.444 -0.7967 -1.3285 -0.7806
 7258SOL    HW233408   3.772   4.678  12.546 -0.8657 -2.3285  0.0015
 7259SOL     OW33409   1.078   0.722   6.721 -0.0520  0.1430 -0.1168
 7259SOL    HW133410   1.153   0.744   6.777 -0.9497  1.2506  0.6414
 7259SOL    HW233411   1.012   0.730   6.790  0.2559 -1.3724  0.3527
 7260SOL     OW33412   3.765   0.679   7.829  0.1270  0.4253  0.0700
 7260SOL    HW133413   3.676   0.671   7.865 -0.5128  1.2178 -1.3408
 7260SOL    HW233414   3.777   0.773   7.843 -1.1056  0.5922 -0.0085
 7261SOL     OW33415   0.208   0.204   3.030  0.3775 -0.4390  0.1322
 7261SOL    HW133416   0.184   0.183   3.120 -1.0877 -0.4832 -0.2678
 7261SOL    HW233417   0.122   0.193   2.989 -0.4203  0.0675  1.6599
 7262SOL     OW33418   3.578   1.794   0.526  0.0205  0.4797  0.2350
 7262SOL    HW133419   3.566   1.868   0.586  1.1239  0.4806  0.4409
 7262SOL    HW233420   3.617   1.726   0.581 -0.2576  1.5270  1.7217
 7263SOL     OW33421   0.289   2.297  14.279 -0.2456 -0.0362 -0.0969
 7263SOL    HW133422   0.352   2.246  14.230 -0.0258 -0.2550  0.4083
 7263SOL    HW233423   0.291   2.243  14.358 -0.9775 -0.6280 -0.4776
 7264SOL     OW33424   3.533   2.539   4.525 -0.0238 -0.6884 -0.0342
 7264SOL    HW133425   3.464   2.605   4.535  0.8615  0.1668  0.4426
 7264SOL    HW233426   3.517   2.495   4.442  1.2788  0.6527 -0.9895
 7265SOL     OW33427   4.360   1.916   2.053  0.1074  0.2919  0.1546
 7265SOL    HW133428   4.314   1.851   2.106 -4.0240  2.5954 -0.5955
 7265SOL    HW233429   4.379   1.880   1.967  0.3155  0.0625  0.2969
 7266SOL     OW33430   2.357   1.623   2.611  0.4394 -0.5919 -0.0018
 7266SOL    HW133431   2.327   1.639   2.522 -1.9672  0.9687  1.1002
 7266SOL    HW233432   2.281   1.649   2.663 -0.1196 -0.7150 -0.7609
 7267SOL     OW33433   0.667   0.690   9.949  0.3333  0.3913  0.3116
 7267SOL    HW133434   0.689   0.767  10.001 -0.4771 -0.2525  1.5983
 7267SOL    HW233435   0.639   0.633  10.020 -1.9363 -0.7609 -1.4935
 7268SOL     OW33436   3.014   4.573  10.047  0.1800  0.0342  0.0787
 7268SOL    HW133437   3.042   4.482  10.056  1.6105  0.4314 -0.2807
 7268SOL    HW233438   2.995   4.585  10.140  2.1002  1.1950  0.3395
 7269SOL     OW33439   3.433   4.042   5.986 -0.4128  0.4487 -0.0761
 7269SOL    HW133440   3.478   4.126   5.991  2.5462 -1.0380 -1.5529
 7269SOL    HW233441   3.339   4.060   5.985 -0.4708  0.0729 -2.5800
 7270SOL     OW33442   0.773   3.115   1.313 -0.0038 -0.3967 -0.1287
 7270SOL    HW133443   0.860   3.077   1.300 -0.2620 -1.0630  0.0697
 7270SOL    HW233444   0.751   3.161   1.232 -1.0194 -0.5321  0.0740
 7271SOL     OW33445   4.244   4.324   4.409  0.1580 -0.8081  0.3320
 7271SOL    HW133446   4.169   4.346   4.464  0.5962 -1.5214  1.2053
 7271SOL    HW233447   4.235   4.380   4.332  0.2996 -1.2220  0.0182
 7272SOL     OW33448   3.924   3.104  10.634  0.2335 -0.5942 -0.1776
 7272SOL    HW133449   3.837   3.114  10.593 -1.1024 -2.5098  2.1991
 7272SOL    HW233450   3.924   3.190  10.676 -1.1519 -0.5242 -0.2944
 7273SOL     OW33451   1.778   0.699   0.397  0.3006  0.0779 -0.1058
 7273SOL    HW133452   1.693   0.732   0.369  0.7657  0.6310 -0.8493
 7273SOL    HW233453   1.833   0.709   0.320  0.4775 -0.9879 -0.1179
 7274SOL     OW33454   2.478   4.414   5.660  0.1756 -0.3118 -0.0228
 7274SOL    HW133455   2.558   4.431   5.611  1.4254 -2.3152  1.3132
 7274SOL    HW233456   2.472   4.319   5.647 -0.5659 -0.2056 -0.4838
 7275SOL     OW33457   2.495   0.293   2.412 -0.3852  0.3731 -0.6546
 7275SOL    HW133458   2.483   0.374   2.460  0.8712  0.3080 -0.2150
 7275SOL    HW233459   2.414   0.245   2.430 -0.6368  1.4856  1.1782
 7276SOL     OW33460   0.304   2.621   4.750 -0.6143  0.4237 -0.1314
 7276SOL    HW133461   0.374   2.562   4.779 -0.2186  0.7722 -0.3969
 7276SOL    HW233462   0.241   2.564   4.706 -0.3338 -1.2493  1.6003
 7277SOL     OW33463   4.554   0.986   6.446  0.3769 -0.2443  0.4744
 7277SOL    HW133464   4.532   0.896   6.424 -1.3799  0.6547 -1.5094
 7277SOL    HW233465   4.546   0.985   6.541 -2.1477 -2.3133  0.2421
 7278SOL     OW33466   0.811   0.070  13.250  0.3044  0.2324  0.1180
 7278SOL    HW133467   0.803   0.049  13.343 -0.0997  3.0127  0.7258
 7278SOL    HW233468   0.906   0.081  13.240  0.4915  0.0233  1.6087
 7279SOL     OW33469   0.289   4.584  13.723 -0.2183  0.0473  0.0520
 7279SOL    HW133470   0.247   4.520  13.781  0.1420 -0.5869 -0.3847
 7279SOL    HW233471   0.371   4.535  13.715 -0.1979 -0.0355  0.7925
 7280SOL     OW33472   1.351   0.763   7.484 -0.1084 -0.2695 -0.4588
 7280SOL    HW133473   1.325   0.694   7.545 -0.2391  0.6548  0.5213
 7280SOL    HW233474   1.316   0.841   7.526 -1.0744 -0.0983 -1.5625
 7281SOL     OW33475   4.178   2.578   5.128 -0.4604 -0.5130  0.1677
 7281SOL    HW133476   4.179   2.487   5.157  0.1428 -0.3403  0.6847
 7281SOL    HW233477   4.165   2.571   5.033  3.0536  0.7099 -0.4230
 7282SOL     OW33478   0.209   1.484   4.251 -0.3941  0.3840  0.3947
 7282SOL    HW133479   0.200   1.518   4.340  0.2124  1.8476 -0.0967
 7282SOL    HW233480   0.132   1.427   4.239 -1.1932  1.5190  0.0944
 7283SOL     OW33481   0.490   0.307   4.019  0.1379  0.3160  0.7043
 7283SOL    HW133482   0.482   0.334   3.927 -0.5376  1.5326  1.1153
 7283SOL    HW233483   0.569   0.254   4.028 -1.8283 -2.7383 -0.2558
 7284SOL     OW33484   3.050   0.965   7.840 -0.0129  0.3016  0.1553
 7284SOL    HW133485   3.111   0.999   7.905  1.1064 -0.4771 -0.4973
 7284SOL    HW233486   2.967   0.978   7.886  0.9579  2.1609  1.3558
 7285SOL     OW33487   1.143   4.164   4.872  0.1380 -0.3663  0.4038
 7285SOL    HW133488   1.142   4.233   4.939 -3.7855 -0.4961  0.4979
 7285SOL    HW233489   1.234   4.168   4.843 -0.2035 -0.7982 -0.7254
 7286SOL     OW33490   3.264   3.148   1.539 -0.5591 -0.0716  0.6313
 7286SOL    HW133491   3.327   3.111   1.601 -0.4667  0.4755  0.8635
 7286SOL    HW233492   3.246   3.074   1.482  2.5176  1.1798 -1.9742
 7287SOL     OW33493   1.411   4.119   3.883  0.4650  0.1744  0.7192
 7287SOL    HW133494   1.377   4.183   3.820 -0.4182 -0.3585  0.6588
 7287SOL    HW233495   1.364   4.141   3.963 -2.8472 -0.0105 -1.2006
 7288SOL     OW33496   4.507   0.308   7.430  0.0144 -0.0643  0.3142
 7288SOL    HW133497   4.495   0.236   7.369 -1.3646  0.8103 -0.4448
 7288SOL    HW233498   4.574   0.265   7.483 -0.6437 -0.1210  1.1051
 7289SOL     OW33499   3.874   3.511   4.390  0.2976  0.2689  0.0256
 7289SOL    HW133500   3.801   3.458   4.423  1.3367 -0.9654  0.3786
 7289SOL    HW233501   3.932   3.512   4.467  1.6435 -1.0383 -0.9562
 7290SOL     OW33502   2.426   1.776   4.756  0.2981 -0.0246 -0.6449
 7290SOL    HW133503   2.479   1.728   4.820  1.2309  1.5356 -0.2694
 7290SOL    HW233504   2.472   1.859   4.745  0.1367  0.1373 -0.1062
 7291SOL     OW33505   3.546   3.121   7.867  1.0617 -0.5256 -0.0371
 7291SOL    HW133506   3.523   3.029   7.872 -3.4228  0.6427  0.7051
 7291SOL    HW233507   3.456   3.151   7.878  1.0829  0.2922 -2.0329
 7292SOL     OW33508   3.685   0.374   6.666  0.1027 -0.0983 -0.0557
 7292SOL    HW133509   3.659   0.421   6.586  1.0589  0.3494 -0.1063
 7292SOL    HW233510   3.609   0.402   6.717 -1.3989 -0.2180 -2.2299
 7293SOL     OW33511   3.424   4.264   7.376  0.0089 -0.2862  0.3803
 7293SOL    HW133512   3.414   4.342   7.322  1.4909 -0.4838 -0.1828
 7293SOL    HW233513   3.333   4.242   7.396 -0.3875 -0.0266 -1.1365
 7294SOL     OW33514   4.342   4.352   3.431 -0.2402  0.3483 -0.1527
 7294SOL    HW133515   4.360   4.274   3.377  3.1276 -0.0454  1.5246
 7294SOL    HW233516   4.346   4.304   3.514  2.9186  1.3200  0.2469
 7295SOL     OW33517   0.965   3.469   9.101 -0.5607 -0.7133  0.1169
 7295SOL    HW133518   1.039   3.417   9.070  0.4780  1.8477 -1.7927
 7295SOL    HW233519   0.956   3.537   9.034 -1.4484 -0.4915  0.4659
 7296SOL     OW33520   4.241   4.047   6.771  0.3397  0.0629  0.4135
 7296SOL    HW133521   4.304   4.017   6.837 -0.0658 -2.3541 -0.3105
 7296SOL    HW233522   4.257   4.141   6.787 -0.7260  0.7536 -2.6472
 7297SOL     OW33523   4.424   2.661  11.405 -0.2209  0.0695  0.2210
 7297SOL    HW133524   4.338   2.676  11.364  0.0867 -0.4538 -0.6118
 7297SOL    HW233525   4.482   2.707  11.345  0.2301 -0.6356  0.1201
 7298SOL     OW33526   1.428   1.226   8.358 -0.2265  0.3090 -0.4366
 7298SOL    HW133527   1.513   1.225   8.403  1.4024 -0.5014 -3.5570
 7298SOL    HW233528   1.423   1.131   8.347  3.3440 -0.0202  0.6484
 7299SOL     OW33529   2.796   1.491   9.656  0.3377 -0.2509  1.1169
 7299SOL    HW133530   2.767   1.567   9.707  3.5329  1.4562  0.3945
 7299SOL    HW233531   2.873   1.532   9.616  0.3642 -1.1590  0.2285
 7300SOL     OW33532   2.452   0.079   8.645  0.4789 -0.1515  0.5452
 7300SOL    HW133533   2.469   0.020   8.572 -0.7718 -0.5082  0.5352
 7300SOL    HW233534   2.515   0.051   8.711 -0.4176 -2.3378  0.4586
 7301SOL     OW33535   4.144   4.121   2.374 -0.1240  0.6905  0.0925
 7301SOL    HW133536   4.223   4.099   2.423  0.5005  0.5700 -0.9944
 7301SOL    HW233537   4.168   4.086   2.289  1.0773  2.1822 -0.1765
 7302SOL     OW33538   3.612   0.036   6.899  0.3235 -0.1869 -0.8477
 7302SOL    HW133539   3.696   0.059   6.938 -0.9776  0.5048  1.5713
 7302SOL    HW233540   3.640   0.045   6.808  0.4460  0.7538 -0.7201
 7303SOL     OW33541   0.087   1.801   2.561 -0.2270  0.1255 -0.2670
 7303SOL    HW133542   0.061   1.866   2.496  1.6295  1.0440 -0.0735
 7303SOL    HW233543   0.072   1.855   2.639 -2.1075  0.1484 -0.6331
 7304SOL     OW33544   4.647   1.832   6.216  0.4280  0.2030 -0.0896
 7304SOL    HW133545   4.570   1.818   6.271 -0.4844 -0.5810 -1.5667
 7304SOL    HW233546   4.623   1.809   6.126  2.3337  1.6346 -0.9674
 7305SOL     OW33547   2.217   2.026   1.194 -0.6809 -0.4899  0.2744
 7305SOL    HW133548   2.209   2.122   1.197 -2.5036 -0.5676 -2.2782
 7305SOL    HW233549   2.246   2.004   1.283 -0.2224  0.3040  0.3268
 7306SOL     OW33550   3.136   1.623   2.238  0.1143  0.5055 -0.2690
 7306SOL    HW133551   3.175   1.707   2.213 -0.8073  0.8527 -0.5445
 7306SOL    HW233552   3.202   1.577   2.290  1.1627 -0.5250 -2.4959
 7307SOL     OW33553   0.447   0.330   0.142  0.3986 -0.1516 -0.7448
 7307SOL    HW133554   0.490   0.388   0.205  3.7069 -1.6477 -1.6599
 7307SOL    HW233555   0.505   0.256   0.130 -1.5419 -2.3949  3.7709
 7308SOL     OW33556   3.466   3.905   7.627  0.0249  0.8266  0.0606
 7308SOL    HW133557   3.484   3.992   7.591 -1.1768  0.8317 -0.5147
 7308SOL    HW233558   3.437   3.923   7.717 -0.9722 -1.5877  0.2194
 7309SOL     OW33559   4.026   3.796   7.930  0.1946  0.1392 -0.0199
 7309SOL    HW133560   4.101   3.762   7.880 -0.1009  1.8179 -1.6294
 7309SOL    HW233561   4.066   3.863   7.986 -0.4796  0.6110 -0.0993
 7310SOL     OW33562   3.371   0.506   9.963 -1.1720 -0.6353 -1.1011
 7310SOL    HW133563   3.429   0.495   9.887  0.5423  1.3677 -0.0894
 7310SOL    HW233564   3.424   0.556  10.025 -1.2232 -0.5664 -1.1128
 7311SOL     OW33565   0.537   3.665   0.903  0.1375  0.4302 -0.8294
 7311SOL    HW133566   0.556   3.755   0.875 -3.5046  0.3057 -3.6287
 7311SOL    HW233567   0.472   3.676   0.973  1.8448 -1.2762  1.0247
 7312SOL     OW33568   1.858   2.142  16.504  0.1989  0.3838  0.4359
 7312SOL    HW133569   1.799   2.165  16.432  0.1735 -0.4178  0.2058
 7312SOL    HW233570   1.843   2.212  16.568  0.6698  0.4136  0.5168
 7313SOL     OW33571   0.358   0.936   8.257 -0.2468  0.8342  0.0254
 7313SOL    HW133572   0.434   0.934   8.199 -1.2134 -1.5401 -1.1508
 7313SOL    HW233573   0.365   1.015   8.311 -0.2141  1.0069 -0.2298
 7314SOL     OW33574   0.805   0.795  10.179  0.5993  0.5094  0.2345
 7314SOL    HW133575   0.856   0.727  10.137  0.6791  0.2759  0.7106
 7314SOL    HW233576   0.842   0.874  10.140  2.7274 -0.3402  0.5548
 7315SOL     OW33577   2.370   1.847  16.983 -0.0304 -0.4823 -1.0599
 7315SOL    HW133578   2.310   1.914  16.950 -1.8611 -1.2433  0.7452
 7315SOL    HW233579   2.356   1.772  16.925  0.2050  0.1210 -1.8907
 7316SOL     OW33580   2.232   2.297   2.078  0.0771  0.1054 -0.3331
 7316SOL    HW133581   2.267   2.253   2.002 -0.9131 -0.6009 -0.3823
 7316SOL    HW233582   2.175   2.228   2.114  1.2672 -2.2319 -3.0238
 7317SOL     OW33583   1.987   2.186   9.209 -0.0170 -0.1285  0.1611
 7317SOL    HW133584   2.011   2.248   9.140  0.5676  0.1863  0.6434
 7317SOL    HW233585   1.897   2.168   9.180 -0.4768  0.1805  1.4153
 7318SOL     OW33586   1.980   3.639   7.427  0.0356  0.2517 -0.3901
 7318SOL    HW133587   1.898   3.686   7.440  0.0703  0.6714 -1.7309
 7318SOL    HW233588   1.959   3.565   7.370  0.3616  0.8034 -1.2079
 7319SOL     OW33589   1.620   0.587   4.080  0.4606 -0.6088  0.1187
 7319SOL    HW133590   1.585   0.566   4.166 -0.0865  1.3522  0.3665
 7319SOL    HW233591   1.617   0.502   4.035  1.3120 -1.1726  1.1235
 7320SOL     OW33592   0.210   2.220   2.118 -0.2562 -0.3974 -0.0225
 7320SOL    HW133593   0.170   2.288   2.172 -0.5414  0.7249 -1.6478
 7320SOL    HW233594   0.304   2.221   2.131 -0.0926 -2.4923 -0.9415
 7321SOL     OW33595   0.872   0.243  17.121  0.6224  0.2002  0.4396
 7321SOL    HW133596   0.933   0.213  17.054  0.2575  0.9268 -0.2137
 7321SOL    HW233597   0.821   0.309  17.074  1.4913 -0.5386 -1.5288
 7322SOL     OW33598   3.456   0.124  15.234  0.0613  0.5091  0.5874
 7322SOL    HW133599   3.365   0.155  15.230  0.7461  2.2537 -1.2689
 7322SOL    HW233600   3.476   0.130  15.141  0.7289 -2.5282  0.5117
 7323SOL     OW33601   4.436   4.289   5.958  0.2640  0.0874  0.4012
 7323SOL    HW133602   4.488   4.233   6.015  0.1349  1.3239  1.7420
 7323SOL    HW233603   4.405   4.361   6.012 -2.0833 -1.3446  0.9665
 7324SOL     OW33604   2.679   0.450   7.239  0.1390  0.1673  0.1418
 7324SOL    HW133605   2.647   0.519   7.297 -0.3560  0.0697 -0.0102
 7324SOL    HW233606   2.743   0.404   7.293 -0.9247  0.4775  1.6702
 7325SOL     OW33607   4.390   2.162   5.510 -0.1575  0.7269 -0.2658
 7325SOL    HW133608   4.388   2.210   5.593  0.9655 -0.7793  0.6285
 7325SOL    HW233609   4.296   2.146   5.519 -0.1311  2.2057  2.8828
 7326SOL     OW33610   3.417   1.537   7.592  0.0542 -0.4190 -0.0240
 7326SOL    HW133611   3.331   1.565   7.623 -0.9634 -0.7006 -2.6450
 7326SOL    HW233612   3.429   1.592   7.515 -1.5507  0.6829  0.5159
 7327SOL     OW33613   4.373   2.914   7.834  0.4877  0.0431  0.5694
 7327SOL    HW133614   4.287   2.929   7.872 -0.6224  0.6141 -2.1717
 7327SOL    HW233615   4.412   2.991   7.874  0.8699  0.2109 -0.1279
 7328SOL     OW33616   3.184   4.109   7.303 -0.1585 -0.0526  0.5396
 7328SOL    HW133617   3.135   4.054   7.365 -3.5018  1.6104 -0.6312
 7328SOL    HW233618   3.125   4.184   7.301 -0.2648 -0.2247 -1.8013
 7329SOL     OW33619   2.739   1.379   2.639  0.2014 -0.4541  0.0374
 7329SOL    HW133620   2.706   1.462   2.676  0.4956 -1.0934  1.7270
 7329SOL    HW233621   2.779   1.346   2.720 -1.6766 -2.7037  0.0450
 7330SOL     OW33622   4.532   3.042   9.577 -0.3823 -0.1272  0.4272
 7330SOL    HW133623   4.618   3.082   9.566 -0.0648 -0.9977 -0.2991
 7330SOL    HW233624   4.476   3.117   9.554  0.7789  1.5424  3.0263
 7331SOL     OW33625   3.956   3.069   1.943 -0.9011 -0.0751 -0.3072
 7331SOL    HW133626   3.893   3.071   1.870  0.3529 -1.4805 -1.4306
 7331SOL    HW233627   3.913   3.132   2.001  1.1619 -0.8746  2.0902
 7332SOL     OW33628   2.581   0.881   0.634 -0.4392 -0.2870  0.3107
 7332SOL    HW133629   2.552   0.905   0.546  1.0508 -1.0658 -0.3913
 7332SOL    HW233630   2.506   0.887   0.693  1.2020 -1.7319  2.5281
 7333SOL     OW33631   2.175   3.712   6.413  0.3690 -0.3328 -0.2312
 7333SOL    HW133632   2.168   3.618   6.431 -0.1005 -0.0451  1.0602
 7333SOL    HW233633   2.234   3.745   6.481  1.8478  0.2560 -1.7890
 7334SOL     OW33634   1.682   0.750   8.255 -0.1569 -0.4625 -0.5142
 7334SOL    HW133635   1.623   0.721   8.186 -0.0392  0.8322 -1.1642
 7334SOL    HW233636   1.742   0.675   8.257  0.3768 -0.0480 -1.0398
 7335SOL     OW33637   2.365   4.516   7.450  0.4668  0.1753 -0.0217
 7335SOL    HW133638   2.338   4.512   7.542 -0.1785 -2.0530 -0.3112
 7335SOL    HW233639   2.320   4.438   7.417 -0.7809  0.4773  0.9591
 7336SOL     OW33640   0.762   3.763  15.035  0.1684  0.2274  0.2433
 7336SOL    HW133641   0.823   3.824  15.079  0.1551  1.2525 -1.1591
 7336SOL    HW233642   0.681   3.778  15.083  0.4874  0.2893  0.7704
 7337SOL     OW33643   2.687   2.814   5.155 -0.2685  0.2379  0.2163
 7337SOL    HW133644   2.763   2.872   5.161  0.0091 -0.1522  0.4884
 7337SOL    HW233645   2.615   2.872   5.180 -0.1890 -0.5894  2.4456
 7338SOL     OW33646   0.687   2.682   5.199 -0.0032  0.0919 -0.2217
 7338SOL    HW133647   0.752   2.618   5.228  0.0408  0.0557 -0.3982
 7338SOL    HW233648   0.632   2.637   5.135  0.7764 -1.4916  0.2145
 7339SOL     OW33649   0.361   2.398   7.666 -0.2626 -0.0262 -0.5981
 7339SOL    HW133650   0.344   2.472   7.724 -0.2501  0.2331 -0.9239
 7339SOL    HW233651   0.446   2.427   7.632  0.8029 -2.4564  0.0004
 7340SOL     OW33652   1.372   2.453   6.599 -0.5464  0.0878 -0.1436
 7340SOL    HW133653   1.362   2.542   6.565  1.4300 -0.1634 -1.4078
 7340SOL    HW233654   1.299   2.464   6.660 -0.9391 -0.9790 -0.4196
 7341SOL     OW33655   4.126   1.460   4.979  0.2407  0.1495 -0.2387
 7341SOL    HW133656   4.115   1.410   4.898  2.0128 -0.5312 -0.0614
 7341SOL    HW233657   4.118   1.391   5.044  1.0050 -1.3588 -1.7432
 7342SOL     OW33658   4.418   2.307   6.963 -0.1694  0.4019 -0.1384
 7342SOL    HW133659   4.387   2.237   6.905 -1.2209  0.9798 -0.2900
 7342SOL    HW233660   4.464   2.252   7.025  1.6857  1.1805 -0.8418
 7343SOL     OW33661   0.532   1.328   3.742  0.5868  0.1665 -0.0011
 7343SOL    HW133662   0.561   1.325   3.651 -2.8757  0.5454 -1.1113
 7343SOL    HW233663   0.473   1.403   3.742 -1.9165 -1.7820  0.9694
 7344SOL     OW33664   0.786   1.067   3.786  0.2756  0.1195  0.0668
 7344SOL    HW133665   0.710   1.106   3.743  0.0710 -0.6878 -0.2969
 7344SOL    HW233666   0.750   1.071   3.875 -0.8776  2.9351 -0.5273
 7345SOL     OW33667   2.157   3.623  10.017  1.1849 -0.4345  0.5503
 7345SOL    HW133668   2.211   3.684  10.068  1.2526  2.7351 -3.3282
 7345SOL    HW233669   2.065   3.644  10.035  1.2408  0.6604 -0.4390
 7346SOL     OW33670   4.576   4.652   4.798 -0.1100  0.0305 -0.2138
 7346SOL    HW133671   4.509   4.718   4.780  0.9202  1.4507  1.1645
 7346SOL    HW233672   4.651   4.712   4.800  0.1782 -0.3881  1.5146
 7347SOL     OW33673   3.834   2.424   7.947  0.0396  0.1623  0.1542
 7347SOL    HW133674   3.855   2.418   7.854  1.9086  2.3047  0.4209
 7347SOL    HW233675   3.753   2.374   7.958 -0.7610  0.7354 -3.3262
 7348SOL     OW33676   1.050   4.221   7.259 -0.0221  0.1332  0.4924
 7348SOL    HW133677   1.067   4.314   7.246 -0.3922  0.3206  1.3673
 7348SOL    HW233678   0.976   4.223   7.199 -0.1505  1.0454  0.6774
 7349SOL     OW33679   2.797   4.098   1.711 -0.1297  0.3983 -0.4600
 7349SOL    HW133680   2.761   4.060   1.630  0.1863  0.9026 -0.8382
 7349SOL    HW233681   2.891   4.105   1.698 -0.1381  0.1537 -0.6560
 7350SOL     OW33682   4.323   1.283   2.085  0.5918 -0.2392 -0.3427
 7350SOL    HW133683   4.345   1.291   1.993 -0.5044 -0.3751 -0.6100
 7350SOL    HW233684   4.347   1.370   2.118 -1.1815 -0.0488  0.4421
 7351SOL     OW33685   4.001   1.831  15.528  0.1753  0.2334 -0.1456
 7351SOL    HW133686   4.054   1.804  15.453  1.6078  0.0755  0.9340
 7351SOL    HW233687   4.029   1.752  15.574 -3.2876 -1.1090 -0.3232
 7352SOL     OW33688   3.466   3.103   9.089 -0.0832 -0.6707 -0.1790
 7352SOL    HW133689   3.390   3.160   9.095 -0.3526 -1.0058 -0.3862
 7352SOL    HW233690   3.430   3.021   9.123 -0.4809 -1.0538 -1.5269
 7353SOL     OW33691   2.392   2.330   5.355 -0.1979 -0.5546  0.0648
 7353SOL    HW133692   2.325   2.345   5.421 -1.5437  0.0784 -1.4352
 7353SOL    HW233693   2.356   2.351   5.269  1.1143 -1.5266 -0.7312
 7354SOL     OW33694   2.134   2.982   9.393  0.1571  0.6183 -0.2192
 7354SOL    HW133695   2.176   2.963   9.477  2.9025  1.7142 -1.3360
 7354SOL    HW233696   2.184   2.939   9.324 -3.0258  0.1566 -2.2417
 7355SOL     OW33697   0.058   0.256   3.677 -0.1548  0.2866 -0.1610
 7355SOL    HW133698   0.147   0.284   3.653  0.3833 -2.3311 -1.1790
 7355SOL    HW233699   0.008   0.338   3.677  0.3348  0.5900  0.0769
 7356SOL     OW33700   1.592   1.427   4.268 -0.1084  0.3038  0.3028
 7356SOL    HW133701   1.546   1.446   4.187  2.4636  0.4224 -1.1522
 7356SOL    HW233702   1.637   1.510   4.279 -0.7584  0.8079 -0.8560
 7357SOL     OW33703   1.132   2.585  16.344 -0.3926 -0.0256 -0.0546
 7357SOL    HW133704   1.125   2.627  16.258  0.9947 -0.6133 -0.4520
 7357SOL    HW233705   1.045   2.545  16.347  0.5515 -1.8714  2.3650
 7358SOL     OW33706   1.781   3.840   7.508  0.1220  0.3492  0.4096
 7358SOL    HW133707   1.856   3.899   7.500  0.7298 -0.8110 -2.5255
 7358SOL    HW233708   1.742   3.869   7.590 -0.2016 -0.7417  0.6436
 7359SOL     OW33709   2.109   4.142  17.676 -0.4790  0.3453 -0.4865
 7359SOL    HW133710   2.087   4.184  17.593  3.1198  0.1745 -1.5269
 7359SOL    HW233711   2.037   4.081  17.692 -0.3752  0.5447  0.7443
 7360SOL     OW33712   2.391   4.484   4.190 -0.2062  0.1672  0.6043
 7360SOL    HW133713   2.475   4.529   4.179  0.3790 -0.8992  0.7696
 7360SOL    HW233714   2.372   4.441   4.107  0.0852  0.5309  0.3489
 7361SOL     OW33715   0.723   0.438  12.841 -0.1607 -0.1816 -0.9587
 7361SOL    HW133716   0.796   0.416  12.898  0.1843 -0.5496 -1.5373
 7361SOL    HW233717   0.643   0.445  12.894  0.9300 -0.7648  0.7461
 7362SOL     OW33718   0.329   2.874   0.200  0.2739 -0.1180 -0.4879
 7362SOL    HW133719   0.309   2.836   0.285  0.4572 -1.5598 -1.0913
 7362SOL    HW233720   0.420   2.843   0.195  0.2570 -0.2665  0.1550
 7363SOL     OW33721   0.127   3.642   6.498 -0.1331  0.1804  0.2835
 7363SOL    HW133722   0.094   3.600   6.419  0.9081  0.2462 -0.1805
 7363SOL    HW233723   0.070   3.718   6.507  0.0787  0.3814 -0.0703
 7364SOL     OW33724   4.531   0.443   0.555  0.2663 -0.1732  0.1043
 7364SOL    HW133725   4.483   0.363   0.578  1.4473 -0.4374  1.6480
 7364SOL    HW233726   4.469   0.476   0.490 -0.5041 -0.6925  0.5733
 7365SOL     OW33727   2.525   1.677   0.344  0.0962 -0.0141  0.3742
 7365SOL    HW133728   2.596   1.622   0.378  1.5081  0.7768 -1.3079
 7365SOL    HW233729   2.526   1.645   0.254  2.4933  1.9888 -0.3291
 7366SOL     OW33730   4.555   1.059   9.383 -0.8351 -0.1349 -0.3167
 7366SOL    HW133731   4.556   1.142   9.431 -0.0066  0.5408 -1.5318
 7366SOL    HW233732   4.474   1.070   9.333 -1.0378 -0.1298  0.0098
 7367SOL     OW33733   0.741   3.776   7.869  0.5062 -0.4748 -0.3121
 7367SOL    HW133734   0.663   3.721   7.880  0.8205 -0.7257  0.6583
 7367SOL    HW233735   0.774   3.787   7.958  0.6431  0.5472 -0.4908
 7368SOL     OW33736   2.898   0.117   5.051  0.2184  0.1172 -0.1951
 7368SOL    HW133737   2.898   0.025   5.078 -0.2201  0.5498  1.2925
 7368SOL    HW233738   2.840   0.158   5.116  0.8313  1.5991 -0.5810
 7369SOL     OW33739   1.740   0.286   3.216 -0.0159 -0.3159  0.1874
 7369SOL    HW133740   1.817   0.325   3.174 -1.1542  1.6269 -0.0888
 7369SOL    HW233741   1.670   0.348   3.194  0.7778  0.4081 -0.3217
 7370SOL     OW33742   4.489   1.191  10.785  0.6859  0.3071 -0.0109
 7370SOL    HW133743   4.549   1.202  10.712  1.1394 -1.1853  0.1585
 7370SOL    HW233744   4.456   1.104  10.766  0.5643  0.0355  1.4412
 7371SOL     OW33745   0.812   3.283  11.262  0.3257 -0.3408  0.5962
 7371SOL    HW133746   0.837   3.192  11.276  0.6187 -0.3873 -0.2269
 7371SOL    HW233747   0.895   3.331  11.264 -0.7024  1.5260 -1.2253
 7372SOL     OW33748   4.421   4.615  10.306  0.0453  0.0838  0.6515
 7372SOL    HW133749   4.379   4.690  10.264 -2.5677 -1.9834 -0.3927
 7372SOL    HW233750   4.455   4.651  10.388  0.1660  1.5261 -0.0425
 7373SOL     OW33751   2.394   0.058   3.498  0.1137  0.3501 -0.2076
 7373SOL    HW133752   2.394   4.707   3.451 -3.7907 -0.1875  0.7707
 7373SOL    HW233753   2.489   0.068   3.497  0.2251 -0.5408  3.6310
 7374SOL     OW33754   0.461   4.573  17.596  0.2324  0.3784  0.0077
 7374SOL    HW133755   0.432   4.662  17.577 -0.4389 -0.0857 -1.0651
 7374SOL    HW233756   0.515   4.543  17.523 -1.2233 -3.4504  0.5070
 7375SOL     OW33757   0.663   0.097   4.061  0.4181 -0.5084  0.1702
 7375SOL    HW133758   0.722   0.069   4.131  0.6642  0.6465  0.4172
 7375SOL    HW233759   0.613   0.017   4.043  1.2309 -1.3455  1.5735
 7376SOL     OW33760   2.186   0.417  12.605  0.0922  0.3422 -0.3135
 7376SOL    HW133761   2.230   0.431  12.689 -0.1578  3.0005 -0.6147
 7376SOL    HW233762   2.194   0.323  12.590  0.6083  0.1812  0.9289
 7377SOL     OW33763   2.202   4.508   5.330  0.0063 -0.6766 -0.3963
 7377SOL    HW133764   2.230   4.541   5.416  2.4032 -0.7941 -1.1378
 7377SOL    HW233765   2.211   4.416   5.357  1.7343 -0.1224  0.9394
 7378SOL     OW33766   2.030   1.972  11.855 -0.0185 -0.2526 -1.1205
 7378SOL    HW133767   2.034   1.877  11.849 -0.0944 -0.2514 -1.1885
 7378SOL    HW233768   1.940   1.989  11.826 -0.2928  1.3747  0.6709
 7379SOL     OW33769   3.163   3.743   2.394  0.2489  0.4679  0.9083
 7379SOL    HW133770   3.125   3.786   2.471  0.3813 -0.0493  1.2638
 7379SOL    HW233771   3.224   3.691   2.445 -0.2479 -0.7482  0.2768
 7380SOL     OW33772   0.473   1.016   9.985  0.8706  0.3012  0.2255
 7380SOL    HW133773   0.485   1.103  10.024  0.8412  0.9521 -1.2012
 7380SOL    HW233774   0.493   0.964  10.063 -0.4414 -1.4540 -0.6015
 7381SOL     OW33775   0.191   3.533   5.810 -0.6772  0.0948 -0.0163
 7381SOL    HW133776   0.201   3.439   5.827 -0.2034 -0.2094 -1.9674
 7381SOL    HW233777   0.167   3.526   5.718 -1.5900 -3.4436  0.4806
 7382SOL     OW33778   4.396   4.060  16.946 -0.3154  0.2463  0.1254
 7382SOL    HW133779   4.443   4.043  17.028  0.2711  0.3254 -0.1951
 7382SOL    HW233780   4.398   4.154  16.933 -1.3521  0.0741 -1.3112
 7383SOL     OW33781   4.337   0.053   9.323  0.0784 -0.8286 -0.0740
 7383SOL    HW133782   4.255   0.024   9.283  0.2684  0.4362 -1.4016
 7383SOL    HW233783   4.370   0.132   9.279 -0.7123 -0.1911  0.4747
 7384SOL     OW33784   1.602   2.851   7.071  0.9245  0.8931 -0.1892
 7384SOL    HW133785   1.506   2.849   7.075  0.8980 -1.6407 -2.0482
 7384SOL    HW233786   1.636   2.803   7.146 -1.3330  2.3784  1.8225
 7385SOL     OW33787   2.579   1.920   1.944  0.1249 -0.0781 -0.6745
 7385SOL    HW133788   2.529   1.913   2.026  1.9424  0.8266  0.5113
 7385SOL    HW233789   2.665   1.886   1.972 -0.3305 -0.4277  0.3012
 7386SOL     OW33790   0.424   4.608  15.173 -0.5751 -0.0649  0.1388
 7386SOL    HW133791   0.426   4.703  15.164 -0.5066  0.0635  1.5830
 7386SOL    HW233792   0.406   4.594  15.080  0.3282 -0.4442  0.0222
 7387SOL     OW33793   1.440   3.454   3.352 -0.1663 -0.6874 -0.0179
 7387SOL    HW133794   1.461   3.489   3.439 -0.6669 -2.0483  0.6454
 7387SOL    HW233795   1.504   3.385   3.332  0.0853  1.0035 -4.9061
 7388SOL     OW33796   3.233   2.495  16.677  0.5909  0.7509 -0.1067
 7388SOL    HW133797   3.237   2.590  16.671 -1.9365  0.9831  1.8112
 7388SOL    HW233798   3.143   2.471  16.655  1.3130  1.3928 -3.6352
 7389SOL     OW33799   0.690   0.442  17.727  0.1498 -0.1454 -0.5579
 7389SOL    HW133800   0.671   0.536  17.724  0.2271 -0.0616  1.7357
 7389SOL    HW233801   0.713   0.435   0.089  1.2510  2.3068 -0.6333
 7390SOL     OW33802   1.312   1.817   3.733 -0.3349 -0.9407  0.3028
 7390SOL    HW133803   1.249   1.762   3.780 -2.1819  1.0541  0.1288
 7390SOL    HW233804   1.392   1.764   3.735 -1.9779 -3.3963  1.1154
 7391SOL     OW33805   2.697   1.069  15.303 -0.2552 -0.2619 -0.6313
 7391SOL    HW133806   2.668   1.148  15.348  0.2306  0.8437 -2.2596
 7391SOL    HW233807   2.766   1.040  15.363 -1.9961  0.5301  1.7268
 7392SOL     OW33808   0.352   3.561  16.208  0.4896 -0.3158  0.5492
 7392SOL    HW133809   0.321   3.583  16.120  0.6169  2.0662  1.0968
 7392SOL    HW233810   0.302   3.480  16.199  2.0745 -1.2248 -0.0281
 7393SOL     OW33811   2.383   0.936   9.540  0.2688 -0.0430 -0.2441
 7393SOL    HW133812   2.308   0.942   9.480  0.2653  0.1876 -0.2172
 7393SOL    HW233813   2.406   0.844   9.533  0.6682 -0.0320  0.8609
 7394SOL     OW33814   2.976   3.078  13.576  0.3639  0.3558  0.7567
 7394SOL    HW133815   2.947   3.105  13.489  3.8681  2.1204  0.1135
 7394SOL    HW233816   3.042   3.147  13.586 -0.3837  1.1415  0.2669
 7395SOL     OW33817   1.128   3.987   7.496  0.3733 -0.3086  0.4126
 7395SOL    HW133818   1.181   3.997   7.416  2.0421 -0.7684  1.4629
 7395SOL    HW233819   1.047   4.030   7.470 -0.0783 -1.1681  0.4028
 7396SOL     OW33820   2.148   4.609   3.193 -0.3307  0.8388  0.5854
 7396SOL    HW133821   2.113   4.696   3.175  0.2902  1.0711  0.5015
 7396SOL    HW233822   2.129   4.565   3.110 -0.8130 -2.2575  2.3285
 7397SOL     OW33823   4.056   3.054   8.295 -0.1169  0.3956  0.3272
 7397SOL    HW133824   4.062   3.149   8.296  0.0435  0.3990 -1.8175
 7397SOL    HW233825   3.984   3.053   8.232  0.2304  1.1940 -0.0732
 7398SOL     OW33826   0.566   1.242   8.215 -0.0830  0.5292 -0.3000
 7398SOL    HW133827   0.503   1.199   8.272  1.3345 -2.5975 -1.0865
 7398SOL    HW233828   0.623   1.167   8.195  1.4062  2.0463 -1.7797
 7399SOL     OW33829   1.172   4.124  17.091  0.5565 -0.0633 -0.2703
 7399SOL    HW133830   1.223   4.126  17.010 -0.9278 -1.4993 -1.2533
 7399SOL    HW233831   1.173   4.219  17.104  0.5670  0.1732 -1.9705
 7400SOL     OW33832   0.463   4.508   3.855 -0.1392 -0.3205 -0.4890
 7400SOL    HW133833   0.540   4.465   3.818 -0.2307 -2.2596  1.5923
 7400SOL    HW233834   0.490   4.520   3.946 -0.5686  0.5655 -0.4791
 7401SOL     OW33835   4.439   3.866   5.397  0.1842 -0.0203 -0.3902
 7401SOL    HW133836   4.402   3.805   5.333 -1.5077 -0.3186  0.8419
 7401SOL    HW233837   4.362   3.892   5.448 -0.7166  0.7445 -2.1374
 7402SOL     OW33838   0.050   0.921  15.482 -0.2335  0.0052 -0.5631
 7402SOL    HW133839   0.091   0.956  15.561  0.1532  1.2968 -1.3244
 7402SOL    HW233840   4.700   0.968  15.473  0.3309  1.0286 -0.4982
 7403SOL     OW33841   0.964   2.805   0.017  0.1553  0.0369 -0.1877
 7403SOL    HW133842   0.875   2.792  17.714  0.9841 -2.8051 -1.3574
 7403SOL    HW233843   0.996   2.717  17.728 -0.1718 -0.2026  0.3978
 7404SOL     OW33844   2.254   1.128   2.196 -0.2170  0.2422  0.0923
 7404SOL    HW133845   2.226   1.204   2.145  0.8184  0.6700  0.1505
 7404SOL    HW233846   2.319   1.164   2.256 -0.3415 -1.6861  1.4043
 7405SOL     OW33847   0.590   0.508   7.529  0.8489  0.6413 -0.4591
 7405SOL    HW133848   0.657   0.450   7.565 -0.0919  0.2176  0.6506
 7405SOL    HW233849   0.507   0.473   7.563  2.0356  0.1777  2.0069
 7406SOL     OW33850   1.839   4.100   9.280 -0.6507  0.3320 -0.0244
 7406SOL    HW133851   1.745   4.120   9.278 -0.6690  0.3356  0.7676
 7406SOL    HW233852   1.851   4.058   9.365  0.0060 -1.3050 -0.9077
 7407SOL     OW33853   3.013   3.370  11.614  0.2477 -0.0551  0.4237
 7407SOL    HW133854   2.958   3.294  11.631  0.8866 -0.5125  0.4345
 7407SOL    HW233855   2.957   3.437  11.653  1.4214  2.9376 -3.0503
 7408SOL     OW33856   4.162   2.271   0.499  0.0722  0.0178 -0.2878
 7408SOL    HW133857   4.194   2.344   0.447 -0.5798 -1.1367 -2.2994
 7408SOL    HW233858   4.090   2.308   0.551 -0.1484 -2.4289  1.1652
 7409SOL     OW33859   3.861   3.620   3.745  0.3030 -0.1735 -0.1377
 7409SOL    HW133860   3.819   3.692   3.699 -2.3355  0.9574  4.1594
 7409SOL    HW233861   3.818   3.545   3.704  1.1151  0.8121 -2.7969
 7410SOL     OW33862   0.468   0.201   2.405 -0.2740 -0.2418  0.4799
 7410SOL    HW133863   0.458   0.293   2.429  0.0045 -0.6103  2.0377
 7410SOL    HW233864   0.553   0.195   2.361 -0.5027  0.8795 -0.1006
 7411SOL     OW33865   2.959   2.086   1.984 -0.0293  0.2547  0.5269
 7411SOL    HW133866   2.932   2.120   1.898  0.5342 -2.0532 -0.5596
 7411SOL    HW233867   2.998   2.165   2.022  0.0651  0.4018  0.1275
 7412SOL     OW33868   1.468   0.966  17.452 -0.1144  0.2200  0.1463
 7412SOL    HW133869   1.433   0.879  17.474 -1.8198  0.8535 -0.0533
 7412SOL    HW233870   1.551   0.938  17.413  1.0785  1.5998  1.6805
 7413SOL     OW33871   2.395   1.026   8.650  0.4131 -0.6850  0.4523
 7413SOL    HW133872   2.358   0.973   8.721 -2.1259  2.1422  1.2564
 7413SOL    HW233873   2.423   1.104   8.697 -3.6968  0.3385  1.2679
 7414SOL     OW33874   3.403   3.723   3.041  0.0782  0.5087 -0.2792
 7414SOL    HW133875   3.492   3.757   3.032  0.7179 -1.2158 -0.3732
 7414SOL    HW233876   3.412   3.660   3.113 -1.1169  1.9740  1.1770
 7415SOL     OW33877   1.081   4.351   5.096 -0.0457 -0.2379  0.1895
 7415SOL    HW133878   1.040   4.319   5.176 -0.8532 -0.3228 -0.2600
 7415SOL    HW233879   1.049   4.441   5.096 -3.3034 -1.4243 -0.9462
 7416SOL     OW33880   1.848   0.518  13.656 -0.7582  0.2500 -0.4973
 7416SOL    HW133881   1.859   0.522  13.561  2.9920 -0.3450 -0.0822
 7416SOL    HW233882   1.756   0.542  13.663 -0.4672  1.5678 -1.2538
 7417SOL     OW33883   1.203   1.906  14.496 -0.0018  0.6689 -0.4535
 7417SOL    HW133884   1.137   1.846  14.461 -1.2547  2.9908 -2.0874
 7417SOL    HW233885   1.207   1.966  14.421  2.0348  0.0077 -0.8743
 7418SOL     OW33886   3.304   0.854   7.413 -0.1227  0.3342  0.4027
 7418SOL    HW133887   3.332   0.930   7.464 -1.4008 -0.0329  1.6597
 7418SOL    HW233888   3.363   0.784   7.440 -1.7150 -1.2410 -0.2070
 7419SOL     OW33889   2.921   2.009   2.281 -0.3369  0.0598  0.2598
 7419SOL    HW133890   2.931   1.992   2.187 -0.1368 -1.2509  0.5060
 7419SOL    HW233891   2.829   1.983   2.290 -0.4056  0.3632  0.4037
 7420SOL     OW33892   2.852   2.483   5.961 -0.7346 -0.4010 -0.2584
 7420SOL    HW133893   2.908   2.408   5.939 -0.8385 -0.5464 -0.0267
 7420SOL    HW233894   2.917   2.550   5.979 -0.5407 -0.9510  1.0989
 7421SOL     OW33895   4.308   0.125   4.105  0.1348  0.6775  0.0247
 7421SOL    HW133896   4.384   0.156   4.056  0.1590  0.5204 -0.0394
 7421SOL    HW233897   4.306   0.035   4.073  3.1633  0.3083  0.8332
 7422SOL     OW33898   1.699   0.762   5.214 -0.0255 -0.5011  0.2559
 7422SOL    HW133899   1.692   0.850   5.178 -1.0849 -1.2389 -1.3349
 7422SOL    HW233900   1.771   0.734   5.156  1.8332 -0.4663  2.5196
 7423SOL     OW33901   4.578   4.433   7.454  0.5207 -0.0266 -0.0778
 7423SOL    HW133902   4.579   4.433   7.358  2.4828  0.4632 -0.0622
 7423SOL    HW233903   4.581   4.342   7.485  1.6092  0.2362  0.5869
 7424SOL     OW33904   1.339   4.148   5.169  0.5066 -0.1038 -0.0430
 7424SOL    HW133905   1.377   4.215   5.112  0.0178 -1.1065 -1.5434
 7424SOL    HW233906   1.335   4.194   5.252  0.3400 -0.0655 -0.0734
 7425SOL     OW33907   2.496   0.612   7.392 -0.3462  0.4143 -0.7216
 7425SOL    HW133908   2.521   0.704   7.387 -1.5423  0.7255 -0.8551
 7425SOL    HW233909   2.403   0.603   7.372 -0.5505 -1.3955  1.0303
 7426SOL     OW33910   4.185   3.607   7.745 -0.0270 -0.3042 -0.1433
 7426SOL    HW133911   4.092   3.593   7.762 -0.2058  2.0093  0.7279
 7426SOL    HW233912   4.222   3.534   7.795 -1.8123 -0.1710  1.3927
 7427SOL     OW33913   0.447   4.060   1.039  0.1735 -0.5374  0.0912
 7427SOL    HW133914   0.540   4.039   1.053  0.0682 -0.0536  1.4469
 7427SOL    HW233915   0.418   4.107   1.117 -2.6243 -0.9321 -0.6991
 7428SOL     OW33916   2.869   2.315  10.385 -0.0439  0.2286 -0.6410
 7428SOL    HW133917   2.774   2.316  10.397  0.0301  0.6639 -0.0754
 7428SOL    HW233918   2.888   2.237  10.437 -1.6219 -0.1187 -0.5954
 7429SOL     OW33919   3.062   1.750   4.382  0.5008  0.6732  0.8212
 7429SOL    HW133920   3.039   1.695   4.308  0.2682  1.2142  0.4904
 7429SOL    HW233921   3.000   1.822   4.371 -0.3671  0.0324  1.5005
 7430SOL     OW33922   0.831   4.498  11.378 -0.0640 -0.0135 -0.2157
 7430SOL    HW133923   0.915   4.542  11.390  0.1115  0.3970 -3.0136
 7430SOL    HW233924   0.854   4.426  11.436  1.5710 -0.5751 -1.5727
 7431SOL     OW33925   3.354   2.481  11.379  0.2604 -0.0466  0.1281
 7431SOL    HW133926   3.394   2.462  11.294  3.4230 -0.0460  1.6304
 7431SOL    HW233927   3.367   2.575  11.392  1.0342 -0.1306 -0.0458
 7432SOL     OW33928   2.096   0.176   6.586 -0.3743  0.5829 -0.2685
 7432SOL    HW133929   2.154   0.134   6.523  1.5639 -0.5785  2.3059
 7432SOL    HW233930   2.065   0.099   6.633  1.3277  0.7861  1.1588
 7433SOL     OW33931   1.587   2.650  17.500  0.5039  0.4457 -0.1958
 7433SOL    HW133932   1.679   2.624  17.493 -0.0982 -1.5552 -0.5886
 7433SOL    HW233933   1.572   2.697  17.418 -0.2788  0.6308  0.0506
 7434SOL     OW33934   3.839   2.275  13.877  0.1343  0.1488 -0.3432
 7434SOL    HW133935   3.761   2.314  13.916  0.1105 -0.1136 -0.1288
 7434SOL    HW233936   3.902   2.282  13.948 -0.7191 -2.7808  0.7159
 7435SOL     OW33937   2.019   3.171   1.701 -0.4422 -0.8871 -0.3657
 7435SOL    HW133938   2.054   3.246   1.751  0.4252 -2.4024  1.3092
 7435SOL    HW233939   2.015   3.103   1.768  0.2666 -1.6613 -1.1214
 7436SOL     OW33940   0.647   0.476  10.125  0.5410 -0.3637  0.1464
 7436SOL    HW133941   0.574   0.418  10.104  0.6154 -0.9837  1.6108
 7436SOL    HW233942   0.718   0.413  10.133  0.3175 -0.6532 -0.1581
 7437SOL     OW33943   3.314   0.303   0.733 -0.3191  0.3244 -0.1322
 7437SOL    HW133944   3.293   0.268   0.820  1.7631  3.0353  1.4357
 7437SOL    HW233945   3.268   0.386   0.742  3.2533  2.1566  1.3805
 7438SOL     OW33946   4.076   0.443   5.915  0.0743 -0.1045  0.0153
 7438SOL    HW133947   4.074   0.535   5.890 -2.7433 -0.4580 -1.0356
 7438SOL    HW233948   4.145   0.422   5.852  2.0545 -0.2125  2.1913
 7439SOL     OW33949   2.779   2.379   4.459  0.1102 -0.0761  0.0707
 7439SOL    HW133950   2.839   2.452   4.474  1.7301 -2.0962  3.4533
 7439SOL    HW233951   2.710   2.434   4.423  0.0709 -0.6499 -0.7359
 7440SOL     OW33952   2.637   0.101   3.108 -0.8397  0.2455  0.0209
 7440SOL    HW133953   2.721   0.080   3.149 -0.3262 -1.8933 -2.1087
 7440SOL    HW233954   2.617   0.019   3.063 -0.6731  0.5022 -0.5286
 7441SOL     OW33955   3.928   1.050   9.291  0.2395  0.9421 -0.0300
 7441SOL    HW133956   3.865   0.980   9.307  1.6260  0.1034  1.7702
 7441SOL    HW233957   3.916   1.093   9.375  0.2631  0.1950  0.3510
 7442SOL     OW33958   1.320   3.127   5.605 -0.1343 -0.1117  0.0000
 7442SOL    HW133959   1.279   3.203   5.566  0.3881 -0.5352 -1.3650
 7442SOL    HW233960   1.401   3.124   5.553  0.1947 -0.6799  0.5417
 7443SOL     OW33961   0.643   2.299   1.747 -0.0271 -0.1561  0.2015
 7443SOL    HW133962   0.646   2.369   1.811 -0.1143 -1.1546  1.3094
 7443SOL    HW233963   0.691   2.340   1.676  0.4309 -1.1376 -0.0632
 7444SOL     OW33964   2.850   2.063  10.518  0.3330 -0.9101  0.1014
 7444SOL    HW133965   2.925   2.101  10.563 -1.1505 -0.3055  2.0886
 7444SOL    HW233966   2.838   1.987  10.574  0.2918 -0.9002  0.1065
 7445SOL     OW33967   4.024   0.996   7.422  0.3441  0.2797 -0.2201
 7445SOL    HW133968   4.058   0.919   7.468  1.3182  0.2959 -0.9094
 7445SOL    HW233969   4.012   0.959   7.335 -1.5428  0.1850  0.0780
 7446SOL     OW33970   0.437   0.394   6.286 -0.1117  0.3996  0.0461
 7446SOL    HW133971   0.431   0.326   6.353 -2.0441  0.8997  0.3733
 7446SOL    HW233972   0.366   0.453   6.311 -0.0609 -0.1652  1.4944
 7447SOL     OW33973   0.865   1.731   5.513 -0.1702  0.1016  0.3612
 7447SOL    HW133974   0.943   1.693   5.555 -2.0593  1.5575  5.1816
 7447SOL    HW233975   0.797   1.698   5.572  0.7076 -0.3126  1.1601
 7448SOL     OW33976   3.628   2.612   4.788 -0.1745 -0.8358 -0.2871
 7448SOL    HW133977   3.589   2.584   4.706  1.8967 -2.8550 -0.5701
 7448SOL    HW233978   3.707   2.641   4.743  0.6100  0.2281  1.7550
 7449SOL     OW33979   0.680   1.913   4.909 -0.4176  0.4076 -0.0409
 7449SOL    HW133980   0.613   1.902   4.976  0.5550  2.2765  1.2187
 7449SOL    HW233981   0.741   1.975   4.948 -0.1515  0.0988  0.0378
 7450SOL     OW33982   3.882   1.323  13.076  0.3113  0.3537  0.4774
 7450SOL    HW133983   3.931   1.247  13.044  2.4977  2.3870 -1.0161
 7450SOL    HW233984   3.804   1.315  13.021  0.1940  3.0209  0.2317
 7451SOL     OW33985   0.907   1.729  17.137 -0.2999 -0.0149 -0.2305
 7451SOL    HW133986   0.882   1.639  17.157  0.5781 -0.5214 -1.4085
 7451SOL    HW233987   0.823   1.771  17.153 -0.9033 -1.7087  1.0027
 7452SOL     OW33988   4.523   3.266   4.196 -0.0811 -0.1642  0.1000
 7452SOL    HW133989   4.430   3.284   4.186 -0.3458 -1.5721  0.0948
 7452SOL    HW233990   4.519   3.198   4.264  0.2405 -1.6271 -1.3451
 7453SOL     OW33991   2.071   4.358  10.494  0.4624  0.0881 -0.4800
 7453SOL    HW133992   2.027   4.301  10.557 -1.5786  3.7005  1.3590
 7453SOL    HW233993   2.156   4.362  10.537  0.3221  0.0138 -0.1996
 7454SOL     OW33994   0.520   2.540   5.486  0.1539 -0.2593  0.5456
 7454SOL    HW133995   0.519   2.497   5.400  0.9412 -1.3830  1.1013
 7454SOL    HW233996   0.479   2.625   5.469 -1.4211 -0.9682  0.8207
 7455SOL     OW33997   0.019   1.146   2.518 -0.4638  0.0458 -0.0934
 7455SOL    HW133998   4.726   1.206   2.447 -3.5303 -1.8741 -0.6068
 7455SOL    HW233999   0.075   1.080   2.475  1.9427  1.0565  1.4990
 7456SOL     OW34000   0.374   4.578  16.493  0.1822 -0.1921  0.1709
 7456SOL    HW134001   0.355   4.491  16.527 -0.5133  0.0677  0.4334
 7456SOL    HW234002   0.434   4.609  16.561  1.1828 -0.1721 -0.7159
 7457SOL     OW34003   4.536   0.646   5.243 -0.2554 -0.0258  0.2615
 7457SOL    HW134004   4.453   0.603   5.226 -1.2414  1.7970  0.5042
 7457SOL    HW234005   4.591   0.568   5.236 -1.7397 -0.7710 -2.7983
 7458SOL     OW34006   0.740   0.889   6.783 -0.1975  0.1593  0.7527
 7458SOL    HW134007   0.818   0.901   6.837 -0.4409 -0.0022  1.1321
 7458SOL    HW234008   0.749   0.967   6.727 -2.3112  0.9430  1.5213
 7459SOL     OW34009   3.955   4.463   2.229  0.2194  0.1054  0.6432
 7459SOL    HW134010   3.934   4.440   2.139  0.1610  0.3119  0.6044
 7459SOL    HW234011   4.014   4.537   2.220 -0.7147  0.5529 -1.7591
 7460SOL     OW34012   4.234   2.118   6.366 -0.1502 -0.2483 -0.0528
 7460SOL    HW134013   4.199   2.207   6.357 -2.0953 -0.9084  0.9521
 7460SOL    HW234014   4.225   2.090   6.275 -0.0781  0.1354 -0.1814
 7461SOL     OW34015   2.844   3.601   6.559  0.1151  0.1078 -0.7730
 7461SOL    HW134016   2.912   3.602   6.492  0.1748 -2.7375 -0.7777
 7461SOL    HW234017   2.872   3.673   6.615  1.1581 -0.2312 -0.8562
 7462SOL     OW34018   3.561   2.821   2.839 -0.3608  0.3892 -0.7376
 7462SOL    HW134019   3.600   2.795   2.755  0.1048  0.4688 -0.5450
 7462SOL    HW234020   3.619   2.894   2.860 -0.0296 -0.1495  0.2213
 7463SOL     OW34021   3.118   0.497   7.392 -0.8721  0.3018 -0.1606
 7463SOL    HW134022   3.190   0.554   7.420 -0.0766 -0.9856  0.3991
 7463SOL    HW234023   3.052   0.524   7.455  0.8569  1.3803  1.2136
 7464SOL     OW34024   0.493   2.389   0.384  0.0853 -0.3552  0.7981
 7464SOL    HW134025   0.488   2.446   0.461 -0.2167  0.1344  0.4178
 7464SOL    HW234026   0.575   2.342   0.400  0.1868 -0.3832  0.2187
 7465SOL     OW34027   1.224   1.879  15.544 -0.4950  0.2952  0.2092
 7465SOL    HW134028   1.260   1.937  15.477  1.5349 -1.0155  0.1700
 7465SOL    HW234029   1.203   1.950  15.605  0.9836  0.3930  0.6103
 7466SOL     OW34030   2.712   1.719   4.574 -0.0443 -0.0076  0.6507
 7466SOL    HW134031   2.647   1.676   4.518  1.1783  1.1450 -1.6658
 7466SOL    HW234032   2.668   1.803   4.587  1.7819  1.0156  0.1314
 7467SOL     OW34033   1.341   0.474  14.904  0.0583  0.6037 -0.3856
 7467SOL    HW134034   1.337   0.568  14.891 -0.4047  1.0989  3.3602
 7467SOL    HW234035   1.350   0.446  14.813 -1.4714  1.4600 -0.7957
 7468SOL     OW34036   1.081   0.225  12.563 -0.1867  0.2892 -0.2463
 7468SOL    HW134037   1.117   0.310  12.588 -1.1514  0.2215  1.3889
 7468SOL    HW234038   0.992   0.235  12.596  0.4254 -1.0355  1.8485
 7469SOL     OW34039   0.083   0.074   8.049  0.1027  0.3706  0.4856
 7469SOL    HW134040   0.093   0.169   8.056 -0.8970  0.6273 -1.7471
 7469SOL    HW234041   4.720   0.068   8.050  0.1876 -1.0308  1.3825
 7470SOL     OW34042   2.384   0.979   7.646  0.2188 -0.2179 -0.0502
 7470SOL    HW134043   2.351   1.008   7.561  0.6668  0.5890  0.0596
 7470SOL    HW234044   2.356   0.887   7.647  0.7145 -0.3672 -0.0698
 7471SOL     OW34045   3.682   0.287   7.171  0.2886  0.4168  0.2534
 7471SOL    HW134046   3.723   0.315   7.252 -1.7547  0.4345  1.2792
 7471SOL    HW234047   3.707   0.361   7.115 -0.3052  0.1153 -0.4066
 7472SOL     OW34048   0.122   4.122   5.683  0.5150 -0.0352 -0.0418
 7472SOL    HW134049   0.109   4.028   5.672  0.1448  0.2417 -1.9934
 7472SOL    HW234050   0.210   4.132   5.720 -0.4471  3.3905  1.3025
 7473SOL     OW34051   1.109   0.941  11.268 -0.7969 -0.2397 -0.0577
 7473SOL    HW134052   1.127   0.865  11.324  2.0750  0.5399  0.0592
 7473SOL    HW234053   1.152   0.914  11.187  0.6425 -1.0969  0.9915
 7474SOL     OW34054   3.587   2.988   8.349 -0.3041 -0.5793  0.0327
 7474SOL    HW134055   3.639   3.058   8.310 -1.0643 -1.4153 -2.4949
 7474SOL    HW234056   3.523   3.040   8.398  0.9511 -1.1968  2.2775
 7475SOL     OW34057   2.686   4.479   1.951  0.1928  0.3099  0.0175
 7475SOL    HW134058   2.593   4.461   1.959  0.0002  0.5427 -1.8195
 7475SOL    HW234059   2.740   4.406   1.983  1.8729  2.1549  1.4112
 7476SOL     OW34060   1.773   2.403  17.412 -0.2212  0.3908 -0.1844
 7476SOL    HW134061   1.798   2.322  17.457 -2.3654  0.8066  1.7934
 7476SOL    HW234062   1.781   2.469  17.481  1.3640  0.0636 -0.0678
 7477SOL     OW34063   0.266   4.452   6.264 -0.5518 -0.0751 -0.0421
 7477SOL    HW134064   0.198   4.507   6.304 -1.3190 -0.4451 -0.8451
 7477SOL    HW234065   0.346   4.494   6.295 -0.5993 -0.6866  0.9073
 7478SOL     OW34066   4.317   1.272  11.730  0.5930  0.5703  0.1361
 7478SOL    HW134067   4.327   1.324  11.810 -0.3106  1.5015 -0.3547
 7478SOL    HW234068   4.318   1.346  11.669 -2.9213 -2.9047 -4.1497
 7479SOL     OW34069   2.164   0.952  14.019 -0.0915 -0.5373  0.3856
 7479SOL    HW134070   2.141   1.014  14.088 -0.0206  0.4139 -0.4386
 7479SOL    HW234071   2.237   0.990  13.970 -0.3430  1.1202  1.3100
 7480SOL     OW34072   0.171   3.048   3.197  0.0559 -0.3614 -0.4800
 7480SOL    HW134073   0.243   3.067   3.137  0.4197 -1.3179 -0.3603
 7480SOL    HW234074   0.193   3.108   3.268 -1.0736 -0.2569 -0.2163
 7481SOL     OW34075   3.801   3.696   8.041 -0.1281 -0.3831  0.4210
 7481SOL    HW134076   3.835   3.625   8.096 -0.8726 -0.2005  1.1251
 7481SOL    HW234077   3.881   3.747   8.028 -1.4558  1.8855  1.1037
 7482SOL     OW34078   0.797   3.999   1.369 -0.1278  0.4699  0.0626
 7482SOL    HW134079   0.786   4.064   1.300  2.7963  1.8328  0.8972
 7482SOL    HW234080   0.829   3.921   1.323  0.8352 -0.0662  1.6303
 7483SOL     OW34081   3.738   3.275   7.936  0.4470 -0.3040 -0.1952
 7483SOL    HW134082   3.674   3.210   7.909 -0.5555  0.3936  0.5182
 7483SOL    HW234083   3.813   3.254   7.880  0.0859  0.5436 -1.0059
 7484SOL     OW34084   3.563   0.210   0.750  0.2471  0.1703  0.0259
 7484SOL    HW134085   3.477   0.242   0.724  0.4718 -0.2058 -1.1631
 7484SOL    HW234086   3.545   0.147   0.819  1.0504  2.0255  1.9384
 7485SOL     OW34087   4.119   1.017   6.019 -0.3680 -0.3348  0.3613
 7485SOL    HW134088   4.214   1.022   6.011 -0.9162  2.0449 -4.1305
 7485SOL    HW234089   4.101   1.106   5.989  1.0571  0.6097  2.2938
 7486SOL     OW34090   0.189   2.483   8.613 -0.7890  0.4877  0.0071
 7486SOL    HW134091   0.168   2.396   8.579  1.5163  0.2116 -0.6848
 7486SOL    HW234092   0.257   2.458   8.674 -0.3916 -0.8255 -0.9742
 7487SOL     OW34093   4.682   2.687   7.844 -0.4592 -0.1751  0.8132
 7487SOL    HW134094   4.656   2.648   7.760 -0.5865 -1.5341  1.4894
 7487SOL    HW234095   4.627   2.765   7.851  1.0065  1.2011 -2.7810
 7488SOL     OW34096   1.394   1.201   4.260  0.3139 -0.5825  0.1804
 7488SOL    HW134097   1.473   1.198   4.206  1.1992  0.4390  1.4113
 7488SOL    HW234098   1.353   1.118   4.235 -0.6187  0.5509 -2.0323
 7489SOL     OW34099   2.864   2.136   4.545 -0.1918 -0.1437  0.1700
 7489SOL    HW134100   2.800   2.203   4.522 -0.0649 -0.1821 -0.2804
 7489SOL    HW234101   2.892   2.174   4.629  0.0182  0.3554 -0.1293
 7490SOL     OW34102   1.003   2.988   4.454  0.0405  0.9129 -0.5049
 7490SOL    HW134103   0.930   2.951   4.404 -0.4858  1.4381 -0.1184
 7490SOL    HW234104   1.079   2.940   4.420 -0.2288  0.0113  0.1452
 7491SOL     OW34105   4.224   3.079   7.604 -0.3735  0.5560  0.3419
 7491SOL    HW134106   4.172   3.099   7.526  1.6062  0.4383 -0.9820
 7491SOL    HW234107   4.297   3.140   7.597  0.1445 -0.0391  0.5209
 7492SOL     OW34108   2.616   0.926   7.017 -0.9287  0.0523 -0.3537
 7492SOL    HW134109   2.585   0.959   6.932 -2.6960 -1.8037 -0.4235
 7492SOL    HW234110   2.670   0.998   7.051 -1.0370  0.8686 -1.9073
 7493SOL     OW34111   4.085   4.619   9.573 -0.6172  0.8886 -0.4080
 7493SOL    HW134112   4.056   4.535   9.537 -2.1891  2.2797 -2.4124
 7493SOL    HW234113   4.144   4.594   9.644 -0.6113  0.0281 -0.7232
 7494SOL     OW34114   0.510   3.684   0.086 -0.2012  0.4445 -0.3126
 7494SOL    HW134115   0.534   3.776   0.091 -2.2554  0.8766  1.7389
 7494SOL    HW234116   0.427   3.688   0.037 -0.2384 -1.4794 -0.4170
 7495SOL     OW34117   1.026   3.531  16.476  0.4320 -0.2567 -0.1138
 7495SOL    HW134118   0.977   3.490  16.548 -1.7942 -1.8055 -2.5338
 7495SOL    HW234119   1.086   3.585  16.529  0.8343  1.2618 -2.1417
 7496SOL     OW34120   4.126   2.276   6.733  0.4370 -0.4026  0.0403
 7496SOL    HW134121   4.119   2.319   6.818 -1.2845 -0.6712  0.0340
 7496SOL    HW234122   4.209   2.230   6.737  0.6942 -0.1130 -1.8061
 7497SOL     OW34123   0.067   4.273   3.387 -0.4853 -0.3009  0.1248
 7497SOL    HW134124   4.731   4.237   3.444 -0.5348 -0.0187  0.2439
 7497SOL    HW234125   0.131   4.202   3.375 -0.2776 -0.0670 -0.1378
 7498SOL     OW34126   3.159   2.481   5.013  0.1321  0.2010 -0.4587
 7498SOL    HW134127   3.193   2.395   4.986  0.9896 -0.8011  3.8259
 7498SOL    HW234128   3.068   2.470   5.043  0.8529 -0.5779  1.4186
 7499SOL     OW34129   2.713   1.400   0.029  0.4024  0.5071  0.1815
 7499SOL    HW134130   2.624   1.368   0.036  0.6629 -0.2251  0.1030
 7499SOL    HW234131   2.763   1.323   0.055  0.2273  0.7848  1.3235
 7500SOL     OW34132   4.302   0.077  10.140  0.0584  0.3080  0.4665
 7500SOL    HW134133   4.297   0.167  10.171  0.2932  0.5724 -0.2452
 7500SOL    HW234134   4.215   0.042  10.157  1.1105 -2.3422  0.3867
 7501SOL     OW34135   4.216   2.146   2.121  0.0029 -0.2298 -0.0201
 7501SOL    HW134136   4.285   2.106   2.174 -1.0182  0.3851  1.7686
 7501SOL    HW234137   4.218   2.081   2.051 -0.7291 -1.0438  0.7095
 7502SOL     OW34138   3.506   3.997   3.093  0.0904 -0.1770 -0.1672
 7502SOL    HW134139   3.583   4.029   3.140 -0.0682 -2.5353  1.6593
 7502SOL    HW234140   3.537   3.995   3.002  1.7398 -1.1806  0.4303
 7503SOL     OW34141   4.413   0.515   4.204 -0.1592  0.6008  0.3538
 7503SOL    HW134142   4.480   0.584   4.209 -0.2413  0.8055 -1.2379
 7503SOL    HW234143   4.437   0.487   4.292 -0.3180 -2.1366 -0.4897
 7504SOL     OW34144   1.744   3.818   9.717 -0.1617  0.0075  0.0985
 7504SOL    HW134145   1.806   3.882   9.683  0.3305 -0.2136  0.5673
 7504SOL    HW234146   1.680   3.813   9.647  0.2045 -1.4955 -0.1335
 7505SOL     OW34147   1.165   3.112   6.991 -0.3875  0.1540 -0.0338
 7505SOL    HW134148   1.147   3.022   6.962 -1.5280  0.3440  0.1054
 7505SOL    HW234149   1.118   3.160   6.923  0.8907 -0.8306 -1.6186
 7506SOL     OW34150   4.481   1.400  10.950 -0.3969  0.0440 -0.0032
 7506SOL    HW134151   4.493   1.371  11.040 -0.8346 -0.6979 -0.1793
 7506SOL    HW234152   4.489   1.320  10.897 -2.0206  0.6416 -1.1517
 7507SOL     OW34153   0.439   3.438  11.197 -0.0664  0.6533  0.8035
 7507SOL    HW134154   0.488   3.437  11.279 -0.5800  2.6687  1.1289
 7507SOL    HW234155   0.492   3.387  11.136 -0.2547  0.9200  0.4120
 7508SOL     OW34156   2.341   1.246   8.044  0.7497 -0.1332  0.0246
 7508SOL    HW134157   2.392   1.326   8.026 -0.7204  0.5290 -1.2734
 7508SOL    HW234158   2.290   1.266   8.123  1.5423  0.6052  0.3518
 7509SOL     OW34159   1.728   3.611   2.178 -0.3744  0.3856 -0.5856
 7509SOL    HW134160   1.732   3.526   2.223 -1.4243 -0.1583 -1.5231
 7509SOL    HW234161   1.661   3.657   2.227  1.3528  1.5763  0.6686
 7510SOL     OW34162   1.603   3.816  17.629  0.7321  0.3297 -0.4937
 7510SOL    HW134163   1.653   3.895  17.652  1.4469 -0.4977  0.7918
 7510SOL    HW234164   1.533   3.865  17.586 -0.3702 -0.1572  0.7518
 7511SOL     OW34165   2.995   1.455  10.808 -0.2542 -0.2784  0.2296
 7511SOL    HW134166   3.015   1.451  10.714 -0.2770 -0.7853  0.2441
 7511SOL    HW234167   3.068   1.405  10.844  1.0481  1.0342 -0.5859
 7512SOL     OW34168   3.809   2.355  12.896 -0.0583  0.7177  0.6368
 7512SOL    HW134169   3.896   2.343  12.857 -0.2877 -0.5015  0.4993
 7512SOL    HW234170   3.818   2.444  12.930 -1.4167  1.1232 -0.0560
 7513SOL     OW34171   1.484   3.803   6.858  0.0161 -0.4739 -0.0447
 7513SOL    HW134172   1.461   3.866   6.926  1.1751  0.7248 -0.7536
 7513SOL    HW234173   1.527   3.864   6.797 -0.4903 -0.9140 -0.8510
 7514SOL     OW34174   1.320   4.472   2.617  0.1579 -0.0641 -0.0818
 7514SOL    HW134175   1.292   4.496   2.706 -0.2387  0.9556 -0.4758
 7514SOL    HW234176   1.262   4.534   2.572  0.0778  0.7442  1.1323
 7515SOL     OW34177   0.640   2.751   8.305 -0.0201 -0.0272  0.7413
 7515SOL    HW134178   0.562   2.789   8.265 -1.4793 -2.8770  0.8651
 7515SOL    HW234179   0.709   2.807   8.271 -2.6925  1.5319 -2.0964
 7516SOL     OW34180   2.539   3.849   2.776 -0.1277  0.1216  0.1514
 7516SOL    HW134181   2.617   3.883   2.821 -0.1586  0.4663 -0.0507
 7516SOL    HW234182   2.544   3.902   2.696  1.0451 -2.1294 -1.2693
 7517SOL     OW34183   4.433   1.605   3.931 -0.5458 -0.2254 -0.3180
 7517SOL    HW134184   4.422   1.670   4.000  0.8559  0.1452 -0.4283
 7517SOL    HW234185   4.487   1.654   3.868 -0.6952  1.0974  0.5727
 7518SOL     OW34186   1.708   2.300   7.761  0.3889 -0.1969 -0.1281
 7518SOL    HW134187   1.773   2.312   7.830  0.2894 -0.5409  0.0264
 7518SOL    HW234188   1.748   2.357   7.696  0.2942  1.8994  1.6377
 7519SOL     OW34189   1.623   2.938  14.975  0.2567  0.0311  0.5583
 7519SOL    HW134190   1.669   2.863  14.936  1.7219  1.8332 -1.1467
 7519SOL    HW234191   1.638   2.931  15.069 -0.0739 -0.6110  0.5690
 7520SOL     OW34192   3.997   2.664   2.183  0.6647  0.2660  0.0710
 7520SOL    HW134193   4.001   2.693   2.092 -1.0975  1.5874  0.4198
 7520SOL    HW234194   4.016   2.752   2.215  0.3802  0.3996 -0.1245
 7521SOL     OW34195   1.199   4.616   6.969  0.5352 -0.1125  0.6796
 7521SOL    HW134196   1.174   4.545   7.027  2.2292 -2.3764 -1.3831
 7521SOL    HW234197   1.284   4.582   6.941  1.2345  0.6484  1.8970
 7522SOL     OW34198   0.399   2.092   2.523  0.2800 -0.0779  0.4977
 7522SOL    HW134199   0.484   2.092   2.479  0.0582 -0.3801  0.0781
 7522SOL    HW234200   0.425   2.082   2.615  0.8820  0.9627  0.4416
 7523SOL     OW34201   2.281   1.917   5.134  0.0785 -0.0835 -0.1294
 7523SOL    HW134202   2.330   1.966   5.068  0.0464  0.3460  0.1582
 7523SOL    HW234203   2.353   1.918   5.198 -1.0011  0.8759  1.0737
 7524SOL     OW34204   3.150   3.824   5.463  0.4700  0.3670  0.3138
 7524SOL    HW134205   3.092   3.884   5.511 -0.0918 -1.2834  1.6983
 7524SOL    HW234206   3.168   3.879   5.387 -0.3984  2.0485  1.3348
 7525SOL     OW34207   1.758   2.404  15.585 -0.4088  0.2613 -0.7981
 7525SOL    HW134208   1.818   2.444  15.522 -0.9731  1.1792 -0.7469
 7525SOL    HW234209   1.716   2.344  15.523  0.9636  0.4158 -1.8935
 7526SOL     OW34210   0.588   0.444   2.635 -0.0423  0.2208  0.1546
 7526SOL    HW134211   0.524   0.379   2.662  1.5811 -1.9858 -1.3752
 7526SOL    HW234212   0.536   0.506   2.584  2.1268  1.7660 -0.1982
 7527SOL     OW34213   4.459   1.797   2.757  0.1131 -0.7278 -0.9415
 7527SOL    HW134214   4.366   1.797   2.735 -0.2864  0.0627  0.7176
 7527SOL    HW234215   4.490   1.725   2.702 -0.6472 -1.5848 -0.2385
 7528SOL     OW34216   2.105   1.576  14.938 -0.1479  0.1761 -0.3245
 7528SOL    HW134217   2.009   1.584  14.940  0.0609  3.1259 -1.0940
 7528SOL    HW234218   2.109   1.482  14.953 -0.4274  0.6632  2.6717
 7529SOL     OW34219   1.928   3.751   5.052 -0.0105  0.0700  0.0637
 7529SOL    HW134220   1.892   3.830   5.092  1.0027 -0.1188  1.3564
 7529SOL    HW234221   1.918   3.765   4.958 -2.8264 -1.5079  0.1282
 7530SOL     OW34222   1.315   0.734   3.925 -0.7516 -0.4423  0.7733
 7530SOL    HW134223   1.264   0.740   3.844  0.0965  1.7569  0.4005
 7530SOL    HW234224   1.401   0.725   3.883  0.3147 -1.4186  3.2025
 7531SOL     OW34225   2.526   0.092   7.450  0.2383  0.0498 -0.1779
 7531SOL    HW134226   2.496   0.180   7.469  2.0736  0.6535 -0.0259
 7531SOL    HW234227   2.614   0.124   7.430  0.5757 -1.7125 -1.5407
 7532SOL     OW34228   0.623   1.748   4.666 -0.1310  0.0575  0.2690
 7532SOL    HW134229   0.535   1.740   4.705  0.0901 -1.1037  0.5331
 7532SOL    HW234230   0.667   1.802   4.731  1.5555  1.2746 -1.9205
 7533SOL     OW34231   1.102   1.902   4.366 -0.2980 -0.0037 -0.1633
 7533SOL    HW134232   1.130   1.974   4.310 -0.3540  0.1007 -0.0580
 7533SOL    HW234233   1.174   1.838   4.367  0.7606  1.2022 -0.2386
 7534SOL     OW34234   1.521   4.669   2.876 -0.2336  0.0115  0.2182
 7534SOL    HW134235   1.457   4.644   2.944  0.1058 -0.3453  0.4046
 7534SOL    HW234236   1.607   4.638   2.904 -0.6111 -0.8130  0.4944
 7535SOL     OW34237   0.982   2.330   7.715 -0.2868  0.2478  0.1405
 7535SOL    HW134238   1.011   2.239   7.719  1.3063  0.7635  0.2425
 7535SOL    HW234239   1.049   2.362   7.775 -0.6506 -2.0286  1.7633
 7536SOL     OW34240   1.032   0.139   2.403  0.0069  0.1471  0.0572
 7536SOL    HW134241   1.053   0.148   2.310  1.0745 -2.6590  0.0187
 7536SOL    HW234242   1.039   0.228   2.438  0.6815 -0.1862  0.7755
 7537SOL     OW34243   0.618   3.459   0.750 -0.1679 -0.3535 -0.3826
 7537SOL    HW134244   0.535   3.417   0.773  1.2381 -1.3975  2.7144
 7537SOL    HW234245   0.602   3.543   0.793  1.2812  0.1910 -0.9152
 7538SOL     OW34246   4.081   1.304   3.009 -0.1545  0.2840 -0.3787
 7538SOL    HW134247   4.160   1.355   2.991 -1.4118  2.2090 -0.3865
 7538SOL    HW234248   4.040   1.302   2.922  1.1381 -0.6534 -0.9704
 7539SOL     OW34249   2.176   4.475   2.496  0.0017  0.4486 -0.1325
 7539SOL    HW134250   2.204   4.566   2.496  1.0492  0.1221 -0.8503
 7539SOL    HW234251   2.086   4.482   2.462  0.0138 -1.0592 -0.4763
 7540SOL     OW34252   3.362   0.681   9.150  0.1393 -0.6773 -0.1884
 7540SOL    HW134253   3.451   0.645   9.153 -0.0275 -1.0521  0.2209
 7540SOL    HW234254   3.321   0.601   9.181 -0.7012 -0.2815 -0.2779
 7541SOL     OW34255   0.517   3.564   3.996 -1.4604 -0.2610 -0.1479
 7541SOL    HW134256   0.566   3.486   4.023  0.8218  0.5945 -1.7162
 7541SOL    HW234257   0.541   3.629   4.062 -0.1835 -1.9958  1.1041
 7542SOL     OW34258   1.164   0.494   5.613 -0.6190 -0.3606 -0.1457
 7542SOL    HW134259   1.111   0.472   5.536 -0.7449  0.5352 -0.3167
 7542SOL    HW234260   1.113   0.455   5.683  0.7156  0.8379  1.4885
 7543SOL     OW34261   0.440   0.847   2.579 -0.2411  0.3786  0.3229
 7543SOL    HW134262   0.451   0.905   2.654 -1.6847  0.5876  0.3685
 7543SOL    HW234263   0.381   0.784   2.619 -1.2934  0.8833 -0.4552
 7544SOL     OW34264   1.842   1.608  15.552 -0.3384 -0.9023 -0.2148
 7544SOL    HW134265   1.791   1.537  15.590  0.4617 -1.8380 -0.9083
 7544SOL    HW234266   1.790   1.640  15.479 -1.5733  1.3745  1.6341
 7545SOL     OW34267   3.353   1.632   6.552 -0.4604  0.0460 -0.5133
 7545SOL    HW134268   3.433   1.609   6.599 -1.7097 -3.8827 -0.3787
 7545SOL    HW234269   3.369   1.596   6.465 -2.1099  3.8093 -2.3693
 7546SOL     OW34270   2.812   3.818   8.382 -0.0045  0.0747 -0.0317
 7546SOL    HW134271   2.806   3.857   8.295 -2.3808  0.3673  0.2671
 7546SOL    HW234272   2.828   3.726   8.362 -0.6004  0.2749 -1.4128
 7547SOL     OW34273   2.352   2.795   1.399 -0.5625  0.6068  0.5601
 7547SOL    HW134274   2.308   2.825   1.319  0.8425 -0.4981 -0.6396
 7547SOL    HW234275   2.337   2.869   1.457 -1.3564  1.9410 -1.3294
 7548SOL     OW34276   3.590   4.409   5.327  0.5131  0.2410 -0.0991
 7548SOL    HW134277   3.525   4.349   5.362  0.7116 -0.0085 -0.1608
 7548SOL    HW234278   3.536   4.444   5.256 -1.5743 -2.1562  0.3223
 7549SOL     OW34279   2.581   3.649   1.118 -0.0214 -0.4018  0.2362
 7549SOL    HW134280   2.489   3.645   1.093  0.2190 -0.3318 -0.6856
 7549SOL    HW234281   2.577   3.637   1.212 -2.0877  1.1993  0.3555
 7550SOL     OW34282   0.467   4.197   3.343 -0.5965  0.2458 -0.1266
 7550SOL    HW134283   0.423   4.161   3.420  0.4265  0.2279  0.4587
 7550SOL    HW234284   0.434   4.286   3.352 -2.3430 -0.4478  0.2036
 7551SOL     OW34285   3.778   1.558   1.586 -0.2017  0.1988  0.1248
 7551SOL    HW134286   3.861   1.513   1.601  0.7354  2.1083  0.7028
 7551SOL    HW234287   3.807   1.631   1.532  0.5976 -0.1772  0.0507
 7552SOL     OW34288   4.270   4.495   5.190 -0.2648 -0.0570  0.1741
 7552SOL    HW134289   4.176   4.512   5.188 -0.2505 -0.1451 -1.0678
 7552SOL    HW234290   4.292   4.505   5.097  0.0312  0.7310  0.3273
 7553SOL     OW34291   2.114   0.890   6.802 -0.1215 -0.2318 -0.5056
 7553SOL    HW134292   2.145   0.945   6.730 -1.5106  0.1591 -0.8119
 7553SOL    HW234293   2.180   0.911   6.867  1.5222 -1.9444 -1.6344
 7554SOL     OW34294   2.487   2.945  14.947  0.4769 -0.3012  0.0311
 7554SOL    HW134295   2.513   3.031  14.913 -1.7011  0.3066 -0.0794
 7554SOL    HW234296   2.431   2.971  15.019 -1.1798 -1.2811 -0.9098
 7555SOL     OW34297   0.764   1.738   3.122  0.3969 -0.2746  0.3267
 7555SOL    HW134298   0.687   1.698   3.161 -1.1998  0.3503 -2.1950
 7555SOL    HW234299   0.746   1.719   3.030 -1.0391  1.4553  0.2537
 7556SOL     OW34300   2.796   1.652   2.905  0.1328  0.7882 -0.3416
 7556SOL    HW134301   2.728   1.654   2.838  0.3130 -0.6521 -0.5496
 7556SOL    HW234302   2.867   1.691   2.853 -0.5857 -0.8985 -2.5491
 7557SOL     OW34303   0.669   1.794   3.435 -0.2164  0.8249  1.0008
 7557SOL    HW134304   0.723   1.758   3.506  1.1859 -1.2351 -1.0978
 7557SOL    HW234305   0.732   1.855   3.395 -1.0380 -0.0708 -1.6811
 7558SOL     OW34306   3.523   3.338   3.899  0.1608  0.0593  0.1908
 7558SOL    HW134307   3.549   3.312   3.810 -4.1833  0.3426 -1.1672
 7558SOL    HW234308   3.473   3.258   3.917 -1.2485  0.2667 -2.7533
 7559SOL     OW34309   2.867   1.340  15.848  0.6360  0.5654 -0.2582
 7559SOL    HW134310   2.878   1.409  15.915 -0.8529  1.1341 -0.5980
 7559SOL    HW234311   2.948   1.289  15.855  0.0845 -0.3670 -0.7668
 7560SOL     OW34312   3.029   2.442   1.703  0.1388 -0.6136 -0.2621
 7560SOL    HW134313   2.937   2.419   1.713 -0.1329  0.4018 -0.4323
 7560SOL    HW234314   3.028   2.537   1.713 -0.1650 -0.7760  1.2012
 7561SOL     OW34315   1.863   2.867   8.350  0.1533  0.0117  0.3120
 7561SOL    HW134316   1.936   2.929   8.354 -0.4183  0.7014  0.0937
 7561SOL    HW234317   1.790   2.919   8.385  0.8868 -0.5322  2.6237
 7562SOL     OW34318   1.769   3.401   4.960 -0.6869 -0.0278  0.2859
 7562SOL    HW134319   1.758   3.445   5.044  1.5663 -0.8734  1.0314
 7562SOL    HW234320   1.838   3.337   4.974  1.5749  1.9974 -1.4916
 7563SOL     OW34321   3.373   3.784  12.662  0.2389 -0.1125 -0.1195
 7563SOL    HW134322   3.360   3.724  12.589 -0.1764  1.0175 -0.9709
 7563SOL    HW234323   3.317   3.740  12.726  0.2959  0.3109  0.2226
 7564SOL     OW34324   1.786   1.504   4.739  0.1654 -0.6801  0.1443
 7564SOL    HW134325   1.849   1.539   4.676  0.9599  0.4703  1.5741
 7564SOL    HW234326   1.706   1.555   4.726 -0.1142 -1.4083 -0.9404
 7565SOL     OW34327   1.905   3.438  17.715 -0.2306 -0.1483  0.7445
 7565SOL    HW134328   1.940   3.358   0.026 -0.7841  0.6425  2.7629
 7565SOL    HW234329   1.821   3.406  17.682 -0.6790  1.9169 -0.1250
 7566SOL     OW34330   3.519   2.824   6.479 -0.3281 -0.3390  0.1033
 7566SOL    HW134331   3.427   2.840   6.500 -0.4736 -0.2625 -0.5913
 7566SOL    HW234332   3.523   2.879   6.401  2.2703 -1.1134 -0.3243
 7567SOL     OW34333   0.306   4.711   7.589  0.0655  0.1230 -0.1453
 7567SOL    HW134334   0.319   4.697   7.683  1.0229 -0.1795 -0.3229
 7567SOL    HW234335   0.282   0.071   7.582 -1.3621 -0.3298 -1.2851
 7568SOL     OW34336   1.914   4.050   7.717 -0.5625  0.5555 -0.6804
 7568SOL    HW134337   2.001   4.058   7.757 -0.3212 -0.8744 -0.9340
 7568SOL    HW234338   1.931   4.108   7.643  0.7369 -0.2897 -1.0449
 7569SOL     OW34339   2.192   4.188  15.790 -0.7630  0.0048  0.3024
 7569SOL    HW134340   2.117   4.181  15.732  0.1111 -0.3668 -0.7876
 7569SOL    HW234341   2.204   4.283  15.799 -0.2814  0.1302 -1.6344
 7570SOL     OW34342   0.312   4.435   3.347  0.1115  0.3008  0.8421
 7570SOL    HW134343   0.335   4.478   3.429 -0.1452  3.0193 -0.5139
 7570SOL    HW234344   0.226   4.397   3.368  1.8866 -2.4844  3.1219
 7571SOL     OW34345   4.495   1.064  15.415  0.3569 -0.4198  0.0072
 7571SOL    HW134346   4.530   1.151  15.398 -1.4418  0.1899 -0.5901
 7571SOL    HW234347   4.405   1.074  15.448  0.9624 -1.4806  1.9753
 7572SOL     OW34348   0.244   4.352  12.288 -0.1481 -0.2942 -0.2000
 7572SOL    HW134349   0.174   4.298  12.253 -2.7529  0.7642  3.3248
 7572SOL    HW234350   0.193   4.424  12.326  0.0180 -0.4323  0.2830
 7573SOL     OW34351   2.106   0.374   7.931  0.5045 -0.3303 -0.0174
 7573SOL    HW134352   2.014   0.369   7.908  0.7967  0.3044 -1.3400
 7573SOL    HW234353   2.133   0.283   7.921  2.7364  0.4585 -1.2620
 7574SOL     OW34354   2.268   0.262   3.904 -0.3308 -0.0645  0.5083
 7574SOL    HW134355   2.279   0.284   3.811  1.2917  0.9134  0.9385
 7574SOL    HW234356   2.173   0.256   3.905 -0.3650 -0.1531 -2.3586
 7575SOL     OW34357   1.212   2.251  10.097  0.4875  0.2174  0.0503
 7575SOL    HW134358   1.227   2.297  10.180 -0.3593  1.9221 -0.7324
 7575SOL    HW234359   1.158   2.176  10.121 -0.3135  0.0602 -2.2502
 7576SOL     OW34360   3.618   3.662   7.634  0.8511  0.1389 -0.6072
 7576SOL    HW134361   3.576   3.746   7.654  1.0791  0.0957  0.0507
 7576SOL    HW234362   3.677   3.686   7.562 -0.9241  1.6805 -1.5683
 7577SOL     OW34363   1.045   4.133  12.193 -0.2671 -0.5264 -0.2098
 7577SOL    HW134364   1.060   4.071  12.265 -0.3959  0.0101  0.2703
 7577SOL    HW234365   1.114   4.197  12.204 -1.5736  1.1484 -1.8158
 7578SOL     OW34366   0.229   3.325  14.572 -0.0335 -0.5492 -0.2840
 7578SOL    HW134367   0.192   3.237  14.579 -0.2552 -0.4111  0.3028
 7578SOL    HW234368   0.149   3.374  14.553 -0.6481 -1.9439 -1.3058
 7579SOL     OW34369   0.949   1.226   9.221  0.2639  0.2625 -0.2707
 7579SOL    HW134370   0.975   1.135   9.238 -3.2855 -1.0291 -1.5895
 7579SOL    HW234371   1.036   1.259   9.201 -0.2431  0.5443 -1.9939
 7580SOL     OW34372   3.182   2.687   9.918 -0.0673  0.6095  0.1060
 7580SOL    HW134373   3.238   2.709   9.992  1.1395  1.6069 -1.1048
 7580SOL    HW234374   3.103   2.658   9.965 -1.1218  2.5173 -0.4863
 7581SOL     OW34375   2.952   0.331  10.929  0.0795  0.5495  0.1523
 7581SOL    HW134376   2.962   0.356  10.838 -1.2029 -2.3846 -0.8218
 7581SOL    HW234377   2.865   0.291  10.935  0.8926 -1.3137 -0.5112
 7582SOL     OW34378   2.086   1.911   7.329  0.9032  0.6569  0.0368
 7582SOL    HW134379   2.123   1.875   7.409 -0.2953  1.1113  0.8029
 7582SOL    HW234380   2.069   2.004   7.347 -1.8238  0.3675 -0.9760
 7583SOL     OW34381   1.381   4.086   2.778  0.3016 -0.3587 -0.1199
 7583SOL    HW134382   1.412   4.157   2.723  0.1130 -0.8538 -0.8699
 7583SOL    HW234383   1.448   4.022   2.756 -1.7528 -2.3322 -0.6862
 7584SOL     OW34384   1.387   4.221   6.906 -0.0586 -1.0009 -0.3827
 7584SOL    HW134385   1.320   4.195   6.842 -0.4813  3.0907 -1.6147
 7584SOL    HW234386   1.467   4.218   6.853 -0.1275  1.9908 -0.6745
 7585SOL     OW34387   3.109   0.614  14.465 -0.0608 -0.1006  0.2030
 7585SOL    HW134388   3.071   0.604  14.552 -1.2018 -1.5492 -0.4370
 7585SOL    HW234389   3.197   0.633  14.495  0.6650  0.1794 -2.0865
 7586SOL     OW34390   1.175   2.447   2.296 -0.0183 -0.4709  0.2168
 7586SOL    HW134391   1.252   2.417   2.248 -0.6173 -3.1339  0.9012
 7586SOL    HW234392   1.202   2.538   2.300  0.8786 -0.7416  0.2750
 7587SOL     OW34393   0.280   2.068   3.733  0.3833  0.1395  0.2722
 7587SOL    HW134394   0.216   2.012   3.775 -0.8790  1.0879 -0.3825
 7587SOL    HW234395   0.355   2.009   3.742 -0.4003 -1.1205 -1.5023
 7588SOL     OW34396   0.286   4.498   1.421 -0.3692  0.0294  0.0310
 7588SOL    HW134397   0.354   4.565   1.428 -1.5291  1.4740 -2.6660
 7588SOL    HW234398   0.285   4.468   1.512 -1.5232  0.3722  0.1229
 7589SOL     OW34399   1.586   0.430   4.911 -0.1663  0.3039 -0.1999
 7589SOL    HW134400   1.637   0.488   4.854  2.6318 -0.4467  1.5479
 7589SOL    HW234401   1.503   0.464   4.878 -0.6893 -1.1165 -0.3599
 7590SOL     OW34402   4.034   3.371   2.282 -0.5254  0.1809  0.0049
 7590SOL    HW134403   3.981   3.380   2.203  0.5021 -1.9540 -0.9342
 7590SOL    HW234404   4.067   3.282   2.269 -2.3498 -0.5975  0.7308
 7591SOL     OW34405   2.975   1.619   6.883  0.1726 -0.3010  0.1481
 7591SOL    HW134406   2.993   1.629   6.789 -0.8517 -0.0938 -0.0254
 7591SOL    HW234407   3.065   1.606   6.913  0.4440 -1.4029 -1.1314
 7592SOL     OW34408   4.666   3.218  16.018 -0.4720 -0.2671  0.3571
 7592SOL    HW134409   4.614   3.298  16.014 -1.7895 -1.1574 -0.2759
 7592SOL    HW234410   0.025   3.242  16.003  0.4070 -2.9992  1.3973
 7593SOL     OW34411   1.668   0.342   3.602  0.3545 -0.1489  0.2581
 7593SOL    HW134412   1.630   0.422   3.568 -3.8934 -1.8571  0.9747
 7593SOL    HW234413   1.694   0.291   3.526 -0.3493  1.6484 -1.1679
 7594SOL     OW34414   4.136   2.820   0.641 -0.3144  0.1848  0.1760
 7594SOL    HW134415   4.228   2.843   0.655 -0.0048 -0.8040 -0.2341
 7594SOL    HW234416   4.101   2.908   0.628 -0.8450  0.0396  0.5887
 7595SOL     OW34417   4.637   1.717   3.226  0.2664  0.1721 -0.0020
 7595SOL    HW134418   4.706   1.779   3.250  1.7191 -1.5785  0.3763
 7595SOL    HW234419   4.566   1.780   3.215 -0.1129 -0.8068 -3.1116
 7596SOL     OW34420   1.524   2.113   3.927 -0.2071  0.2115 -0.2756
 7596SOL    HW134421   1.517   2.196   3.973 -2.7771  0.8156 -1.7975
 7596SOL    HW234422   1.536   2.139   3.836  1.0771  2.0651  0.4108
 7597SOL     OW34423   3.219   0.196   0.965 -0.4017  0.1952  0.0914
 7597SOL    HW134424   3.184   0.232   1.047  2.2384  1.0795  0.8231
 7597SOL    HW234425   3.288   0.145   1.007 -1.6071  0.4719  2.4437
 7598SOL     OW34426   3.532   3.088   2.415 -0.4102 -0.2135  0.3616
 7598SOL    HW134427   3.592   3.051   2.350  0.1805 -0.8169  1.2512
 7598SOL    HW234428   3.454   3.107   2.363 -1.1902  1.3891  2.1250
 7599SOL     OW34429   1.057   1.702   8.710  0.4514 -0.0375 -0.5005
 7599SOL    HW134430   1.016   1.788   8.705 -2.5218 -1.3265  2.3655
 7599SOL    HW234431   0.975   1.658   8.730  1.0914  1.4969  5.4119
 7600SOL     OW34432   3.788   0.771   9.275 -0.1842 -0.0995 -0.4321
 7600SOL    HW134433   3.878   0.756   9.303 -0.4036  0.8364  0.7766
 7600SOL    HW234434   3.754   0.817   9.352  0.6115  0.3504 -0.3521
 7601SOL     OW34435   3.303   1.374  16.399  0.5771  0.4386 -0.0018
 7601SOL    HW134436   3.343   1.461  16.396 -0.9590  1.1240 -0.6016
 7601SOL    HW234437   3.378   1.317  16.385  0.3324  0.3215 -0.8209
 7602SOL     OW34438   3.668   0.250   4.034  0.1798 -0.6392  0.1891
 7602SOL    HW134439   3.574   0.268   4.030  0.4272  0.6373  0.1543
 7602SOL    HW234440   3.676   0.219   3.944  1.6001  0.8977 -0.2077
 7603SOL     OW34441   1.852   0.142   5.393 -0.1872  0.4017 -0.4435
 7603SOL    HW134442   1.821   0.199   5.464  0.6868  1.0644 -0.5967
 7603SOL    HW234443   1.927   0.099   5.434  0.3559  0.0661 -1.8115
 7604SOL     OW34444   3.960   3.914   2.196 -0.3670 -0.1002  0.1509
 7604SOL    HW134445   4.027   3.954   2.140 -0.7092  1.7633  1.0678
 7604SOL    HW234446   3.906   3.859   2.139  0.2229  1.1535 -1.5906
 7605SOL     OW34447   1.486   2.555  10.118 -0.3090 -0.5891  0.1910
 7605SOL    HW134448   1.577   2.530  10.102 -0.0442  0.7270 -0.3348
 7605SOL    HW234449   1.463   2.524  10.206 -2.0425  1.7402  0.5635
 7606SOL     OW34450   1.984   4.168   3.021  0.2616  0.1706 -0.2534
 7606SOL    HW134451   1.937   4.192   2.942 -0.4674  0.5281  0.2901
 7606SOL    HW234452   2.037   4.095   2.990  0.6834  0.9901 -1.4373
 7607SOL     OW34453   0.273   2.336   7.201 -0.0623  0.2022  0.2591
 7607SOL    HW134454   0.267   2.254   7.151  3.1879  0.0135  0.1346
 7607SOL    HW234455   0.245   2.314   7.290  2.1935 -0.2461  0.8617
 7608SOL     OW34456   4.499   0.035   4.548 -0.0030  0.0698 -0.7511
 7608SOL    HW134457   4.522   4.709   4.475 -0.1826  1.7310 -2.1373
 7608SOL    HW234458   4.579   0.048   4.598  0.3602 -0.1836 -1.2654
 7609SOL     OW34459   1.279   2.459   3.356 -0.0813 -0.1686  0.2477
 7609SOL    HW134460   1.363   2.457   3.402 -1.5833 -0.2766  2.9991
 7609SOL    HW234461   1.246   2.374   3.386  0.0089 -0.0073  0.8006
 7610SOL     OW34462   4.122   4.475   6.625  0.3451 -1.0031 -0.5842
 7610SOL    HW134463   4.027   4.464   6.630  0.5007 -1.4986  1.6102
 7610SOL    HW234464   4.123   4.556   6.574  1.0208  0.5110  1.7806
 7611SOL     OW34465   0.463   1.522   6.517 -0.2233  0.1591 -0.7108
 7611SOL    HW134466   0.452   1.512   6.422 -1.2645  2.2949 -0.8182
 7611SOL    HW234467   0.387   1.575   6.537 -1.0121 -1.0552 -0.4784
 7612SOL     OW34468   3.623   3.437   7.128 -0.5501  0.4327  0.0166
 7612SOL    HW134469   3.561   3.479   7.187  2.5853  2.5158  1.8487
 7612SOL    HW234470   3.596   3.347   7.146  0.4216  0.3732  1.1826
 7613SOL     OW34471   2.646   1.047   6.081 -0.4169 -0.2101  0.2785
 7613SOL    HW134472   2.626   0.961   6.117 -1.1352 -0.6284 -1.1240
 7613SOL    HW234473   2.638   1.110   6.153  1.5380  1.2596 -0.7560
 7614SOL     OW34474   0.654   3.236   1.102 -0.2675 -0.4120  0.9280
 7614SOL    HW134475   0.591   3.307   1.112  0.3449  0.3510 -0.6190
 7614SOL    HW234476   0.595   3.163   1.081 -1.1679  0.7273 -0.4250
 7615SOL     OW34477   0.037   3.176   4.386 -0.1441 -0.6253 -0.2331
 7615SOL    HW134478   0.014   3.224   4.306  2.6541 -0.7831 -1.1220
 7615SOL    HW234479   0.035   3.091   4.342 -1.4071  0.7911 -2.9730
 7616SOL     OW34480   0.623   2.870   0.444  0.1598  0.6434 -0.2121
 7616SOL    HW134481   0.599   2.878   0.537  0.6369 -1.1123  0.0573
 7616SOL    HW234482   0.713   2.905   0.443  0.1320  0.7223 -0.0655
 7617SOL     OW34483   1.050   0.232  16.900 -0.6125  0.1124  0.3425
 7617SOL    HW134484   1.124   0.260  16.847 -1.2132  1.3871  0.1672
 7617SOL    HW234485   0.982   0.240  16.834  0.6029  0.3828 -0.8672
 7618SOL     OW34486   2.030   2.076   1.558 -0.0886 -0.4256 -0.3448
 7618SOL    HW134487   2.012   2.105   1.468 -0.2393 -1.6016 -0.6842
 7618SOL    HW234488   2.115   2.036   1.539 -0.1280  0.4062 -2.3260
 7619SOL     OW34489   3.311   1.088   8.636  0.6130 -0.2319  0.1963
 7619SOL    HW134490   3.269   1.113   8.554  0.6584  0.1244  0.2812
 7619SOL    HW234491   3.274   1.145   8.703  1.9827 -1.4304  1.9786
 7620SOL     OW34492   2.610   0.586   2.783  0.6934  0.2239 -0.0636
 7620SOL    HW134493   2.643   0.640   2.854 -2.4314 -0.7528  2.1367
 7620SOL    HW234494   2.587   0.652   2.717 -0.4126 -0.8324 -0.7429
 7621SOL     OW34495   3.828   4.129   7.031  0.0095  0.3116 -0.1150
 7621SOL    HW134496   3.763   4.156   7.096 -1.2679 -1.0103 -0.8359
 7621SOL    HW234497   3.800   4.171   6.949  3.0262  0.4258 -1.0919
 7622SOL     OW34498   2.126   1.090   7.945  0.3451  0.1645 -0.3403
 7622SOL    HW134499   2.181   1.164   7.921  2.4227 -1.7165 -1.3764
 7622SOL    HW234500   2.070   1.086   7.868 -0.5950 -0.1743  0.3541
 7623SOL     OW34501   1.920   1.507   5.508 -0.4487 -0.5048  0.1524
 7623SOL    HW134502   1.869   1.452   5.566 -1.0854  0.4656  0.5182
 7623SOL    HW234503   1.948   1.440   5.446  1.2867  1.5576 -1.3312
 7624SOL     OW34504   4.194   1.242  10.750  0.2177  0.3910 -0.3185
 7624SOL    HW134505   4.288   1.230  10.755  0.0082 -0.1074  2.2241
 7624SOL    HW234506   4.174   1.310  10.815  3.1373  1.2544 -0.3371
 7625SOL     OW34507   0.940   2.595   1.789 -0.0375  0.0031  0.1141
 7625SOL    HW134508   1.012   2.642   1.831  1.0779 -0.3119 -1.4105
 7625SOL    HW234509   0.868   2.639   1.835 -1.3084 -2.0938  0.0945
 7626SOL     OW34510   0.779   0.741  16.973  0.3780 -0.3148  0.1487
 7626SOL    HW134511   0.870   0.759  16.948  1.2877 -1.6031  2.5347
 7626SOL    HW234512   0.766   0.809  17.039  0.3272 -0.7200  0.5519
 7627SOL     OW34513   3.703   2.311   6.790 -0.3624  0.3647  0.0229
 7627SOL    HW134514   3.617   2.332   6.753 -0.5287 -0.2913  0.0363
 7627SOL    HW234515   3.765   2.357   6.734  2.6264 -1.4831  1.8423
 7628SOL     OW34516   3.854   1.277   8.823  0.3599 -0.0244  0.2697
 7628SOL    HW134517   3.826   1.302   8.735  0.4045 -1.9672 -0.3103
 7628SOL    HW234518   3.949   1.270   8.810  0.4132  1.1825  0.0180
 7629SOL     OW34519   2.912   0.587   1.556  0.8077 -0.1255  0.8538
 7629SOL    HW134520   2.985   0.547   1.509  1.1238  0.9713  0.4191
 7629SOL    HW234521   2.948   0.631   1.633  1.3112  2.4721 -0.8722
 7630SOL     OW34522   0.722   3.575   4.363 -0.4920 -0.2782  0.0369
 7630SOL    HW134523   0.789   3.536   4.307  0.0629 -1.5208  1.5918
 7630SOL    HW234524   0.673   3.627   4.298 -0.7649 -0.4601  0.0986
 7631SOL     OW34525   4.059   1.813   0.176  0.8735  0.6502 -0.0457
 7631SOL    HW134526   3.979   1.792   0.226  0.4460 -0.9962 -1.4473
 7631SOL    HW234527   4.088   1.890   0.225 -2.0893  1.4755  0.4219
 7632SOL     OW34528   4.079   2.513   8.225  0.9621  0.0716 -0.8225
 7632SOL    HW134529   4.145   2.444   8.237 -0.0542 -0.9024 -0.8081
 7632SOL    HW234530   4.006   2.476   8.276  2.2121 -0.2891  0.7244
 7633SOL     OW34531   2.167   4.277   6.012  0.0986  0.7531 -0.3311
 7633SOL    HW134532   2.108   4.247   6.081 -1.2740  1.1824 -1.3175
 7633SOL    HW234533   2.104   4.313   5.950 -0.3915  0.1064 -0.2135
 7634SOL     OW34534   1.778   1.261   8.080  0.3828 -0.5270 -0.3520
 7634SOL    HW134535   1.866   1.266   8.043  1.2025 -1.1435  1.5149
 7634SOL    HW234536   1.777   1.181   8.132 -2.1313 -0.4406 -0.2525
 7635SOL     OW34537   1.297   3.549   3.963  0.0848  0.1566 -0.4565
 7635SOL    HW134538   1.297   3.547   4.058  2.3596  0.7243 -0.4207
 7635SOL    HW234539   1.316   3.640   3.938  2.0695 -0.3290 -0.7725
 7636SOL     OW34540   1.693   0.393  10.286  0.0460  0.3387  0.2271
 7636SOL    HW134541   1.657   0.476  10.253 -1.4452 -1.0669 -1.6975
 7636SOL    HW234542   1.774   0.394  10.235 -0.0198 -2.6146  0.1116
 7637SOL     OW34543   1.625   3.309   9.235  0.6694 -0.3892 -0.0288
 7637SOL    HW134544   1.662   3.397   9.238  3.4924 -1.5528 -0.0161
 7637SOL    HW234545   1.532   3.316   9.216  0.4374  3.4631  2.5759
 7638SOL     OW34546   2.542   2.306   7.119 -0.1728  0.1986 -0.0680
 7638SOL    HW134547   2.534   2.213   7.100  1.3975 -0.2019  1.2942
 7638SOL    HW234548   2.616   2.315   7.059  0.3375  1.7677  0.7952
 7639SOL     OW34549   3.307   2.395   5.266  0.2660 -0.1937  0.0424
 7639SOL    HW134550   3.371   2.455   5.305  1.9444 -1.4154 -0.8552
 7639SOL    HW234551   3.256   2.467   5.228  2.4316  2.1237  1.5487
 7640SOL     OW34552   1.104   1.596   4.826 -0.6098  0.4525  0.1686
 7640SOL    HW134553   1.034   1.661   4.822  0.5090  1.6440 -0.0015
 7640SOL    HW234554   1.107   1.586   4.731  0.8207 -0.3036  0.2989
 7641SOL     OW34555   2.896   0.015  15.980  0.5041 -0.0730  0.6704
 7641SOL    HW134556   2.901   4.665  15.932 -0.0504 -0.1413  0.7351
 7641SOL    HW234557   2.824   0.002  16.042 -0.6107  1.9888 -0.2285
 7642SOL     OW34558   2.107   2.543   4.612  0.3665 -0.6316  0.1148
 7642SOL    HW134559   2.116   2.621   4.668 -0.0932 -0.4139 -0.1202
 7642SOL    HW234560   2.170   2.479   4.645 -0.0790 -0.5180  1.1833
 7643SOL     OW34561   3.757   0.301   9.131 -0.4476 -0.2995  0.0187
 7643SOL    HW134562   3.704   0.264   9.202  0.0756  0.2631  0.7124
 7643SOL    HW234563   3.828   0.336   9.185 -1.2851  1.1799  0.1812
 7644SOL     OW34564   4.065   0.463   2.703 -0.1477  0.0501  0.4142
 7644SOL    HW134565   4.131   0.475   2.635  1.3413  1.3362  2.0895
 7644SOL    HW234566   4.080   0.545   2.750 -0.6109  1.1457 -1.3560
 7645SOL     OW34567   2.623   4.299   6.822  0.6672 -0.3595 -0.2228
 7645SOL    HW134568   2.558   4.238   6.858 -0.6668  0.1079 -1.8706
 7645SOL    HW234569   2.573   4.379   6.835  0.5506 -0.6378  1.1309
 7646SOL     OW34570   2.588   1.115   9.380 -0.0101  0.0469  0.1405
 7646SOL    HW134571   2.666   1.158   9.414 -0.0858 -0.8572  1.4263
 7646SOL    HW234572   2.523   1.146   9.443 -0.7820  0.2013 -0.7367
 7647SOL     OW34573   4.373   4.228   2.886  0.2882  0.1549  0.1428
 7647SOL    HW134574   4.419   4.218   2.803 -2.0504  0.4224 -1.1845
 7647SOL    HW234575   4.318   4.150   2.882 -0.6867  0.8540 -0.2348
 7648SOL     OW34576   0.681   1.047  10.839 -0.0080  0.2459  0.4178
 7648SOL    HW134577   0.683   0.985  10.766 -0.1057  0.9759 -0.1993
 7648SOL    HW234578   0.697   0.974  10.900  0.7350 -0.2538 -0.3725
 7649SOL     OW34579   1.627   4.333   9.083  0.1251 -0.7370  0.0800
 7649SOL    HW134580   1.695   4.374   9.136 -0.4755 -2.4658  2.1764
 7649SOL    HW234581   1.575   4.305   9.159 -0.6192 -2.7306 -1.1655
 7650SOL     OW34582   3.696   1.842   3.364  0.5067 -0.1333  0.4072
 7650SOL    HW134583   3.640   1.872   3.436  0.8465  0.0991  0.5730
 7650SOL    HW234584   3.679   1.749   3.351  1.5415 -0.2377 -0.2044
 7651SOL     OW34585   0.229   3.566   7.830 -0.1756  0.6079 -0.3598
 7651SOL    HW134586   0.279   3.504   7.883 -1.6830 -0.5690 -0.2984
 7651SOL    HW234587   0.210   3.635   7.893  2.5743  1.2360 -0.2517
 7652SOL     OW34588   3.517   0.935   5.266  0.1822 -0.2969  0.8188
 7652SOL    HW134589   3.549   0.957   5.354 -3.7381 -0.9795  2.4352
 7652SOL    HW234590   3.430   0.901   5.288  0.5857 -1.2494  0.9581
 7653SOL     OW34591   1.780   3.102   9.359  0.5370 -0.3147 -0.3019
 7653SOL    HW134592   1.834   3.107   9.280  1.1866  1.7586  0.2833
 7653SOL    HW234593   1.711   3.167   9.344  1.5491  0.8038 -0.1319
 7654SOL     OW34594   3.743   3.763  11.112 -0.0575  0.3308  0.2532
 7654SOL    HW134595   3.706   3.845  11.079  2.4799  0.0492 -3.2786
 7654SOL    HW234596   3.770   3.718  11.032 -1.8148 -1.7138  0.8063
 7655SOL     OW34597   1.932   0.497  13.367 -0.1283 -0.5875  0.4360
 7655SOL    HW134598   2.008   0.552  13.346  1.0612 -2.7834 -1.0793
 7655SOL    HW234599   1.895   0.475  13.282  1.0644 -0.8322 -0.0274
 7656SOL     OW34600   2.293   0.845  10.617 -0.5059 -0.3532  0.0692
 7656SOL    HW134601   2.215   0.880  10.660  0.7898  2.3195  0.2046
 7656SOL    HW234602   2.358   0.849  10.687 -2.2782  1.8719  1.5846
 7657SOL     OW34603   0.961   3.325   1.486  0.3584  0.0358  0.1031
 7657SOL    HW134604   0.951   3.347   1.393 -2.8435  0.4682  0.5415
 7657SOL    HW234605   1.002   3.404   1.520 -0.4579  0.3885  0.2847
 7658SOL     OW34606   2.688   0.496   5.037 -0.2424 -0.2241 -0.0646
 7658SOL    HW134607   2.688   0.505   4.942  1.2725  2.3679  0.1996
 7658SOL    HW234608   2.765   0.546   5.063 -1.0819  2.2003 -2.2685
 7659SOL     OW34609   0.357   0.355   5.691  0.2046  0.1984 -0.3424
 7659SOL    HW134610   0.361   0.436   5.742  0.1719  0.1347 -0.2400
 7659SOL    HW234611   0.290   0.379   5.627 -0.8120 -0.0411  0.6324
 7660SOL     OW34612   0.116   0.172   3.292  0.2872  0.2434 -0.2490
 7660SOL    HW134613   0.029   0.140   3.315 -0.2658  2.2330  0.4197
 7660SOL    HW234614   0.173   0.141   3.362  0.6988  1.0569 -0.2146
 7661SOL     OW34615   1.974   0.314   5.192 -0.0253 -0.2955 -0.4538
 7661SOL    HW134616   1.935   0.250   5.252 -3.5921  1.0688 -1.3312
 7661SOL    HW234617   2.026   0.366   5.253 -0.3677 -1.4625  0.8601
 7662SOL     OW34618   0.112   2.416   6.374 -0.1582 -0.1640 -0.2091
 7662SOL    HW134619   0.123   2.508   6.351  2.0305  1.3357  6.8894
 7662SOL    HW234620   0.073   2.382   6.293 -0.8213  0.1544 -0.0222
 7663SOL     OW34621   0.961   1.096   7.542 -0.1551 -0.6098 -0.2711
 7663SOL    HW134622   0.920   1.183   7.543  0.5129 -0.2963 -0.5736
 7663SOL    HW234623   0.900   1.049   7.484 -1.2463  1.2578 -0.6678
 7664SOL     OW34624   4.487   0.755   9.845 -0.1332 -0.3179  0.4797
 7664SOL    HW134625   4.577   0.725   9.863 -0.2396 -2.4329 -2.5660
 7664SOL    HW234626   4.480   0.833   9.899  2.1136 -0.7362  1.3824
 7665SOL     OW34627   1.468   1.628   8.745 -0.7625 -0.0279 -0.2734
 7665SOL    HW134628   1.505   1.541   8.732  1.5134  1.0530 -0.9798
 7665SOL    HW234629   1.473   1.673   8.661  1.1411  1.5460  0.6826
 7666SOL     OW34630   1.558   2.195   7.531 -0.3316  0.7119 -0.3105
 7666SOL    HW134631   1.534   2.218   7.621  0.0639  1.8114 -0.4902
 7666SOL    HW234632   1.637   2.142   7.543 -1.7585 -0.9933  1.5887
 7667SOL     OW34633   3.048   0.676   6.871  0.0956  0.0671 -0.6870
 7667SOL    HW134634   3.139   0.695   6.891  0.8888 -1.7234 -2.5454
 7667SOL    HW234635   3.042   0.593   6.918  0.9280  1.3213  1.5943
 7668SOL     OW34636   3.064   4.501   2.911  0.1979 -0.3621  0.3839
 7668SOL    HW134637   3.133   4.567   2.914 -0.8366  0.7883 -1.3755
 7668SOL    HW234638   2.999   4.528   2.847  0.4801  0.6219  0.5107
 7669SOL     OW34639   2.956   3.453   4.449 -0.6917  0.1725 -0.2834
 7669SOL    HW134640   3.019   3.383   4.433 -2.5900 -1.8260  1.0489
 7669SOL    HW234641   2.949   3.462   4.544  0.4087 -2.4301  0.0452
 7670SOL     OW34642   2.356   1.100   8.360  0.0204 -0.0606  0.7246
 7670SOL    HW134643   2.351   1.064   8.449 -3.6268  0.7617  0.8521
 7670SOL    HW234644   2.444   1.138   8.356 -0.4208  1.0262  1.2969
 7671SOL     OW34645   0.251   2.873   7.720  0.7206 -0.2066  0.0412
 7671SOL    HW134646   0.319   2.863   7.653  3.6905 -1.4490  3.2193
 7671SOL    HW234647   0.173   2.905   7.675  0.6993 -1.7151 -0.9929
 7672SOL     OW34648   2.765   4.214   2.711  0.2929  0.5422  0.1395
 7672SOL    HW134649   2.696   4.148   2.708  0.9377 -0.1219 -0.2124
 7672SOL    HW234650   2.752   4.246   2.622  0.0443 -0.7221 -0.2785
 7673SOL     OW34651   1.319   3.308  11.115  0.5015 -0.3995  0.0311
 7673SOL    HW134652   1.272   3.246  11.059 -0.5642 -0.7814  1.3481
 7673SOL    HW234653   1.379   3.347  11.051  0.2707 -1.0681 -0.5970
 7674SOL     OW34654   0.405   3.583   3.726  0.2908  0.4576 -0.2960
 7674SOL    HW134655   0.482   3.572   3.781  1.4633  1.6259 -1.7319
 7674SOL    HW234656   0.335   3.556   3.786 -0.6887  1.7313 -0.8553
 7675SOL     OW34657   3.853   0.333   7.371 -0.1948 -0.4276 -0.1997
 7675SOL    HW134658   3.900   0.378   7.441 -1.1080  1.7593 -1.0110
 7675SOL    HW234659   3.881   0.243   7.388 -0.7777 -0.3498  1.1388
 7676SOL     OW34660   4.529   3.881   7.701 -0.7135  0.3806 -0.1327
 7676SOL    HW134661   4.459   3.852   7.643 -0.0619 -1.3762 -0.0457
 7676SOL    HW234662   4.608   3.832   7.677  0.7005  2.5226  0.1377
 7677SOL     OW34663   3.998   0.824  10.070  0.7482 -0.3509  0.6184
 7677SOL    HW134664   4.044   0.839  10.153  0.1565 -0.8244  1.0297
 7677SOL    HW234665   4.076   0.802  10.019  0.8301  1.3635  0.0300
 7678SOL     OW34666   3.926   3.863   8.648  0.1433 -0.0482 -0.0510
 7678SOL    HW134667   3.944   3.953   8.618 -0.0091 -0.4366 -1.2970
 7678SOL    HW234668   3.947   3.869   8.741 -2.1774  1.3872  0.3846
 7679SOL     OW34669   0.543   0.035   8.511 -0.5519  0.0638 -0.4976
 7679SOL    HW134670   0.488   4.697   8.477 -0.4642 -0.0190 -0.4710
 7679SOL    HW234671   0.627   0.030   8.465 -0.1601 -0.2506  0.2420
 7680SOL     OW34672   4.645   1.446   5.349 -0.3658 -0.5495  0.1881
 7680SOL    HW134673   4.695   1.501   5.288 -0.3311 -0.3944  0.3566
 7680SOL    HW234674   4.649   1.365   5.298  0.4926  1.2696 -2.6400
 7681SOL     OW34675   0.413   2.633   1.985 -0.1803 -0.2929  0.6956
 7681SOL    HW134676   0.414   2.545   1.946 -0.3250  0.7995 -1.8143
 7681SOL    HW234677   0.504   2.639   2.012  0.0121 -0.4873  0.0947
 7682SOL     OW34678   3.753   3.871   3.645 -0.2010 -0.4916 -1.1716
 7682SOL    HW134679   3.701   3.894   3.721  1.3652 -0.0659 -0.2354
 7682SOL    HW234680   3.718   3.931   3.579  0.4902  0.4544 -0.6754
 7683SOL     OW34681   4.403   3.450  10.002  0.1494  0.2625  0.1356
 7683SOL    HW134682   4.404   3.364   9.959  0.1719  0.7461 -0.8233
 7683SOL    HW234683   4.459   3.501   9.943  0.4914 -0.0163  0.2167
 7684SOL     OW34684   2.694   4.551  17.373 -0.0350 -0.2056  0.1865
 7684SOL    HW134685   2.653   4.629  17.411  1.0730  1.2694 -1.6368
 7684SOL    HW234686   2.750   4.524  17.446  1.4500 -1.9033 -1.5901
 7685SOL     OW34687   3.077   0.284   5.176 -0.1967 -0.0655 -0.5836
 7685SOL    HW134688   3.043   0.373   5.166  4.5371  1.8705  0.7018
 7685SOL    HW234689   3.023   0.227   5.121 -1.7261 -2.4025  3.3268
 7686SOL     OW34690   0.860   4.711   6.200 -0.3559  0.0097 -0.1266
 7686SOL    HW134691   0.922   4.706   6.272 -0.5250  2.3390  0.1795
 7686SOL    HW234692   0.840   4.619   6.184  1.6072 -0.3002 -0.7302
 7687SOL     OW34693   3.022   2.334  16.251 -0.0148  0.0792  0.2655
 7687SOL    HW134694   2.968   2.412  16.265 -0.2659 -0.2509  1.1603
 7687SOL    HW234695   3.052   2.324  16.341  0.2734 -1.1347  0.0344
 7688SOL     OW34696   2.563   3.070   4.951 -0.2699  0.4410 -0.2532
 7688SOL    HW134697   2.587   2.993   4.899  1.3248  1.2312 -0.6999
 7688SOL    HW234698   2.642   3.079   5.004 -1.2384  2.8108  0.7681
 7689SOL     OW34699   4.511   3.431   1.143  0.3556  0.6959 -0.4647
 7689SOL    HW134700   4.527   3.410   1.235 -0.6180 -0.9943 -0.6766
 7689SOL    HW234701   4.415   3.424   1.148  0.3010  2.0986  0.3297
 7690SOL     OW34702   4.297   1.516  11.194 -0.0579 -0.0357  0.6052
 7690SOL    HW134703   4.361   1.586  11.209  1.4265 -0.7711 -2.2111
 7690SOL    HW234704   4.366   1.450  11.204 -0.1007 -0.0568  0.7625
 7691SOL     OW34705   1.346   4.055   7.654 -0.2237 -0.1297  0.3974
 7691SOL    HW134706   1.366   4.093   7.568 -3.0703 -0.0049 -0.2225
 7691SOL    HW234707   1.266   4.010   7.628 -0.9617  1.8581 -0.8293
 7692SOL     OW34708   4.700   4.415   4.445  0.1845  0.2586  0.3549
 7692SOL    HW134709   4.634   4.363   4.490  0.9889  1.6293  3.2042
 7692SOL    HW234710   0.026   4.431   4.519  1.8473 -2.6135 -0.3616
 7693SOL     OW34711   2.743   3.534   7.781 -0.1269 -0.4405  0.0246
 7693SOL    HW134712   2.704   3.456   7.820  0.3744 -1.4974 -1.5489
 7693SOL    HW234713   2.826   3.541   7.829  0.0813  1.0888 -0.5499
 7694SOL     OW34714   1.182   0.990   7.202 -0.3595  0.6066  0.5661
 7694SOL    HW134715   1.172   1.027   7.290  1.7819  0.9460  0.6676
 7694SOL    HW234716   1.137   1.055   7.148  2.4677  1.2901 -0.9448
 7695SOL     OW34717   0.864   2.332  17.277  0.2175 -0.2104  0.0090
 7695SOL    HW134718   0.936   2.276  17.304  0.9710  1.3754  1.3248
 7695SOL    HW234719   0.900   2.421  17.273  1.0911 -0.7027 -2.6755
 7696SOL     OW34720   0.373   0.323   4.842 -0.1015  0.1822 -0.6576
 7696SOL    HW134721   0.325   0.398   4.877  0.3094  0.9762 -1.7927
 7696SOL    HW234722   0.422   0.294   4.918  0.2229 -0.3601 -1.0765
 7697SOL     OW34723   2.533   4.411   5.163  0.5816  0.2644  0.0388
 7697SOL    HW134724   2.450   4.400   5.118  1.2268 -0.5239 -0.9499
 7697SOL    HW234725   2.596   4.415   5.091 -0.3908 -0.8025 -0.8650
 7698SOL     OW34726   1.369   3.954   8.046  0.1480  0.0114 -0.2582
 7698SOL    HW134727   1.377   3.859   8.053 -0.0829 -0.0437 -0.7148
 7698SOL    HW234728   1.407   3.988   8.127  0.2173 -0.7300  0.0248
 7699SOL     OW34729   4.094   3.161  13.846  0.7083 -0.4289 -0.1740
 7699SOL    HW134730   4.024   3.149  13.911  1.2544  0.9487  0.6623
 7699SOL    HW234731   4.151   3.087  13.868  1.6775  0.8538  1.6192
 7700SOL     OW34732   1.012   0.442   6.388  0.5112 -0.5105  0.3432
 7700SOL    HW134733   1.073   0.511   6.361  1.8413 -0.9918  2.1467
 7700SOL    HW234734   1.016   0.384   6.312  0.3792 -0.6667  0.4568
 7701SOL     OW34735   4.028   4.578   0.131 -0.2560 -0.3977  0.1756
 7701SOL    HW134736   4.050   4.570   0.224  2.5644  2.9846 -0.2027
 7701SOL    HW234737   4.106   4.539   0.092 -0.9834 -0.0802 -1.6123
 7702SOL     OW34738   0.389   3.682   5.430 -0.4849  0.0822 -0.3651
 7702SOL    HW134739   0.433   3.765   5.449  1.4663 -1.2961  1.1849
 7702SOL    HW234740   0.306   3.726   5.409 -1.0998  0.2607  2.4179
 7703SOL     OW34741   0.167   0.223   5.408 -0.2144 -0.0196  0.8063
 7703SOL    HW134742   0.085   0.192   5.369 -0.5663 -0.3633  1.8134
 7703SOL    HW234743   0.147   0.267   5.490 -1.3919  1.9751 -0.5497
 7704SOL     OW34744   4.513   3.925  16.708  0.0465 -0.1024  0.2336
 7704SOL    HW134745   4.476   3.904  16.794  0.0892 -3.0075 -0.4618
 7704SOL    HW234746   4.496   3.846  16.656 -0.7124  0.9407 -1.0907
 7705SOL     OW34747   1.148   2.500  15.060 -0.3432 -0.2078  0.1959
 7705SOL    HW134748   1.136   2.450  14.979  2.2863 -1.8955  0.8687
 7705SOL    HW234749   1.198   2.576  15.032  0.2299 -0.7693 -0.3012
 7706SOL     OW34750   1.935   1.429  15.246 -0.1271 -0.3021 -0.3624
 7706SOL    HW134751   2.024   1.398  15.262  0.5700  1.7962 -0.2663
 7706SOL    HW234752   1.910   1.358  15.186 -1.1555 -1.0843  0.9635
 7707SOL     OW34753   2.503   1.523   7.036 -0.3127  0.1865 -0.1477
 7707SOL    HW134754   2.563   1.558   6.970  0.2032 -1.8496 -0.7817
 7707SOL    HW234755   2.443   1.595   7.052 -0.3518 -0.0920  0.9576
 7708SOL     OW34756   4.609   2.743   4.576 -0.1819  0.1698  0.0597
 7708SOL    HW134757   4.576   2.653   4.577  2.2670 -0.6979  2.3972
 7708SOL    HW234758   4.604   2.772   4.668  0.3951  0.1252  0.1051
 7709SOL     OW34759   4.114   2.594   4.375 -0.1898  0.0675 -0.1562
 7709SOL    HW134760   4.072   2.678   4.393  0.0869  0.1524  0.0951
 7709SOL    HW234761   4.043   2.536   4.403  1.8504 -1.4615  1.8286
 7710SOL     OW34762   2.831   4.509  11.208  0.1131  0.5704  0.3002
 7710SOL    HW134763   2.810   4.513  11.302 -2.7242  0.2761 -0.3264
 7710SOL    HW234764   2.921   4.477  11.208 -0.5761 -1.3599 -2.0914
 7711SOL     OW34765   0.431   3.401   1.405  0.1764 -1.1792 -0.3013
 7711SOL    HW134766   0.396   3.419   1.493  0.8630 -0.9138 -0.0775
 7711SOL    HW234767   0.433   3.306   1.391  0.9275 -1.4238  1.4356
 7712SOL     OW34768   4.557   0.011  12.582  0.4950 -0.2887 -0.6404
 7712SOL    HW134769   4.575   0.082  12.644  4.0686 -2.0423  0.3534
 7712SOL    HW234770   4.544   0.060  12.501 -0.5397  1.5507  0.6438
 7713SOL     OW34771   2.234   1.178   7.268 -0.3581 -0.2334 -0.0411
 7713SOL    HW134772   2.319   1.218   7.250 -1.7155  1.6462 -2.2186
 7713SOL    HW234773   2.254   1.084   7.277  1.3526  0.3379  2.1160
 7714SOL     OW34774   4.636   2.999   5.768  0.1477 -0.5536  0.3950
 7714SOL    HW134775   4.636   2.975   5.675  2.7841  2.4111 -0.3507
 7714SOL    HW234776   4.684   2.923   5.798  0.2747 -1.0377 -1.0052
 7715SOL     OW34777   2.718   3.866   5.467 -0.3049 -0.1022  0.1829
 7715SOL    HW134778   2.656   3.833   5.402  0.6191  0.0498 -0.7747
 7715SOL    HW234779   2.669   3.847   5.547 -1.6264 -1.3910 -0.9430
 7716SOL     OW34780   3.447   0.531   2.672  0.7095  0.4113 -0.2972
 7716SOL    HW134781   3.529   0.540   2.623  0.6893 -0.3385 -0.4576
 7716SOL    HW234782   3.440   0.614   2.719  1.5484  0.6069 -0.5127
 7717SOL     OW34783   1.163   1.060   9.874  0.3392 -0.2238 -0.2343
 7717SOL    HW134784   1.229   1.000   9.838 -0.7891 -0.7588 -1.4219
 7717SOL    HW234785   1.134   1.022   9.957 -1.5622  1.6484 -0.0551
 7718SOL     OW34786   0.525   3.283   5.806  0.6494  0.2089  0.2106
 7718SOL    HW134787   0.524   3.350   5.738 -0.4981 -1.8114 -1.7766
 7718SOL    HW234788   0.606   3.301   5.853  0.7550 -2.2644  0.9553
 7719SOL     OW34789   1.470   2.991   4.262  0.0527  0.3634  0.0913
 7719SOL    HW134790   1.395   3.046   4.285  0.1266  0.8157 -0.7491
 7719SOL    HW234791   1.443   2.909   4.304  2.4319 -2.6004 -4.0977
 7720SOL     OW34792   4.013   1.069   0.683 -0.2152  0.6124  0.4112
 7720SOL    HW134793   3.951   1.035   0.618  2.2734 -1.5044 -0.8786
 7720SOL    HW234794   3.948   1.096   0.747 -1.3495 -0.0349 -0.4421
 7721SOL     OW34795   0.385   1.382   2.421  0.7768  0.4158  0.3110
 7721SOL    HW134796   0.427   1.314   2.368 -0.2481 -1.5715  2.0303
 7721SOL    HW234797   0.334   1.437   2.361  0.8844 -0.6729 -0.7884
 7722SOL     OW34798   4.539   4.308  12.846  0.1497 -0.2353 -0.5403
 7722SOL    HW134799   4.598   4.377  12.817 -1.2301  0.6759 -1.1294
 7722SOL    HW234800   4.592   4.284  12.922 -0.5831  0.9414  0.3329
 7723SOL     OW34801   1.875   1.262   8.985  0.0599  0.2693 -0.4399
 7723SOL    HW134802   1.826   1.276   9.066  2.9390  1.8208  1.0547
 7723SOL    HW234803   1.969   1.264   9.007  0.2142  1.7389 -1.2267
 7724SOL     OW34804   2.163   0.615  13.304  0.0844  0.3410  0.1734
 7724SOL    HW134805   2.208   0.696  13.328 -0.4679  0.3131  1.3124
 7724SOL    HW234806   2.224   0.585  13.238 -0.1456 -0.0637  0.1466
 7725SOL     OW34807   2.372   1.839   4.308 -0.0693 -0.1562 -0.6972
 7725SOL    HW134808   2.341   1.904   4.246  2.7519 -0.1057 -2.0577
 7725SOL    HW234809   2.433   1.788   4.254 -0.8962 -0.3745 -1.4097
 7726SOL     OW34810   2.179   0.685   6.570 -0.0809  0.0134  0.2241
 7726SOL    HW134811   2.106   0.718   6.518 -2.1208 -2.8044  1.3373
 7726SOL    HW234812   2.142   0.675   6.658  0.8356 -0.0542  0.6053
 7727SOL     OW34813   1.131   3.059   7.794 -0.0578  0.1016 -0.7336
 7727SOL    HW134814   1.187   3.008   7.852 -0.0384 -1.7911 -2.3773
 7727SOL    HW234815   1.106   3.133   7.849  0.6595  0.6882 -1.1957
 7728SOL     OW34816   3.626   1.158   1.069 -0.2984 -0.6620 -0.0508
 7728SOL    HW134817   3.656   1.208   1.145  1.7501 -0.4047 -1.0263
 7728SOL    HW234818   3.555   1.213   1.034 -0.9557 -1.5081 -0.0475
 7729SOL     OW34819   3.365   3.497   6.424  0.3594  0.2431 -0.1046
 7729SOL    HW134820   3.401   3.474   6.338 -1.8126  0.4655 -1.0758
 7729SOL    HW234821   3.448   3.523   6.464 -0.1330  0.0274  1.0374
 7730SOL     OW34822   3.758   4.720   3.696 -0.2081 -0.2109 -0.1854
 7730SOL    HW134823   3.723   4.631   3.707 -2.0300  0.6520  1.0008
 7730SOL    HW234824   3.852   4.712   3.712 -0.0022  2.7532 -0.0215
 7731SOL     OW34825   1.839   3.446   2.760  0.2698 -0.3324  0.0142
 7731SOL    HW134826   1.811   3.389   2.687  0.2931 -0.8028  0.3721
 7731SOL    HW234827   1.858   3.377   2.824 -0.2436  1.2589  1.8620
 7732SOL     OW34828   0.962   3.153  16.880  0.5271  0.2089  0.2971
 7732SOL    HW134829   1.027   3.112  16.822 -0.5697 -0.4751 -0.4615
 7732SOL    HW234830   0.921   3.072  16.908  0.1683 -0.1274 -1.1676
 7733SOL     OW34831   0.709   4.143   7.238  0.1350  0.2951 -0.0229
 7733SOL    HW134832   0.658   4.204   7.184 -0.6980  0.1991  0.6549
 7733SOL    HW234833   0.748   4.077   7.181 -1.3630 -1.7449  1.3311
 7734SOL     OW34834   1.776   4.002   6.801 -0.1216 -0.1173  0.1023
 7734SOL    HW134835   1.865   4.036   6.811 -1.1423  2.9233 -1.0917
 7734SOL    HW234836   1.771   3.969   6.712  0.7601 -0.1467  0.0701
 7735SOL     OW34837   1.748   2.892  14.281  0.1950  0.1560  0.6289
 7735SOL    HW134838   1.810   2.946  14.232  0.8362  0.9414  2.3205
 7735SOL    HW234839   1.695   2.951  14.335 -0.4002 -0.1230  0.3518
 7736SOL     OW34840   3.164   1.135  12.970  0.2123 -0.1005 -0.2709
 7736SOL    HW134841   3.190   1.107  13.057  0.1032  0.0218 -0.1990
 7736SOL    HW234842   3.243   1.115  12.920  2.0264  1.9802  1.8100
 7737SOL     OW34843   4.145   1.006  14.720 -0.0093 -0.2109  1.0047
 7737SOL    HW134844   4.145   1.072  14.789 -1.9272  0.4340  0.3612
 7737SOL    HW234845   4.101   0.937  14.769  1.0986 -0.0493  2.2373
 7738SOL     OW34846   3.587   0.646  17.420 -0.7352  0.2118 -0.4978
 7738SOL    HW134847   3.574   0.688  17.505  0.4258 -3.2948  1.4091
 7738SOL    HW234848   3.568   0.713  17.354  0.0430  2.4149  1.5128
 7739SOL     OW34849   0.097   2.787   5.167 -0.1180 -0.1648  0.3088
 7739SOL    HW134850   0.148   2.833   5.101 -0.8835  0.1430 -0.0578
 7739SOL    HW234851   0.072   2.706   5.123  0.0104 -0.4215  0.7030
 7740SOL     OW34852   1.541   0.593   4.418 -0.6545 -0.3764 -0.1793
 7740SOL    HW134853   1.530   0.500   4.435  0.9119 -0.0994  2.3343
 7740SOL    HW234854   1.452   0.626   4.405  0.0054  1.0392 -1.1700
 7741SOL     OW34855   3.247   3.588   4.476 -0.1734 -0.0483 -0.4651
 7741SOL    HW134856   3.294   3.508   4.500 -0.9100 -1.2865 -3.1103
 7741SOL    HW234857   3.304   3.638   4.417 -0.0101  1.1130  0.6894
 7742SOL     OW34858   0.886   0.176  16.676  0.5814  0.0796 -0.3402
 7742SOL    HW134859   0.831   0.155  16.600 -0.6907 -0.7290  0.8192
 7742SOL    HW234860   0.965   0.207  16.632  1.4881 -1.8238 -0.0359
 7743SOL     OW34861   0.989   2.653   8.418 -0.0778  0.7342 -0.3273
 7743SOL    HW134862   0.995   2.635   8.512  3.3773 -1.9509 -1.0418
 7743SOL    HW234863   0.919   2.592   8.393  1.2974 -0.5355 -1.1158
 7744SOL     OW34864   0.733   4.668   2.765  0.1303  0.4184  0.0657
 7744SOL    HW134865   0.757   4.589   2.717 -1.6654  0.3106 -0.6814
 7744SOL    HW234866   0.655   4.685   2.713  0.0767 -1.9652 -0.6475
 7745SOL     OW34867   4.480   3.912   4.198 -0.4145 -0.1092 -0.2086
 7745SOL    HW134868   4.440   3.994   4.227  0.7648 -0.0274  1.1751
 7745SOL    HW234869   4.559   3.912   4.252  0.2388  2.1531 -1.1950
 7746SOL     OW34870   4.581   0.618   6.008 -0.1637 -0.8349 -0.0028
 7746SOL    HW134871   4.672   0.646   6.010 -0.5832  0.5005  0.6407
 7746SOL    HW234872   4.560   0.668   6.088 -1.8772  0.2187 -1.1050
 7747SOL     OW34873   0.805   3.973   8.641 -0.2299 -0.1335  0.1746
 7747SOL    HW134874   0.886   3.928   8.618  1.0480  1.6900  1.0678
 7747SOL    HW234875   0.782   4.033   8.569  0.8664  0.3833  0.2602
 7748SOL     OW34876   0.112   1.402   5.796 -0.0179  0.0022 -0.1667
 7748SOL    HW134877   0.118   1.390   5.701 -0.7695  0.8037 -0.3081
 7748SOL    HW234878   0.024   1.436   5.813  0.2038 -0.0538  1.0998
 7749SOL     OW34879   3.512   1.758   9.420  0.7748 -0.5647  0.0221
 7749SOL    HW134880   3.550   1.715   9.344 -1.0830 -2.0005 -0.0680
 7749SOL    HW234881   3.587   1.773   9.479 -0.6531  1.3298  1.3801
 7750SOL     OW34882   4.000   2.387   6.504 -0.0567  0.2371 -0.4136
 7750SOL    HW134883   4.016   2.315   6.565  2.1968  0.5441 -0.6420
 7750SOL    HW234884   4.034   2.462   6.553  2.4993 -1.5218  0.5321
 7751SOL     OW34885   4.543   2.453   9.141  0.4697  0.5207  0.3063
 7751SOL    HW134886   4.528   2.547   9.135  1.8526  0.9280  3.4768
 7751SOL    HW234887   4.452   2.423   9.132 -0.0191  1.4941  2.1099
 7752SOL     OW34888   2.866   3.840   1.884  0.7701  0.2688 -0.7853
 7752SOL    HW134889   2.824   3.892   1.816  0.7258  3.8548  2.0374
 7752SOL    HW234890   2.840   3.873   1.970  0.8206 -0.6604 -0.4094
 7753SOL     OW34891   1.637   3.450   6.695 -0.1637 -0.2092  0.2958
 7753SOL    HW134892   1.564   3.478   6.749  1.2648  0.5404  1.8344
 7753SOL    HW234893   1.704   3.471   6.760  0.7590 -0.4968 -0.5489
 7754SOL     OW34894   1.031   1.495   2.834 -0.4232  0.0419 -0.5720
 7754SOL    HW134895   1.041   1.403   2.807  1.8254 -0.2703  1.4152
 7754SOL    HW234896   1.005   1.548   2.758 -0.6685 -0.1207 -0.6039
 7755SOL     OW34897   1.191   2.045  11.131 -0.0669  0.1717 -0.2208
 7755SOL    HW134898   1.134   2.122  11.127  0.5421  0.7419  1.9881
 7755SOL    HW234899   1.120   1.980  11.134  2.1030 -2.1255  1.5606
 7756SOL     OW34900   1.070   0.667   4.075  0.8054 -0.3055 -0.0637
 7756SOL    HW134901   1.042   0.669   4.167  1.8277 -0.2001  0.2458
 7756SOL    HW234902   1.015   0.590   4.058 -1.8379  1.2185  1.4549
 7757SOL     OW34903   4.502   2.902   4.391  0.1324  0.0432 -0.4255
 7757SOL    HW134904   4.467   2.815   4.370  2.1160 -1.0601  0.8833
 7757SOL    HW234905   4.548   2.878   4.471  1.6997 -2.1423 -1.9635
 7758SOL     OW34906   3.981   2.840   5.616 -0.0385  0.0142  0.2042
 7758SOL    HW134907   4.019   2.921   5.582 -0.5293 -0.4621 -1.4679
 7758SOL    HW234908   3.929   2.817   5.539 -2.2034 -2.2257  2.3204
 7759SOL     OW34909   4.621   0.647   1.971  0.0385 -1.4342 -0.3378
 7759SOL    HW134910   4.667   0.675   2.050 -1.8700  1.1492 -0.1406
 7759SOL    HW234911   4.675   0.692   1.905  0.8364  0.8047  1.8525
 7760SOL     OW34912   1.708   3.216  17.699  0.4024 -0.0465 -0.3223
 7760SOL    HW134913   1.624   3.202   0.012  0.5469  1.9522  0.5844
 7760SOL    HW234914   1.728   3.126  17.672 -1.7613 -0.3462 -0.9175
 7761SOL     OW34915   2.684   2.840   8.184 -0.0640 -0.1181 -0.1243
 7761SOL    HW134916   2.760   2.782   8.182  0.1053  0.0408  1.8230
 7761SOL    HW234917   2.616   2.791   8.136 -0.1781 -1.2562  1.2079
 7762SOL     OW34918   2.044   0.345   3.492  0.1637 -0.7420 -0.1054
 7762SOL    HW134919   2.138   0.330   3.489  0.3000 -0.1289  1.0209
 7762SOL    HW234920   2.022   0.283   3.561 -2.2215  0.1296 -0.0660
 7763SOL     OW34921   2.157   0.026  13.064 -0.0351 -0.5378  0.8546
 7763SOL    HW134922   2.148   0.079  13.143  3.6443 -0.1425  1.0043
 7763SOL    HW234923   2.069   4.727  13.043 -0.5269  2.0656 -1.1076
 7764SOL     OW34924   4.242   1.509   9.880  0.6551  0.0491  0.3923
 7764SOL    HW134925   4.181   1.583   9.874 -0.4383 -0.8752  0.0403
 7764SOL    HW234926   4.291   1.534   9.959  0.7861  0.7935  0.0741
 7765SOL     OW34927   2.671   4.538   4.154 -0.6542  0.1735  0.4172
 7765SOL    HW134928   2.715   4.455   4.168 -1.3008  0.0323  1.6005
 7765SOL    HW234929   2.712   4.589   4.224 -1.7631 -1.4537  2.2277
 7766SOL     OW34930   2.526   1.912   3.603  0.2030  0.2166 -0.4292
 7766SOL    HW134931   2.620   1.900   3.617  1.1107  3.1400 -3.9333
 7766SOL    HW234932   2.504   1.837   3.547  2.3947  0.4077 -1.5313
 7767SOL     OW34933   2.918   0.109   4.782 -0.3163 -0.5432  0.0226
 7767SOL    HW134934   2.898   0.110   4.875  0.0545 -0.3140  0.1014
 7767SOL    HW234935   3.013   0.113   4.792 -0.3353  0.0996 -0.1005
 7768SOL     OW34936   1.132   2.087   4.784  0.1574 -0.6069 -0.4741
 7768SOL    HW134937   1.128   2.169   4.834  0.2399 -0.0338 -1.4035
 7768SOL    HW234938   1.096   2.028   4.851 -0.5973  0.4417  0.0527
 7769SOL     OW34939   4.440   1.707  12.073 -0.4235 -0.2982 -0.4594
 7769SOL    HW134940   4.452   1.705  12.168 -3.2361 -1.5870 -0.1313
 7769SOL    HW234941   4.375   1.777  12.064  0.8932  0.4551 -4.3301
 7770SOL     OW34942   1.964   1.814   2.038 -0.2486  0.1225  0.2978
 7770SOL    HW134943   1.974   1.788   1.946 -2.5531 -2.1708  0.7079
 7770SOL    HW234944   1.871   1.802   2.055  0.3246 -5.0821 -0.3233
 7771SOL     OW34945   0.438   1.811   8.840 -0.1242 -0.4419  0.1866
 7771SOL    HW134946   0.492   1.887   8.820  0.4322 -0.7947  0.3540
 7771SOL    HW234947   0.433   1.825   8.935 -1.1599  0.9835 -0.0856
 7772SOL     OW34948   1.418   3.984   7.041 -0.3505  0.0348 -0.5723
 7772SOL    HW134949   1.406   4.059   6.983 -1.2828  0.7102  0.4997
 7772SOL    HW234950   1.463   4.026   7.114  1.5781 -2.2958 -0.4091
 7773SOL     OW34951   2.389   4.207   4.191  0.3947  0.4426 -0.1008
 7773SOL    HW134952   2.370   4.299   4.211 -0.2261 -0.0014  1.3661
 7773SOL    HW234953   2.305   4.180   4.153  1.6109  1.4470 -3.4576
 7774SOL     OW34954   1.604   2.343  10.972  0.3248  0.1956  0.2424
 7774SOL    HW134955   1.651   2.274  11.018  1.0725  0.7769  0.3562
 7774SOL    HW234956   1.590   2.409  11.040  1.1852 -0.0686  0.6840
 7775SOL     OW34957   1.117   1.587   1.941 -0.0024  0.0652  0.7516
 7775SOL    HW134958   1.043   1.616   1.888  1.9771  0.6562 -1.6376
 7775SOL    HW234959   1.184   1.651   1.918  0.1431 -1.1708 -2.1450
 7776SOL     OW34960   3.411   3.835   1.843 -0.1329 -0.1887  0.1645
 7776SOL    HW134961   3.394   3.929   1.854  2.6841  0.2866  0.4118
 7776SOL    HW234962   3.321   3.805   1.833  0.1382 -0.4975 -1.3225
 7777SOL     OW34963   1.063   4.269   6.674 -0.2222  0.0220 -0.0507
 7777SOL    HW134964   1.151   4.238   6.694 -0.1185 -0.9073 -1.8829
 7777SOL    HW234965   1.062   4.266   6.578  2.6777 -0.3213 -0.0643
 7778SOL     OW34966   4.007   4.605   7.475  0.2509 -0.3648  0.4043
 7778SOL    HW134967   4.102   4.592   7.469  0.3486 -0.5248  2.5014
 7778SOL    HW234968   3.974   4.526   7.433 -2.4044  1.3090 -0.6591
 7779SOL     OW34969   0.088   0.149   7.292  0.5454  0.2433 -0.0263
 7779SOL    HW134970   0.042   0.087   7.348  2.6943 -0.3104  1.0899
 7779SOL    HW234971   0.174   0.108   7.287  0.9178  1.1125 -1.0136
 7780SOL     OW34972   3.348   2.214  15.090  0.1140 -0.1067  0.1931
 7780SOL    HW134973   3.360   2.308  15.079  1.0671 -0.2811 -0.2957
 7780SOL    HW234974   3.278   2.218  15.155  0.9401 -0.7720  1.1300
 7781SOL     OW34975   1.023   1.563  15.036  0.5816 -0.2172 -0.0121
 7781SOL    HW134976   1.021   1.629  14.966  0.6981 -1.3976 -1.1133
 7781SOL    HW234977   1.097   1.599  15.085  0.5233  3.0499 -2.3373
 7782SOL     OW34978   0.073   4.002   6.046  0.0492  0.5639  0.2629
 7782SOL    HW134979   0.167   3.982   6.045 -0.2096 -0.5528 -1.3451
 7782SOL    HW234980   0.031   3.950   5.978  1.0566  0.8225 -0.5530
 7783SOL     OW34981   0.946   4.254   0.389 -0.1211  0.2497 -0.0163
 7783SOL    HW134982   0.993   4.174   0.368  2.0958  0.9521  2.2382
 7783SOL    HW234983   1.006   4.298   0.450 -1.3549  1.1914  0.5242
 7784SOL     OW34984   2.824   1.829   8.131  0.1520 -0.1900 -0.5086
 7784SOL    HW134985   2.738   1.809   8.167  0.6869 -0.4707  0.6202
 7784SOL    HW234986   2.878   1.752   8.149  0.7432  0.6687  1.3689
 7785SOL     OW34987   3.300   2.576   2.690 -0.3950 -0.0855  0.3019
 7785SOL    HW134988   3.218   2.568   2.737  0.2577 -0.7263  1.3369
 7785SOL    HW234989   3.262   2.557   2.604 -1.6480 -1.5905  1.1936
 7786SOL     OW34990   2.855   2.503   3.620  0.6039  0.4980 -0.2196
 7786SOL    HW134991   2.762   2.492   3.601  0.7656 -1.3034  0.0651
 7786SOL    HW234992   2.871   2.419   3.662 -0.6489 -0.5907 -1.9311
 7787SOL     OW34993   4.097   4.072   9.077 -0.5618  0.1213 -0.1430
 7787SOL    HW134994   4.179   4.026   9.094 -1.4062 -1.3516 -0.0501
 7787SOL    HW234995   4.041   4.036   9.147  2.4702  2.0312  3.2460
 7788SOL     OW34996   0.812   3.394   7.296 -0.1982 -0.2437 -0.5287
 7788SOL    HW134997   0.860   3.320   7.259 -0.2846 -0.4911 -0.1465
 7788SOL    HW234998   0.728   3.354   7.319 -0.0651 -0.6178 -0.7052
 7789SOL     OW34999   0.233   4.083   4.092  0.3464  0.5489  0.0191
 7789SOL    HW135000   0.201   4.052   4.007 -0.0805  2.4658 -0.5055
 7789SOL    HW235001   0.284   4.158   4.063 -1.7149  0.8937 -2.6551
 7790SOL     OW35002   2.727   2.016  10.947 -0.1711 -0.2240  0.1031
 7790SOL    HW135003   2.705   2.106  10.971 -2.3652 -0.8877  0.6307
 7790SOL    HW235004   2.800   1.999  11.007 -0.9096 -0.8660  0.8240
 7791SOL     OW35005   4.335   3.917   7.173  0.1061 -0.0821  0.4856
 7791SOL    HW135006   4.244   3.898   7.149 -0.2770  1.5149  0.6807
 7791SOL    HW235007   4.383   3.913   7.090  0.4225 -0.8328  0.7022
 7792SOL     OW35008   1.387   2.784   4.513 -0.6598  0.1757 -0.0771
 7792SOL    HW135009   1.353   2.734   4.587 -2.2030 -1.0588 -1.6348
 7792SOL    HW235010   1.467   2.738   4.486  1.0253  3.7590 -1.2597
 7793SOL     OW35011   1.903   4.386   8.820 -0.2354 -0.3220  0.5796
 7793SOL    HW135012   1.884   4.410   8.729 -2.0364 -0.7953  0.8400
 7793SOL    HW235013   1.836   4.431   8.870  0.1264  0.1223  0.6624
 7794SOL     OW35014   4.133   3.060   7.851 -0.2943  0.0051 -0.5228
 7794SOL    HW135015   4.079   3.134   7.827 -0.2234  0.8228  1.7870
 7794SOL    HW235016   4.169   3.045   7.764  0.7704 -0.0102 -0.0828
 7795SOL     OW35017   3.631   4.033   6.382 -0.2114  0.2150 -0.7646
 7795SOL    HW135018   3.590   3.979   6.314  0.6250 -0.4740 -0.7265
 7795SOL    HW235019   3.627   3.979   6.461 -2.0198  0.7955 -0.4659
 7796SOL     OW35020   0.541   2.306  16.425  0.3627  0.1107  0.1735
 7796SOL    HW135021   0.533   2.210  16.426 -0.7748  0.2266  1.9829
 7796SOL    HW235022   0.626   2.323  16.384 -0.3141  1.2555 -0.7401
 7797SOL     OW35023   2.992   2.855   3.775  0.4126 -0.6608  0.0699
 7797SOL    HW135024   2.946   2.930   3.813  0.8912 -0.9380  1.2036
 7797SOL    HW235025   2.928   2.786   3.790  0.4065 -0.7883 -0.5549
 7798SOL     OW35026   2.448   3.579  15.159 -0.5871 -0.4087 -0.1070
 7798SOL    HW135027   2.472   3.601  15.249  2.5219  0.4753 -1.1546
 7798SOL    HW235028   2.531   3.549  15.122 -1.3352  0.7771 -2.7662
 7799SOL     OW35029   2.148   0.043   8.598  0.4096 -0.2155 -0.6359
 7799SOL    HW135030   2.243   0.040   8.614  0.5138 -1.0468 -1.3664
 7799SOL    HW235031   2.138   0.108   8.529  0.5242  1.1267  0.6142
 7800SOL     OW35032   3.051   2.811   7.216  0.1674 -0.4909 -0.0233
 7800SOL    HW135033   3.075   2.902   7.228 -3.4020  0.3613  0.7056
 7800SOL    HW235034   2.989   2.800   7.288  0.0706  0.9738  0.1101
 7801SOL     OW35035   3.643   3.853   8.680  0.3223  0.3402 -0.7815
 7801SOL    HW135036   3.632   3.825   8.590  0.0117  1.4199 -1.0791
 7801SOL    HW235037   3.737   3.868   8.674  0.2266  1.6189  0.7585
 7802SOL     OW35038   2.759   3.592   0.933 -0.0596  0.0460 -0.0221
 7802SOL    HW135039   2.698   3.547   0.875  1.9581 -0.3696 -1.8494
 7802SOL    HW235040   2.693   3.623   0.995 -0.9699 -1.1566 -0.4058
 7803SOL     OW35041   3.829   1.706   5.593 -0.0870 -0.2140  0.8050
 7803SOL    HW135042   3.832   1.682   5.500 -0.3868  1.7339  0.3090
 7803SOL    HW235043   3.736   1.704   5.613 -0.1243 -0.3025  0.6268
 7804SOL     OW35044   3.804   2.930   7.749  0.6095 -0.1892 -0.3340
 7804SOL    HW135045   3.735   2.865   7.763  2.6662 -2.0854  1.0334
 7804SOL    HW235046   3.754   3.008   7.726 -0.2757 -0.4683  0.6219
 7805SOL     OW35047   1.520   3.847   2.804  0.1201 -0.6338 -0.9125
 7805SOL    HW135048   1.493   3.817   2.718  1.2360 -0.7732 -1.2103
 7805SOL    HW235049   1.456   3.806   2.862  1.1803 -1.1240 -0.0810
 7806SOL     OW35050   3.166   1.645   7.618  0.6660 -0.0621  0.2331
 7806SOL    HW135051   3.081   1.681   7.646  1.9322  1.7658  1.7781
 7806SOL    HW235052   3.130   1.584   7.554 -0.1182  0.4825  0.1446
 7807SOL     OW35053   3.681   2.394   9.336 -0.5548  0.2837 -0.3461
 7807SOL    HW135054   3.664   2.455   9.265 -2.1845  0.3109  0.0672
 7807SOL    HW235055   3.591   2.376   9.365 -0.2273  1.3370  1.3512
 7808SOL     OW35056   2.414   3.714   7.570  0.2435 -0.3332  0.7541
 7808SOL    HW135057   2.504   3.723   7.599 -0.2245  0.2924  2.0328
 7808SOL    HW235058   2.424   3.784   7.506  1.4530 -0.6986  0.5495
 7809SOL     OW35059   2.811   3.078   5.049  0.2416 -0.2840  0.3302
 7809SOL    HW135060   2.872   3.035   5.110 -0.7836 -1.6355  0.4069
 7809SOL    HW235061   2.846   3.166   5.038  3.4936 -1.8130 -1.6258
 7810SOL     OW35062   0.687   2.673   4.730 -0.6968 -0.3994 -0.5105
 7810SOL    HW135063   0.778   2.665   4.702 -0.2923 -0.9708  1.0111
 7810SOL    HW235064   0.697   2.674   4.825  0.0288  1.3757 -0.6104
 7811SOL     OW35065   3.855   4.395   1.961  0.5101  0.7708  0.2796
 7811SOL    HW135066   3.761   4.383   1.968  0.2713  2.2610 -0.3851
 7811SOL    HW235067   3.860   4.423   1.870  1.7321  1.0819  0.4427
 7812SOL     OW35068   2.699   2.232   4.995  0.0015 -0.5617 -0.0716
 7812SOL    HW135069   2.681   2.253   5.087 -0.7269 -1.0660 -0.0962
 7812SOL    HW235070   2.724   2.318   4.960  1.3679 -0.4009  1.2939
 7813SOL     OW35071   2.967   1.660   0.492  0.2125  0.0653  0.2006
 7813SOL    HW135072   3.040   1.651   0.553  0.7313 -0.3248 -0.4787
 7813SOL    HW235073   2.987   1.731   0.431  0.2351 -0.6759 -0.6492
 7814SOL     OW35074   0.589   4.429   2.023 -0.6752  0.6577  0.1707
 7814SOL    HW135075   0.502   4.455   2.054  0.1487  1.0759  2.0656
 7814SOL    HW235076   0.641   4.508   2.035 -0.3715  0.4462  0.2263
 7815SOL     OW35077   3.259   2.990   7.414 -0.0980 -0.9796 -0.1601
 7815SOL    HW135078   3.348   2.979   7.383  0.3733 -0.1655  0.8794
 7815SOL    HW235079   3.217   3.014   7.331 -1.5012  0.4377  0.9450
 7816SOL     OW35080   2.551   1.299   5.285 -0.4743  0.2821 -0.2874
 7816SOL    HW135081   2.504   1.318   5.204 -0.4197 -0.7050 -0.5517
 7816SOL    HW235082   2.515   1.358   5.351 -0.4375 -1.2399  1.0893
 7817SOL     OW35083   1.206   3.702  16.229  0.0499  0.1520 -0.5113
 7817SOL    HW135084   1.243   3.790  16.228  0.2843  0.0666  0.4185
 7817SOL    HW235085   1.222   3.673  16.139  0.7296 -1.0362 -0.0094
 7818SOL     OW35086   0.693   2.068   6.473  0.0026  0.5602  1.1731
 7818SOL    HW135087   0.655   2.008   6.538 -0.0563 -0.6066  0.0540
 7818SOL    HW235088   0.678   2.141   6.533  1.9731 -0.3078  2.7319
 7819SOL     OW35089   3.750   2.910   6.619  0.1492 -0.7177  0.9558
 7819SOL    HW135090   3.712   2.988   6.660  1.8978  0.4896  0.3170
 7819SOL    HW235091   3.676   2.879   6.567  0.9306  1.4711 -1.4983
 7820SOL     OW35092   1.999   0.638  10.801 -0.2834  0.1737  0.2162
 7820SOL    HW135093   2.047   0.712  10.763 -0.6002  0.0983 -0.3389
 7820SOL    HW235094   2.037   0.559  10.762 -0.6256  0.6914 -1.1639
 7821SOL     OW35095   3.886   4.634   3.969  0.0003  0.0490 -0.5722
 7821SOL    HW135096   3.885   4.633   4.065 -1.4604  0.3398 -0.5866
 7821SOL    HW235097   3.797   4.657   3.945  0.2150 -1.8417 -3.1826
 7822SOL     OW35098   2.813   3.539  14.756 -0.0167  0.2122 -0.0957
 7822SOL    HW135099   2.813   3.617  14.810 -2.9192 -0.0782  0.3237
 7822SOL    HW235100   2.890   3.549  14.701 -0.5867  0.8032 -0.7888
 7823SOL     OW35101   2.896   3.247   5.935 -0.1840 -0.4720  0.2703
 7823SOL    HW135102   2.962   3.257   5.867 -0.9474  0.6213 -0.3066
 7823SOL    HW235103   2.825   3.217   5.879 -0.7082  2.1648 -0.4882
 7824SOL     OW35104   4.612   1.354   3.556  0.0150 -0.3815 -0.1186
 7824SOL    HW135105   4.565   1.429   3.592  1.3237  0.7526 -0.7593
 7824SOL    HW235106   4.644   1.385   3.471  3.5642 -0.5989  1.1473
 7825SOL     OW35107   2.549   3.889   6.860  0.7316 -0.0606 -0.3666
 7825SOL    HW135108   2.590   3.867   6.776  1.6798 -0.9587  0.3347
 7825SOL    HW235109   2.626   3.931   6.897  2.0067 -1.1331 -1.8266
 7826SOL     OW35110   4.387   1.391   3.069  0.4972 -0.4868 -0.0995
 7826SOL    HW135111   4.469   1.440   3.055  0.3551 -0.8243 -2.2058
 7826SOL    HW235112   4.426   1.310   3.101  2.7862  0.7066  0.1355
 7827SOL     OW35113   3.311   3.661   7.666  0.0067 -0.5292 -0.2294
 7827SOL    HW135114   3.367   3.733   7.635  0.5178  0.0949  2.1001
 7827SOL    HW235115   3.359   3.592   7.621  1.8451  0.4191  0.2587
 7828SOL     OW35116   1.774   2.388   6.875 -0.4534 -0.7453 -0.1442
 7828SOL    HW135117   1.847   2.442   6.908 -2.9646  0.5284  3.3445
 7828SOL    HW235118   1.718   2.377   6.953 -1.9570  1.1523 -0.9567
 7829SOL     OW35119   1.080   3.015   5.579 -0.0411 -0.5292 -0.0993
 7829SOL    HW135120   1.085   2.971   5.494 -2.0810  0.4716 -0.7396
 7829SOL    HW235121   1.167   3.054   5.591  0.1359 -0.2011 -2.4547
 7830SOL     OW35122   1.112   4.094   2.864 -0.5185 -0.3525  0.0221
 7830SOL    HW135123   1.096   4.000   2.854 -1.7410  0.1554 -2.9087
 7830SOL    HW235124   1.196   4.099   2.819 -0.1629 -1.3662  0.5858
 7831SOL     OW35125   1.640   0.134   7.487 -0.0825 -0.1279 -0.0417
 7831SOL    HW135126   1.617   0.042   7.494  0.3350  0.0822  4.2206
 7831SOL    HW235127   1.562   0.168   7.444 -1.0168 -1.3034  0.7350
 7832SOL     OW35128   2.019   3.451   8.895  0.5452  0.1881 -0.4296
 7832SOL    HW135129   2.086   3.477   8.957  0.0083  1.6852 -0.4699
 7832SOL    HW235130   1.999   3.359   8.914  0.3599 -0.0626 -1.8087
 7833SOL     OW35131   0.409   0.147  17.452  0.3738  0.9671 -0.1082
 7833SOL    HW135132   0.407   0.221  17.513  0.1449  0.8336  0.0458
 7833SOL    HW235133   0.333   0.171  17.398 -0.0581  1.2930  0.6445
 7834SOL     OW35134   0.498   3.710   2.632  0.8270  0.6061  0.5025
 7834SOL    HW135135   0.481   3.777   2.699  2.0248 -0.7609  2.1690
 7834SOL    HW235136   0.571   3.745   2.581 -1.8995  2.0685 -2.3952
 7835SOL     OW35137   0.521   2.256   2.141  0.5860  0.2618  0.7084
 7835SOL    HW135138   0.508   2.162   2.154 -0.3806  0.4972  1.4947
 7835SOL    HW235139   0.526   2.287   2.232 -0.8793  2.3985  0.0635
 7836SOL     OW35140   3.672   1.696   2.156 -0.4547  0.3076  0.0377
 7836SOL    HW135141   3.709   1.783   2.141  1.7740 -0.6888 -0.2193
 7836SOL    HW235142   3.672   1.670   2.064  1.6434  1.3204 -0.2558
 7837SOL     OW35143   1.193   0.694   7.935  0.5754 -0.3577  0.3150
 7837SOL    HW135144   1.218   0.780   7.969  0.2048 -0.1190 -0.0273
 7837SOL    HW235145   1.273   0.663   7.892  0.4504  1.6329 -1.3440
 7838SOL     OW35146   3.934   2.082   0.722  1.2401 -0.4571 -0.2595
 7838SOL    HW135147   3.974   1.999   0.696 -0.5530 -1.0639 -1.0983
 7838SOL    HW235148   4.010   2.133   0.749  0.0733  1.3358 -0.3397
 7839SOL     OW35149   1.784   3.096   6.814 -0.1295  0.4672  0.6433
 7839SOL    HW135150   1.814   3.157   6.747  1.1847 -0.6187  0.2273
 7839SOL    HW235151   1.851   3.028   6.814 -0.6343 -0.0346 -0.2277
 7840SOL     OW35152   2.145   0.528   8.420 -0.0238 -0.5185 -0.4890
 7840SOL    HW135153   2.164   0.612   8.378 -2.9208  2.1846  3.6265
 7840SOL    HW235154   2.050   0.534   8.418  0.0755  0.7409 -1.3608
 7841SOL     OW35155   4.504   2.861   3.066 -0.2337 -0.4522  0.0373
 7841SOL    HW135156   4.454   2.943   3.070 -0.4162 -0.6121  0.9803
 7841SOL    HW235157   4.580   2.880   3.121 -0.9268  1.3245  0.3854
 7842SOL     OW35158   2.476   4.630   7.239 -0.2339 -0.2643  0.4948
 7842SOL    HW135159   2.434   4.588   7.314 -0.9081  1.3688  1.0496
 7842SOL    HW235160   2.553   4.663   7.286  0.0175 -0.1598  0.0125
 7843SOL     OW35161   0.686   3.582   9.509  0.2433  0.3190 -0.1043
 7843SOL    HW135162   0.726   3.590   9.596  1.6802  2.2061 -0.9392
 7843SOL    HW235163   0.648   3.494   9.504 -2.0341  1.3385 -0.6429
 7844SOL     OW35164   3.131   2.596  15.284 -0.1173 -0.2301 -0.3538
 7844SOL    HW135165   3.076   2.551  15.349 -1.0678  1.4634  0.0025
 7844SOL    HW235166   3.107   2.552  15.202 -0.8315 -0.4437 -0.0272
 7845SOL     OW35167   3.951   4.170   4.574  0.3306 -0.0475  0.0207
 7845SOL    HW135168   3.916   4.119   4.647  0.8861 -0.6599 -0.1393
 7845SOL    HW235169   3.999   4.111   4.516 -1.6483 -1.5410 -0.0919
 7846SOL     OW35170   2.274   0.058   6.211  0.2992 -0.1059  0.5869
 7846SOL    HW135171   2.195   0.034   6.260  0.0070  4.1986  2.2511
 7846SOL    HW235172   2.329   0.093   6.282 -1.1331  1.2162  1.0347
 7847SOL     OW35173   3.298   2.052   4.363  0.5959  0.0289 -0.2114
 7847SOL    HW135174   3.310   1.984   4.429 -2.1179 -0.7873 -0.5556
 7847SOL    HW235175   3.272   2.000   4.287  0.9097 -0.0978 -0.2291
 7848SOL     OW35176   2.204   2.249   3.112  0.2472  0.0696 -0.1200
 7848SOL    HW135177   2.200   2.293   3.196 -0.6986 -2.2903  1.0758
 7848SOL    HW235178   2.114   2.250   3.078  0.8483  1.9695 -1.6499
 7849SOL     OW35179   3.135   2.997   4.740  0.4036 -0.6263  0.2619
 7849SOL    HW135180   3.122   2.912   4.782  2.9682 -0.2026  1.9436
 7849SOL    HW235181   3.104   2.986   4.651 -0.5504  1.9143  0.2908
 7850SOL     OW35182   4.317   0.552   7.750  0.2574  0.3491 -0.2825
 7850SOL    HW135183   4.246   0.571   7.811  1.2359 -1.5153  1.4480
 7850SOL    HW235184   4.362   0.635   7.737 -0.0933  0.4278 -1.0134
 7851SOL     OW35185   0.412   2.664   3.934 -0.3425 -0.1159 -0.2511
 7851SOL    HW135186   0.486   2.717   3.905 -0.5306  1.6435  2.5113
 7851SOL    HW235187   0.456   2.616   4.004 -0.1088  1.3694  0.6156
 7852SOL     OW35188   1.990   3.718  17.430 -0.0623 -0.0339 -0.3928
 7852SOL    HW135189   1.982   3.767  17.348  1.5057  1.9075  0.6108
 7852SOL    HW235190   2.058   3.771  17.471  0.8177  0.1896 -2.1537
 7853SOL     OW35191   4.689   3.532  12.330 -0.0234 -0.3478 -0.1123
 7853SOL    HW135192   4.630   3.594  12.372  0.5636 -0.3516  0.7291
 7853SOL    HW235193   4.671   3.546  12.238  1.2193  1.3006 -0.1128
 7854SOL     OW35194   4.601   0.883   5.381 -0.3770  0.1064  0.2659
 7854SOL    HW135195   4.569   0.794   5.363  0.4945 -0.5165  1.7847
 7854SOL    HW235196   4.687   0.872   5.339 -0.4731 -0.2565  0.1635
 7855SOL     OW35197   4.169   2.657   6.217 -0.1442  0.2539  0.3300
 7855SOL    HW135198   4.240   2.721   6.219 -0.6044  0.7365  0.8337
 7855SOL    HW235199   4.089   2.702   6.242  0.2270  1.2641 -0.2938
 7856SOL     OW35200   1.566   1.244  17.453  0.0294  0.2704  0.6279
 7856SOL    HW135201   1.591   1.152  17.453 -1.8254 -0.2438 -3.3544
 7856SOL    HW235202   1.526   1.268  17.369 -1.9237 -0.0860  1.4493
 7857SOL     OW35203   0.910   0.205  17.704 -0.4259  0.2233 -0.0110
 7857SOL    HW135204   0.939   0.241   0.058  2.7110 -1.1989 -0.4880
 7857SOL    HW235205   0.818   0.193  17.725 -0.8026  0.3999 -1.5435
 7858SOL     OW35206   3.993   2.447   4.700  0.4438  0.3080 -0.2589
 7858SOL    HW135207   3.933   2.451   4.626 -1.7568 -1.1764  1.4222
 7858SOL    HW235208   4.031   2.362   4.679  1.2926  0.9269 -1.1943
 7859SOL     OW35209   4.727   1.461   9.361  0.1625  0.3685  0.0290
 7859SOL    HW135210   4.697   1.414   9.439  1.9320 -1.2426 -0.2708
 7859SOL    HW235211   0.088   1.445   9.364  0.5660  2.7047  0.0457
 7860SOL     OW35212   2.814   2.649   5.752 -0.3490  0.4306  0.2287
 7860SOL    HW135213   2.807   2.591   5.827 -1.9895 -0.7151 -0.8018
 7860SOL    HW235214   2.844   2.732   5.790  0.1450 -0.7133  2.2824
 7861SOL     OW35215   3.868   2.248   8.206  0.0638 -0.4701 -0.0281
 7861SOL    HW135216   3.818   2.230   8.126 -2.6869  0.5915  1.4127
 7861SOL    HW235217   3.855   2.342   8.219 -0.0029 -0.2970 -1.2648
 7862SOL     OW35218   0.284   3.176   0.324 -0.3390  0.0800 -0.1103
 7862SOL    HW135219   0.272   3.191   0.418  0.2081  0.3367 -0.0842
 7862SOL    HW235220   0.198   3.137   0.306  0.0834 -1.7163  1.8597
 7863SOL     OW35221   3.327   2.762   8.720  0.1151  0.0835 -0.2418
 7863SOL    HW135222   3.336   2.678   8.675 -0.0060 -0.7078  1.2190
 7863SOL    HW235223   3.278   2.733   8.797 -0.7201 -1.1641 -1.2368
 7864SOL     OW35224   3.144   4.061   6.013 -0.3751  0.5406 -0.4460
 7864SOL    HW135225   3.080   4.117   6.058 -1.0490  0.9540 -1.9296
 7864SOL    HW235226   3.140   3.987   6.074 -0.8759 -0.3796 -1.5913
 7865SOL     OW35227   2.846   1.671  11.818 -0.6778 -0.1484  0.0853
 7865SOL    HW135228   2.881   1.675  11.728 -0.7776  1.3889  0.1087
 7865SOL    HW235229   2.827   1.578  11.829 -0.7774 -0.1677 -0.2597
 7866SOL     OW35230   4.311   4.263   9.884 -0.0993 -0.3631  0.2816
 7866SOL    HW135231   4.324   4.208   9.960 -1.1307 -0.1848  0.5872
 7866SOL    HW235232   4.331   4.347   9.926  0.0122  1.1456 -2.7849
 7867SOL     OW35233   2.621   0.443   6.321  0.2233 -0.4881  0.0106
 7867SOL    HW135234   2.657   0.502   6.254 -0.6003  0.3283  0.2975
 7867SOL    HW235235   2.624   0.366   6.264 -0.2617 -0.5309  0.0407
 7868SOL     OW35236   0.586   3.486   8.837 -0.0663  0.4478  0.3892
 7868SOL    HW135237   0.646   3.558   8.859  0.0582  0.1610  0.9827
 7868SOL    HW235238   0.496   3.520   8.841 -0.1540  0.4749 -1.7542
 7869SOL     OW35239   2.964   3.119   1.581  0.7049  0.1398 -0.4771
 7869SOL    HW135240   2.977   3.181   1.652 -3.0324  1.4820 -0.9625
 7869SOL    HW235241   2.955   3.185   1.512  0.2814  1.5230  0.9025
 7870SOL     OW35242   0.936   1.402   5.447 -0.4405 -0.3047 -0.0807
 7870SOL    HW135243   0.960   1.465   5.378  1.1617 -0.2545  0.5284
 7870SOL    HW235244   0.844   1.425   5.432  0.3971  1.9767 -1.7638
 7871SOL     OW35245   2.392   4.281   7.950 -0.3844  0.0558  0.1961
 7871SOL    HW135246   2.458   4.224   7.911 -0.8845 -0.4067  0.0200
 7871SOL    HW235247   2.402   4.362   7.901  0.0832  0.2038  0.5408
 7872SOL     OW35248   4.073   2.641   4.871 -0.4716  0.1737 -0.0710
 7872SOL    HW135249   4.043   2.581   4.803  2.7144 -1.1496 -0.3097
 7872SOL    HW235250   4.005   2.643   4.937 -1.1945 -0.1251 -0.8041
 7873SOL     OW35251   3.487   1.676  15.205 -0.0783  0.1307  0.2752
 7873SOL    HW135252   3.465   1.766  15.183 -0.4260  0.2282  1.0137
 7873SOL    HW235253   3.419   1.654  15.269 -1.5711  0.3337 -1.2290
 7874SOL     OW35254   4.337   0.302   9.230  0.0962  0.8160  0.1155
 7874SOL    HW135255   4.296   0.309   9.316 -0.7732  1.9894 -0.3849
 7874SOL    HW235256   4.283   0.370   9.190 -0.9182  0.3974  0.7805
 7875SOL     OW35257   4.714   2.210   5.342 -0.0601 -0.0016  0.1648
 7875SOL    HW135258   4.620   2.204   5.323 -0.6532 -0.1520  3.0595
 7875SOL    HW235259   4.713   2.297   5.382 -2.1482 -0.0728  0.2858
 7876SOL     OW35260   3.577   4.419   8.056  0.0849  0.2880  0.7599
 7876SOL    HW135261   3.486   4.420   8.029 -0.3987 -1.6361  2.3416
 7876SOL    HW235262   3.621   4.414   7.971  0.7084  3.0427  0.9353
 7877SOL     OW35263   2.020   1.422   3.845 -0.0015 -0.4800 -0.2231
 7877SOL    HW135264   1.960   1.460   3.909  0.4889 -0.5271  0.2605
 7877SOL    HW235265   1.961   1.418   3.769 -1.3377  1.8250  0.7067
 7878SOL     OW35266   1.031   4.353   2.763 -0.3953 -0.2986 -0.2007
 7878SOL    HW135267   1.072   4.274   2.799 -1.0120 -0.3066  0.5021
 7878SOL    HW235268   1.088   4.424   2.792 -0.6800  0.0635 -0.5301
 7879SOL     OW35269   0.424   0.047   3.046  0.4779 -0.7757  0.3911
 7879SOL    HW135270   0.362   0.112   3.014  0.4489 -0.2671  1.4661
 7879SOL    HW235271   0.357   4.730   3.093  0.8634 -1.8616 -0.2121
 7880SOL     OW35272   1.420   1.332   3.227 -0.5428 -0.3644  0.2129
 7880SOL    HW135273   1.506   1.348   3.189  0.2359  0.3318  2.2719
 7880SOL    HW235274   1.377   1.415   3.247 -1.1149 -0.7716  0.6814
 7881SOL     OW35275   0.775   2.370   3.259 -0.3781  0.1527 -0.1554
 7881SOL    HW135276   0.825   2.406   3.185  1.7926 -1.8888  0.3432
 7881SOL    HW235277   0.755   2.461   3.284 -0.6151  0.1474 -0.3227
 7882SOL     OW35278   3.248   3.082   9.408 -0.0278  0.4784  0.5494
 7882SOL    HW135279   3.253   2.999   9.360  0.7562 -0.5705  2.4594
 7882SOL    HW235280   3.153   3.087   9.415 -0.0073 -0.9656  1.8050
 7883SOL     OW35281   0.534   2.036   9.856  0.9782  0.6075 -0.4637
 7883SOL    HW135282   0.470   2.102   9.880  1.9921  2.6268 -3.3216
 7883SOL    HW235283   0.514   1.973   9.926 -2.4129 -0.3763 -2.2883
 7884SOL     OW35284   0.878   1.450   9.863  0.2187  0.3153 -0.1948
 7884SOL    HW135285   0.826   1.518   9.820 -0.1496  1.1363  1.5613
 7884SOL    HW235286   0.955   1.450   9.805  0.8046  1.2327  0.6025
 7885SOL     OW35287   0.130   4.463   4.669 -0.0453  0.5936  0.0752
 7885SOL    HW135288   0.198   4.415   4.716  0.4480  2.2636  1.0788
 7885SOL    HW235289   0.170   4.549   4.657 -0.5137  0.9800  1.1690
 7886SOL     OW35290   1.344   2.522   7.384 -0.2062  0.2227 -0.0914
 7886SOL    HW135291   1.400   2.540   7.459 -1.2475 -0.1819  0.7785
 7886SOL    HW235292   1.352   2.428   7.367  0.8405  0.1483  0.8625
 7887SOL     OW35293   4.266   1.046   9.928 -0.0140  0.5277 -0.0366
 7887SOL    HW135294   4.270   1.066   9.835  0.7615 -1.2820 -0.3988
 7887SOL    HW235295   4.244   1.130   9.967 -0.2863  1.2706 -1.7902
 7888SOL     OW35296   0.944   1.111   5.653  0.8981  0.0764 -0.0370
 7888SOL    HW135297   1.017   1.154   5.607  1.6993 -0.2866  0.9138
 7888SOL    HW235298   0.936   1.154   5.738 -0.4003 -1.0651  0.4191
 7889SOL     OW35299   1.022   3.139   3.885  0.2841  0.2936  0.2486
 7889SOL    HW135300   1.065   3.068   3.932 -1.5242  0.3452  1.9881
 7889SOL    HW235301   1.045   3.217   3.934  3.7748 -2.1089  2.3901
 7890SOL     OW35302   4.383   0.804   7.743  0.1635  0.0237  0.4839
 7890SOL    HW135303   4.446   0.828   7.812 -0.4366  0.1082  0.9979
 7890SOL    HW235304   4.369   0.890   7.703 -0.2683  0.5395  1.7456
 7891SOL     OW35305   1.884   2.252   3.001 -0.5285 -0.0101  0.4405
 7891SOL    HW135306   1.806   2.260   2.947 -1.7681 -2.4212  1.8853
 7891SOL    HW235307   1.863   2.320   3.065 -1.2384 -1.9848  2.3052
 7892SOL     OW35308   1.619   3.379   2.248  0.3055  1.1006  0.7665
 7892SOL    HW135309   1.665   3.296   2.235 -1.6481  0.2807 -0.9504
 7892SOL    HW235310   1.554   3.353   2.313  0.3187  1.3219  0.8664
 7893SOL     OW35311   1.983   1.245   8.745  0.0033  0.0506 -0.1828
 7893SOL    HW135312   1.966   1.151   8.755 -1.3797  0.3662  0.5245
 7893SOL    HW235313   1.956   1.270   8.834  1.5401  0.4884  0.1445
 7894SOL     OW35314   3.678   3.207  10.154 -0.2089 -0.6265  0.3851
 7894SOL    HW135315   3.630   3.144  10.100  0.1198 -0.3932 -0.1732
 7894SOL    HW235316   3.615   3.244  10.215  1.3296 -2.4142  3.0661
 7895SOL     OW35317   4.705   0.693  16.145 -0.3140  0.0049  0.2235
 7895SOL    HW135318   4.642   0.746  16.193 -1.6089 -1.7605  0.4530
 7895SOL    HW235319   4.684   0.601  16.162  3.3387 -0.8769  0.0164
 7896SOL     OW35320   1.947   4.476   5.183  0.0949 -0.2547  0.0246
 7896SOL    HW135321   2.000   4.471   5.104  0.4608  0.6050  0.2183
 7896SOL    HW235322   2.012   4.482   5.253 -0.8105  1.0233  0.7562
 7897SOL     OW35323   0.411   4.142   4.587  0.0642 -0.1110  0.1156
 7897SOL    HW135324   0.481   4.181   4.638  1.0470  0.0040 -1.3266
 7897SOL    HW235325   0.403   4.217   4.529 -1.2162  0.3278  0.8410
 7898SOL     OW35326   3.944   0.816   2.626 -0.5623 -0.8616  0.1324
 7898SOL    HW135327   3.914   0.832   2.716 -1.6940 -1.4231 -0.1485
 7898SOL    HW235328   3.912   0.891   2.576  1.3661 -0.4823 -0.5124
 7899SOL     OW35329   1.584   0.595   3.517 -0.5512  1.0930 -0.1905
 7899SOL    HW135330   1.596   0.676   3.468 -1.0650 -0.5063 -3.0014
 7899SOL    HW235331   1.584   0.629   3.606 -1.6434  1.0018 -0.1575
 7900SOL     OW35332   2.033   0.307   6.214  0.4695  0.1826  0.1607
 7900SOL    HW135333   2.038   0.219   6.252 -2.6951  0.7046  1.7621
 7900SOL    HW235334   2.021   0.362   6.291  0.0058 -1.9466  1.6310
 7901SOL     OW35335   2.093   1.859   4.973 -0.1869 -0.2428 -0.3771
 7901SOL    HW135336   2.012   1.905   4.995 -1.0263 -1.7268 -0.4236
 7901SOL    HW235337   2.153   1.889   5.041 -2.7631 -0.5173  2.0172
 7902SOL     OW35338   2.338   0.683  16.623 -0.0126  0.1135  0.2765
 7902SOL    HW135339   2.347   0.588  16.617 -0.7875  0.0904 -0.5741
 7902SOL    HW235340   2.388   0.720  16.550  1.1471  1.5230  1.8063
 7903SOL     OW35341   4.308   1.089   7.854  0.1968  0.4328  0.3988
 7903SOL    HW135342   4.355   1.079   7.937 -0.5824 -1.2605  0.6361
 7903SOL    HW235343   4.358   1.160   7.815 -1.4265  1.1449 -0.4040
 7904SOL     OW35344   3.206   1.094   6.206  0.4915 -0.5020 -0.1733
 7904SOL    HW135345   3.175   1.065   6.292  2.9095 -1.6661  0.3180
 7904SOL    HW235346   3.293   1.131   6.227  0.6782 -0.2899 -1.3155
 7905SOL     OW35347   2.548   0.162  13.679 -0.0005 -0.0535  0.3618
 7905SOL    HW135348   2.549   0.151  13.584  2.5028 -2.0166  0.6137
 7905SOL    HW235349   2.454   0.145  13.692 -0.2168  0.6206 -0.2929
 7906SOL     OW35350   0.526   0.421   6.011  0.4351  0.3460 -0.4220
 7906SOL    HW135351   0.622   0.422   6.012  0.4509  0.5286 -1.6358
 7906SOL    HW235352   0.496   0.412   6.101 -1.3474  2.3682 -0.8104
 7907SOL     OW35353   4.638   3.209  14.330  0.0170 -0.1994 -0.7885
 7907SOL    HW135354   4.647   3.161  14.248  2.0392  1.1294 -1.3410
 7907SOL    HW235355   4.709   3.180  14.387  2.8272  2.0483 -3.1201
 7908SOL     OW35356   0.086   1.025   9.239 -0.5797  0.2765 -0.5681
 7908SOL    HW135357   0.157   1.070   9.285 -1.0283 -0.6936  1.0792
 7908SOL    HW235358   0.006   1.053   9.284 -0.0814 -1.4315  1.4001
 7909SOL     OW35359   0.138   0.187  15.078  0.4695  0.3886 -0.0319
 7909SOL    HW135360   0.051   0.228  15.071  0.3916  0.2855  0.2956
 7909SOL    HW235361   0.125   0.135  15.157 -0.5699  1.8925  0.7998
 7910SOL     OW35362   2.709   3.113  12.827  0.3189 -0.5559 -0.1785
 7910SOL    HW135363   2.695   3.073  12.742 -1.8493 -1.1467  0.4625
 7910SOL    HW235364   2.642   3.065  12.877 -1.0066  1.2181 -0.2442
 7911SOL     OW35365   1.949   1.072   5.261  0.3830  0.1287  0.1182
 7911SOL    HW135366   1.970   1.048   5.171 -0.0664 -1.2138  0.3744
 7911SOL    HW235367   1.986   1.003   5.316 -2.4225  0.0879  1.9641
 7912SOL     OW35368   0.490   0.016  16.847 -0.2405 -0.3957 -0.0625
 7912SOL    HW135369   0.399   0.024  16.816 -0.2897  1.8218  0.6803
 7912SOL    HW235370   0.484   0.067  16.927 -1.4879  0.3685 -0.6395
 7913SOL     OW35371   4.307   2.513   8.872  0.8644  0.4079 -0.2392
 7913SOL    HW135372   4.219   2.504   8.835  1.6598  0.8668 -2.2307
 7913SOL    HW235373   4.312   2.450   8.945  0.5150  1.0496  0.3425
 7914SOL     OW35374   0.426   4.639   4.240 -0.3788 -0.0516  0.2128
 7914SOL    HW135375   0.450   4.704   4.305 -0.4872 -1.1030  1.3183
 7914SOL    HW235376   0.332   4.618   4.243 -0.0555 -1.0218  4.4467
 7915SOL     OW35377   1.292   3.383   7.666  0.1812  0.6082  0.0161
 7915SOL    HW135378   1.315   3.297   7.629  2.4422  0.5034  1.6962
 7915SOL    HW235379   1.276   3.432   7.585  1.3290  0.9898  0.0196
 7916SOL     OW35380   1.082   4.054  13.435 -0.1981 -0.2404 -0.0537
 7916SOL    HW135381   1.060   4.081  13.524  1.6203  0.1702  0.2776
 7916SOL    HW235382   1.167   4.018  13.462  0.6780  0.8605 -1.3266
 7917SOL     OW35383   2.584   3.518  10.254 -0.0135  0.0478 -0.7319
 7917SOL    HW135384   2.656   3.540  10.196  2.5805  1.3509  2.9759
 7917SOL    HW235385   2.509   3.563  10.216 -1.3251 -2.6223 -1.2753
 7918SOL     OW35386   1.881   4.002   2.272 -0.2145  0.1240 -0.3897
 7918SOL    HW135387   1.911   3.914   2.247 -0.3242  0.2230 -0.8683
 7918SOL    HW235388   1.931   4.030   2.348 -1.3308 -0.6223  0.6400
 7919SOL     OW35389   2.899   4.576  14.058  0.3637 -0.1890  0.1919
 7919SOL    HW135390   2.975   4.633  14.071 -0.6599  0.9023  1.5143
 7919SOL    HW235391   2.833   4.646  14.059  0.7189  0.1534 -1.2918
 7920SOL     OW35392   0.779   0.705   1.976  0.1451  0.0942 -0.2696
 7920SOL    HW135393   0.841   0.740   1.912  1.3515 -3.3897 -0.9678
 7920SOL    HW235394   0.840   0.647   2.020  0.4822 -0.2348 -1.1736
 7921SOL     OW35395   0.113   1.449   8.972  0.3253  0.3962 -0.0515
 7921SOL    HW135396   0.039   1.500   8.940  0.9136  0.9009 -0.6039
 7921SOL    HW235397   0.068   1.384   9.027  0.8846 -0.1494 -0.2337
 7922SOL     OW35398   2.025   2.024   4.123 -0.3542  0.4276 -0.1316
 7922SOL    HW135399   2.019   2.120   4.124  0.1353  0.4498  0.9794
 7922SOL    HW235400   2.121   2.030   4.114 -0.2456 -2.3955 -0.6220
 7923SOL     OW35401   2.026   2.887   7.134  0.2115  0.3418 -0.0334
 7923SOL    HW135402   1.979   2.914   7.213 -2.2437 -1.1151 -0.9951
 7923SOL    HW235403   2.106   2.937   7.152 -0.5998  1.4769  0.3689
 7924SOL     OW35404   1.950   4.233   2.507 -0.3333 -0.7019 -0.0287
 7924SOL    HW135405   1.873   4.262   2.458 -0.7459 -1.7712 -0.0138
 7924SOL    HW235406   1.923   4.163   2.566 -1.6981  1.6163  2.0818
 7925SOL     OW35407   3.437   4.193   8.942 -0.4363  0.3572  0.9704
 7925SOL    HW135408   3.450   4.195   8.847 -1.0482  3.9435  0.9627
 7925SOL    HW235409   3.342   4.199   8.940 -0.5509 -1.1066  2.2733
 7926SOL     OW35410   3.137   0.057  14.088  0.0883 -0.7123  0.2446
 7926SOL    HW135411   3.131   0.152  14.092 -1.1865 -0.7103 -1.8903
 7926SOL    HW235412   3.226   0.045  14.055  0.2896  3.7227 -0.7708
 7927SOL     OW35413   1.008   2.650   9.077 -0.5537  0.2910 -0.0253
 7927SOL    HW135414   0.982   2.707   9.150 -0.3094 -1.8650  1.7495
 7927SOL    HW235415   1.077   2.697   9.030 -0.9779  0.0847 -0.8570
 7928SOL     OW35416   3.450   2.601  16.351  0.0532  0.2014  0.5033
 7928SOL    HW135417   3.527   2.658  16.348  0.7457 -0.7365  0.4105
 7928SOL    HW235418   3.386   2.663  16.386  1.4097  2.8032 -1.6254
 7929SOL     OW35419   4.297   2.096   2.760  0.0348 -0.0449  0.3469
 7929SOL    HW135420   4.310   2.186   2.790 -0.1274 -0.6848  2.3247
 7929SOL    HW235421   4.210   2.081   2.796 -0.1720 -2.2287 -1.0800
 7930SOL     OW35422   2.844   4.072   6.600  0.4179  0.0675  0.3223
 7930SOL    HW135423   2.863   4.052   6.508  1.1077  3.4242 -0.2488
 7930SOL    HW235424   2.801   4.156   6.584 -1.5505 -0.6822  1.6264
 7931SOL     OW35425   4.089   4.355   0.678  0.2088 -0.1802 -0.2615
 7931SOL    HW135426   4.020   4.323   0.620  0.1680  2.0601 -1.4778
 7931SOL    HW235427   4.047   4.438   0.699 -0.3809 -1.1197  2.1880
 7932SOL     OW35428   0.608   1.511   5.037  0.6840 -0.8741  0.4902
 7932SOL    HW135429   0.600   1.425   4.996  0.8242 -1.0590  0.8501
 7932SOL    HW235430   0.698   1.503   5.070  1.7967 -1.2749 -2.6577
 7933SOL     OW35431   2.019   3.388   6.467 -0.3723 -0.3109  0.3280
 7933SOL    HW135432   2.008   3.343   6.384 -1.8088  0.8680 -0.1173
 7933SOL    HW235433   1.937   3.436   6.459  1.5530  2.7085 -1.2640
 7934SOL     OW35434   0.587   3.264   1.883  0.3795  0.3027  0.1917
 7934SOL    HW135435   0.652   3.284   1.815 -0.6482  0.9507 -0.5924
 7934SOL    HW235436   0.500   3.263   1.842  0.6761  0.0690 -0.4359
 7935SOL     OW35437   1.560   3.626  16.452  0.5146  0.1150 -0.1315
 7935SOL    HW135438   1.573   3.651  16.543  1.0554  0.4536 -0.2978
 7935SOL    HW235439   1.520   3.706  16.417  0.4055  0.2309  0.2675
 7936SOL     OW35440   3.258   1.401   8.440 -0.6913 -0.4899  0.0137
 7936SOL    HW135441   3.301   1.454   8.372  0.8654 -0.5241  0.9708
 7936SOL    HW235442   3.249   1.328   8.378  1.0276 -0.0304 -0.7974
 7937SOL     OW35443   3.097   3.043   2.124 -0.3181  0.0646  0.1941
 7937SOL    HW135444   3.095   3.006   2.036  1.2249  0.6745 -0.0913
 7937SOL    HW235445   3.029   2.997   2.174 -1.8429  0.6789 -1.3095
 7938SOL     OW35446   1.450   2.368   7.962  0.1659 -0.3586  0.1790
 7938SOL    HW135447   1.474   2.400   8.049  0.8421 -0.6452  0.0983
 7938SOL    HW235448   1.535   2.371   7.917  0.1039 -2.4433 -0.0984
 7939SOL     OW35449   4.276   0.248   0.470 -0.1383 -0.4166 -0.0212
 7939SOL    HW135450   4.185   0.219   0.461 -0.7435  2.4103 -3.1162
 7939SOL    HW235451   4.301   0.308   0.399 -0.1384  1.8076  1.8627
 7940SOL     OW35452   3.783   0.960  10.016 -0.4920  0.0021 -0.0325
 7940SOL    HW135453   3.870   0.919  10.018 -0.8287 -0.6770  0.4261
 7940SOL    HW235454   3.750   0.927  10.099  1.0430 -1.2563  0.0670
 7941SOL     OW35455   1.867   2.647  10.959  0.3314  0.2455 -0.1883
 7941SOL    HW135456   1.916   2.715  10.913  0.3682 -0.9652 -1.9852
 7941SOL    HW235457   1.928   2.617  11.026 -1.1802  0.4239  1.2499
 7942SOL     OW35458   3.530   2.650   1.310 -0.3385  0.2043 -0.3730
 7942SOL    HW135459   3.565   2.738   1.319  0.1639 -0.0541  0.2293
 7942SOL    HW235460   3.440   2.663   1.281  0.2772 -0.5399 -2.5915
 7943SOL     OW35461   3.437   3.212   6.177 -0.9128 -0.5505 -0.1321
 7943SOL    HW135462   3.470   3.302   6.182  0.3515 -0.9526 -1.2338
 7943SOL    HW235463   3.386   3.211   6.096 -1.1890 -0.0036  0.0353
 7944SOL     OW35464   3.023   1.569   1.189  0.2070 -0.4534 -0.2130
 7944SOL    HW135465   3.035   1.485   1.235 -2.6153 -0.1174  1.1543
 7944SOL    HW235466   2.934   1.564   1.154  0.0490 -0.4693  0.1857
 7945SOL     OW35467   4.450   0.064   7.235 -0.7568  0.4190 -0.1134
 7945SOL    HW135468   4.541   0.035   7.228 -0.6723  1.0175 -1.4502
 7945SOL    HW235469   4.450   0.119   7.157  1.4304  1.9689  1.0074
 7946SOL     OW35470   2.670   2.131   6.718 -0.2604 -0.3354  0.3310
 7946SOL    HW135471   2.593   2.177   6.751  0.4932 -0.1062  1.7496
 7946SOL    HW235472   2.651   2.147   6.625  0.1762 -2.7598 -0.1641
 7947SOL     OW35473   0.760   0.504   9.310 -0.6094  0.3330 -0.0678
 7947SOL    HW135474   0.765   0.458   9.226 -1.1430  0.3243 -0.0928
 7947SOL    HW235475   0.847   0.542   9.319 -0.0455 -0.5688 -1.6549
 7948SOL     OW35476   3.281   2.590   5.534 -0.0622  0.2778  0.3326
 7948SOL    HW135477   3.271   2.518   5.596  2.3239  1.3910  2.0170
 7948SOL    HW235478   3.334   2.546   5.468 -1.7936  1.6807 -1.9759
 7949SOL     OW35479   3.384   2.670   3.279 -0.5786  0.0327  0.0036
 7949SOL    HW135480   3.365   2.646   3.188 -1.2641 -0.8769  0.3882
 7949SOL    HW235481   3.421   2.584   3.297 -0.6858  0.0234  0.1714
 7950SOL     OW35482   3.122   3.996   9.593  0.4658  0.6105  0.3675
 7950SOL    HW135483   3.146   4.080   9.555 -1.2702  0.5026 -0.9617
 7950SOL    HW235484   3.163   3.943   9.525 -0.2676  1.1563 -0.5043
 7951SOL     OW35485   2.342   3.483  12.085 -0.2140  0.2728 -0.0297
 7951SOL    HW135486   2.296   3.561  12.053 -1.3883 -0.9191 -1.2357
 7951SOL    HW235487   2.294   3.461  12.165  1.1231  0.6563  0.8935
 7952SOL     OW35488   2.954   0.758   5.908  0.3238 -0.0051  0.1154
 7952SOL    HW135489   3.048   0.741   5.913  0.6051  1.8603  0.8048
 7952SOL    HW235490   2.947   0.841   5.953 -0.7364 -0.9757  1.7311
 7953SOL     OW35491   4.452   1.580   9.632  0.1995  0.7619 -0.4423
 7953SOL    HW135492   4.482   1.670   9.641 -1.1412  1.1512  0.0699
 7953SOL    HW235493   4.417   1.562   9.719 -3.5010 -1.5115 -2.4126
 7954SOL     OW35494   3.664   1.424   7.986  0.4570  0.3458  0.8605
 7954SOL    HW135495   3.722   1.482   8.035  0.3252 -0.0873  1.5378
 7954SOL    HW235496   3.631   1.477   7.914  2.6307 -0.0361 -0.3988
 7955SOL     OW35497   3.413   3.531  12.229 -0.6057 -0.0504  0.0515
 7955SOL    HW135498   3.490   3.500  12.277 -0.2705 -0.9090 -1.0433
 7955SOL    HW235499   3.443   3.618  12.204 -0.7936  0.3302  1.1485
 7956SOL     OW35500   3.611   0.212   8.462 -0.0717 -0.1254 -0.1884
 7956SOL    HW135501   3.583   0.162   8.539 -1.2743 -0.1113 -0.6106
 7956SOL    HW235502   3.702   0.187   8.450 -0.3263 -2.0654  1.8643
 7957SOL     OW35503   2.202   3.591  11.136  0.3675  0.4646 -0.0724
 7957SOL    HW135504   2.136   3.522  11.131 -0.0568  0.7750  1.3853
 7957SOL    HW235505   2.142   3.660  11.107  0.0322  1.1753  2.2653
 7958SOL     OW35506   1.749   3.448   3.966 -0.5602  0.1371  0.5204
 7958SOL    HW135507   1.697   3.502   3.908 -1.6260 -3.5357 -1.9732
 7958SOL    HW235508   1.828   3.432   3.914  1.0263  1.5340  2.4953
 7959SOL     OW35509   4.646   3.301   1.799 -0.3367  0.2184 -0.5462
 7959SOL    HW135510   4.624   3.272   1.887  0.6757 -0.0220 -0.3759
 7959SOL    HW235511   4.718   3.361   1.817  0.8367 -0.6926 -2.2125
 7960SOL     OW35512   1.023   3.287   4.589 -0.2942 -0.3146  0.3308
 7960SOL    HW135513   0.974   3.212   4.556 -0.8634  0.0582  0.3224
 7960SOL    HW235514   0.959   3.359   4.591  0.1043  0.0351  0.3563
 7961SOL     OW35515   1.842   1.933   4.573  0.1058  0.0844  0.3224
 7961SOL    HW135516   1.750   1.919   4.596 -0.3465  0.7274 -1.0862
 7961SOL    HW235517   1.876   1.846   4.596 -0.6441 -0.0626  0.8859
 7962SOL     OW35518   1.087   4.638   2.558  0.0038  0.2671 -0.4369
 7962SOL    HW135519   1.063   4.712   2.501 -0.6926  2.4494  2.7296
 7962SOL    HW235520   1.005   4.588   2.556  0.8897 -1.2232  0.6354
 7963SOL     OW35521   0.920   1.920   2.031 -0.3424 -0.1917 -0.0937
 7963SOL    HW135522   0.915   1.858   1.958  2.8890 -1.9574  1.2005
 7963SOL    HW235523   0.881   1.991   1.980 -0.7312 -2.0326 -2.3315
 7964SOL     OW35524   4.220   1.880   3.170  0.1063 -0.4141 -0.0482
 7964SOL    HW135525   4.258   1.802   3.130  0.0565 -0.4105 -0.1024
 7964SOL    HW235526   4.302   1.923   3.193  0.2057  0.6738 -2.3617
 7965SOL     OW35527   1.698   2.615   7.494  0.0007  0.1011 -0.0651
 7965SOL    HW135528   1.713   2.598   7.401  3.4675  0.8430  0.3679
 7965SOL    HW235529   1.621   2.671   7.486 -0.6541 -1.0810 -1.9496
 7966SOL     OW35530   2.412   1.343   3.254 -0.1352 -0.4400 -0.1154
 7966SOL    HW135531   2.323   1.373   3.270  0.1269 -0.0552  0.5754
 7966SOL    HW235532   2.395   1.282   3.182  1.8116  0.7133 -1.5268
 7967SOL     OW35533   2.778   2.306   3.359 -0.1654  0.8114  0.0787
 7967SOL    HW135534   2.846   2.288   3.294 -1.4177  3.1924 -1.8846
 7967SOL    HW235535   2.828   2.307   3.440  1.1834  0.2107 -0.7583
 7968SOL     OW35536   3.478   1.678   7.369  0.2895  0.6621 -0.2615
 7968SOL    HW135537   3.424   1.702   7.294  0.6564  1.4562 -0.2747
 7968SOL    HW235538   3.558   1.728   7.352  0.5496 -0.7309 -3.0826
 7969SOL     OW35539   3.003   4.376   9.102  0.0781 -0.0506  0.6863
 7969SOL    HW135540   2.928   4.362   9.045 -1.1025 -1.1557  2.5486
 7969SOL    HW235541   3.068   4.431   9.057  0.7269 -1.3301  0.0455
 7970SOL     OW35542   2.094   4.625   2.823  0.2548 -0.4989  0.0942
 7970SOL    HW135543   2.133   4.544   2.855  1.9342  0.8549  1.4817
 7970SOL    HW235544   2.002   4.600   2.808  1.0119 -1.5791 -2.7982
 7971SOL     OW35545   1.911   2.919  17.054 -0.2300 -0.1318 -0.1046
 7971SOL    HW135546   1.867   2.990  17.102  0.1278 -0.9301  1.3804
 7971SOL    HW235547   1.954   2.965  16.983 -1.1995 -0.7366 -1.0861
 7972SOL     OW35548   4.041   3.173   5.790 -0.4527 -0.2378 -0.0393
 7972SOL    HW135549   4.024   3.084   5.822  1.8071 -1.3173 -1.9148
 7972SOL    HW235550   4.025   3.230   5.866  1.1167  0.0571  0.0648
 7973SOL     OW35551   0.423   2.006  15.378  0.4104  0.6108 -0.1978
 7973SOL    HW135552   0.490   1.987  15.444 -1.3748 -1.8602  0.8809
 7973SOL    HW235553   0.373   1.925  15.388 -0.9100  1.4329 -0.1730
 7974SOL     OW35554   3.290   3.712   5.817 -0.9047  0.5295 -0.2060
 7974SOL    HW135555   3.326   3.789   5.772 -1.6742 -0.0145 -1.7585
 7974SOL    HW235556   3.221   3.678   5.760 -0.2198  1.1392 -1.4222
 7975SOL     OW35557   3.421   2.612   1.883 -0.2088  0.1177  0.3418
 7975SOL    HW135558   3.511   2.617   1.916  0.4508 -0.9313 -1.2620
 7975SOL    HW235559   3.395   2.704   1.874  1.7065  0.7206  0.8507
 7976SOL     OW35560   2.352   4.092   8.747 -0.3161  0.2767 -0.3275
 7976SOL    HW135561   2.398   4.172   8.721  1.8764 -0.3890  1.4789
 7976SOL    HW235562   2.424   4.032   8.767 -1.6469 -1.5203 -0.9596
 7977SOL     OW35563   3.283   1.341  12.119  0.1475  0.3849 -0.1776
 7977SOL    HW135564   3.231   1.336  12.039 -3.2479  0.5141  1.9801
 7977SOL    HW235565   3.236   1.303  12.194 -0.8539 -1.8596 -1.9101
 7978SOL     OW35566   4.421   1.245  13.522 -0.1054  0.0977 -0.1550
 7978SOL    HW135567   4.503   1.197  13.512  0.5888  1.5689 -1.5622
 7978SOL    HW235568   4.374   1.179  13.573  0.7855  0.3609  1.0013
 7979SOL     OW35569   3.562   4.237  10.532 -0.4673  0.5271 -0.2767
 7979SOL    HW135570   3.484   4.182  10.519 -0.0042  0.3450 -2.2660
 7979SOL    HW235571   3.641   4.189  10.508 -2.5861 -1.4227 -3.3420
 7980SOL     OW35572   0.939   4.062   6.311  0.0056  0.8163 -0.4594
 7980SOL    HW135573   0.850   4.040   6.339 -0.6970  0.0381 -3.3788
 7980SOL    HW235574   0.966   3.988   6.258 -1.8044 -0.0018 -0.2501
 7981SOL     OW35575   3.496   1.837  15.579  0.4480  0.0523  0.1949
 7981SOL    HW135576   3.589   1.822  15.596  0.4878 -2.0394 -1.9120
 7981SOL    HW235577   3.496   1.908  15.515 -1.4159 -1.0802 -1.0709
 7982SOL     OW35578   2.585   2.388  10.217  0.3515  0.2682 -0.1173
 7982SOL    HW135579   2.504   2.368  10.170 -0.3253 -0.5456  1.4016
 7982SOL    HW235580   2.578   2.478  10.249 -0.2134  0.3655 -0.5150
 7983SOL     OW35581   1.777   3.346   1.693  0.0673  0.2570 -0.1168
 7983SOL    HW135582   1.856   3.292   1.701  0.8637  1.1634 -1.8461
 7983SOL    HW235583   1.753   3.360   1.785  0.8372 -0.2553  0.1582
 7984SOL     OW35584   2.554   4.705   2.377  0.4945 -0.5045 -0.5530
 7984SOL    HW135585   2.639   4.723   2.419 -1.0471  0.7396  2.0482
 7984SOL    HW235586   2.550   0.057   2.333  1.4838 -0.4587 -0.5628
 7985SOL     OW35587   2.003   3.760   5.564  0.0803 -0.1298  0.2290
 7985SOL    HW135588   2.016   3.676   5.520 -0.2480 -0.2938  0.4432
 7985SOL    HW235589   1.908   3.765   5.575  0.0291  1.4802 -1.0834
 7986SOL     OW35590   3.787   1.622  13.909  0.2216  0.1287 -0.0631
 7986SOL    HW135591   3.820   1.695  13.961  1.5313 -0.7744  0.3615
 7986SOL    HW235592   3.747   1.572  13.980  3.3363  0.2803  1.7783
 7987SOL     OW35593   2.522   1.175   6.349 -0.5954  0.4606  0.0921
 7987SOL    HW135594   2.437   1.147   6.316  1.0973 -2.3491 -1.9908
 7987SOL    HW235595   2.511   1.153   6.442 -0.2432 -0.4418 -0.0705
 7988SOL     OW35596   1.518   1.019  17.098  1.0873 -0.1278 -0.7495
 7988SOL    HW135597   1.468   0.945  17.131 -0.6991  1.6298  0.4920
 7988SOL    HW235598   1.475   1.035  17.014 -1.0879 -1.1856  0.1757
 7989SOL     OW35599   2.242   1.784   4.523  0.8034  0.4500 -0.0266
 7989SOL    HW135600   2.311   1.773   4.589  0.9921  0.3067 -0.2448
 7989SOL    HW235601   2.285   1.806   4.440 -2.3829 -0.5357 -1.9050
 7990SOL     OW35602   0.551   2.979  15.730  1.0800  0.3538  0.4289
 7990SOL    HW135603   0.619   2.913  15.718  0.4629 -0.3407  0.7933
 7990SOL    HW235604   0.566   3.016  15.817  0.6442  1.0977  0.1857
 7991SOL     OW35605   1.883   0.100  12.158  0.4193  0.5368 -0.5314
 7991SOL    HW135606   1.961   0.137  12.116  0.6444 -0.4065 -0.9543
 7991SOL    HW235607   1.898   0.007  12.139  0.8761  0.7572 -1.2838
 7992SOL     OW35608   1.132   3.929   5.910 -0.1861 -0.4285 -0.3259
 7992SOL    HW135609   1.109   3.844   5.873 -1.6917 -0.1907  0.0643
 7992SOL    HW235610   1.097   3.923   5.999  0.2324  3.2408  0.0831
 7993SOL     OW35611   1.272   0.369  15.638 -0.1019  0.0171  0.7140
 7993SOL    HW135612   1.316   0.388  15.555 -1.4897 -1.4194 -0.3554
 7993SOL    HW235613   1.184   0.356  15.603  0.5231 -0.3936 -0.7322
 7994SOL     OW35614   0.367   2.423  12.069 -0.4566  0.1840 -0.0244
 7994SOL    HW135615   0.459   2.429  12.045 -0.6556 -1.1725 -1.1145
 7994SOL    HW235616   0.352   2.377  12.151 -2.3894  2.6572  0.9919
 7995SOL     OW35617   4.351   3.330   8.575  0.4884 -0.5258 -0.3952
 7995SOL    HW135618   4.269   3.286   8.598 -0.7203  2.3154  0.8051
 7995SOL    HW235619   4.414   3.268   8.611 -0.6767 -0.9604  0.9089
 7996SOL     OW35620   1.867   0.017   8.974 -0.2496 -1.0684  0.1545
 7996SOL    HW135621   1.948   0.005   9.024 -1.0699 -1.6742  1.3223
 7996SOL    HW235622   1.851   0.112   8.977  1.3037 -0.8511  1.3418
 7997SOL     OW35623   3.544   0.124   7.585  0.0643 -0.2127 -0.0011
 7997SOL    HW135624   3.552   0.202   7.640  1.3143 -0.2582 -0.1321
 7997SOL    HW235625   3.633   0.108   7.555  0.5820 -3.2999  3.1455
 7998SOL     OW35626   0.423   4.113   3.077 -0.2730  0.3736 -0.2600
 7998SOL    HW135627   0.445   4.126   3.169 -1.0028  1.6012 -0.2596
 7998SOL    HW235628   0.491   4.171   3.044  1.6059  0.1066  3.1758
 7999SOL     OW35629   2.508   3.304   9.147  0.1595  0.1706 -0.4860
 7999SOL    HW135630   2.471   3.216   9.153 -0.1636  0.1817 -2.1576
 7999SOL    HW235631   2.532   3.328   9.236 -0.5191 -0.7932 -0.0452
 8000SOL     OW35632   1.852   4.219  13.336 -0.2041 -0.5064  0.3543
 8000SOL    HW135633   1.782   4.196  13.274 -0.5518 -2.1618  1.3480
 8000SOL    HW235634   1.793   4.258  13.400 -1.2767  0.2928 -1.1403
 8001SOL     OW35635   2.794   1.446   6.335  0.0127 -0.1241 -0.2258
 8001SOL    HW135636   2.841   1.523   6.304 -0.4443  0.2689  0.0611
 8001SOL    HW235637   2.702   1.474   6.336  0.1720  0.3676  0.3159
 8002SOL     OW35638   0.080   1.954  16.887 -0.1303 -0.3795 -0.4117
 8002SOL    HW135639   0.088   1.937  16.793 -0.7565  1.4082 -0.7920
 8002SOL    HW235640   0.035   2.038  16.891 -0.7928 -0.6871 -1.3549
 8003SOL     OW35641   1.092   1.355   0.054 -0.3493  0.0878  0.1738
 8003SOL    HW135642   1.020   1.315   0.102  0.1876  2.2071  2.7718
 8003SOL    HW235643   1.126   1.412   0.123  4.1296 -2.2726 -0.0452
 8004SOL     OW35644   2.458   4.025   3.477 -0.3185  0.2230 -0.4336
 8004SOL    HW135645   2.483   4.062   3.562  1.1591 -1.8481  0.0163
 8004SOL    HW235646   2.477   4.098   3.417  3.2582  0.6836  1.2546
 8005SOL     OW35647   2.734   3.342   2.615  0.1716  0.8027 -0.1025
 8005SOL    HW135648   2.649   3.345   2.571 -0.3918  0.6019  0.9610
 8005SOL    HW235649   2.792   3.393   2.558 -1.5521  2.4418 -0.3896
 8006SOL     OW35650   3.353   3.791   1.543 -0.2572  0.4293  0.2434
 8006SOL    HW135651   3.365   3.709   1.589 -2.0451  0.8582  1.4786
 8006SOL    HW235652   3.395   3.859   1.595  1.3095  0.8370 -1.5467
 8007SOL     OW35653   1.219   2.156   0.522 -0.1474 -0.0342  0.6782
 8007SOL    HW135654   1.282   2.137   0.592 -0.7514 -1.2379  0.8876
 8007SOL    HW235655   1.271   2.172   0.444  0.2078 -0.6727  0.7831
 8008SOL     OW35656   2.472   4.160   8.415 -0.0838 -0.2521  0.2261
 8008SOL    HW135657   2.455   4.235   8.358  1.4553  1.0943  1.5617
 8008SOL    HW235658   2.533   4.207   8.471  1.7547 -1.4251 -0.7867
 8009SOL     OW35659   3.673   0.318   8.882  0.5022  0.5467  0.0336
 8009SOL    HW135660   3.658   0.354   8.970 -1.8373  1.4303 -0.7405
 8009SOL    HW235661   3.727   0.245   8.912 -0.4726 -0.6790 -1.2015
 8010SOL     OW35662   1.356   2.118   7.710  0.1916 -0.0083 -0.1851
 8010SOL    HW135663   1.265   2.104   7.736  0.5050  2.4007  2.1603
 8010SOL    HW235664   1.394   2.100   7.796  0.9056  1.8873 -0.1167
 8011SOL     OW35665   4.581   3.120   4.588 -0.0736 -0.2913  0.2356
 8011SOL    HW135666   4.585   3.197   4.645 -1.0164  1.2103 -1.6954
 8011SOL    HW235667   4.659   3.129   4.533  0.9716 -1.5546  1.5061
 8012SOL     OW35668   0.795   0.073   3.016  0.3776  0.1079  0.2466
 8012SOL    HW135669   0.817   0.160   2.981  0.5258 -0.0608 -0.0810
 8012SOL    HW235670   0.768   0.029   2.935 -1.6071  0.9622  0.4626
 8013SOL     OW35671   2.298   3.317   8.955 -0.0161 -0.0473 -0.3031
 8013SOL    HW135672   2.372   3.340   9.011 -0.4569 -1.9506  1.0637
 8013SOL    HW235673   2.282   3.229   8.990 -0.9384  0.2554  0.0573
 8014SOL     OW35674   0.479   2.413   4.781 -0.4082  0.2057  0.3651
 8014SOL    HW135675   0.542   2.392   4.713 -0.8775  2.6752 -0.8370
 8014SOL    HW235676   0.452   2.331   4.822 -2.2542  1.3055  1.3543
 8015SOL     OW35677   0.666   0.026   4.593 -0.0738  0.0418 -0.1329
 8015SOL    HW135678   0.592   0.072   4.553 -0.4924  0.7091  1.3893
 8015SOL    HW235679   0.700   0.093   4.653 -1.3923 -2.1127  3.0054
 8016SOL     OW35680   3.006   1.302   8.986  0.1246 -0.5261  1.0321
 8016SOL    HW135681   3.036   1.393   8.987  2.6082 -1.3332 -0.3406
 8016SOL    HW235682   3.090   1.256   8.985 -0.3991 -1.4991  1.7535
 8017SOL     OW35683   2.279   0.060   6.880 -0.0481 -0.3251 -0.6403
 8017SOL    HW135684   2.372   0.066   6.858 -0.0254 -1.8715 -1.0284
 8017SOL    HW235685   2.256   0.152   6.892 -0.6483 -0.2504 -2.3624
 8018SOL     OW35686   0.880   2.456   5.195 -0.9438  0.0723 -0.1008
 8018SOL    HW135687   0.916   2.440   5.282 -0.2804 -0.9641 -0.5727
 8018SOL    HW235688   0.849   2.368   5.175 -1.8121 -0.1105  2.0185
 8019SOL     OW35689   1.874   1.995   3.145 -0.4591 -0.0816  0.0252
 8019SOL    HW135690   1.784   1.964   3.143 -0.4770  0.0018 -0.4097
 8019SOL    HW235691   1.862   2.082   3.106 -0.5922  0.0300  0.3113
 8020SOL     OW35692   2.780   1.669   7.449 -0.1562 -0.3167 -0.1417
 8020SOL    HW135693   2.811   1.636   7.533 -0.0559 -2.5779 -1.0456
 8020SOL    HW235694   2.694   1.694   7.484  0.5985 -0.5358  1.8553
 8021SOL     OW35695   3.904   2.940   1.598  0.4594  0.5685  0.0890
 8021SOL    HW135696   3.843   2.895   1.656 -0.2664  2.3715  0.7165
 8021SOL    HW235697   3.849   3.015   1.579  0.7389  0.9874  0.9058
 8022SOL     OW35698   3.017   2.554   3.855  0.1241  0.3673 -0.1198
 8022SOL    HW135699   2.966   2.554   3.774 -0.0981  3.9628  0.0169
 8022SOL    HW235700   2.952   2.508   3.907  1.7078 -1.2494  0.4462
 8023SOL     OW35701   2.519   4.071   0.788  0.2857  0.1904 -0.5261
 8023SOL    HW135702   2.579   4.096   0.858 -0.0837 -2.2803  0.6862
 8023SOL    HW235703   2.506   3.978   0.806  1.7748 -0.1846 -1.3519
 8024SOL     OW35704   0.758   3.734   5.788 -0.4429  0.6747 -0.8203
 8024SOL    HW135705   0.753   3.768   5.877 -2.8093 -0.3118 -0.5899
 8024SOL    HW235706   0.796   3.802   5.732  0.4452  1.1847  0.3896
 8025SOL     OW35707   4.269   0.790  11.698 -0.6161 -0.0452  0.0211
 8025SOL    HW135708   4.186   0.754  11.730  0.3528 -1.7662  0.5888
 8025SOL    HW235709   4.279   0.865  11.757  0.6416  1.5891 -2.2833
 8026SOL     OW35710   1.782   0.054   3.410  0.3431 -0.1688  0.3227
 8026SOL    HW135711   1.778   4.699   3.372 -0.2171  0.0884 -0.2216
 8026SOL    HW235712   1.787   0.105   3.329  0.5994 -0.0792  0.3948
 8027SOL     OW35713   1.184   2.573   8.750 -0.7358 -0.0816  0.2581
 8027SOL    HW135714   1.263   2.625   8.764 -1.2197  1.0061 -1.0550
 8027SOL    HW235715   1.114   2.638   8.740  1.6175  2.7607  2.1083
 8028SOL     OW35716   0.451   2.460   5.238  0.5422 -0.7773 -0.3184
 8028SOL    HW135717   0.388   2.388   5.241  0.1734 -0.3771  1.3518
 8028SOL    HW235718   0.492   2.467   5.152 -0.5315  2.4620 -0.5441
 8029SOL     OW35719   2.021   4.168   1.878  0.6596 -0.0455 -0.1707
 8029SOL    HW135720   2.071   4.098   1.917  1.9921  0.8535 -0.2763
 8029SOL    HW235721   2.015   4.230   1.951 -3.6207 -2.3326  1.4095
 8030SOL     OW35722   4.134   0.914  15.366  0.5275 -0.2465  0.1175
 8030SOL    HW135723   4.115   1.007  15.381  1.3594  0.1525 -1.3084
 8030SOL    HW235724   4.220   0.923  15.325  1.1560  1.0557  1.7257
 8031SOL     OW35725   0.829   3.904   6.618 -0.6171  1.0195 -0.5428
 8031SOL    HW135726   0.791   3.992   6.619 -0.7251  0.9452  2.3387
 8031SOL    HW235727   0.752   3.855   6.645 -0.3098  0.1664 -1.2084
 8032SOL     OW35728   4.712   2.259   1.099  0.3154 -0.1988  0.1197
 8032SOL    HW135729   4.624   2.262   1.063  0.1161 -1.4096  0.5293
 8032SOL    HW235730   4.691   2.307   1.178 -1.2969  1.0153 -1.0483
 8033SOL     OW35731   3.860   3.830  13.483 -0.2572 -0.3377  0.3847
 8033SOL    HW135732   3.899   3.906  13.527  2.3424 -0.7629 -1.1561
 8033SOL    HW235733   3.846   3.774  13.560  0.8085 -1.1387 -0.0052
 8034SOL     OW35734   1.949   1.815   6.126 -0.5605  0.0046  0.5016
 8034SOL    HW135735   2.009   1.890   6.124  2.5767 -2.4831  1.7540
 8034SOL    HW235736   2.010   1.744   6.147 -0.5786  0.1789  1.1276
 8035SOL     OW35737   0.983   0.352   9.649 -0.0577  0.3600 -0.0581
 8035SOL    HW135738   0.915   0.397   9.599  0.8732  3.6260  1.6462
 8035SOL    HW235739   1.037   0.422   9.684  1.6984  1.0095 -4.0164
 8036SOL     OW35740   2.788   2.161   9.836 -0.2809  0.1472 -0.1222
 8036SOL    HW135741   2.787   2.212   9.755  0.6277 -1.7107 -1.2897
 8036SOL    HW235742   2.749   2.228   9.892  0.4141  2.4927 -2.4649
 8037SOL     OW35743   1.575   3.147   2.776  0.6951 -0.4016 -0.0957
 8037SOL    HW135744   1.608   3.064   2.744  1.2828 -0.8035  1.5564
 8037SOL    HW235745   1.536   3.115   2.858 -0.9534 -1.6597 -1.3814
 8038SOL     OW35746   1.582   4.559   6.312 -0.2618  0.0244  0.4014
 8038SOL    HW135747   1.544   4.588   6.395 -0.8398 -1.8354  0.7899
 8038SOL    HW235748   1.505   4.575   6.258 -0.2550  0.3574  0.4929
 8039SOL     OW35749   4.432   2.430  10.623  0.2363  0.2330 -0.6815
 8039SOL    HW135750   4.388   2.380  10.554  1.6883 -2.4028  0.3001
 8039SOL    HW235751   4.481   2.360  10.667  1.8143 -0.7930 -4.0573
 8040SOL     OW35752   1.707   3.668   5.591 -0.4309  0.1711 -0.0266
 8040SOL    HW135753   1.682   3.691   5.680 -0.0586 -0.4492  0.2380
 8040SOL    HW235754   1.624   3.675   5.544 -0.6738  0.2843  0.4184
 8041SOL     OW35755   0.015   3.550   7.451 -0.2559  0.0861 -0.6311
 8041SOL    HW135756   0.059   3.523   7.370 -0.8266 -1.9761 -0.2564
 8041SOL    HW235757   4.672   3.597   7.414 -0.9441 -0.8595 -0.4456
 8042SOL     OW35758   1.965   2.770   3.284 -0.4636 -0.1850 -0.2011
 8042SOL    HW135759   2.044   2.716   3.291 -0.9733 -0.7994  0.7637
 8042SOL    HW235760   1.998   2.854   3.316 -0.0915 -0.7166  0.8066
 8043SOL     OW35761   2.582   3.392  12.774 -0.4034 -0.0671  0.2202
 8043SOL    HW135762   2.556   3.357  12.688  4.0669 -0.9024 -0.7708
 8043SOL    HW235763   2.617   3.311  12.811  1.3112  0.9342  0.7670
 8044SOL     OW35764   1.097   2.842   8.231 -0.9290 -0.0905 -0.2891
 8044SOL    HW135765   1.123   2.910   8.294  2.0774 -0.1723 -1.4040
 8044SOL    HW235766   1.065   2.767   8.281  1.2578  0.2060  1.5873
 8045SOL     OW35767   2.553   4.307   8.696  0.2151 -0.3789 -0.3112
 8045SOL    HW135768   2.604   4.375   8.652 -0.8972  0.6932  0.0658
 8045SOL    HW235769   2.541   4.339   8.786 -0.2704  1.6400 -1.0867
 8046SOL     OW35770   4.252   3.945   5.617  0.4370  0.3768 -0.2178
 8046SOL    HW135771   4.330   3.974   5.664 -0.8768  1.4297  1.2969
 8046SOL    HW235772   4.188   3.999   5.663 -0.3488 -1.8479  1.3466
 8047SOL     OW35773   3.730   2.483   9.778 -0.3193  0.1136  0.2138
 8047SOL    HW135774   3.635   2.474   9.773 -0.3319 -0.4056  1.4841
 8047SOL    HW235775   3.745   2.444   9.864  0.5859  1.9654  0.8970
 8048SOL     OW35776   1.888   0.711   4.088  0.6895  0.0085  0.0515
 8048SOL    HW135777   1.810   0.658   4.103  0.4550 -0.1048 -1.4820
 8048SOL    HW235778   1.961   0.649   4.097 -1.0754 -1.9733  0.6109
 8049SOL     OW35779   0.590   4.030   8.135 -0.2429 -0.0386 -0.2822
 8049SOL    HW135780   0.542   3.948   8.141 -0.7146  0.3900  1.7680
 8049SOL    HW235781   0.520   4.085   8.101  0.2126  0.6937 -0.0336
 8050SOL     OW35782   3.991   4.264   6.026  0.5202  0.0244 -0.2484
 8050SOL    HW135783   3.953   4.330   5.969 -0.6713 -1.5441 -1.2377
 8050SOL    HW235784   3.941   4.185   6.006  1.1324 -0.2544 -0.6556
 8051SOL     OW35785   1.400   4.684   6.610  0.1657 -0.6088 -0.5918
 8051SOL    HW135786   1.490   4.717   6.609  0.0411 -0.3280 -3.3189
 8051SOL    HW235787   1.399   4.641   6.696  0.8522 -1.4774 -1.0201
 8052SOL     OW35788   0.884   3.326  16.651 -0.1166  0.8750  0.1884
 8052SOL    HW135789   0.807   3.301  16.600  1.1939  0.1246 -1.4380
 8052SOL    HW235790   0.872   3.267  16.725 -0.8200  1.7918  0.7994
 8053SOL     OW35791   0.771   1.026   7.366 -0.0821  0.6516  0.6416
 8053SOL    HW135792   0.767   0.931   7.354 -2.8253  0.8926 -0.3986
 8053SOL    HW235793   0.690   1.063   7.332 -1.0958 -3.5697 -1.5144
 8054SOL     OW35794   2.352   4.452   3.923  0.2879 -0.0994  0.1745
 8054SOL    HW135795   2.345   4.548   3.915  0.5818  0.2476  4.1290
 8054SOL    HW235796   2.284   4.422   3.863  0.4611 -2.2828  1.0703
 8055SOL     OW35797   0.616   1.414  10.629  0.0423  0.0159  0.8535
 8055SOL    HW135798   0.614   1.329  10.583 -0.8230 -0.7877  2.3689
 8055SOL    HW235799   0.626   1.389  10.720  0.0693  1.5496  1.2690
 8056SOL     OW35800   2.115   3.342  16.829  0.8189  0.3572  0.1566
 8056SOL    HW135801   2.132   3.400  16.754  1.3091 -0.2698 -0.2082
 8056SOL    HW235802   2.146   3.391  16.905  1.6699  0.5666 -0.3253
 8057SOL     OW35803   0.604   0.573   5.445 -0.5213 -0.5508  0.2280
 8057SOL    HW135804   0.561   0.623   5.514  1.1118  1.0093  0.1052
 8057SOL    HW235805   0.615   0.648   5.387  0.3650 -2.2333 -1.8012
 8058SOL     OW35806   0.604   0.270   8.793 -0.2079  0.1617  0.2110
 8058SOL    HW135807   0.546   0.329   8.745 -1.7914 -0.4480  1.3759
 8058SOL    HW235808   0.538   0.207   8.822 -2.0724  1.6463 -0.8450
 8059SOL     OW35809   0.123   0.573  13.209 -0.1132 -0.1118  0.0369
 8059SOL    HW135810   0.049   0.622  13.173  1.1933  0.9587 -1.1927
 8059SOL    HW235811   0.184   0.571  13.134 -0.7053 -0.9868 -0.4246
 8060SOL     OW35812   1.540   0.799   0.298 -0.4943 -0.8048  0.0203
 8060SOL    HW135813   1.470   0.835   0.351 -1.0908 -2.5424  0.4080
 8060SOL    HW235814   1.527   0.818   0.205  1.8815  1.1804  0.0945
 8061SOL     OW35815   2.448   3.582   2.725 -0.3467 -0.0318 -0.2396
 8061SOL    HW135816   2.463   3.674   2.703 -0.1979 -0.4847 -2.1133
 8061SOL    HW235817   2.475   3.544   2.641  1.3341  1.3827 -0.3328
 8062SOL     OW35818   3.550   2.992   0.886 -0.3086 -0.4951 -0.5279
 8062SOL    HW135819   3.515   2.943   0.811 -2.6961  1.2411 -0.5589
 8062SOL    HW235820   3.561   2.924   0.952 -0.6034  0.1194  0.1451
 8063SOL     OW35821   4.266   1.519   5.944 -0.0997  0.4436 -0.7156
 8063SOL    HW135822   4.299   1.592   5.891 -0.3348  2.2329  1.6129
 8063SOL    HW235823   4.292   1.544   6.033 -1.0923 -0.1591 -0.2574
 8064SOL     OW35824   1.516   4.689  16.603  0.4085  0.1646 -0.3970
 8064SOL    HW135825   1.496   0.049  16.589  0.1227  0.0748 -0.5831
 8064SOL    HW235826   1.461   4.670  16.679 -0.2637 -0.4875 -1.0384
 8065SOL     OW35827   1.002   2.299   7.414  0.2226 -0.1478  0.3451
 8065SOL    HW135828   1.033   2.371   7.469  2.0281  0.1148 -1.0158
 8065SOL    HW235829   0.919   2.286   7.461 -0.3372 -0.1834 -0.6639
 8066SOL     OW35830   1.751   3.243   5.623 -0.3288 -0.4193 -0.6908
 8066SOL    HW135831   1.787   3.195   5.698 -0.2665  1.4084  0.4663
 8066SOL    HW235832   1.681   3.292   5.667  1.3518  0.6908  0.7411
 8067SOL     OW35833   0.149   2.466   4.608 -0.1227 -0.0504  0.0575
 8067SOL    HW135834   0.054   2.455   4.608  0.3446 -4.1911 -2.9849
 8067SOL    HW235835   0.175   2.460   4.516  0.7340  0.8959  0.2465
 8068SOL     OW35836   0.069   4.284   5.129  0.5214 -0.5841  0.9013
 8068SOL    HW135837   4.713   4.273   5.094  0.6934 -0.6348  0.4852
 8068SOL    HW235838   0.091   4.196   5.159  1.1090 -0.0619  2.0092
 8069SOL     OW35839   1.832   3.573   0.547 -0.3802 -0.6914 -0.6276
 8069SOL    HW135840   1.781   3.492   0.547 -0.1074 -0.8558  3.2016
 8069SOL    HW235841   1.764   3.640   0.544 -0.2253 -0.4838  0.4639
 8070SOL     OW35842   2.726   2.936   1.328 -0.1710  0.0064  0.4693
 8070SOL    HW135843   2.704   3.006   1.389 -0.7656 -0.0718  0.3385
 8070SOL    HW235844   2.724   2.853   1.376  0.2349 -0.8147 -0.9297
 8071SOL     OW35845   1.068   4.714   6.363  0.1853 -0.6200  0.6842
 8071SOL    HW135846   1.147   4.660   6.363  0.7150  0.1591  1.8592
 8071SOL    HW235847   1.110   0.063   6.335 -0.5202 -1.3532 -2.5258
 8072SOL     OW35848   0.579   4.020  16.093 -0.6438 -0.1352  0.1402
 8072SOL    HW135849   0.508   4.058  16.042 -0.8098 -1.7517 -0.8311
 8072SOL    HW235850   0.521   3.979  16.157 -0.5270  1.3093  1.1707
 8073SOL     OW35851   3.176   4.238   2.339  0.3132 -0.0867  0.5400
 8073SOL    HW135852   3.261   4.283   2.342  0.0885  0.4771 -1.2812
 8073SOL    HW235853   3.125   4.295   2.282  1.0018 -0.5559 -0.5592
 8074SOL     OW35854   4.596   2.208   8.504 -0.2467  0.4677 -0.0026
 8074SOL    HW135855   4.673   2.237   8.554  0.5903  1.1780 -1.6979
 8074SOL    HW235856   4.632   2.128   8.465  1.1147  0.8092  0.5537
 8075SOL     OW35857   3.101   4.504   3.886  0.7785 -0.5034 -0.8132
 8075SOL    HW135858   3.040   4.550   3.829  0.3164  1.9338  1.6742
 8075SOL    HW235859   3.043   4.448   3.937 -1.2035  0.6323 -1.8198
 8076SOL     OW35860   4.221   1.361  13.185 -0.1937 -0.3127 -0.3571
 8076SOL    HW135861   4.125   1.365  13.188 -0.1877  0.6310 -1.2611
 8076SOL    HW235862   4.230   1.281  13.133  0.4647 -0.4064 -0.0997
 8077SOL     OW35863   3.984   3.276   6.629 -0.3132  0.3929  0.7425
 8077SOL    HW135864   4.039   3.231   6.692 -2.0443 -0.9188  1.3116
 8077SOL    HW235865   4.015   3.366   6.644 -2.2153  0.8125  2.1867
 8078SOL     OW35866   2.165   0.457   2.671 -0.2552  0.6141  0.0618
 8078SOL    HW135867   2.103   0.412   2.613  1.4972 -0.7925 -0.7175
 8078SOL    HW235868   2.111   0.459   2.750  0.2620 -1.3913  0.4593
 8079SOL     OW35869   3.098   2.486   8.335 -0.7418  0.3596 -0.0200
 8079SOL    HW135870   3.065   2.440   8.412  1.6407 -1.8816 -0.3618
 8079SOL    HW235871   3.112   2.413   8.276 -1.4498 -1.6643  2.3118
 8080SOL     OW35872   4.592   3.608  14.872  0.2718  0.5087 -0.1125
 8080SOL    HW135873   4.656   3.610  14.943 -0.7235 -1.0168  0.8343
 8080SOL    HW235874   4.631   3.667  14.807 -1.9458  0.9588 -1.0518
 8081SOL     OW35875   0.279   0.892   3.311  0.1961 -0.1162  0.4546
 8081SOL    HW135876   0.261   0.947   3.235  0.6422 -1.1944 -0.4214
 8081SOL    HW235877   0.342   0.947   3.357  1.8293 -2.3656  0.9043
 8082SOL     OW35878   3.497   4.591   9.297 -0.2696  0.8450 -0.4410
 8082SOL    HW135879   3.503   4.503   9.259  0.2661 -0.1087  1.8209
 8082SOL    HW235880   3.453   4.564   9.378  0.8876 -0.8968 -0.3925
 8083SOL     OW35881   4.472   0.977  14.384  0.0480  0.1586 -0.2890
 8083SOL    HW135882   4.463   0.883  14.371 -2.0167  0.5604 -1.8505
 8083SOL    HW235883   4.388   1.005  14.422 -0.3179 -1.2152 -0.0898
 8084SOL     OW35884   2.595   2.547  15.905 -0.0014  0.0678 -0.1174
 8084SOL    HW135885   2.530   2.477  15.906  2.1933 -1.9936  0.9180
 8084SOL    HW235886   2.597   2.544  15.810 -0.3513 -2.1785 -0.0498
 8085SOL     OW35887   4.399   1.080   6.030 -0.1102 -0.0134 -0.0921
 8085SOL    HW135888   4.390   1.137   5.954 -1.5716  1.5763  1.2681
 8085SOL    HW235889   4.491   1.052   6.028  0.0331  0.2696  2.6112
 8086SOL     OW35890   4.554   0.302   0.124 -0.7180  0.2779 -0.4041
 8086SOL    HW135891   4.550   0.211   0.095  1.0209  0.1617 -0.3075
 8086SOL    HW235892   4.625   0.333   0.067  1.6400 -0.5780  2.0619
 8087SOL     OW35893   3.132   1.500   7.991 -0.5503 -0.3739  0.2831
 8087SOL    HW135894   3.072   1.426   8.005 -0.2662 -0.8125 -0.8523
 8087SOL    HW235895   3.140   1.501   7.896 -2.2441 -0.8167  0.1276
 8088SOL     OW35896   1.307   2.432   4.205  0.0643  0.5295 -0.1828
 8088SOL    HW135897   1.214   2.456   4.211  0.0901  0.6869 -0.3972
 8088SOL    HW235898   1.322   2.400   4.294  0.0883  2.7981  0.6290
 8089SOL     OW35899   1.027   1.160   2.745 -0.1638 -0.9235  0.2866
 8089SOL    HW135900   1.074   1.167   2.662  0.3642 -1.7915  0.5164
 8089SOL    HW235901   1.104   1.136   2.797 -0.5390 -0.4446  1.0778
 8090SOL     OW35902   1.879   1.245   2.179 -0.4742 -0.1638  0.9564
 8090SOL    HW135903   1.936   1.174   2.207 -2.2295 -1.7609  0.4068
 8090SOL    HW235904   1.860   1.211   2.091 -1.5059  2.4276  0.1746
 8091SOL     OW35905   4.195   4.108  12.867 -0.4877 -0.4509  0.4051
 8091SOL    HW135906   4.263   4.080  12.806  1.4737 -0.4540  2.5543
 8091SOL    HW235907   4.247   4.132  12.944 -0.6782 -1.6106  0.9119
 8092SOL     OW35908   0.516   0.750   5.636  0.2498 -0.3450 -0.2801
 8092SOL    HW135909   0.547   0.833   5.672  4.0759 -1.6625 -0.5292
 8092SOL    HW235910   0.470   0.716   5.712 -2.5060  1.8197 -0.9796
 8093SOL     OW35911   2.560   4.614  11.299 -0.4576  0.6461 -0.1310
 8093SOL    HW135912   2.612   4.545  11.341 -0.9322  1.3655  1.6382
 8093SOL    HW235913   2.500   4.555  11.253  1.8152 -1.3120 -0.5882
 8094SOL     OW35914   3.125   1.135   6.597 -1.1326 -0.0452 -0.4249
 8094SOL    HW135915   3.050   1.160   6.652 -0.1973  0.6646  0.5205
 8094SOL    HW235916   3.072   1.078   6.540 -1.3156 -0.7000  0.3969
 8095SOL     OW35917   1.019   3.825   3.512  0.0816 -0.3624  0.4105
 8095SOL    HW135918   0.941   3.848   3.462  1.2443  1.1731 -0.6982
 8095SOL    HW235919   1.088   3.865   3.460  0.5514  0.3976  1.6139
 8096SOL     OW35920   2.011   3.660   0.294 -0.5575  0.0766 -0.2302
 8096SOL    HW135921   1.925   3.672   0.334 -1.0138  0.2063 -1.2632
 8096SOL    HW235922   2.032   3.571   0.324 -1.0870  0.5920  1.6678
 8097SOL     OW35923   2.492   3.446   8.286  0.9407  0.1621  0.0166
 8097SOL    HW135924   2.433   3.477   8.216 -0.0835 -1.1092  0.3229
 8097SOL    HW235925   2.521   3.526   8.330  1.0883  0.5980 -0.8686
 8098SOL     OW35926   0.721   3.619   5.490 -0.1954 -0.2746  0.6395
 8098SOL    HW135927   0.813   3.623   5.514  0.4911  0.5329 -2.1947
 8098SOL    HW235928   0.684   3.596   5.575 -0.3140 -2.9745 -0.1391
 8099SOL     OW35929   3.119   0.180   3.189 -0.0395 -0.1614 -0.7085
 8099SOL    HW135930   3.166   0.115   3.241  1.6059  1.5138 -0.1170
 8099SOL    HW235931   3.201   0.229   3.177 -0.3388  0.3007 -0.8747
 8100SOL     OW35932   4.009   1.159   5.533  0.2297 -0.0159  0.4291
 8100SOL    HW135933   3.963   1.160   5.617  0.5943  0.6557  0.6238
 8100SOL    HW235934   3.975   1.233   5.483 -0.5914 -0.0210  0.9709
 8101SOL     OW35935   3.114   1.835   9.657  0.3029  0.2670 -0.2896
 8101SOL    HW135936   3.154   1.855   9.741  0.0087 -0.3319 -0.0066
 8101SOL    HW235937   3.119   1.920   9.612  0.9780 -0.1345 -0.9700
 8102SOL     OW35938   4.084   3.325   8.260  0.0557 -0.0519  0.3344
 8102SOL    HW135939   4.010   3.362   8.211 -1.3843 -0.3145  2.2962
 8102SOL    HW235940   4.061   3.350   8.350  0.6530 -0.3752  0.5782
 8103SOL     OW35941   1.668   1.677   2.894  0.7114 -0.2812 -0.2803
 8103SOL    HW135942   1.600   1.641   2.837  0.2803  0.6527 -0.3583
 8103SOL    HW235943   1.745   1.677   2.837  0.9691 -0.5587  0.0703
 8104SOL     OW35944   4.697   0.909  17.208  0.1571  0.0001 -0.6817
 8104SOL    HW135945   4.607   0.893  17.234  0.7195 -1.1890  0.5359
 8104SOL    HW235946   4.724   0.992  17.248  1.8422 -0.4092 -0.9804
 8105SOL     OW35947   2.124   1.493   6.410 -0.3510 -0.6796  0.2800
 8105SOL    HW135948   2.110   1.401   6.388 -0.0239 -1.4599  3.3520
 8105SOL    HW235949   2.140   1.539   6.327 -1.6852  0.2764  0.5638
 8106SOL     OW35950   1.027   4.528  11.632  0.5412  0.4232  0.2882
 8106SOL    HW135951   1.119   4.515  11.610  0.0670 -1.6320 -0.4810
 8106SOL    HW235952   1.007   4.443  11.672 -0.8074  0.6655  0.1374
 8107SOL     OW35953   1.393   3.171  15.173 -0.0585 -0.3449 -0.2243
 8107SOL    HW135954   1.300   3.155  15.186 -0.1716  0.3867 -0.1577
 8107SOL    HW235955   1.401   3.261  15.204  1.2779 -0.1620 -1.0975
 8108SOL     OW35956   2.716   3.601   2.875 -0.1526  0.0936 -0.2456
 8108SOL    HW135957   2.746   3.628   2.789 -0.9643  0.4037 -0.4311
 8108SOL    HW235958   2.621   3.607   2.866 -0.0495  3.4576  0.9262
 8109SOL     OW35959   2.280   0.100  13.724 -0.0232 -0.0619 -0.9001
 8109SOL    HW135960   2.243   0.171  13.776 -0.7028 -0.2988 -1.0654
 8109SOL    HW235961   2.197   0.063  13.693  0.4923 -1.4967 -0.6110
 8110SOL     OW35962   1.000   4.451   7.999 -0.1200 -0.2136  1.1835
 8110SOL    HW135963   1.054   4.385   8.042  0.8033 -1.1501 -1.4251
 8110SOL    HW235964   0.914   4.413   8.019  0.0588  0.1075  2.5493
 8111SOL     OW35965   2.639   2.023   7.686  0.0697 -0.2815 -0.1674
 8111SOL    HW135966   2.637   1.968   7.608  0.8027  1.3828 -1.3464
 8111SOL    HW235967   2.649   1.953   7.751  1.5631  0.8057  0.7611
 8112SOL     OW35968   3.774   2.337  12.248 -0.0286  0.0328 -0.4662
 8112SOL    HW135969   3.852   2.282  12.239  0.0263  0.0976 -0.3958
 8112SOL    HW235970   3.770   2.335  12.344  0.8653  2.1082 -0.3697
 8113SOL     OW35971   0.747   0.662   3.951 -0.2159  0.3383 -0.4596
 8113SOL    HW135972   0.702   0.671   4.035 -0.4565  1.0193 -0.6609
 8113SOL    HW235973   0.814   0.595   3.961 -1.3799 -1.0099 -1.5074
 8114SOL     OW35974   1.733   4.641  11.926 -0.6051  0.4791 -0.1642
 8114SOL    HW135975   1.662   4.685  11.878 -0.0888  2.2400  0.6724
 8114SOL    HW235976   1.812   4.673  11.883 -0.8485  0.6770 -0.4683
 8115SOL     OW35977   2.302   3.208  11.926 -0.4266 -0.0499  0.7399
 8115SOL    HW135978   2.342   3.295  11.932 -0.9341  0.1891  0.6703
 8115SOL    HW235979   2.280   3.195  12.018 -2.5945  1.4111  0.4113
 8116SOL     OW35980   2.231   2.129  11.794  0.0128  0.3590  0.1425
 8116SOL    HW135981   2.183   2.053  11.826 -0.1490  0.1080 -0.6986
 8116SOL    HW235982   2.239   2.106  11.702 -0.1683 -1.9831  0.7168
 8117SOL     OW35983   3.944   3.969   7.438 -0.2369  0.2641 -0.4712
 8117SOL    HW135984   3.852   3.992   7.428 -0.3214 -1.1334 -2.7416
 8117SOL    HW235985   3.955   3.913   7.361 -0.1473 -1.6191  0.9102
 8118SOL     OW35986   2.103   3.559   5.113  0.1854  0.3571  0.0657
 8118SOL    HW135987   2.036   3.627   5.102  1.4813  1.4540 -1.0309
 8118SOL    HW235988   2.079   3.494   5.048  1.8055 -1.8047  1.6404
 8119SOL     OW35989   1.990   4.318  12.587 -0.0091 -0.4460  0.1174
 8119SOL    HW135990   2.079   4.300  12.618  0.2022  0.3634 -0.0070
 8119SOL    HW235991   1.973   4.412  12.589  0.4223 -0.4179  2.3890
 8120SOL     OW35992   2.283   2.225   6.781 -0.0383 -0.0728 -0.2059
 8120SOL    HW135993   2.228   2.188   6.712 -0.8392 -0.0064  0.3935
 8120SOL    HW235994   2.227   2.203   6.855  1.2771  1.3059  1.1994
 8121SOL     OW35995   1.756   1.675   3.198 -0.2086  0.0255  0.1710
 8121SOL    HW135996   1.766   1.752   3.254 -0.4594  0.5666 -0.5260
 8121SOL    HW235997   1.693   1.715   3.138  0.6469  0.2987 -0.5277
 8122SOL     OW35998   0.413   1.258   4.464 -0.2011 -0.5677 -0.8036
 8122SOL    HW135999   0.365   1.335   4.432 -1.9351 -1.6431 -0.7627
 8122SOL    HW236000   0.484   1.249   4.401  0.7353 -0.2773  0.2058
 8123SOL     OW36001   3.291   4.238   5.046 -0.1204  0.5081 -0.8266
 8123SOL    HW136002   3.206   4.257   5.007 -0.5855 -0.2931 -0.1950
 8123SOL    HW236003   3.347   4.206   4.975  1.3693  0.4453  0.3775
 8124SOL     OW36004   1.590   1.968   8.318 -0.2560 -0.2148  0.0755
 8124SOL    HW136005   1.556   1.949   8.405 -2.8971  1.7446 -0.5104
 8124SOL    HW236006   1.585   1.879   8.283 -0.7011 -0.6875  1.3662
 8125SOL     OW36007   1.703   2.082   6.503  0.0150  0.4264 -0.3911
 8125SOL    HW136008   1.750   2.144   6.446  1.3752  0.3202  0.6044
 8125SOL    HW236009   1.621   2.130   6.509  0.7487  1.7442 -0.8003
 8126SOL     OW36010   1.699   1.671   9.605 -0.8521  0.2794 -0.0656
 8126SOL    HW136011   1.698   1.748   9.547 -0.0718 -0.4588 -1.0528
 8126SOL    HW236012   1.790   1.641   9.603  0.2337  3.5316  0.2453
 8127SOL     OW36013   1.842   1.078   5.889 -0.4370  0.3220  0.5498
 8127SOL    HW136014   1.867   1.053   5.800 -2.1679  0.2236  0.0946
 8127SOL    HW236015   1.750   1.094   5.871 -0.7221 -0.3328  1.4194
 8128SOL     OW36016   1.628   3.618  16.706  0.0578 -0.6109 -0.2419
 8128SOL    HW136017   1.714   3.578  16.719 -0.1391 -1.1530 -0.6381
 8128SOL    HW236018   1.570   3.542  16.705 -1.6622  0.6695  1.0424
 8129SOL     OW36019   1.163   4.501   4.708 -0.1585 -0.3946 -0.1533
 8129SOL    HW136020   1.105   4.565   4.750 -0.6706 -0.4887 -0.7170
 8129SOL    HW236021   1.248   4.516   4.748  0.3812 -0.3750 -1.3251
 8130SOL     OW36022   3.391   3.172  12.456  0.5477  0.2066  0.2030
 8130SOL    HW136023   3.395   3.117  12.534 -0.3015  1.0630  0.8473
 8130SOL    HW236024   3.482   3.161  12.429  0.7041  1.0928  0.3757
 8131SOL     OW36025   2.675   0.205   3.764 -0.2076  0.3320  0.4571
 8131SOL    HW136026   2.689   0.154   3.684 -0.6595 -2.6584  2.2583
 8131SOL    HW236027   2.747   0.172   3.818  0.1747 -0.2878 -0.4200
 8132SOL     OW36028   1.324   0.086   6.371 -0.2987  0.3537 -0.0730
 8132SOL    HW136029   1.345   0.030   6.445  2.1222  1.9162  0.4397
 8132SOL    HW236030   1.332   0.170   6.416  1.2516  0.2079 -0.0581
 8133SOL     OW36031   0.514   0.245   1.838  0.3134  0.3774  0.5784
 8133SOL    HW136032   0.506   0.338   1.861  0.9408  0.7176 -0.5663
 8133SOL    HW236033   0.437   0.222   1.787 -0.1220  0.3295  1.2572
 8134SOL     OW36034   4.150   4.266   1.963 -0.0633 -0.0891  0.1160
 8134SOL    HW136035   4.058   4.243   1.973 -0.4615  2.3848  2.1982
 8134SOL    HW236036   4.157   4.358   1.987 -1.5193 -0.5437  2.2965
 8135SOL     OW36037   4.593   1.996   3.996  0.0269 -0.4510 -0.1532
 8135SOL    HW136038   4.539   1.931   4.039 -0.3548 -0.8899 -1.2967
 8135SOL    HW236039   4.626   2.049   4.068 -1.0927 -0.7222  0.5539
 8136SOL     OW36040   1.626   1.885   9.429  0.1737 -0.3944  0.3310
 8136SOL    HW136041   1.579   1.903   9.510  0.6096 -1.4330  0.8103
 8136SOL    HW236042   1.629   1.969   9.383  2.1441  0.0157  1.2049
 8137SOL     OW36043   1.753   4.080   3.329 -0.3682 -0.1964  0.0466
 8137SOL    HW136044   1.684   4.118   3.275  0.2013  0.2166 -0.3849
 8137SOL    HW236045   1.821   4.147   3.329 -0.1908 -0.3817 -0.5830
 8138SOL     OW36046   2.333   2.536   6.465  0.5834 -0.2444 -0.1367
 8138SOL    HW136047   2.256   2.541   6.521 -0.0375  2.1906 -1.2184
 8138SOL    HW236048   2.398   2.546   6.536 -3.3351  0.0500  3.4144
 8139SOL     OW36049   4.345   0.292   7.803 -0.0375 -0.1016  0.5580
 8139SOL    HW136050   4.344   0.375   7.755 -1.9873 -1.6136 -2.0360
 8139SOL    HW236051   4.308   0.316   7.888  0.1596 -0.0828  0.6394
 8140SOL     OW36052   1.160   0.215  14.764  0.1980  0.2757  0.2432
 8140SOL    HW136053   1.238   0.268  14.747 -1.1789  2.1187 -0.2193
 8140SOL    HW236054   1.145   0.169  14.681  2.5639 -1.5217  0.8037
 8141SOL     OW36055   0.809   2.165  16.178  1.4058  0.1578 -0.0282
 8141SOL    HW136056   0.820   2.076  16.210 -0.3431  0.4305  1.3801
 8141SOL    HW236057   0.738   2.156  16.114  0.9300 -0.0300  0.5192
 8142SOL     OW36058   0.175   1.704   7.069 -0.8665  0.2043 -0.1096
 8142SOL    HW136059   0.256   1.728   7.114 -0.9364 -1.4566  0.8897
 8142SOL    HW236060   0.118   1.693   7.145  0.6553  1.5582  1.2267
 8143SOL     OW36061   2.751   2.445  13.733  0.4648 -0.5195  1.1137
 8143SOL    HW136062   2.801   2.456  13.814  0.4959  0.8484  0.9122
 8143SOL    HW236063   2.661   2.438  13.764 -0.0567 -0.0609 -0.3055
 8144SOL     OW36064   0.512   1.849   6.569 -0.1789  0.8237  0.2261
 8144SOL    HW136065   0.434   1.794   6.558  0.2731  0.7470 -2.6507
 8144SOL    HW236066   0.538   1.840   6.477  0.6133 -1.6017  0.6602
 8145SOL     OW36067   2.829   0.935   5.718  0.6661 -0.5631  0.1305
 8145SOL    HW136068   2.769   0.963   5.649  0.0739 -2.0261  0.0332
 8145SOL    HW236069   2.767   0.909   5.787  0.6104 -2.1357 -0.4915
 8146SOL     OW36070   3.807   1.523   2.711  0.3202 -0.5897 -0.1743
 8146SOL    HW136071   3.900   1.503   2.721  0.0643 -1.8714 -0.4110
 8146SOL    HW236072   3.759   1.441   2.720 -2.1274  0.8921  0.5860
 8147SOL     OW36073   1.841   0.749   3.027  0.0933  0.5835  0.1453
 8147SOL    HW136074   1.851   0.829   2.974 -4.4072  1.0510  0.0388
 8147SOL    HW236075   1.893   0.771   3.105  1.7444 -1.2337 -0.4427
 8148SOL     OW36076   3.871   3.683   7.497 -0.2635  0.1110  0.6431
 8148SOL    HW136077   3.907   3.594   7.496 -1.5631 -0.3616 -1.9586
 8148SOL    HW236078   3.933   3.729   7.442 -0.3749  1.0367  1.2894
 8149SOL     OW36079   3.163   0.046   3.923  0.1243  0.0424  0.1388
 8149SOL    HW136080   3.211   4.728   3.858  1.8030 -0.1926  1.5554
 8149SOL    HW236081   3.211   0.043   4.006  0.4032 -0.2610 -0.0368
 8150SOL     OW36082   2.538   2.428   1.924  0.0084  0.0619 -0.2468
 8150SOL    HW136083   2.539   2.339   1.891 -0.1924  0.9259 -2.5520
 8150SOL    HW236084   2.546   2.476   1.842 -0.1069 -1.0955 -0.9290
 8151SOL     OW36085   1.075   1.988   2.705  0.1022  0.5794 -0.1595
 8151SOL    HW136086   1.071   2.016   2.797 -1.4484  0.2255 -0.1169
 8151SOL    HW236087   0.992   2.022   2.670  0.2059  1.0453  0.0390
 8152SOL     OW36088   3.906   2.952   2.588 -0.3070 -0.4657  0.1347
 8152SOL    HW136089   3.827   2.899   2.584 -0.4045 -0.0374 -2.9394
 8152SOL    HW236090   3.929   2.961   2.681  1.3428 -1.3817 -0.1787
 8153SOL     OW36091   3.053   4.329   9.356  0.0615 -0.0053  0.8433
 8153SOL    HW136092   3.049   4.346   9.262  0.3127  2.6531  1.3178
 8153SOL    HW236093   2.959   4.328   9.370  0.0083 -3.2333  0.2718
 8154SOL     OW36094   0.155   0.994   4.333 -0.0251  0.2604 -0.2321
 8154SOL    HW136095   0.100   1.039   4.397 -1.5415 -2.1832  0.2149
 8154SOL    HW236096   0.136   0.901   4.349  3.3496 -0.7939 -2.3667
 8155SOL     OW36097   1.623   0.603   2.432 -0.2210 -0.3882  0.0145
 8155SOL    HW136098   1.647   0.556   2.512 -2.2086 -0.3801  0.6246
 8155SOL    HW236099   1.535   0.622   2.465  0.4644 -0.4371  1.8399
 8156SOL     OW36100   0.809   1.225   4.319  0.7267  0.2897  0.5508
 8156SOL    HW136101   0.828   1.306   4.367 -1.9664  0.8317  0.7532
 8156SOL    HW236102   0.785   1.168   4.393 -0.5649  1.6787  1.2223
 8157SOL     OW36103   3.309   0.552   3.695  0.1335  0.1092  0.0544
 8157SOL    HW136104   3.331   0.593   3.779 -0.8733  0.3166  0.2267
 8157SOL    HW236105   3.389   0.573   3.648  0.0515 -0.3297 -0.2772
 8158SOL     OW36106   2.271   1.481   3.522  0.5301  0.3092 -0.1635
 8158SOL    HW136107   2.206   1.414   3.543  2.1086 -1.2067 -0.2245
 8158SOL    HW236108   2.258   1.478   3.427  0.6889  0.8051 -0.2036
 8159SOL     OW36109   2.204   4.144   5.490  0.4953 -0.2439 -0.5534
 8159SOL    HW136110   2.156   4.113   5.567 -0.7072 -1.9422 -1.9963
 8159SOL    HW236111   2.145   4.216   5.467  1.1403  0.5398  0.2436
 8160SOL     OW36112   4.025   0.383   4.043 -0.1544  0.1394 -0.5861
 8160SOL    HW136113   4.012   0.298   4.002  0.8145 -0.5037  0.4424
 8160SOL    HW236114   4.119   0.382   4.064 -1.0104 -2.4832  3.1145
 8161SOL     OW36115   0.339   0.589   5.857  0.3069  0.4336  0.2059
 8161SOL    HW136116   0.267   0.603   5.918  0.5223 -0.1972  0.5984
 8161SOL    HW236117   0.406   0.547   5.912 -0.1363 -1.5147 -0.7446
 8162SOL     OW36118   3.184   3.467   7.342  0.2024  0.6672  0.3981
 8162SOL    HW136119   3.205   3.403   7.410  2.0239  1.9869  1.0828
 8162SOL    HW236120   3.110   3.507   7.388  0.0547  1.0696 -0.1928
 8163SOL     OW36121   0.497   4.729   8.796  0.2694 -0.1305 -0.3632
 8163SOL    HW136122   0.517   4.720   8.703 -1.0551  2.6005 -0.9129
 8163SOL    HW236123   0.411   0.037   8.785  0.3881 -0.0303 -0.9120
 8164SOL     OW36124   1.834   2.074   7.260  0.1886  0.1883 -0.1712
 8164SOL    HW136125   1.780   2.150   7.280  0.2625 -0.1085  1.1789
 8164SOL    HW236126   1.914   2.107   7.218  1.0680 -1.9404 -0.1526
 8165SOL     OW36127   3.764   2.270   3.576 -0.4489  0.0848 -0.2479
 8165SOL    HW136128   3.674   2.266   3.543  0.2155  0.2880 -2.0857
 8165SOL    HW236129   3.796   2.199   3.521  1.8942 -0.5336  1.8736
 8166SOL     OW36130   4.041   0.928   2.355  0.0196  0.2814 -0.5040
 8166SOL    HW136131   4.094   0.854   2.386 -1.9575 -0.6000  0.8136
 8166SOL    HW236132   3.975   0.883   2.303 -1.5939  0.5745  1.2698
 8167SOL     OW36133   3.823   1.229   2.771 -0.1231 -0.1224 -0.5553
 8167SOL    HW136134   3.788   1.232   2.682  0.2670  0.4974 -0.6870
 8167SOL    HW236135   3.751   1.187   2.819 -1.8244  1.7367 -1.4931
 8168SOL     OW36136   4.076   4.215  11.014  0.1207 -0.0762  0.0182
 8168SOL    HW136137   4.008   4.267  10.970 -0.3668 -1.9693 -1.4609
 8168SOL    HW236138   4.023   4.137  11.027 -2.5821  1.7133 -0.2394
 8169SOL     OW36139   1.831   1.660   9.221 -0.2377 -0.0228  0.0856
 8169SOL    HW136140   1.737   1.647   9.235 -0.2141  0.6894  0.9049
 8169SOL    HW236141   1.840   1.728   9.288 -1.4006  0.0789  0.1372
 8170SOL     OW36142   4.610   1.379   9.129  0.0951  0.1004  0.0473
 8170SOL    HW136143   4.652   1.370   9.214  0.8131 -1.5831 -0.4818
 8170SOL    HW236144   4.572   1.467   9.133  0.5852  0.2677  0.8033
 8171SOL     OW36145   4.417   0.128  16.770 -0.2376  0.7265  0.3569
 8171SOL    HW136146   4.392   0.042  16.803  0.6527 -0.1811 -1.3181
 8171SOL    HW236147   4.473   0.152  16.843 -1.5085  3.1499  0.5260
 8172SOL     OW36148   0.513   2.376  11.026 -0.0724 -0.2604  0.0384
 8172SOL    HW136149   0.519   2.346  11.116 -1.8387 -2.7490 -0.7018
 8172SOL    HW236150   0.421   2.359  11.008 -0.3807  0.4047  0.9450
 8173SOL     OW36151   1.657   4.079   4.206 -0.6523  0.2405  0.0079
 8173SOL    HW136152   1.634   4.148   4.144  1.2969  1.3943  0.5438
 8173SOL    HW236153   1.734   4.113   4.253  0.1229 -0.6869 -0.5803
 8174SOL     OW36154   3.387   3.743  17.607 -0.1629  0.1836 -0.3537
 8174SOL    HW136155   3.403   3.779  17.694 -4.1301 -0.6917  0.7251
 8174SOL    HW236156   3.319   3.678  17.626  1.0775 -1.2187 -0.6782
 8175SOL     OW36157   0.318   3.541   8.813  0.4263  0.1463 -0.0025
 8175SOL    HW136158   0.313   3.618   8.756 -2.1102  0.2717  0.3897
 8175SOL    HW236159   0.274   3.465   8.776 -0.5011  1.4404 -1.5224
 8176SOL     OW36160   2.358   3.522  14.389  0.5553  0.3401  0.0640
 8176SOL    HW136161   2.380   3.434  14.359  2.1066  0.7032  0.1134
 8176SOL    HW236162   2.304   3.490  14.461  1.1943  2.0980  1.3126
 8177SOL     OW36163   4.714   2.192  16.974 -0.4682 -0.1044 -0.2474
 8177SOL    HW136164   0.037   2.252  16.925  1.2038 -1.7477 -0.3477
 8177SOL    HW236165   4.632   2.237  16.996  0.8238  1.1320  2.1529
 8178SOL     OW36166   2.384   0.076   6.464  0.0360  0.0913 -0.0841
 8178SOL    HW136167   2.476   0.053   6.478 -0.0319  0.9290  1.7272
 8178SOL    HW236168   2.346   4.724   6.489  2.6068 -0.9813  0.2055
 8179SOL     OW36169   3.864   2.723   8.011 -0.6273  0.5726 -0.3108
 8179SOL    HW136170   3.958   2.720   8.032 -0.3990  0.6594 -1.3448
 8179SOL    HW236171   3.857   2.630   7.994  0.6933  0.0786  1.7944
 8180SOL     OW36172   3.366   3.370   3.535  0.1487  0.5010  0.0786
 8180SOL    HW136173   3.393   3.364   3.443  1.2324 -2.4304  0.5846
 8180SOL    HW236174   3.318   3.453   3.531 -1.5291 -0.5797 -2.0704
 8181SOL     OW36175   2.113   2.979   1.496  0.4514 -0.4714 -0.6808
 8181SOL    HW136176   2.105   3.014   1.584  0.9002 -1.6221 -0.1852
 8181SOL    HW236177   2.159   3.052   1.454  1.5121 -0.7100  0.0669
 8182SOL     OW36178   1.470   0.460   1.968 -0.1265 -0.2597  0.1925
 8182SOL    HW136179   1.537   0.472   1.901 -0.7699 -1.7300 -0.7093
 8182SOL    HW236180   1.515   0.464   2.053 -0.8820 -1.3607  0.6486
 8183SOL     OW36181   2.869   2.125   2.816 -0.0285  0.0694  0.2071
 8183SOL    HW136182   2.937   2.093   2.757 -0.2152  0.5900 -0.2868
 8183SOL    HW236183   2.881   2.067   2.891 -2.4080 -1.5359 -0.6406
 8184SOL     OW36184   2.870   3.078   9.718 -0.4620  0.0494 -0.0087
 8184SOL    HW136185   2.790   3.096   9.669  0.1406 -1.0427 -1.4090
 8184SOL    HW236186   2.836   3.091   9.807  0.1339 -2.1674  0.5466
 8185SOL     OW36187   2.228   2.630   7.968  0.2570  0.0523 -0.2597
 8185SOL    HW136188   2.296   2.685   8.007  0.5438  0.2595 -1.0559
 8185SOL    HW236189   2.279   2.594   7.895  2.3408  1.1780  0.6631
 8186SOL     OW36190   4.732   2.276   7.653 -0.3658 -0.1284  0.0293
 8186SOL    HW136191   4.682   2.325   7.718 -1.4530 -1.1857 -0.0056
 8186SOL    HW236192   4.705   2.185   7.648  1.7667 -0.8440  1.5594
 8187SOL     OW36193   2.473   2.820  16.055  0.5575 -0.2779 -0.1120
 8187SOL    HW136194   2.432   2.905  16.069  0.5603 -0.0217 -1.6782
 8187SOL    HW236195   2.410   2.778  15.996  1.8053  0.5680 -2.0175
 8188SOL     OW36196   3.993   2.007   8.283  0.4023 -0.4765  0.6084
 8188SOL    HW136197   4.087   1.985   8.279  0.2651 -0.9531  0.0564
 8188SOL    HW236198   3.985   2.098   8.254 -1.7829 -0.8467  0.1012
 8189SOL     OW36199   3.917   4.205   6.446 -0.1228  0.1440  0.3635
 8189SOL    HW136200   3.828   4.171   6.434 -0.0409 -0.2654  0.9259
 8189SOL    HW236201   3.911   4.287   6.397 -0.9218 -0.3276 -0.3394
 8190SOL     OW36202   1.941   4.720   3.620 -0.2708  0.5085 -0.0284
 8190SOL    HW136203   1.989   4.649   3.579  0.3384 -0.0454  1.6327
 8190SOL    HW236204   1.878   0.006   3.551 -1.1254 -2.5078 -0.0386
 8191SOL     OW36205   3.898   3.659   6.868  1.2745  0.4325 -0.9354
 8191SOL    HW136206   3.872   3.730   6.926 -1.7611 -0.3547 -1.3208
 8191SOL    HW236207   3.816   3.612   6.855  1.0860  0.3487  0.6227
 8192SOL     OW36208   1.311   1.848   2.666  0.2981 -0.2476 -0.1415
 8192SOL    HW136209   1.297   1.803   2.749  1.6095  0.7824  0.6376
 8192SOL    HW236210   1.243   1.915   2.669 -1.4913 -1.9089 -3.0198
 8193SOL     OW36211   1.680   3.269   7.655 -0.3102 -0.2086  0.0816
 8193SOL    HW136212   1.682   3.261   7.750  0.7793  1.2534  0.1699
 8193SOL    HW236213   1.667   3.362   7.642  0.1082  0.0493  1.5096
 8194SOL     OW36214   3.921   4.633  17.613 -0.3578  0.1224  0.3444
 8194SOL    HW136215   3.970   4.636  17.695  1.8244  0.3789 -0.9700
 8194SOL    HW236216   3.871   4.555  17.638  1.0073 -1.5916 -2.3629
 8195SOL     OW36217   1.613   2.904   6.322 -0.3259 -0.0619 -0.5695
 8195SOL    HW136218   1.662   2.882   6.243 -1.6844 -3.5238 -0.4265
 8195SOL    HW236219   1.577   2.991   6.302  2.1504  1.2639  0.7802
 8196SOL     OW36220   3.538   4.286   6.022  0.2880 -0.7132  1.1200
 8196SOL    HW136221   3.581   4.276   6.107 -0.6556  0.4896  1.7343
 8196SOL    HW236222   3.484   4.360   6.047  1.1181  0.1796  0.2648
 8197SOL     OW36223   0.930   1.809   4.805  0.1886  0.6100  0.4412
 8197SOL    HW136224   0.942   1.862   4.726  0.8293  0.2407  0.2908
 8197SOL    HW236225   0.859   1.852   4.852  0.7253  0.2076  1.5996
 8198SOL     OW36226   4.725   1.282   7.458 -0.8865 -0.2484  0.0095
 8198SOL    HW136227   0.033   1.276   7.545  1.0768  0.3462 -0.8603
 8198SOL    HW236228   4.660   1.349   7.478  1.3589  1.7082  0.7277
 8199SOL     OW36229   0.868   3.566   5.019 -0.1753  0.2729 -0.2027
 8199SOL    HW136230   0.831   3.654   5.031 -0.5500 -0.3492  3.0905
 8199SOL    HW236231   0.934   3.585   4.952  0.3994  2.7248  1.0572
 8200SOL     OW36232   2.779   1.976  17.059 -0.1207 -0.0033 -0.2470
 8200SOL    HW136233   2.735   1.994  16.976 -0.4925 -1.6745 -0.4082
 8200SOL    HW236234   2.705   1.971  17.119 -0.0983  0.0636 -0.2131
 8201SOL     OW36235   0.266   0.416   9.103 -0.7679  0.0354  0.2317
 8201SOL    HW136236   0.203   0.349   9.076 -0.9284  0.2307  0.1199
 8201SOL    HW236237   0.234   0.427   9.192  0.8184 -1.1308  0.9498
 8202SOL     OW36238   2.376   3.786  12.745  0.0888 -0.0774 -0.0851
 8202SOL    HW136239   2.390   3.877  12.718 -1.8977  0.3500  0.3466
 8202SOL    HW236240   2.327   3.815  12.822 -0.0081 -0.6692  0.0753
 8203SOL     OW36241   3.483   4.589   6.727 -0.9085  0.1235 -0.2505
 8203SOL    HW136242   3.465   4.584   6.821 -1.0028  0.7795 -0.2334
 8203SOL    HW236243   3.516   4.678   6.716 -0.9289 -0.1073 -2.2065
 8204SOL     OW36244   2.177   4.025   8.510  0.2287 -0.0755 -0.3347
 8204SOL    HW136245   2.237   4.089   8.547 -0.5999 -1.0986  2.8071
 8204SOL    HW236246   2.092   4.063   8.531 -0.9827 -2.0424 -1.6785
 8205SOL     OW36247   0.406   1.825   7.175 -0.4683 -0.0966  0.3013
 8205SOL    HW136248   0.455   1.755   7.220 -2.4837 -1.1454  0.8496
 8205SOL    HW236249   0.467   1.871   7.117 -1.9193  1.4573  0.0134
 8206SOL     OW36250   4.339   2.540   8.562 -0.0919 -0.1914 -0.3814
 8206SOL    HW136251   4.255   2.546   8.608 -0.3939  0.3050 -0.9876
 8206SOL    HW236252   4.385   2.473   8.612 -2.2797 -1.1551  0.3184
 8207SOL     OW36253   3.518   1.376   8.610 -0.0585 -0.0960  0.3457
 8207SOL    HW136254   3.597   1.348   8.565 -0.4640  0.9785 -1.0244
 8207SOL    HW236255   3.473   1.426   8.542  0.8020  1.8661  1.2040
 8208SOL     OW36256   4.239   1.788   0.560  0.2944  0.4682  0.2679
 8208SOL    HW136257   4.297   1.738   0.617  0.2679  0.9309  0.7032
 8208SOL    HW236258   4.303   1.809   0.492 -2.0118  2.3642 -1.3358
 8209SOL     OW36259   4.560   0.869  16.280  0.7822 -0.5104  0.3246
 8209SOL    HW136260   4.504   0.947  16.277  2.9296  0.9771 -0.2076
 8209SOL    HW236261   4.489   0.826  16.329  1.3830 -1.1299  0.6468
 8210SOL     OW36262   1.268   0.077   4.538  0.0113 -0.2460  0.4151
 8210SOL    HW136263   1.246   0.123   4.619  0.4747 -1.3631  1.1625
 8210SOL    HW236264   1.243   0.133   4.464  1.0931 -0.8821 -0.4354
 8211SOL     OW36265   1.769   2.408   9.100 -0.5141 -0.6762  0.4140
 8211SOL    HW136266   1.693   2.450   9.140 -0.3634 -0.8190  0.8524
 8211SOL    HW236267   1.812   2.467   9.038  0.7622 -0.2400  1.7070
 8212SOL     OW36268   0.937   3.402   9.519  0.9763 -0.3710  0.3893
 8212SOL    HW136269   0.853   3.413   9.475  0.6726  0.9478  1.3234
 8212SOL    HW236270   0.953   3.485   9.563 -2.4381  1.3108 -1.5847
 8213SOL     OW36271   3.033   4.125   8.535  0.0930  0.4474 -0.7476
 8213SOL    HW136272   2.995   4.201   8.580  0.0254  0.6404 -1.1281
 8213SOL    HW236273   3.126   4.134   8.553 -0.4159  0.6617  1.8345
 8214SOL     OW36274   1.350   2.677  16.472  0.4232 -0.3129  0.0809
 8214SOL    HW136275   1.262   2.666  16.435  0.3612 -3.6234  1.2560
 8214SOL    HW236276   1.368   2.584  16.486  1.9819  0.2194  1.5438
 8215SOL     OW36277   3.161   2.904   6.032  0.6769 -0.2054 -0.3289
 8215SOL    HW136278   3.252   2.905   6.004  0.6901  2.3388 -0.1921
 8215SOL    HW236279   3.142   2.993   6.062 -0.2143 -0.6484  0.4189
 8216SOL     OW36280   3.000   4.393  15.630  0.0711 -0.0801  0.1326
 8216SOL    HW136281   2.975   4.446  15.554  0.5099  0.2297  0.2033
 8216SOL    HW236282   3.079   4.351  15.595  0.6949  0.4304  0.9182
 8217SOL     OW36283   0.023   4.649   9.288 -0.5362  0.3093  0.2382
 8217SOL    HW136284   0.039   4.641   9.382 -2.3904  0.9128  0.6078
 8217SOL    HW236285   4.662   4.628   9.282 -0.4275 -0.2557  0.5738
 8218SOL     OW36286   3.857   2.460   5.748  0.4318  0.7363 -0.3538
 8218SOL    HW136287   3.820   2.455   5.836  1.4422  0.8383  0.0789
 8218SOL    HW236288   3.890   2.370   5.742  1.6471  1.1757 -0.3802
 8219SOL     OW36289   1.565   0.005   8.270 -0.6933 -0.8718 -0.4271
 8219SOL    HW136290   1.646   4.686   8.277 -0.0239  0.3216  0.6618
 8219SOL    HW236291   1.579   0.092   8.308  2.4636 -0.8797 -1.5573
 8220SOL     OW36292   3.236   3.607   7.947 -0.1625  0.3967 -0.1164
 8220SOL    HW136293   3.278   3.675   8.000  1.4298 -0.4084 -0.3582
 8220SOL    HW236294   3.245   3.650   7.862 -2.3272  2.8802  0.9066
 8221SOL     OW36295   1.590   0.105  11.736 -0.4127 -0.2628 -0.3475
 8221SOL    HW136296   1.660   0.170  11.726  1.7659 -2.6554 -0.6778
 8221SOL    HW236297   1.586   0.067  11.648 -3.4911 -0.9434  0.1074
 8222SOL     OW36298   3.490   2.766   8.483 -0.0985 -0.0696  0.2322
 8222SOL    HW136299   3.417   2.735   8.429 -0.3295  0.7129  0.0937
 8222SOL    HW236300   3.513   2.845   8.433 -1.2252  0.4575  0.5384
 8223SOL     OW36301   0.680   0.814   0.769 -0.2224  0.1522 -0.0620
 8223SOL    HW136302   0.733   0.837   0.845 -0.9616 -0.5229  0.6482
 8223SOL    HW236303   0.727   0.732   0.756  1.4463  1.2731 -1.2932
 8224SOL     OW36304   4.249   3.555  15.632  0.0894  0.3318  0.5240
 8224SOL    HW136305   4.334   3.530  15.595 -0.6791 -0.9609 -0.3502
 8224SOL    HW236306   4.228   3.478  15.686 -1.1302 -1.2997 -2.3106
 8225SOL     OW36307   2.724   1.266   7.939  0.1612 -0.1820 -0.8654
 8225SOL    HW136308   2.672   1.186   7.948  0.6285 -0.2979  0.7762
 8225SOL    HW236309   2.677   1.314   7.871 -0.5094  0.7198  0.2464
 8226SOL     OW36310   3.215   3.257   0.010 -0.4239 -0.1326 -0.2161
 8226SOL    HW136311   3.222   3.162   0.014 -1.3320 -0.1172  1.4605
 8226SOL    HW236312   3.130   3.264   0.054  0.7059 -3.2885  2.4472
 8227SOL     OW36313   1.029   0.548  11.714 -0.1229 -0.1094 -0.1364
 8227SOL    HW136314   0.942   0.589  11.712  0.1240  0.5286  1.8169
 8227SOL    HW236315   1.030   0.532  11.808 -0.5767 -1.1905 -0.3172
 8228SOL     OW36316   0.297   2.604   7.834  0.4142 -0.5752  0.1651
 8228SOL    HW136317   0.288   2.627   7.927 -1.0885  0.6540 -0.2909
 8228SOL    HW236318   0.298   2.690   7.791  2.7818 -0.8379 -0.3304
 8229SOL     OW36319   1.914   3.103   5.775  0.1157  0.2129  0.8920
 8229SOL    HW136320   2.009   3.093   5.768 -0.2348 -1.9324 -1.1556
 8229SOL    HW236321   1.906   3.109   5.870 -3.6206 -0.6192  0.6379
 8230SOL     OW36322   2.749   1.703  11.389 -0.7566  0.1869  0.0287
 8230SOL    HW136323   2.804   1.643  11.338 -1.1191 -0.0032 -0.1400
 8230SOL    HW236324   2.728   1.646  11.463  0.0799  0.4253  0.4582
 8231SOL     OW36325   2.217   1.978   9.047  0.5098 -0.5820  0.1710
 8231SOL    HW136326   2.299   1.949   9.008  1.7015  1.9255  0.7804
 8231SOL    HW236327   2.195   2.047   8.984  0.5044  1.0636  1.9650
 8232SOL     OW36328   2.450   2.250   8.258 -0.5851 -0.0610  0.2314
 8232SOL    HW136329   2.367   2.259   8.305 -0.1973 -1.0001  1.0748
 8232SOL    HW236330   2.447   2.317   8.189  0.7009 -3.3825 -3.0397
 8233SOL     OW36331   3.704   1.103   8.978  0.4681  0.2989  0.5608
 8233SOL    HW136332   3.679   1.072   8.891  2.2743  1.2221 -0.2820
 8233SOL    HW236333   3.756   1.181   8.961  0.3886 -0.0166 -1.1433
 8234SOL     OW36334   1.998   2.635   1.746 -0.0182 -0.1860 -0.1270
 8234SOL    HW136335   2.047   2.609   1.668 -0.5224  1.9293 -1.1637
 8234SOL    HW236336   1.911   2.652   1.709 -0.6556  1.4461  2.1451
 8235SOL     OW36337   2.776   0.054  15.510  0.6193  0.9628 -0.3964
 8235SOL    HW136338   2.743   0.049  15.600 -1.0862 -0.5464 -1.1228
 8235SOL    HW236339   2.713   0.115  15.472 -0.4760  0.6965  1.0080
 8236SOL     OW36340   1.087   3.610  11.842  0.1222 -0.1921  0.4581
 8236SOL    HW136341   1.082   3.556  11.921 -1.2811  1.0791  1.2416
 8236SOL    HW236342   1.159   3.566  11.798 -0.5943  0.6856 -1.5714
 8237SOL     OW36343   4.366   3.304   7.576  0.2227 -0.3916  0.3663
 8237SOL    HW136344   4.460   3.324   7.577  0.0806  0.3453 -1.2218
 8237SOL    HW236345   4.342   3.322   7.666 -1.7655 -0.3947 -0.1765
 8238SOL     OW36346   0.364   4.064   2.622 -0.2134  0.1655  0.2882
 8238SOL    HW136347   0.395   3.986   2.669 -3.1196 -0.0240  1.8897
 8238SOL    HW236348   0.358   4.122   2.697  0.4833  0.8104 -0.1592
 8239SOL     OW36349   1.404   0.723   4.983  0.1829  0.4799  0.1538
 8239SOL    HW136350   1.446   0.794   5.033  0.2459  0.2154  0.4747
 8239SOL    HW236351   1.440   0.645   5.024 -2.5518 -1.1188 -0.5353
 8240SOL     OW36352   2.055   2.785  10.770 -0.0648 -0.3054 -0.1776
 8240SOL    HW136353   1.964   2.792  10.741  0.3084  0.6649 -1.1387
 8240SOL    HW236354   2.104   2.822  10.697  0.7809 -0.2634  0.4055
 8241SOL     OW36355   4.145   1.395   4.423  0.7484  0.5035  0.4362
 8241SOL    HW136356   4.167   1.348   4.343 -0.6443  2.4345 -1.0788
 8241SOL    HW236357   4.182   1.481   4.403  1.2557  0.0558 -0.5248
 8242SOL     OW36358   2.525   1.261   7.616  0.0515 -0.1059 -0.4220
 8242SOL    HW136359   2.499   1.169   7.627  0.3494 -0.2358 -0.8150
 8242SOL    HW236360   2.564   1.258   7.529  0.2161  1.2632 -0.3972
 8243SOL     OW36361   3.172   0.105   2.663 -0.1270  0.2764 -0.5642
 8243SOL    HW136362   3.114   0.141   2.730  0.3095 -1.6334  0.8335
 8243SOL    HW236363   3.108   0.044   2.627 -0.2717  0.9757 -1.4940
 8244SOL     OW36364   4.337   2.280   9.472 -0.2824 -0.7728  0.4313
 8244SOL    HW136365   4.328   2.372   9.496 -2.5104 -1.6164  2.8269
 8244SOL    HW236366   4.268   2.283   9.406  1.2945 -1.4530 -1.2498
 8245SOL     OW36367   0.373   1.100   8.673  0.8415 -0.1905 -0.3800
 8245SOL    HW136368   0.416   1.145   8.746 -1.6154 -0.9580  1.5165
 8245SOL    HW236369   0.444   1.041   8.649  0.6752 -0.8795  0.8177
 8246SOL     OW36370   2.033   3.103   8.366  0.3945  0.3021 -0.6423
 8246SOL    HW136371   2.014   3.173   8.303  1.3076 -0.4183 -1.7143
 8246SOL    HW236372   2.119   3.116   8.406  0.4402  2.5014 -1.5078
 8247SOL     OW36373   1.421   4.253   4.894  0.0527  0.1811 -0.1128
 8247SOL    HW136374   1.510   4.219   4.878 -0.6143 -0.7771 -1.8065
 8247SOL    HW236375   1.440   4.346   4.904 -1.0461  0.5156 -1.1677
 8248SOL     OW36376   3.974   3.847   3.484 -0.2625 -0.3273 -0.0131
 8248SOL    HW136377   4.007   3.765   3.447 -1.0213 -0.1968 -1.0021
 8248SOL    HW236378   3.889   3.824   3.522  0.7887  2.6620  4.1542
 8249SOL     OW36379   1.214   0.188   8.425  0.2314  0.0167 -0.3769
 8249SOL    HW136380   1.223   0.125   8.354 -0.1215  0.8480 -1.1564
 8249SOL    HW236381   1.280   0.161   8.489  0.2266  1.9748  0.4459
 8250SOL     OW36382   3.117   3.240   4.402 -0.2881  0.3529 -0.0433
 8250SOL    HW136383   3.206   3.259   4.371  0.0507 -1.0021  0.1095
 8250SOL    HW236384   3.125   3.152   4.437 -2.9487  1.2769  2.8594
 8251SOL     OW36385   3.330   1.332   3.190  0.2795  0.5019  0.5337
 8251SOL    HW136386   3.392   1.337   3.263  0.7387 -1.9917  0.3183
 8251SOL    HW236387   3.290   1.418   3.202 -2.0380 -0.5522  0.3187
 8252SOL     OW36388   0.403   1.296   4.166  0.2815 -0.0097  0.0100
 8252SOL    HW136389   0.341   1.368   4.176  1.3769  0.9942 -0.3043
 8252SOL    HW236390   0.488   1.339   4.151 -0.6788  1.8429 -0.1325
 8253SOL     OW36391   4.169   4.323   4.785  0.0815  0.2581  0.0797
 8253SOL    HW136392   4.175   4.227   4.778  0.6777  0.3464 -0.6730
 8253SOL    HW236393   4.081   4.343   4.754  0.2064  0.2313 -0.2986
 8254SOL     OW36394   2.362   3.135  16.866 -0.5495  0.5548  0.2453
 8254SOL    HW136395   2.323   3.217  16.838  2.2987  1.4721 -0.9130
 8254SOL    HW236396   2.447   3.160  16.902 -1.2544  1.4699  1.2652
 8255SOL     OW36397   0.669   2.398   6.341 -0.1328  0.2290  0.0106
 8255SOL    HW136398   0.590   2.417   6.291  0.0646  1.2693  0.0824
 8255SOL    HW236399   0.675   2.471   6.403 -0.3312 -0.3493  0.7047
 8256SOL     OW36400   2.194   1.448  12.083  0.5883 -0.3638 -0.0715
 8256SOL    HW136401   2.275   1.493  12.059  0.6665 -0.9277 -0.8530
 8256SOL    HW236402   2.171   1.410  11.998 -0.4219  2.5305 -1.0804
 8257SOL     OW36403   2.065   2.192   7.182  0.1837 -0.3691  0.1619
 8257SOL    HW136404   2.112   2.147   7.111  0.4548  0.7054 -0.3472
 8257SOL    HW236405   2.134   2.256   7.201  1.0646 -1.2492 -0.0792
 8258SOL     OW36406   2.734   2.555   6.516 -0.2201 -0.0433 -0.5399
 8258SOL    HW136407   2.658   2.568   6.572 -1.8076 -1.5187 -2.3472
 8258SOL    HW236408   2.797   2.499   6.561 -2.1167 -2.0591 -0.3995
 8259SOL     OW36409   0.404   2.886   5.265  0.1871 -0.0117  0.1789
 8259SOL    HW136410   0.418   2.810   5.208  1.2788 -0.4599  1.0499
 8259SOL    HW236411   0.460   2.952   5.223 -0.1807  0.2292  0.0619
 8260SOL     OW36412   1.732   4.293   2.810  0.3029 -0.0494 -0.1844
 8260SOL    HW136413   1.679   4.293   2.731 -1.5996  0.2559  1.0831
 8260SOL    HW236414   1.716   4.203   2.837  0.0508  0.3014  0.8423
 8261SOL     OW36415   1.682   3.463   5.958  0.4626  0.1736 -0.1047
 8261SOL    HW136416   1.706   3.529   6.023 -0.1207  1.0571 -0.7949
 8261SOL    HW236417   1.761   3.463   5.904  0.2768 -1.9059 -0.3664
 8262SOL     OW36418   3.094   3.085   2.531 -0.2801 -0.5819  0.4094
 8262SOL    HW136419   3.189   3.090   2.545 -0.0058 -1.4716 -1.0898
 8262SOL    HW236420   3.088   2.992   2.510 -1.7438 -0.8355  1.9296
 8263SOL     OW36421   3.716   3.566   4.625  0.0120 -0.2059 -0.2900
 8263SOL    HW136422   3.803   3.606   4.631  0.8574 -1.6860 -2.3799
 8263SOL    HW236423   3.676   3.613   4.552  0.9406 -0.9083 -1.2549
 8264SOL     OW36424   2.974   3.911   4.186 -0.1112  0.6851  0.5624
 8264SOL    HW136425   3.044   3.963   4.147 -0.5606 -0.2293 -1.4719
 8264SOL    HW236426   3.023   3.857   4.247  0.2344 -0.4635 -0.7156
 8265SOL     OW36427   0.707   3.809   6.044  0.1499 -0.8882 -0.1445
 8265SOL    HW136428   0.670   3.735   6.091 -0.8371 -1.1749 -1.3842
 8265SOL    HW236429   0.635   3.873   6.038  0.0386 -0.9907  0.1044
 8266SOL     OW36430   0.909   2.951   7.368 -0.0321  0.1548 -0.1073
 8266SOL    HW136431   0.954   2.952   7.452 -1.1664 -0.6089  0.5163
 8266SOL    HW236432   0.949   2.874   7.329  1.1279  0.5468  0.3033
 8267SOL     OW36433   2.778   2.516   4.798 -0.1005 -0.1244 -0.4171
 8267SOL    HW136434   2.814   2.431   4.775 -2.1609 -1.1318  0.0495
 8267SOL    HW236435   2.711   2.524   4.730  1.2768 -0.3327 -1.8006
 8268SOL     OW36436   3.910   4.720   4.508  0.2803  0.0084  0.0231
 8268SOL    HW136437   3.891   0.066   4.559 -2.1593  0.3006 -1.3368
 8268SOL    HW236438   3.997   0.021   4.486 -0.5527  1.3238 -1.3366
 8269SOL     OW36439   3.642   4.635   0.661 -0.4902  0.3379 -0.2756
 8269SOL    HW136440   3.594   4.555   0.680 -2.2018  1.2933 -0.6150
 8269SOL    HW236441   3.661   4.679   0.744  1.7626 -1.3211  0.1113
 8270SOL     OW36442   3.150   1.810   5.287  0.0739 -0.3976  0.3455
 8270SOL    HW136443   3.124   1.901   5.274 -0.0715 -0.6123 -0.8550
 8270SOL    HW236444   3.079   1.777   5.343 -1.9323 -1.1258 -2.6642
 8271SOL     OW36445   3.813   0.882   2.200  0.1107  0.6586 -0.1363
 8271SOL    HW136446   3.749   0.931   2.253  1.5392 -2.0183  4.0739
 8271SOL    HW236447   3.781   0.887   2.110  0.8866  2.7790 -0.2755
 8272SOL     OW36448   3.579   4.390   2.560  0.5056 -0.1248 -0.1695
 8272SOL    HW136449   3.587   4.295   2.570 -0.8506 -0.2673 -0.5226
 8272SOL    HW236450   3.619   4.413   2.476  2.7981 -1.1296  0.6481
 8273SOL     OW36451   4.650   0.413  16.176  0.1121 -0.7076 -0.0469
 8273SOL    HW136452   4.568   0.392  16.220 -0.0896 -1.3664 -0.7488
 8273SOL    HW236453   4.702   0.433  16.254 -1.4378  3.3655 -0.0427
 8274SOL     OW36454   0.883   3.491   0.704 -0.3261  0.1039 -0.0791
 8274SOL    HW136455   0.801   3.508   0.752  0.1178 -2.1416  1.4600
 8274SOL    HW236456   0.954   3.511   0.765 -0.0262  1.6324 -0.9285
 8275SOL     OW36457   1.845   1.696   7.282 -0.4316  0.3082  0.2597
 8275SOL    HW136458   1.796   1.743   7.214 -1.9102 -1.8305 -0.1667
 8275SOL    HW236459   1.922   1.752   7.288 -1.7522  2.0626  1.0179
 8276SOL     OW36460   4.421   4.662   6.482  0.2910 -0.2466  0.2896
 8276SOL    HW136461   4.411   4.577   6.440  0.0745  0.4245 -1.0242
 8276SOL    HW236462   4.410   4.719   6.406 -0.8089 -0.3447  0.3617
 8277SOL     OW36463   0.624   0.839  15.135 -0.2082  0.1520  0.6690
 8277SOL    HW136464   0.553   0.872  15.081  0.8961 -1.5323 -1.7903
 8277SOL    HW236465   0.594   0.751  15.159 -1.6432  0.3504 -0.4435
 8278SOL     OW36466   1.732   2.321   5.504 -0.3829  0.1792  0.0887
 8278SOL    HW136467   1.807   2.269   5.474 -1.1942 -0.1136 -1.4592
 8278SOL    HW236468   1.665   2.283   5.446  1.5128  0.1065 -2.0769
 8279SOL     OW36469   1.445   3.530   6.859 -0.4023  0.0370 -0.3605
 8279SOL    HW136470   1.369   3.500   6.908 -0.7379 -1.5945 -1.9063
 8279SOL    HW236471   1.439   3.625   6.865 -1.7513 -0.1360  0.8769
 8280SOL     OW36472   1.378   0.406  12.477  0.1560  0.6896 -0.5363
 8280SOL    HW136473   1.437   0.460  12.423 -0.1348 -0.5151 -2.0513
 8280SOL    HW236474   1.330   0.365  12.405  0.3038  0.4747 -0.5118
 8281SOL     OW36475   3.287   2.128   6.191  0.2690 -0.2727  0.4397
 8281SOL    HW136476   3.329   2.056   6.144 -1.9100 -0.9353 -0.4557
 8281SOL    HW236477   3.195   2.112   6.173 -0.4568 -0.1914  3.9542
 8282SOL     OW36478   3.767   4.419  15.495 -0.4190  0.2247 -0.0745
 8282SOL    HW136479   3.765   4.492  15.557  0.0861  1.2401 -1.2595
 8282SOL    HW236480   3.803   4.464  15.418  0.4551 -0.9234 -0.3265
 8283SOL     OW36481   1.816   3.788   4.730 -0.0697  0.2397  0.3856
 8283SOL    HW136482   1.830   3.701   4.693  1.5880  1.6404 -2.2939
 8283SOL    HW236483   1.843   3.854   4.667 -1.2358  1.3632  1.0647
 8284SOL     OW36484   4.568   0.411   5.469  0.2812  0.0922 -0.6527
 8284SOL    HW136485   4.532   0.323   5.480  0.6620  0.1027  0.6963
 8284SOL    HW236486   4.485   0.453   5.493 -1.1361 -2.4212 -1.1159
 8285SOL     OW36487   3.631   4.475   3.706 -0.1828  0.7098 -0.5782
 8285SOL    HW136488   3.674   4.424   3.636 -0.8487  0.7616 -1.0195
 8285SOL    HW236489   3.541   4.444   3.708  0.5780 -1.5871 -0.9128
 8286SOL     OW36490   0.750   2.479   5.594 -0.3557  0.1498 -0.6090
 8286SOL    HW136491   0.728   2.543   5.661  0.0251  0.6826 -0.9907
 8286SOL    HW236492   0.669   2.492   5.545 -0.3898 -0.1860 -0.6427
 8287SOL     OW36493   2.276   2.863   6.921 -0.1290  0.1687 -1.3125
 8287SOL    HW136494   2.265   2.812   7.001  1.0436  1.2712 -0.4588
 8287SOL    HW236495   2.251   2.952   6.948  1.1416  0.6222 -1.6658
 8288SOL     OW36496   1.804   3.484  16.943  1.0415  0.1152 -0.1603
 8288SOL    HW136497   1.725   3.432  16.929  1.4219  0.0410 -1.9331
 8288SOL    HW236498   1.841   3.487  16.855  0.5972 -3.1128 -0.4494
 8289SOL     OW36499   0.011   0.794   6.722  0.0247 -0.3952 -0.0750
 8289SOL    HW136500   0.023   0.748   6.805 -0.2322  0.8736  0.6649
 8289SOL    HW236501   0.081   0.859   6.724 -2.5075  2.2203  2.9189
 8290SOL     OW36502   4.691   2.683   6.995 -0.1832  1.1188 -0.2692
 8290SOL    HW136503   4.647   2.609   7.037 -0.5670  1.2939 -0.3668
 8290SOL    HW236504   0.054   2.678   7.005 -0.1092  0.3179 -1.3275
 8291SOL     OW36505   0.536   3.336  17.268  0.8209 -0.3767 -0.1207
 8291SOL    HW136506   0.565   3.382  17.347 -0.8162  0.1300  0.1820
 8291SOL    HW236507   0.548   3.398  17.196  0.1509  1.3974  1.3110
 8292SOL     OW36508   3.410   0.300   6.341 -0.5885 -0.6493 -0.1269
 8292SOL    HW136509   3.348   0.236   6.304  0.2985 -2.5539  1.6693
 8292SOL    HW236510   3.360   0.332   6.416  2.9720 -0.9168  2.3544
 8293SOL     OW36511   3.131   1.143   4.823  0.3685  0.3128  0.1261
 8293SOL    HW136512   3.131   1.161   4.917 -0.5577  0.6127  0.0692
 8293SOL    HW236513   3.208   1.198   4.806  0.5010 -0.0858 -0.5727
 8294SOL     OW36514   3.937   3.584   8.711  0.1419  0.1928 -0.0211
 8294SOL    HW136515   3.943   3.672   8.674  0.9340  0.7629  1.4285
 8294SOL    HW236516   3.853   3.574   8.756  0.0665 -2.2960 -0.7509
 8295SOL     OW36517   2.948   1.227   0.450 -0.0146  0.0013 -0.0947
 8295SOL    HW136518   2.859   1.259   0.437  0.2374  1.3249  1.5480
 8295SOL    HW236519   2.997   1.302   0.418  0.3077 -0.2956 -0.3062
 8296SOL     OW36520   2.787   2.099   9.220 -0.2362  0.2787 -0.4842
 8296SOL    HW136521   2.882   2.088   9.215 -0.5817 -1.4886 -2.8779
 8296SOL    HW236522   2.783   2.108   9.315  1.1029  1.1880 -0.5085
 8297SOL     OW36523   4.221   4.654   4.673  0.4496 -0.8597 -0.2961
 8297SOL    HW136524   4.196   4.605   4.595 -1.7982 -0.8380  0.4201
 8297SOL    HW236525   4.293   4.706   4.638 -0.3448 -0.4553 -1.3093
 8298SOL     OW36526   0.044   2.991   7.555 -0.5791  0.0305  0.1998
 8298SOL    HW136527   0.070   3.076   7.518 -1.2865  0.8764  1.6843
 8298SOL    HW236528   0.008   2.943   7.480 -0.8126 -0.2135  0.4726
 8299SOL     OW36529   3.575   1.195   5.696  0.0780 -0.2579 -0.0531
 8299SOL    HW136530   3.561   1.119   5.640 -1.6157  0.1109 -0.1419
 8299SOL    HW236531   3.609   1.143   5.769  0.4095  2.0683  1.4703
 8300SOL     OW36532   0.711   2.331   7.910  0.4757  0.7909  0.2317
 8300SOL    HW136533   0.661   2.407   7.940 -1.1111  0.1816 -0.8589
 8300SOL    HW236534   0.801   2.363   7.915  0.5716  0.6240 -0.4092
 8301SOL     OW36535   0.853   1.372   5.077 -0.0478  0.4628 -0.3989
 8301SOL    HW136536   0.932   1.412   5.040  0.9497 -2.1886 -1.1238
 8301SOL    HW236537   0.898   1.315   5.140 -0.5194  0.4818 -0.0430
 8302SOL     OW36538   0.608   3.810   0.497 -0.3154  0.1828  0.7615
 8302SOL    HW136539   0.701   3.825   0.481 -0.4484 -1.3855 -1.4016
 8302SOL    HW236540   0.563   3.872   0.439 -2.0265 -1.1097  0.7108
 8303SOL     OW36541   1.865   3.559  12.579 -0.2595  0.4020 -0.0640
 8303SOL    HW136542   1.880   3.636  12.525 -0.1544  0.0107 -0.5981
 8303SOL    HW236543   1.770   3.551  12.575 -0.1698 -1.4356  1.5578
 8304SOL     OW36544   2.839   3.767  14.893 -0.0461  0.3025 -0.2755
 8304SOL    HW136545   2.799   3.800  14.974  0.5797  0.2409  0.0562
 8304SOL    HW236546   2.932   3.786  14.904  0.2039 -0.9185 -0.2555
 8305SOL     OW36547   0.349   1.282   1.720  0.3603 -0.2518  0.1279
 8305SOL    HW136548   0.294   1.273   1.642 -0.1643 -0.6869  0.5444
 8305SOL    HW236549   0.378   1.373   1.712  3.5794 -1.3028 -0.1508
 8306SOL     OW36550   0.840   2.456   1.584  0.4186 -0.1098 -0.4973
 8306SOL    HW136551   0.882   2.515   1.646  0.9890  0.5851 -1.5472
 8306SOL    HW236552   0.915   2.399   1.564  1.6881  0.7543  1.7905
 8307SOL     OW36553   1.030   0.977   0.782  0.7029  0.3638  0.1080
 8307SOL    HW136554   1.116   1.020   0.779  0.8932 -0.1184 -1.8598
 8307SOL    HW236555   1.042   0.924   0.860 -3.0261 -0.9124 -0.1777
 8308SOL     OW36556   3.541   3.752   4.010  0.3282  0.1582 -0.5519
 8308SOL    HW136557   3.610   3.745   4.076 -0.8131 -2.1613  0.3853
 8308SOL    HW236558   3.464   3.774   4.063 -0.7290 -1.0566 -1.5890
 8309SOL     OW36559   1.440   3.550   7.959 -0.1555 -0.1757  0.2714
 8309SOL    HW136560   1.424   3.462   7.992  1.1320  0.1482  1.7518
 8309SOL    HW236561   1.485   3.531   7.877  1.1836  1.3292  0.6546
 8310SOL     OW36562   1.739   1.896  10.520  0.5649  0.1388 -0.2302
 8310SOL    HW136563   1.734   1.941  10.604 -2.2797  0.9401 -0.8508
 8310SOL    HW236564   1.719   1.807  10.548  0.6213  0.4330  0.7438
 8311SOL     OW36565   0.043   1.435   8.340  0.4677  0.4258  0.0836
 8311SOL    HW136566   0.111   1.391   8.391  1.4184  2.6128  0.6810
 8311SOL    HW236567   0.075   1.519   8.307  1.7885 -1.1522 -2.5511
 8312SOL     OW36568   1.239   0.791  10.589 -0.3510  0.7785  0.0409
 8312SOL    HW136569   1.250   0.766  10.681 -0.6141 -0.4125 -0.2480
 8312SOL    HW236570   1.160   0.742  10.567  0.7803 -0.6817 -0.7725
 8313SOL     OW36571   2.719   0.689  16.753 -0.1446  0.0420  0.2776
 8313SOL    HW136572   2.671   0.617  16.713 -0.4092  0.9670 -1.0754
 8313SOL    HW236573   2.803   0.648  16.777  1.2892  2.1818 -1.0627
 8314SOL     OW36574   1.168   0.404  16.315  0.6449  0.9713 -0.0777
 8314SOL    HW136575   1.146   0.497  16.315 -2.0229  0.3697 -2.1495
 8314SOL    HW236576   1.204   0.391  16.227 -0.0410  1.0846 -0.3763
 8315SOL     OW36577   1.924   1.638  10.575  0.0097 -0.7372  0.1162
 8315SOL    HW136578   1.972   1.568  10.530  0.2328 -0.7843  0.4264
 8315SOL    HW236579   1.994   1.665  10.633  0.2032 -0.8798 -0.0474
 8316SOL     OW36580   2.257   4.165   4.807 -0.1621 -0.7015  0.3743
 8316SOL    HW136581   2.286   4.187   4.719  0.1793 -0.7682  0.4736
 8316SOL    HW236582   2.167   4.140   4.786  0.1827 -0.2308 -1.6385
 8317SOL     OW36583   0.276   4.310   7.129  0.2812 -0.0657  0.5238
 8317SOL    HW136584   0.242   4.285   7.215  0.9486  1.0629  1.1166
 8317SOL    HW236585   0.213   4.380   7.111  0.5473 -0.0277 -0.2584
 8318SOL     OW36586   3.230   3.519  17.662  0.5313 -0.3602  0.1702
 8318SOL    HW136587   3.220   3.432  17.700 -0.1620 -1.2438 -2.0384
 8318SOL    HW236588   3.168   3.515  17.588 -1.1174 -0.1909  1.5312
 8319SOL     OW36589   1.172   2.619  12.933  0.3465  0.2972  0.4740
 8319SOL    HW136590   1.110   2.659  12.995 -0.1692  0.5687 -0.2190
 8319SOL    HW236591   1.207   2.549  12.989  1.6428  1.4274  1.0615
 8320SOL     OW36592   4.455   4.064  12.540 -0.1081 -0.3106  0.0138
 8320SOL    HW136593   4.397   4.132  12.572  0.5924 -0.2233  1.0998
 8320SOL    HW236594   4.446   4.002  12.612 -0.9886  1.0518  1.0715
 8321SOL     OW36595   1.457   4.697   1.214  0.2283 -0.2426  0.4389
 8321SOL    HW136596   1.375   4.730   1.251 -0.5442  0.8191 -2.2373
 8321SOL    HW236597   1.418   4.663   1.133 -0.0766  2.4070 -0.5035
 8322SOL     OW36598   4.718   2.677   3.505 -0.4662  0.6075 -0.5075
 8322SOL    HW136599   0.025   2.615   3.566 -2.1110 -0.6799 -0.7446
 8322SOL    HW236600   4.704   2.757   3.556 -0.3625  0.5674 -0.4158
 8323SOL     OW36601   0.436   0.824   2.313 -0.2946  0.3718 -0.0380
 8323SOL    HW136602   0.524   0.860   2.322  0.0452 -0.6595  0.6711
 8323SOL    HW236603   0.402   0.820   2.402  1.0153  1.4035  0.5030
 8324SOL     OW36604   1.836   1.618  14.964  0.0348  0.2529 -0.2995
 8324SOL    HW136605   1.745   1.605  14.938  0.2548 -2.5269  0.3162
 8324SOL    HW236606   1.833   1.578  15.050 -0.0672  2.0485  0.5428
 8325SOL     OW36607   3.091   4.486   4.713  0.4259  0.4868 -0.0406
 8325SOL    HW136608   3.072   4.430   4.788  0.0732 -2.0061 -1.9751
 8325SOL    HW236609   3.186   4.492   4.711  0.2925  2.5378 -0.6277
 8326SOL     OW36610   1.097   0.017   9.088 -0.5151 -0.1954  0.5676
 8326SOL    HW136611   1.145   0.067   9.023  1.2031 -4.9369 -1.7786
 8326SOL    HW236612   1.020   4.722   9.038 -1.0565  0.2207  1.1600
 8327SOL     OW36613   2.365   2.128   6.173  0.1124 -0.2529  0.7143
 8327SOL    HW136614   2.324   2.215   6.174 -1.3178 -0.9082  0.2493
 8327SOL    HW236615   2.444   2.139   6.120 -0.9881  2.4307 -0.4079
 8328SOL     OW36616   1.344   4.444   7.590  0.1667 -0.0774  0.4054
 8328SOL    HW136617   1.297   4.451   7.507  1.7371  0.8476 -0.4060
 8328SOL    HW236618   1.274   4.414   7.649 -1.3242  0.5203 -1.0666
 8329SOL     OW36619   4.004   4.209   5.063  0.1816  0.2013 -0.0057
 8329SOL    HW136620   4.054   4.250   5.134 -0.1887 -0.5720  0.7033
 8329SOL    HW236621   4.046   4.248   4.986 -0.4297  0.1123 -0.3822
 8330SOL     OW36622   0.520   1.668   2.763 -0.4777  0.1386 -0.4903
 8330SOL    HW136623   0.474   1.645   2.844  1.8462 -1.7379  0.3101
 8330SOL    HW236624   0.455   1.709   2.706 -0.8290 -0.2786 -0.3853
 8331SOL     OW36625   1.097   2.745  13.543  0.2529 -0.1100  0.5154
 8331SOL    HW136626   1.093   2.692  13.463 -0.0741  1.3964 -0.4737
 8331SOL    HW236627   1.146   2.691  13.606  0.7733 -2.0046 -1.5077
 8332SOL     OW36628   2.827   0.952  16.785 -0.6930  0.1379  0.2302
 8332SOL    HW136629   2.807   0.859  16.783  0.4440 -0.1013 -0.6088
 8332SOL    HW236630   2.750   0.984  16.737 -2.6782 -0.7028  2.9103
 8333SOL     OW36631   3.304   1.511   8.170 -0.3078 -0.0038  0.3368
 8333SOL    HW136632   3.243   1.494   8.099  1.2515  1.5253 -1.3864
 8333SOL    HW236633   3.285   1.604   8.181 -1.4865 -0.1727 -0.2954
 8334SOL     OW36634   2.148   3.882   2.617 -0.1115 -0.0164  0.2898
 8334SOL    HW136635   2.056   3.907   2.608 -0.5664 -1.5600  0.6462
 8334SOL    HW236636   2.130   3.805   2.672  0.4612 -1.4179 -1.4787
 8335SOL     OW36637   3.542   0.577   0.794 -0.6372  0.6101  0.5479
 8335SOL    HW136638   3.585   0.538   0.718 -1.3162  1.8430 -0.4606
 8335SOL    HW236639   3.588   0.659   0.811 -0.9696  0.6848  1.0957
 8336SOL     OW36640   1.300   0.420   9.461  0.3654  0.3535  0.0868
 8336SOL    HW136641   1.286   0.334   9.501 -0.5356  0.5320  0.1685
 8336SOL    HW236642   1.283   0.473   9.538 -1.3045  1.5011 -1.0631
 8337SOL     OW36643   3.656   3.751  12.580 -0.9340  0.1428  0.3031
 8337SOL    HW136644   3.609   3.681  12.534  1.5157 -1.4413  0.1969
 8337SOL    HW236645   3.577   3.798  12.603 -1.4800 -1.5686  1.9987
 8338SOL     OW36646   1.836   0.465   3.872  0.5159  0.3164 -0.2451
 8338SOL    HW136647   1.853   0.559   3.868 -2.8573  0.9501  0.3012
 8338SOL    HW236648   1.866   0.435   3.958 -0.1140  1.9363  0.5374
 8339SOL     OW36649   2.834   3.878   2.831  0.3201 -0.4484 -0.1303
 8339SOL    HW136650   2.870   3.864   2.743 -1.6410  2.2838 -1.3661
 8339SOL    HW236651   2.897   3.826   2.881  0.0449 -1.7688 -1.1415
 8340SOL     OW36652   1.982   1.365   0.485  0.1157 -0.2361 -1.0540
 8340SOL    HW136653   1.972   1.381   0.579 -1.6500 -2.3879 -0.8922
 8340SOL    HW236654   2.046   1.295   0.478 -1.5878 -1.7782 -1.2416
 8341SOL     OW36655   2.941   2.926   1.175  0.5035 -0.0704 -0.4341
 8341SOL    HW136656   2.860   2.941   1.224  1.1033  1.1614  0.1946
 8341SOL    HW236657   2.957   3.017   1.148 -0.0525 -0.0125 -0.5715
 8342SOL     OW36658   1.601   3.263  17.375  0.3624  0.0922 -0.4508
 8342SOL    HW136659   1.529   3.317  17.341  0.6924  0.7237 -0.1386
 8342SOL    HW236660   1.613   3.308  17.458  0.1626 -0.0115 -0.3652
 8343SOL     OW36661   1.420   3.888   0.410 -0.6652  0.1158 -0.4402
 8343SOL    HW136662   1.409   3.793   0.416 -1.9393  0.1140 -2.5883
 8343SOL    HW236663   1.471   3.902   0.330  2.4089 -0.2963  1.4809
 8344SOL     OW36664   1.590   0.691   3.809 -0.1434  0.4652  0.1328
 8344SOL    HW136665   1.605   0.618   3.869 -2.7524 -1.7562 -1.9350
 8344SOL    HW236666   1.674   0.735   3.818 -0.2256  0.9030 -1.2227
 8345SOL     OW36667   0.190   3.036   1.922  0.4731  0.5014 -0.2567
 8345SOL    HW136668   0.094   3.040   1.921  0.3804 -2.1728 -2.6696
 8345SOL    HW236669   0.202   3.063   2.013  1.4003  1.5571 -0.7009
 8346SOL     OW36670   2.391   2.532  15.008 -0.2613  0.4775  0.0565
 8346SOL    HW136671   2.389   2.436  15.012  0.1552  0.4519 -0.2765
 8346SOL    HW236672   2.421   2.545  14.918  0.1894 -1.3595 -0.0620
 8347SOL     OW36673   1.288   3.761   4.894  0.6117  0.1620 -0.8682
 8347SOL    HW136674   1.231   3.827   4.934 -1.1554 -1.1877 -1.1960
 8347SOL    HW236675   1.243   3.749   4.811 -0.9229 -2.3261  0.3360
 8348SOL     OW36676   1.834   0.476   4.522  0.6914 -0.1888  0.1212
 8348SOL    HW136677   1.755   0.462   4.469 -0.4597  0.2067  1.7128
 8348SOL    HW236678   1.841   0.571   4.508  1.7939 -0.2761  0.0879
 8349SOL     OW36679   1.969   0.791   1.992 -0.7072 -0.1096  0.0706
 8349SOL    HW136680   1.975   0.769   1.899  0.9581 -1.8946  0.6227
 8349SOL    HW236681   1.873   0.785   1.996 -0.8527  1.9159 -0.2230
 8350SOL     OW36682   3.279   3.006   3.779 -1.3457  0.2762  0.0372
 8350SOL    HW136683   3.196   3.037   3.814 -0.8322  2.7012 -0.8864
 8350SOL    HW236684   3.266   2.975   3.690  0.4712 -1.1510  0.2445
 8351SOL     OW36685   1.428   4.602   1.924  0.0744  0.2164  0.0614
 8351SOL    HW136686   1.382   4.518   1.930 -3.5775  2.2759  0.8327
 8351SOL    HW236687   1.354   4.657   1.897 -1.0468 -0.5858  1.5235
 8352SOL     OW36688   4.621   1.481   6.423  0.1432  0.6110  0.0950
 8352SOL    HW136689   4.639   1.395   6.384  0.0129  1.5878 -2.0554
 8352SOL    HW236690   4.619   1.459   6.517  0.7249 -2.0997 -0.5082
 8353SOL     OW36691   3.739   2.518   5.499 -0.3723  0.4391 -0.4936
 8353SOL    HW136692   3.691   2.444   5.537  2.5266 -1.9735 -1.5814
 8353SOL    HW236693   3.814   2.515   5.559 -0.3673 -1.4775 -0.5853
 8354SOL     OW36694   1.174   2.545  13.727  0.1976  0.5762 -0.1004
 8354SOL    HW136695   1.227   2.520  13.803  0.7798 -0.9033 -1.0000
 8354SOL    HW236696   1.105   2.588  13.778  1.8624  1.0594  1.7698
 8355SOL     OW36697   4.325   0.867   8.400 -0.3075  0.0808 -0.4377
 8355SOL    HW136698   4.251   0.883   8.458  0.5177 -0.2757  0.6950
 8355SOL    HW236699   4.367   0.954   8.401  0.2666 -0.1992 -0.1970
 8356SOL     OW36700   2.711   1.665   5.932  0.6147 -0.1613  0.2504
 8356SOL    HW136701   2.677   1.740   5.981  1.0311 -1.0243  1.8588
 8356SOL    HW236702   2.723   1.718   5.853 -0.2348 -0.4996 -0.1103
 8357SOL     OW36703   0.852   1.583  11.317 -0.4257 -0.1216  0.2497
 8357SOL    HW136704   0.897   1.562  11.235  0.4349 -2.0271  1.2124
 8357SOL    HW236705   0.776   1.524  11.313 -0.5824  0.1471 -0.6101
 8358SOL     OW36706   2.588   1.860   8.265  0.6056 -0.5561  0.2301
 8358SOL    HW136707   2.534   1.858   8.343  0.8491 -2.0082  0.3615
 8358SOL    HW236708   2.538   1.918   8.207 -0.4535 -1.5985  0.1014
 8359SOL     OW36709   2.742   2.016  11.774  0.2312 -0.4159 -0.0951
 8359SOL    HW136710   2.712   2.077  11.841  0.2332 -1.3873  0.7837
 8359SOL    HW236711   2.834   2.004  11.796  0.7169 -2.5959 -3.3513
 8360SOL     OW36712   3.766   0.087   5.735 -0.0638 -0.0217  0.0625
 8360SOL    HW136713   3.684   0.056   5.697 -1.5439  3.0056  0.8026
 8360SOL    HW236714   3.831   0.043   5.680 -0.0245  1.2897 -0.9320
 8361SOL     OW36715   1.580   4.203   9.348  0.5253  0.7284 -0.5523
 8361SOL    HW136716   1.514   4.273   9.353  1.2233  1.3965 -0.6583
 8361SOL    HW236717   1.522   4.129   9.331  0.2271  0.9249 -0.3939
 8362SOL     OW36718   0.021   0.054   2.480  1.0045  0.3796  0.7428
 8362SOL    HW136719   4.682   0.015   2.430  1.3993 -1.1214  1.3199
 8362SOL    HW236720   4.709   0.045   2.565  1.9110  1.7069  1.3434
 8363SOL     OW36721   1.064   3.415   6.602  0.5817  0.1602 -0.6610
 8363SOL    HW136722   1.135   3.468   6.567  0.8442 -0.2506 -0.7540
 8363SOL    HW236723   1.020   3.394   6.520 -2.0769  1.3271  0.4552
 8364SOL     OW36724   1.445   1.902   6.130 -0.1461  0.1672 -0.0434
 8364SOL    HW136725   1.432   1.949   6.212  2.3728  0.9282 -0.0642
 8364SOL    HW236726   1.473   1.814   6.156  1.2869  0.4470 -0.6074
 8365SOL     OW36727   3.146   0.415   8.142  0.4137 -0.2002  0.9057
 8365SOL    HW136728   3.123   0.323   8.129  0.1311 -0.1074  0.7510
 8365SOL    HW236729   3.146   0.410   8.237  2.1647  2.5757  1.0484
 8366SOL     OW36730   0.034   0.778   1.780  0.2310 -0.3494 -0.0478
 8366SOL    HW136731   4.715   0.779   1.700  1.4231  0.0282 -0.8121
 8366SOL    HW236732   0.123   0.791   1.748 -0.6859 -0.2469 -2.5269
 8367SOL     OW36733   0.765   0.674   3.253  0.5813  0.3550 -0.1312
 8367SOL    HW136734   0.767   0.747   3.315  2.0828  0.5765 -0.4465
 8367SOL    HW236735   0.680   0.694   3.215 -0.4521 -1.7312  1.0404
 8368SOL     OW36736   1.008   2.838  15.909 -0.1334 -0.0471  0.0337
 8368SOL    HW136737   1.056   2.799  15.836  1.6570 -0.4870  1.4365
 8368SOL    HW236738   0.920   2.826  15.874 -1.7436  0.7747  3.7826
 8369SOL     OW36739   3.928   0.866   4.334  0.0784  0.0829  0.2758
 8369SOL    HW136740   3.987   0.791   4.330 -1.4935 -1.0665 -1.7046
 8369SOL    HW236741   3.848   0.819   4.358  1.3687 -1.7451  1.0115
 8370SOL     OW36742   4.012   0.139   3.887 -0.0859  0.1058  0.1092
 8370SOL    HW136743   4.085   0.128   3.826  0.0523  1.9599 -0.0830
 8370SOL    HW236744   3.959   0.060   3.886  0.8069 -0.4916  0.3021
 8371SOL     OW36745   4.610   3.202   2.056 -0.2165  0.5058  0.2374
 8371SOL    HW136746   4.601   3.135   2.124 -0.2555  1.6694  1.3755
 8371SOL    HW236747   4.661   3.261   2.112 -0.1330 -1.4365  2.1879
 8372SOL     OW36748   3.325   3.262   5.308  0.2264 -0.1308 -0.5063
 8372SOL    HW136749   3.315   3.349   5.270 -1.5519 -0.8104 -1.5910
 8372SOL    HW236750   3.418   3.255   5.328 -0.3186 -2.6024  1.1374
 8373SOL     OW36751   3.126   3.219  15.652 -0.8125  0.2344 -0.7510
 8373SOL    HW136752   3.164   3.223  15.739  0.4747 -1.9452 -1.2144
 8373SOL    HW236753   3.037   3.246  15.675 -1.5618 -1.2999 -1.8004
 8374SOL     OW36754   0.024   3.865   7.935  0.4357  0.9027  0.3887
 8374SOL    HW136755   4.677   3.916   7.942  0.3577  0.7011  0.9710
 8374SOL    HW236756   0.085   3.913   7.879  0.3329  1.3741  0.6884
 8375SOL     OW36757   3.998   1.469   2.446 -0.2721 -0.2691 -0.4013
 8375SOL    HW136758   3.908   1.440   2.462 -0.7388  0.4378 -1.6758
 8375SOL    HW236759   4.016   1.395   2.388  1.3432  1.2449 -1.8418
 8376SOL     OW36760   3.602   0.634   1.897 -0.8061 -0.0653  0.0165
 8376SOL    HW136761   3.618   0.596   1.984  0.7314  1.6804  0.4736
 8376SOL    HW236762   3.519   0.679   1.912  0.5404  1.9364  1.3687
 8377SOL     OW36763   0.976   0.935   3.649 -0.1907 -0.1993  0.0375
 8377SOL    HW136764   0.923   0.982   3.713  3.0771  0.0582  2.5836
 8377SOL    HW236765   0.989   0.855   3.700 -0.0489 -0.7885 -0.9178
 8378SOL     OW36766   1.930   0.321   1.649  0.6212  0.1956 -0.2409
 8378SOL    HW136767   1.881   0.239   1.652  0.9095  0.0474  0.4453
 8378SOL    HW236768   1.913   0.359   1.563 -2.4568 -3.0885 -1.0745
 8379SOL     OW36769   3.678   0.068   9.313 -0.1306 -0.0460  0.1594
 8379SOL    HW136770   3.751   0.038   9.259 -0.2788 -1.2832  0.6601
 8379SOL    HW236771   3.622   4.726   9.294  1.0662 -0.8726 -0.1768
 8380SOL     OW36772   3.661   2.928   9.055  0.2394  0.0448  0.6624
 8380SOL    HW136773   3.598   2.999   9.045  0.9070  0.7274  1.3534
 8380SOL    HW236774   3.653   2.877   8.974  0.5244  0.3355  0.4538
 8381SOL     OW36775   3.396   2.870  10.155 -0.2507  0.1662 -0.0531
 8381SOL    HW136776   3.465   2.806  10.172 -0.2191  0.0745 -0.5333
 8381SOL    HW236777   3.439   2.927  10.091 -2.5502  1.1674 -0.7248
 8382SOL     OW36778   3.830   0.580   2.316 -0.6033 -0.2732  0.4882
 8382SOL    HW136779   3.783   0.529   2.249 -1.3321  0.8761  0.1227
 8382SOL    HW236780   3.762   0.635   2.355 -0.6886  1.2673 -1.8218
 8383SOL     OW36781   1.130   3.742   3.129  0.7232  0.3167 -0.3424
 8383SOL    HW136782   1.074   3.792   3.189 -0.7780 -0.8624 -0.7523
 8383SOL    HW236783   1.129   3.655   3.168  2.3124 -0.0575 -1.1268
 8384SOL     OW36784   0.734   1.373   2.462  0.1999  0.3800  0.2360
 8384SOL    HW136785   0.716   1.462   2.492 -2.6530  0.4732 -1.7401
 8384SOL    HW236786   0.672   1.359   2.390 -0.6757  1.5277  0.7543
 8385SOL     OW36787   1.056   1.288  11.026  0.2459 -0.2824  0.8261
 8385SOL    HW136788   1.012   1.280  11.111  1.0637 -0.7142  1.2036
 8385SOL    HW236789   1.090   1.199  11.015  0.2730  0.0823 -1.9562
 8386SOL     OW36790   3.614   3.848   2.506  0.3567 -0.1274  0.4015
 8386SOL    HW136791   3.671   3.902   2.451  1.3450 -0.4292  1.1351
 8386SOL    HW236792   3.665   3.767   2.498 -1.9370 -1.3479 -1.8356
 8387SOL     OW36793   0.102   1.362   0.089  0.0222  0.5721  0.2856
 8387SOL    HW136794   0.101   1.386   0.182  1.6977 -2.0469  0.9631
 8387SOL    HW236795   0.196   1.356   0.071  0.0249  0.5966  0.2910
 8388SOL     OW36796   2.012   3.051  13.792 -0.1113  0.1986  0.8723
 8388SOL    HW136797   2.028   2.969  13.839 -0.0897 -0.2728  0.0452
 8388SOL    HW236798   2.063   3.033  13.713 -1.1445 -0.3645  0.3278
 8389SOL     OW36799   2.789   1.169   6.368  0.1891 -0.0599  0.0262
 8389SOL    HW136800   2.818   1.260   6.378 -0.9216  0.1677  1.1738
 8389SOL    HW236801   2.700   1.178   6.335  0.1618  1.9803  0.6303
 8390SOL     OW36802   3.463   4.043  13.213 -0.1429 -0.2578 -0.6308
 8390SOL    HW136803   3.411   4.090  13.278  1.1551 -0.9937  0.9355
 8390SOL    HW236804   3.459   3.964  13.266 -0.0219 -0.6950 -1.2705
 8391SOL     OW36805   2.608   1.966   4.660  0.1152 -0.0191  0.4279
 8391SOL    HW136806   2.685   2.008   4.698  0.5128  0.1735 -0.5898
 8391SOL    HW236807   2.555   2.045   4.650  1.4462  0.9253  0.7927
 8392SOL     OW36808   0.028   0.997  14.242 -0.2132 -0.2242 -0.2513
 8392SOL    HW136809   4.679   0.969  14.282 -0.5365  0.9529 -0.0742
 8392SOL    HW236810   0.066   1.040  14.319 -1.4719  0.3411  0.0576
 8393SOL     OW36811   1.928   2.491  15.404  0.2721 -0.2127  0.0646
 8393SOL    HW136812   1.916   2.581  15.434 -0.7136 -0.0327 -0.8773
 8393SOL    HW236813   2.019   2.485  15.375  0.0363  3.8927 -1.4450
 8394SOL     OW36814   0.929   1.717   0.273  0.6032 -0.4440  0.2486
 8394SOL    HW136815   0.885   1.652   0.328 -2.0162 -0.0331 -1.3284
 8394SOL    HW236816   1.017   1.682   0.260  0.8677  0.3110  0.0229
 8395SOL     OW36817   2.491   0.835   5.048  0.0571 -0.1148 -0.0496
 8395SOL    HW136818   2.462   0.875   4.966 -0.4508  1.0660  0.7216
 8395SOL    HW236819   2.483   0.903   5.115  1.5089  0.7879 -0.8136
 8396SOL     OW36820   2.395   2.183  13.619 -0.0964 -0.0161 -0.5053
 8396SOL    HW136821   2.300   2.178  13.617 -0.0961  1.3183 -3.4158
 8396SOL    HW236822   2.407   2.253  13.683  3.1309 -1.1066  0.1214
 8397SOL     OW36823   0.978   0.360   3.448  0.1362  0.1178  0.1331
 8397SOL    HW136824   0.987   0.444   3.495  0.0759  0.5523 -0.6407
 8397SOL    HW236825   0.922   0.389   3.376  1.4181 -1.6085 -1.5522
 8398SOL     OW36826   0.371   3.854   3.657 -0.2081 -0.1415 -0.4415
 8398SOL    HW136827   0.397   3.764   3.676  0.9510 -0.1660 -2.1198
 8398SOL    HW236828   0.290   3.833   3.611 -0.6901 -1.8345  1.1716
 8399SOL     OW36829   4.012   0.177   0.419  0.3058 -0.1133  0.1701
 8399SOL    HW136830   3.928   0.165   0.464 -0.0734  1.3604 -0.1465
 8399SOL    HW236831   4.041   0.086   0.415  2.2866  0.5165  0.4695
 8400SOL     OW36832   1.619   2.232  15.431 -0.1648 -0.3026 -0.3675
 8400SOL    HW136833   1.604   2.159  15.491  2.0010 -0.0009  0.5524
 8400SOL    HW236834   1.616   2.193  15.344 -1.1924 -3.2515  0.9866
 8401SOL     OW36835   0.153   3.945   2.173 -0.0718 -0.0161 -0.3752
 8401SOL    HW136836   0.130   3.977   2.261 -0.6177  0.2518 -0.6146
 8401SOL    HW236837   0.243   3.977   2.165 -0.6704  1.9235  0.5166
 8402SOL     OW36838   3.870   1.029   1.036 -0.0577 -0.1260  0.5546
 8402SOL    HW136839   3.844   0.940   1.015 -0.1376 -0.1609  0.7990
 8402SOL    HW236840   3.785   1.067   1.060  0.0871  0.0243  0.8411
 8403SOL     OW36841   0.443   2.577   6.833  0.1476  0.1997  0.0630
 8403SOL    HW136842   0.383   2.589   6.907  3.4759  0.1967  2.7548
 8403SOL    HW236843   0.375   2.592   6.767 -0.5828  0.5048  0.8665
 8404SOL     OW36844   1.099   1.354   7.391 -0.2326  0.2184 -0.1891
 8404SOL    HW136845   1.170   1.412   7.363  2.1324 -2.7967 -0.3999
 8404SOL    HW236846   1.044   1.412   7.444  0.1904  0.8754 -0.4643
 8405SOL     OW36847   4.235   1.998   6.108 -0.1200  0.0417 -0.6704
 8405SOL    HW136848   4.228   1.905   6.126  3.6636 -0.1298 -0.1495
 8405SOL    HW236849   4.197   2.003   6.020  1.5060 -0.0830 -1.3714
 8406SOL     OW36850   4.629   4.452  14.805 -0.4781  0.2125  0.5720
 8406SOL    HW136851   4.553   4.451  14.862 -2.0538  0.7335 -1.4948
 8406SOL    HW236852   4.615   4.371  14.755 -2.6196 -0.0208  1.5774
 8407SOL     OW36853   2.074   1.700   9.090  0.6105 -0.1754  0.3424
 8407SOL    HW136854   2.088   1.794   9.095 -0.6198  0.1019 -1.4568
 8407SOL    HW236855   1.993   1.690   9.139  0.2880  0.4108 -0.0799
 8408SOL     OW36856   3.617   1.730   3.683  0.0584 -0.3700 -0.1260
 8408SOL    HW136857   3.606   1.821   3.654  0.2120  0.0906  1.2373
 8408SOL    HW236858   3.710   1.711   3.688  0.1552 -0.1076 -0.8519
 8409SOL     OW36859   4.439   2.621   5.432  0.0129  1.0818 -0.4901
 8409SOL    HW136860   4.410   2.692   5.375 -2.3476  1.0711  0.6638
 8409SOL    HW236861   4.364   2.560   5.435  1.8327 -1.2164 -1.9675
 8410SOL     OW36862   1.037   4.063  12.623 -0.9724 -0.5972 -0.0760
 8410SOL    HW136863   1.044   4.037  12.532  0.2779  2.2320 -0.8032
 8410SOL    HW236864   1.130   4.086  12.632 -0.7166 -1.8356  0.3874
 8411SOL     OW36865   4.321   4.633   2.312 -0.0680  0.2098 -0.1122
 8411SOL    HW136866   4.284   4.584   2.385  1.2434 -1.2588 -0.4383
 8411SOL    HW236867   4.273   4.714   2.325  0.2020  0.2323  0.7240
 8412SOL     OW36868   2.206   3.696   6.898 -0.0532 -0.1476  0.1898
 8412SOL    HW136869   2.242   3.770   6.849  1.1553 -1.7873 -1.4298
 8412SOL    HW236870   2.149   3.664   6.828  1.7963  1.2663 -1.9808
 8413SOL     OW36871   4.714   2.436   7.348 -0.1512 -0.0311 -0.1934
 8413SOL    HW136872   4.695   2.342   7.356 -0.1391  0.0968  1.3390
 8413SOL    HW236873   0.077   2.433   7.358 -0.0263  1.3602 -1.0021
 8414SOL     OW36874   0.754   3.248   8.823 -0.1916  0.2771 -0.4634
 8414SOL    HW136875   0.706   3.329   8.842  2.4281  1.8373 -0.5390
 8414SOL    HW236876   0.701   3.175   8.853 -1.8872  0.9503 -1.7994
 8415SOL     OW36877   3.529   2.757   7.513  0.0617 -0.0312 -0.1987
 8415SOL    HW136878   3.528   2.735   7.607 -0.0486 -2.2652 -0.7220
 8415SOL    HW236879   3.621   2.741   7.494  0.2896  0.1399  0.7494
 8416SOL     OW36880   2.258   1.390   0.166  0.1267 -0.2199 -0.2008
 8416SOL    HW136881   2.164   1.387   0.180  0.0364  2.8510 -0.1948
 8416SOL    HW236882   2.278   1.479   0.194 -1.6375  0.1290 -0.1052
 8417SOL     OW36883   2.446   3.893   5.996  0.4204  0.0957 -0.0131
 8417SOL    HW136884   2.438   3.973   5.943 -0.4643  1.1590  1.7218
 8417SOL    HW236885   2.423   3.832   5.926 -2.2468 -2.0031  2.7050
 8418SOL     OW36886   4.614   1.543   3.017 -0.0056 -0.2941  0.3252
 8418SOL    HW136887   4.664   1.569   2.940  2.1523  1.5340  2.3687
 8418SOL    HW236888   4.636   1.604   3.088  1.8574 -0.0501 -0.4727
 8419SOL     OW36889   4.109   0.446  11.165 -0.9131  0.0394  0.1060
 8419SOL    HW136890   4.137   0.361  11.131  2.2984  0.8538  0.7756
 8419SOL    HW236891   4.144   0.501  11.095 -0.6852 -0.1253  0.0899
 8420SOL     OW36892   1.042   0.138   3.609 -0.0867  0.3057 -0.2657
 8420SOL    HW136893   1.023   0.177   3.695 -0.6262 -0.5940  0.0250
 8420SOL    HW236894   1.021   0.206   3.546  2.0513  0.1555 -1.1299
 8421SOL     OW36895   3.842   3.257  11.078  0.1069 -0.2223 -0.1345
 8421SOL    HW136896   3.928   3.221  11.098 -0.5898 -0.8778  1.7025
 8421SOL    HW236897   3.789   3.216  11.147 -0.1093  2.3250  1.2040
 8422SOL     OW36898   2.963   0.613   3.587  0.2945  0.3926 -0.0642
 8422SOL    HW136899   2.984   0.600   3.679 -0.1293  1.6899  0.2132
 8422SOL    HW236900   3.020   0.686   3.566  2.2114 -0.9221  0.5775
 8423SOL     OW36901   0.326   2.962   7.000  0.1877  0.3323 -0.0441
 8423SOL    HW136902   0.317   3.008   6.917  1.3548 -0.0328 -0.3773
 8423SOL    HW236903   0.418   2.937   7.001 -0.0405 -0.5584 -1.4722
 8424SOL     OW36904   4.681   0.351   4.234 -0.0707 -0.4765 -0.3383
 8424SOL    HW136905   0.032   0.398   4.224 -0.2038  0.3202  2.2787
 8424SOL    HW236906   4.635   0.350   4.150 -2.3031  2.6629  0.8029
 8425SOL     OW36907   3.471   1.677   9.735 -0.0617  0.0915  0.0092
 8425SOL    HW136908   3.443   1.766   9.757 -1.7642 -0.4416  0.0366
 8425SOL    HW236909   3.392   1.629   9.711 -0.9519  2.4663 -1.7244
 8426SOL     OW36910   0.722   2.781  10.720 -0.2267 -0.0751  0.0887
 8426SOL    HW136911   0.741   2.696  10.759  1.3872 -0.4682 -1.5642
 8426SOL    HW236912   0.689   2.742  10.639 -1.1482  2.8483 -0.9478
 8427SOL     OW36913   0.741   4.222  16.188 -0.4947 -0.1300 -0.6778
 8427SOL    HW136914   0.825   4.235  16.144  0.0472 -0.1651  0.3384
 8427SOL    HW236915   0.699   4.152  16.138 -0.7605  1.2208 -2.3398
 8428SOL     OW36916   0.491   3.243   4.366  0.6627 -0.7592 -0.5830
 8428SOL    HW136917   0.514   3.317   4.422  0.7674 -0.0002 -1.6136
 8428SOL    HW236918   0.518   3.165   4.415 -1.1375 -0.0119  1.5931
 8429SOL     OW36919   3.807   3.993   4.326 -0.1857  0.0529 -0.4424
 8429SOL    HW136920   3.800   4.074   4.276 -2.3100 -0.2690 -0.6672
 8429SOL    HW236921   3.903   3.997   4.333  0.0222 -0.7133 -2.9846
 8430SOL     OW36922   4.460   2.275   4.288  0.1641 -0.2766 -0.4636
 8430SOL    HW136923   4.494   2.256   4.376 -0.0622  2.2604  0.1877
 8430SOL    HW236924   4.367   2.258   4.302  0.3224  0.5832  1.7262
 8431SOL     OW36925   2.034   2.844   4.079  0.7117  0.5451 -0.0938
 8431SOL    HW136926   2.102   2.832   4.013 -0.1375  1.0140 -1.0392
 8431SOL    HW236927   1.977   2.769   4.060  2.4621 -1.4505  2.4141
 8432SOL     OW36928   3.441   3.823   7.295  0.2991  0.5440  0.4502
 8432SOL    HW136929   3.481   3.880   7.361  2.8625 -1.5309  0.7057
 8432SOL    HW236930   3.516   3.774   7.262  0.3153  0.1231  1.1109
 8433SOL     OW36931   2.150   1.666   2.781  0.3538 -0.2010  0.1524
 8433SOL    HW136932   2.172   1.759   2.776  0.8004 -0.3502 -0.5859
 8433SOL    HW236933   2.132   1.658   2.875  0.0669 -2.5476 -0.1083
 8434SOL     OW36934   0.535   4.616   7.129  0.6273 -0.1330 -0.3183
 8434SOL    HW136935   0.588   4.696   7.122 -0.7524  0.7423 -0.6339
 8434SOL    HW236936   0.454   4.644   7.171  0.1964 -0.4126 -0.9742
 8435SOL     OW36937   3.488   2.146   8.604  0.6465 -0.2371 -0.1820
 8435SOL    HW136938   3.452   2.233   8.588  2.3160  0.1766 -1.5586
 8435SOL    HW236939   3.412   2.105   8.647  0.0850  0.0360 -0.9075
 8436SOL     OW36940   1.553   2.274  12.604  0.1463 -0.1786 -0.0257
 8436SOL    HW136941   1.628   2.224  12.573 -1.2726 -1.0871 -1.9960
 8436SOL    HW236942   1.596   2.310  12.682  0.5777  0.4925 -0.5845
 8437SOL     OW36943   0.332   1.359   7.498 -0.5035  0.1987 -0.7365
 8437SOL    HW136944   0.280   1.370   7.578 -0.2698  2.8268 -0.9311
 8437SOL    HW236945   0.341   1.265   7.489  2.0708  0.1834  1.9615
 8438SOL     OW36946   0.165   3.033  16.272  0.3020 -0.2085  0.8001
 8438SOL    HW136947   0.100   2.965  16.290 -1.3338  0.9380 -0.6722
 8438SOL    HW236948   0.197   3.047  16.361  0.1912 -0.4161  0.8724
 8439SOL     OW36949   3.660   3.381   2.436  0.2434  0.1702 -0.0232
 8439SOL    HW136950   3.661   3.389   2.340 -3.2070 -1.1272 -0.1739
 8439SOL    HW236951   3.688   3.289   2.435 -3.1760 -0.8373 -1.8936
 8440SOL     OW36952   4.364   4.178   4.214 -0.7836 -0.7279  0.1654
 8440SOL    HW136953   4.358   4.238   4.289 -1.9852 -1.0772  0.3507
 8440SOL    HW236954   4.273   4.149   4.208 -0.7178 -1.2411  1.7973
 8441SOL     OW36955   4.319   1.725  10.335  0.1111  0.3457 -0.8423
 8441SOL    HW136956   4.352   1.806  10.376  0.2768  1.3240 -2.8983
 8441SOL    HW236957   4.381   1.657  10.361  0.1520  0.5537 -0.3877
 8442SOL     OW36958   3.151   2.875   3.548  0.4467 -0.1938 -0.0182
 8442SOL    HW136959   3.156   2.780   3.533  0.1790 -0.1080 -0.6530
 8442SOL    HW236960   3.093   2.873   3.624  0.0172  0.5587 -0.3294
 8443SOL     OW36961   3.309   4.140   8.561  0.4699  0.0186 -0.2905
 8443SOL    HW136962   3.340   4.154   8.472 -2.2822  1.9480 -0.9683
 8443SOL    HW236963   3.372   4.190   8.614  0.3208  0.0634 -0.1534
 8444SOL     OW36964   0.297   1.789   6.205  0.1837  0.2782  0.1457
 8444SOL    HW136965   0.269   1.725   6.139 -3.1934  0.2295  1.6209
 8444SOL    HW236966   0.210   1.816   6.234  0.0845  0.2536 -0.1294
 8445SOL     OW36967   4.299   1.788   5.797  0.2438  0.2091 -0.1971
 8445SOL    HW136968   4.222   1.822   5.751  0.3024 -0.8535 -1.0771
 8445SOL    HW236969   4.341   1.754   5.718 -0.2319 -0.7206 -0.0460
 8446SOL     OW36970   1.848   1.959  11.097 -0.2254  0.0322 -0.5419
 8446SOL    HW136971   1.928   2.011  11.098  1.5043 -2.6716  1.5671
 8446SOL    HW236972   1.840   1.935  11.005 -0.7030  0.9760 -0.7457
 8447SOL     OW36973   3.986   2.761   8.811 -0.1434  0.5166 -0.0278
 8447SOL    HW136974   4.009   2.672   8.785  0.3131  0.8374 -0.7190
 8447SOL    HW236975   3.992   2.811   8.730 -2.1173 -2.2575 -1.8843
 8448SOL     OW36976   3.974   3.684   4.998  0.6708 -0.3929  0.1949
 8448SOL    HW136977   3.952   3.604   5.044  0.3390 -1.6723 -2.1792
 8448SOL    HW236978   3.993   3.751   5.064  0.5099 -0.7149  0.5644
 8449SOL     OW36979   3.151   2.495   3.288 -0.1307  0.0889 -0.2572
 8449SOL    HW136980   3.148   2.527   3.198  1.5386  0.0777 -0.3160
 8449SOL    HW236981   3.098   2.562   3.332  0.9260  0.4896  0.4204
 8450SOL     OW36982   0.229   0.142   0.085 -0.8108  0.6194  0.2825
 8450SOL    HW136983   0.283   0.216   0.114  0.5681 -1.3124  2.6526
 8450SOL    HW236984   0.170   0.195   0.032 -0.6186  0.2115 -0.3285
 8451SOL     OW36985   3.940   0.008  17.371  0.2266 -0.0116  0.2912
 8451SOL    HW136986   3.929   4.701  17.457 -0.4991 -1.1150 -0.3150
 8451SOL    HW236987   3.967   0.098  17.386 -0.8950  0.6479 -1.7062
 8452SOL     OW36988   1.620   2.708  16.777  0.4841  0.0273  0.4389
 8452SOL    HW136989   1.647   2.627  16.734  2.2391  0.0336  1.5270
 8452SOL    HW236990   1.710   2.729  16.802  1.3998 -2.1755 -0.9868
 8453SOL     OW36991   0.404   3.804   7.707  0.2049  0.2273  0.0114
 8453SOL    HW136992   0.408   3.812   7.802 -0.1483 -0.0779  0.0509
 8453SOL    HW236993   0.337   3.736   7.699  2.4954 -1.9638 -0.2016
 8454SOL     OW36994   2.915   1.391   6.596 -0.4665  0.4342 -0.2698
 8454SOL    HW136995   2.869   1.441   6.528 -2.0291  0.5140  0.8298
 8454SOL    HW236996   2.846   1.365   6.657 -0.1055 -1.5432 -0.6932
 8455SOL     OW36997   1.303   0.551   6.645 -0.2109 -0.2126  0.0592
 8455SOL    HW136998   1.389   0.594   6.643 -0.0911 -0.4068  1.1041
 8455SOL    HW236999   1.249   0.628   6.631 -0.9088 -0.0447  3.8248
 8456SOL     OW37000   1.832   3.948  12.751  0.4015  0.0252 -0.9599
 8456SOL    HW137001   1.843   3.913  12.663 -1.8688 -0.4974 -1.0529
 8456SOL    HW237002   1.738   3.937  12.768  0.0785  1.5677 -1.7525
 8457SOL     OW37003   2.547   1.296   6.016  0.5134 -0.0057  0.1162
 8457SOL    HW137004   2.543   1.233   5.945 -2.8599 -0.8583  1.0769
 8457SOL    HW237005   2.635   1.331   6.006  0.9282 -0.9303  0.5477
 8458SOL     OW37006   1.488   1.673   6.344  0.3486  0.0661 -0.6049
 8458SOL    HW137007   1.547   1.676   6.420  2.0271 -0.4769 -1.8829
 8458SOL    HW237008   1.498   1.584   6.312 -1.2525 -0.7435  1.1320
 8459SOL     OW37009   0.349   2.559   8.121 -0.6011  0.0404 -0.3887
 8459SOL    HW137010   0.350   2.598   8.209 -0.9023  1.7207 -1.1444
 8459SOL    HW237011   0.324   2.469   8.141 -0.0224  0.1757  0.9822
 8460SOL     OW37012   3.414   1.751  14.383  0.5777 -0.0963  0.0439
 8460SOL    HW137013   3.456   1.834  14.360  0.5325 -0.9995 -3.4089
 8460SOL    HW237014   3.404   1.710  14.297  0.5847  1.4361 -0.6928
 8461SOL     OW37015   2.887   0.755  13.614 -0.4973  0.0788  0.1795
 8461SOL    HW137016   2.898   0.836  13.663 -0.1044  0.7449 -1.0000
 8461SOL    HW237017   2.858   0.696  13.683  0.2898  2.1930  2.2914
 8462SOL     OW37018   2.632   1.000   3.918 -0.2735 -0.1651  0.7232
 8462SOL    HW137019   2.664   0.944   3.989  1.4225 -1.4657 -1.0835
 8462SOL    HW237020   2.577   0.945   3.864  0.3452 -0.0838  0.0123
 8463SOL     OW37021   4.398   3.433  14.923 -0.4102 -0.4179 -0.0828
 8463SOL    HW137022   4.456   3.508  14.918 -0.8808 -0.0530 -0.0764
 8463SOL    HW237023   4.379   3.429  15.017 -1.4285 -1.9338 -0.3523
 8464SOL     OW37024   4.633   2.321   9.401  0.1541  0.1073  0.1372
 8464SOL    HW137025   4.546   2.282   9.407  0.0470  0.4744  0.9856
 8464SOL    HW237026   4.678   2.281   9.327  0.3921  0.2082  0.2270
 8465SOL     OW37027   1.271   1.792   7.323 -0.0429  0.2277  0.2165
 8465SOL    HW137028   1.286   1.815   7.414  1.6319 -0.6629  0.1602
 8465SOL    HW237029   1.216   1.862   7.287  2.6514  1.1673 -2.0634
 8466SOL     OW37030   3.350   1.861   6.103  0.2898 -1.2166  0.6689
 8466SOL    HW137031   3.298   1.785   6.078 -1.6687  0.4568 -0.3392
 8466SOL    HW237032   3.395   1.873   6.020  0.9692  0.8453  1.3152
 8467SOL     OW37033   1.950   0.201   0.867 -0.0051 -0.8280  0.1331
 8467SOL    HW137034   2.042   0.209   0.842 -0.2272 -1.1049 -0.7562
 8467SOL    HW237035   1.946   0.274   0.929  0.0363  0.9624 -1.9775
 8468SOL     OW37036   1.047   0.764   9.625 -0.7256 -0.2043 -0.1910
 8468SOL    HW137037   0.959   0.745   9.657 -0.5361  0.4610  0.7351
 8468SOL    HW237038   1.056   0.860   9.631 -0.3363 -0.2773  0.3877
 8469SOL     OW37039   0.731   0.820  10.982  0.0812 -0.3100 -0.3805
 8469SOL    HW137040   0.787   0.753  10.942  1.2159  0.3494  0.0864
 8469SOL    HW237041   0.740   0.795  11.074  2.1632 -1.9217 -1.0121
 8470SOL     OW37042   0.495   2.114  14.220  0.3952 -0.0472 -0.2229
 8470SOL    HW137043   0.563   2.097  14.285 -1.0670  1.1551  1.6130
 8470SOL    HW237044   0.544   2.069  14.151  0.3734 -1.0674  0.4372
 8471SOL     OW37045   1.428   3.156   6.302 -0.2448  0.0243  0.7418
 8471SOL    HW137046   1.349   3.209   6.302 -1.2331 -1.4357 -1.1256
 8471SOL    HW237047   1.400   3.072   6.265 -0.1533  0.5617 -0.5423
 8472SOL     OW37048   2.466   0.360   7.524 -0.2318  0.5199 -0.3707
 8472SOL    HW137049   2.393   0.404   7.567  0.9575  1.4956  0.5980
 8472SOL    HW237050   2.476   0.430   7.459  0.9787  1.4125  0.8003
 8473SOL     OW37051   4.730   4.199   2.891 -0.2827 -0.1099  0.2524
 8473SOL    HW137052   0.024   4.231   2.977 -0.1342 -2.5747  1.1286
 8473SOL    HW237053   0.014   4.105   2.883 -0.2529 -0.2438  1.8739
 8474SOL     OW37054   0.807   1.124   6.609  0.2641 -0.6984 -0.0462
 8474SOL    HW137055   0.898   1.144   6.628  0.7823 -2.5919 -0.5228
 8474SOL    HW237056   0.787   1.188   6.541  3.2086 -0.2302 -0.4698
 8475SOL     OW37057   1.155   0.648  15.109  0.2472  0.0720 -0.1665
 8475SOL    HW137058   1.195   0.695  15.182 -1.7736  2.8159 -0.8628
 8475SOL    HW237059   1.223   0.589  15.075  1.3944  1.7955 -0.8467
 8476SOL     OW37060   0.229   0.062  10.849  0.1567  0.1636 -0.0774
 8476SOL    HW137061   0.299   0.093  10.906  0.3427 -0.8085  0.2142
 8476SOL    HW237062   0.203   4.717  10.899 -0.9486  0.2243 -0.5535
 8477SOL     OW37063   1.455   1.398   6.294 -0.1362  0.0708 -0.1625
 8477SOL    HW137064   1.481   1.390   6.386 -0.6354 -2.9149 -0.2973
 8477SOL    HW237065   1.477   1.311   6.261  1.2688 -0.1308  1.2905
 8478SOL     OW37066   0.361   2.151  14.493  0.5919  0.1005  0.0413
 8478SOL    HW137067   0.335   2.191  14.576  2.4129 -1.1360  1.2090
 8478SOL    HW237068   0.438   2.099  14.518  0.1941 -1.4784 -1.9995
 8479SOL     OW37069   1.114   1.290   7.874  0.1492  0.2724  0.0384
 8479SOL    HW137070   1.053   1.362   7.861 -0.0199  0.3188  1.1217
 8479SOL    HW237071   1.175   1.294   7.799 -0.9939  2.5429 -0.7682
 8480SOL     OW37072   2.799   0.009   9.996  0.4927  0.1592  0.2760
 8480SOL    HW137073   2.876   4.686   9.991 -0.3337 -0.7914 -1.7691
 8480SOL    HW237074   2.828   0.076  10.058  2.1075  0.9156 -1.2846
 8481SOL     OW37075   2.811   3.964   8.141  1.0157  0.1619  0.2399
 8481SOL    HW137076   2.765   4.048   8.129  0.3708 -0.3747 -1.0447
 8481SOL    HW237077   2.902   3.972   8.114  0.2134  1.4468 -2.0686
 8482SOL     OW37078   1.685   4.332  13.575  0.2462 -0.0558  0.0347
 8482SOL    HW137079   1.732   4.311  13.656  0.2599  0.8502  0.2676
 8482SOL    HW237080   1.616   4.266  13.567 -0.6686  1.2545 -2.9342
 8483SOL     OW37081   0.029   3.735   1.747  0.1077 -0.9549 -0.2120
 8483SOL    HW137082   0.039   3.657   1.802  2.0396 -0.1608  0.5789
 8483SOL    HW237083   0.042   3.804   1.813 -2.8705 -0.4675 -0.1427
 8484SOL     OW37084   0.831   1.398   9.056  0.2724 -0.6731 -0.0818
 8484SOL    HW137085   0.851   1.331   9.121  0.0503 -1.3249 -0.6817
 8484SOL    HW237086   0.894   1.368   8.990  1.6267  2.2838 -0.1259
 8485SOL     OW37087   2.795   3.474   2.072  0.0802 -0.3280 -0.2054
 8485SOL    HW137088   2.861   3.418   2.030 -0.2534 -2.9040  2.7060
 8485SOL    HW237089   2.849   3.515   2.140 -1.0417  0.0133  0.4750
 8486SOL     OW37090   2.986   3.055  12.211 -0.2149  0.0459  0.2884
 8486SOL    HW137091   3.056   3.110  12.246  0.6383 -0.8300 -0.0285
 8486SOL    HW237092   2.974   3.078  12.119  2.0370 -0.5519 -0.1561
 8487SOL     OW37093   0.710   2.256   8.493 -0.0218 -0.4596  0.2002
 8487SOL    HW137094   0.767   2.329   8.470  0.8447 -0.5806  1.9230
 8487SOL    HW237095   0.678   2.303   8.571  2.3259  2.6197 -0.6975
 8488SOL     OW37096   3.370   2.171   8.065  0.0830  0.1776  0.0876
 8488SOL    HW137097   3.374   2.084   8.027  1.7496 -0.4454  1.6658
 8488SOL    HW237098   3.289   2.173   8.116  0.0810  0.0302  0.0890
 8489SOL     OW37099   0.563   3.547   5.270  0.3935  0.3817 -0.2383
 8489SOL    HW137100   0.629   3.555   5.339  0.3175 -0.6859 -0.0430
 8489SOL    HW237101   0.495   3.604   5.305 -0.9213 -0.7974 -0.8809
 8490SOL     OW37102   1.693   0.893   4.088 -0.0971  0.5176 -0.3461
 8490SOL    HW137103   1.778   0.848   4.086 -0.1967  0.2897  0.5329
 8490SOL    HW237104   1.634   0.822   4.062 -2.3323  2.6838 -1.1389
 8491SOL     OW37105   2.426   3.859   0.340  0.0936  0.1946 -0.3215
 8491SOL    HW137106   2.439   3.948   0.309  1.1192  0.3937  0.6768
 8491SOL    HW237107   2.333   3.846   0.318 -0.1857 -0.3725  1.1531
 8492SOL     OW37108   4.579   3.286   3.620  0.5462 -0.0713 -0.2770
 8492SOL    HW137109   4.670   3.292   3.650  1.2901  0.6731 -2.6533
 8492SOL    HW237110   4.574   3.267   3.527  0.4726  1.0836 -0.5108
 8493SOL     OW37111   0.009   1.807  10.977 -0.3813  0.2089  0.1769
 8493SOL    HW137112   0.028   1.717  11.005  1.4832  0.7960  0.8229
 8493SOL    HW237113   4.669   1.804  10.915  0.0416  1.2397 -0.3662
 8494SOL     OW37114   3.084   3.733   9.200 -0.4429  0.4762 -0.2246
 8494SOL    HW137115   3.127   3.649   9.218 -0.7766  0.6021  1.1999
 8494SOL    HW237116   3.087   3.736   9.105  2.0719 -3.3602 -0.2641
 8495SOL     OW37117   0.256   2.742   2.967  0.0686  0.5501  0.0411
 8495SOL    HW137118   0.194   2.683   3.012  2.6917 -1.0972  1.5140
 8495SOL    HW237119   0.193   2.806   2.932  0.4060  0.6736 -0.3327
 8496SOL     OW37120   4.074   4.191  16.724 -0.3975  0.4237 -0.5031
 8496SOL    HW137121   4.033   4.129  16.784  1.4766 -0.5282 -0.1922
 8496SOL    HW237122   4.026   4.190  16.642 -1.9208  2.0518  0.3635
 8497SOL     OW37123   4.633   1.489   8.796  0.3012 -0.0556 -0.3465
 8497SOL    HW137124   4.621   1.408   8.746 -0.8973 -0.8741  1.3018
 8497SOL    HW237125   4.606   1.554   8.732 -0.1260  0.7222  0.6312
 8498SOL     OW37126   4.276   2.529   9.566 -0.3586 -0.5881  0.4425
 8498SOL    HW137127   4.313   2.540   9.654 -0.0082 -0.1173  0.2359
 8498SOL    HW237128   4.226   2.607   9.543 -1.7703 -3.0179 -4.6956
 8499SOL     OW37129   0.072   0.068   1.751 -0.5757  0.2679  0.4528
 8499SOL    HW137130   0.065   0.147   1.804  2.5638  2.8380 -2.9814
 8499SOL    HW237131   0.010   0.082   1.679 -1.6816  0.9502  1.5466
 8500SOL     OW37132   3.851   0.282   1.713 -0.0512  0.5478 -0.2923
 8500SOL    HW137133   3.779   0.344   1.726  0.0330  0.2030  1.8408
 8500SOL    HW237134   3.909   0.307   1.785 -0.9925  0.8595  0.3600
 8501SOL     OW37135   1.938   2.405   1.576 -0.5502  0.0707  0.7365
 8501SOL    HW137136   2.013   2.346   1.576 -0.3327  0.3461  1.5298
 8501SOL    HW237137   1.939   2.420   1.482  1.7791 -0.1267  0.7262
 8502SOL     OW37138   2.197   1.341  10.775  0.3618 -0.0108  0.8120
 8502SOL    HW137139   2.134   1.385  10.831 -1.9064 -2.6783  0.3775
 8502SOL    HW237140   2.235   1.407  10.717 -1.2240 -0.5403 -0.8105
 8503SOL     OW37141   1.426   3.944   1.970  0.9318  0.0959 -0.4006
 8503SOL    HW137142   1.490   3.879   1.941  1.3324  1.1714 -1.9409
 8503SOL    HW237143   1.487   4.007   2.009 -2.5354  3.0086  0.2723
 8504SOL     OW37144   0.216   1.108   9.888 -0.3329  0.1339 -0.3542
 8504SOL    HW137145   0.289   1.068   9.936 -1.6629 -0.1713  1.4274
 8504SOL    HW237146   0.244   1.198   9.873 -2.2223  0.4288 -2.1643
 8505SOL     OW37147   3.607   2.435  14.842  0.7862  0.2608  0.2258
 8505SOL    HW137148   3.640   2.524  14.851 -1.6825  1.0971  0.7564
 8505SOL    HW237149   3.660   2.385  14.905 -1.5952 -0.8615  1.3465
 8506SOL     OW37150   4.104   3.186   8.722 -0.0452 -0.2599  0.1231
 8506SOL    HW137151   4.126   3.137   8.800 -2.5193  1.2815  1.7940
 8506SOL    HW237152   4.081   3.272   8.758 -0.3494 -0.3421  0.1301
 8507SOL     OW37153   1.794   0.284   6.824 -0.2274 -0.2060 -0.2657
 8507SOL    HW137154   1.834   0.201   6.800 -0.9705 -0.5174 -0.4158
 8507SOL    HW237155   1.702   0.258   6.829 -0.9761  2.2745 -1.2946
 8508SOL     OW37156   2.821   3.449   4.191  0.3341  0.1896  0.2612
 8508SOL    HW137157   2.893   3.446   4.128  0.8161 -1.8994  0.9481
 8508SOL    HW237158   2.874   3.459   4.270  0.0941 -0.1355  0.4607
 8509SOL     OW37159   3.834   1.566   4.695  0.5105 -0.5553 -0.5136
 8509SOL    HW137160   3.739   1.572   4.680  0.4575  1.1352  0.4594
 8509SOL    HW237161   3.864   1.560   4.604  1.5709 -1.5206 -0.0989
 8510SOL     OW37162   3.962   3.202   4.949 -0.6908 -0.0327 -0.2089
 8510SOL    HW137163   3.923   3.125   4.908  0.5563 -1.4712  1.2887
 8510SOL    HW237164   3.900   3.271   4.928 -2.6571 -1.6656  0.3065
 8511SOL     OW37165   0.597   3.599   8.555  0.0605  0.5277  0.4639
 8511SOL    HW137166   0.670   3.623   8.497 -0.3323 -1.7555 -0.9756
 8511SOL    HW237167   0.604   3.671   8.617 -0.2221 -1.3364  2.6561
 8512SOL     OW37168   2.309   0.114   0.429  0.4071 -0.2021  0.5751
 8512SOL    HW137169   2.403   0.100   0.420  0.6495  2.7584 -1.5981
 8512SOL    HW237170   2.275   0.032   0.394 -0.0193  1.0688 -2.0680
 8513SOL     OW37171   2.560   3.504   0.770  0.0754 -0.6805  0.5585
 8513SOL    HW137172   2.485   3.447   0.791 -1.7579  1.4082 -0.2804
 8513SOL    HW237173   2.554   3.499   0.675 -0.8520 -2.1816  0.6976
 8514SOL     OW37174   2.058   0.959  13.540 -0.3573  0.4023  0.0542
 8514SOL    HW137175   2.137   0.931  13.494 -0.0914  0.7274  0.3119
 8514SOL    HW237176   2.045   0.884  13.598  1.3487 -0.3162 -0.4860
 8515SOL     OW37177   2.885   3.514   1.184  0.1140  0.1168 -0.7154
 8515SOL    HW137178   2.842   3.511   1.099  1.3086 -0.2516 -1.3207
 8515SOL    HW237179   2.955   3.577   1.164 -0.6095  1.8599  2.2739
 8516SOL     OW37180   3.223   0.020   7.188 -0.2206  1.0707  0.1630
 8516SOL    HW137181   3.305   0.066   7.170 -0.0165  0.2878 -0.9111
 8516SOL    HW237182   3.213   0.032   7.283  0.4545  1.5463  0.1730
 8517SOL     OW37183   3.581   0.190   1.589  0.3998  0.1264  0.2121
 8517SOL    HW137184   3.563   0.256   1.656 -2.8436  2.1556 -2.6195
 8517SOL    HW237185   3.676   0.202   1.584  0.5625 -1.0467  0.3920
 8518SOL     OW37186   2.822   2.724  13.966 -0.0774  0.2040 -0.0913
 8518SOL    HW137187   2.885   2.656  13.943 -0.3761 -0.5039  1.1733
 8518SOL    HW237188   2.834   2.793  13.901 -2.0077 -0.0321 -0.6891
 8519SOL     OW37189   3.381   0.733   6.335 -0.0791  0.3329  0.0899
 8519SOL    HW137190   3.459   0.775   6.373 -1.7027  1.1307  2.5059
 8519SOL    HW237191   3.320   0.706   6.404 -2.3606  1.7999 -1.3838
 8520SOL     OW37192   3.395   4.721   3.750 -0.0794 -0.1285  0.2906
 8520SOL    HW137193   3.397   4.626   3.751  0.6431 -0.1183  0.0416
 8520SOL    HW237194   3.354   4.730   3.664  0.2040  0.7446  0.2417
 8521SOL     OW37195   0.271   1.458   6.323  0.4802  0.1257 -0.3324
 8521SOL    HW137196   0.249   1.551   6.312 -0.1675 -0.4593 -4.0800
 8521SOL    HW237197   0.231   1.412   6.249 -0.0661  0.1365 -0.0356
 8522SOL     OW37198   0.832   2.084  11.092  0.5274 -0.3912  0.4727
 8522SOL    HW137199   0.801   2.105  11.180  1.0846  0.8367  0.3695
 8522SOL    HW237200   0.890   2.159  11.083 -0.7195  0.4321 -0.9212
 8523SOL     OW37201   2.490   0.331   7.076 -0.7787  0.1048  0.1479
 8523SOL    HW137202   2.546   0.390   7.127  0.6673 -1.3862  0.3154
 8523SOL    HW237203   2.529   0.349   6.990 -1.8764 -0.2229 -0.4150
 8524SOL     OW37204   3.471   2.717  11.349 -0.3431  0.3155  0.1214
 8524SOL    HW137205   3.515   2.761  11.421  0.7181 -0.6157  0.0406
 8524SOL    HW237206   3.397   2.778  11.339 -0.3925  0.3550  0.7287
 8525SOL     OW37207   1.431   3.437   5.602 -0.1143 -0.2872 -0.4306
 8525SOL    HW137208   1.483   3.480   5.534 -1.5680  0.2804 -1.1901
 8525SOL    HW237209   1.364   3.393   5.550  1.8168 -3.3036 -0.3786
 8526SOL     OW37210   1.172   3.341   2.374 -0.5934 -0.0036 -0.0149
 8526SOL    HW137211   1.194   3.360   2.283  5.2663  0.7120  1.5535
 8526SOL    HW237212   1.248   3.295   2.408 -2.2190  0.1218  3.7960
 8527SOL     OW37213   1.004   1.935   3.507 -0.2691 -0.4847  0.3490
 8527SOL    HW137214   0.965   2.017   3.479 -0.5480 -0.8057 -0.2164
 8527SOL    HW237215   0.965   1.924   3.594  1.7896 -2.3144  1.0405
 8528SOL     OW37216   2.882   0.492  11.340  0.7893 -0.1790  0.0713
 8528SOL    HW137217   2.799   0.455  11.310  1.4276 -1.4952 -0.0690
 8528SOL    HW237218   2.877   0.487  11.435  3.8332 -0.3511  0.2146
 8529SOL     OW37219   1.253   0.683  12.350 -0.4290 -0.4993 -0.1427
 8529SOL    HW137220   1.209   0.603  12.322 -0.2392 -0.5856 -0.1932
 8529SOL    HW237221   1.344   0.657  12.336 -0.1377  1.0142 -1.0189
 8530SOL     OW37222   3.786   2.813   0.876  0.1518  0.0812 -0.2538
 8530SOL    HW137223   3.810   2.874   0.947 -1.5057  2.3991 -1.6759
 8530SOL    HW237224   3.760   2.741   0.934 -0.3037 -0.3501 -0.9984
 8531SOL     OW37225   3.811   2.187   1.713 -0.4825 -0.6031 -0.4131
 8531SOL    HW137226   3.807   2.103   1.667  0.9576 -0.1257 -1.4160
 8531SOL    HW237227   3.788   2.242   1.639 -0.4472 -0.2819 -0.1827
 8532SOL     OW37228   0.970   0.775   5.348 -0.2949 -0.4448 -0.6551
 8532SOL    HW137229   0.997   0.795   5.259  2.9312 -1.3429  0.1138
 8532SOL    HW237230   0.948   0.864   5.377  0.9011 -0.7218  1.1311
 8533SOL     OW37231   4.287   2.298   3.920  0.1248 -0.0386  0.2836
 8533SOL    HW137232   4.269   2.372   3.862 -1.2968 -1.7761 -1.4907
 8533SOL    HW237233   4.265   2.223   3.864 -0.2233 -0.2679  0.7311
 8534SOL     OW37234   0.629   3.574  11.699  0.5601  0.3199 -0.3551
 8534SOL    HW137235   0.597   3.490  11.668 -0.2298  0.1796  0.8909
 8534SOL    HW237236   0.724   3.560  11.703  0.7327  1.2566 -0.8612
 8535SOL     OW37237   4.340   1.858   4.432  0.0242  0.3916 -0.2944
 8535SOL    HW137238   4.398   1.892   4.500  0.5486  1.3382 -1.2090
 8535SOL    HW237239   4.263   1.911   4.453  0.1362 -0.0551  1.2612
 8536SOL     OW37240   3.132   0.896  12.646 -0.2584 -0.8369 -0.6402
 8536SOL    HW137241   3.087   0.811  12.645 -1.5836 -0.1667  1.4662
 8536SOL    HW237242   3.140   0.907  12.551 -0.4252  2.2626 -0.2844
 8537SOL     OW37243   4.320   4.564   3.615  0.4363  0.6023 -0.3524
 8537SOL    HW137244   4.362   4.511   3.682  0.0630  0.1906 -0.4385
 8537SOL    HW237245   4.331   4.504   3.541 -0.7604  0.9942 -0.8575
 8538SOL     OW37246   0.676   0.173   9.488  0.3264  0.1876 -0.6218
 8538SOL    HW137247   0.726   0.243   9.530  0.7694  1.8107 -3.9021
 8538SOL    HW237248   0.699   0.187   9.397  1.4178  1.0917 -0.2074
 8539SOL     OW37249   0.434   0.811   5.307  0.1736 -0.5317  0.1630
 8539SOL    HW137250   0.354   0.758   5.313 -1.1316  1.7166  2.5385
 8539SOL    HW237251   0.401   0.895   5.338 -0.7857 -1.8202  2.5912
 8540SOL     OW37252   3.142   4.216   5.452 -0.2001  0.4839  0.5441
 8540SOL    HW137253   3.079   4.146   5.470  1.1580 -0.4239  1.8212
 8540SOL    HW237254   3.146   4.270   5.531  0.7130 -0.5872  1.2470
 8541SOL     OW37255   2.195   1.306   4.894 -0.1417  0.1751 -0.0821
 8541SOL    HW137256   2.142   1.355   4.832 -1.3189 -0.2616  0.5767
 8541SOL    HW237257   2.282   1.310   4.853  0.3992 -1.5813  0.9072
 8542SOL     OW37258   4.229   2.670   5.736  0.2911 -0.0369 -0.3703
 8542SOL    HW137259   4.265   2.736   5.796 -1.6455 -0.6778  1.5133
 8542SOL    HW237260   4.175   2.721   5.676  1.4890  0.5986 -0.9157
 8543SOL     OW37261   1.854   3.837   3.078 -0.0704  0.3214  0.3290
 8543SOL    HW137262   1.765   3.831   3.112 -0.5199  0.5311 -0.8243
 8543SOL    HW237263   1.893   3.762   3.123  0.6067  0.9440  0.7795
 8544SOL     OW37264   2.106   0.673  14.001  0.8004  0.8275  0.1642
 8544SOL    HW137265   2.167   0.724  13.948 -1.4396  0.7649 -2.4626
 8544SOL    HW237266   2.140   0.713  14.081 -1.9942 -0.4375  1.9660
 8545SOL     OW37267   0.811   0.236   3.877 -0.3533  0.3921  0.3224
 8545SOL    HW137268   0.777   0.182   3.948  2.0249 -1.9851 -0.3462
 8545SOL    HW237269   0.758   0.205   3.803 -0.1768  1.1368 -0.1083
 8546SOL     OW37270   1.028   2.779   0.666  0.2205  0.2005 -0.2424
 8546SOL    HW137271   1.107   2.730   0.641  1.0205  1.7576 -0.7497
 8546SOL    HW237272   1.009   2.808   0.577 -1.0842  1.9524  0.6232
 8547SOL     OW37273   0.162   1.421  14.900 -0.1821  0.0932  0.4342
 8547SOL    HW137274   0.074   1.437  14.865 -0.9988 -1.1402  1.9110
 8547SOL    HW237275   0.219   1.378  14.837  0.4026  1.8723 -0.2514
 8548SOL     OW37276   2.532   0.550  12.717  0.1127 -0.0651  0.8755
 8548SOL    HW137277   2.532   0.625  12.658 -0.8687  0.7089  1.8718
 8548SOL    HW237278   2.459   0.549  12.779  1.3101  0.5243  2.2856
 8549SOL     OW37279   3.226   3.432   1.619 -0.9612 -0.2588  0.6863
 8549SOL    HW137280   3.306   3.484   1.627 -0.5675 -0.3447 -2.4434
 8549SOL    HW237281   3.252   3.368   1.553  0.9173  0.4649  0.7206
 8550SOL     OW37282   1.440   2.429  10.353 -0.5809  0.0896  0.4656
 8550SOL    HW137283   1.346   2.413  10.358 -0.0440 -2.2150  4.0917
 8550SOL    HW237284   1.453   2.438  10.448 -3.9516 -0.3962  0.9549
 8551SOL     OW37285   0.264   1.692   6.577 -0.2198  0.4429  0.0732
 8551SOL    HW137286   0.186   1.702   6.522 -0.2441 -2.1303 -0.4019
 8551SOL    HW237287   0.219   1.680   6.661 -0.5496 -0.5255 -0.2447
 8552SOL     OW37288   1.041   1.612  16.319  1.1792  0.4750  0.5764
 8552SOL    HW137289   1.045   1.704  16.347  1.5474  1.0558 -1.4109
 8552SOL    HW237290   0.975   1.617  16.250  1.3645  1.3134  0.4631
 8553SOL     OW37291   2.069   1.840   6.445  0.0873 -0.3007 -0.3304
 8553SOL    HW137292   2.000   1.777   6.429  0.1204 -0.4063 -0.0544
 8553SOL    HW237293   2.028   1.916   6.486  0.8392 -0.4702  0.7443
 8554SOL     OW37294   3.253   1.254   5.308  0.4180  0.0426  0.6621
 8554SOL    HW137295   3.227   1.182   5.366 -0.9429  1.0979  1.3720
 8554SOL    HW237296   3.343   1.271   5.334  0.1904 -0.2829  1.6780
 8555SOL     OW37297   0.553   1.504   7.867  0.6859 -0.0168 -0.2379
 8555SOL    HW137298   0.544   1.595   7.895  0.5850 -0.7423  2.0803
 8555SOL    HW237299   0.620   1.473   7.929 -0.6425 -0.1848  1.1122
 8556SOL     OW37300   0.911   3.995   6.882  0.0217 -0.0652 -0.2044
 8556SOL    HW137301   0.878   4.006   6.793 -0.7478  0.9478  0.2076
 8556SOL    HW237302   0.927   4.085   6.910 -1.4741  0.3689 -0.7309
 8557SOL     OW37303   4.466   1.074   8.084  0.7459  0.0364 -0.0744
 8557SOL    HW137304   4.416   1.023   8.148  0.5162  0.7544  0.3173
 8557SOL    HW237305   4.536   1.116   8.134 -0.9602 -0.4041  2.6925
 8558SOL     OW37306   4.722   2.054   5.829 -0.6828 -0.3430  0.2422
 8558SOL    HW137307   0.024   2.042   5.917  0.6559  2.2720  0.0700
 8558SOL    HW237308   4.636   2.076   5.865 -1.3768 -1.0467 -0.9398
 8559SOL     OW37309   2.920   2.931   2.289 -0.8821  0.1395 -0.1213
 8559SOL    HW137310   2.837   2.888   2.306 -0.5011  0.0553  1.5138
 8559SOL    HW237311   2.980   2.870   2.332 -0.7517  1.4187  1.4977
 8560SOL     OW37312   1.412   0.465  14.155 -0.2697  0.6417  0.0812
 8560SOL    HW137313   1.485   0.504  14.109  0.1265 -1.0830 -0.7405
 8560SOL    HW237314   1.403   0.389  14.097 -0.9609  0.7952 -0.0149
 8561SOL     OW37315   0.284   3.224   3.389  0.1666  0.2697 -0.2872
 8561SOL    HW137316   0.297   3.313   3.421 -0.0281  0.4782 -0.7875
 8561SOL    HW237317   0.247   3.188   3.470 -0.4666  0.7111 -0.3801
 8562SOL     OW37318   0.840   0.973  15.056  0.1406  0.1991  0.5537
 8562SOL    HW137319   0.771   0.911  15.079  0.6272 -0.8527 -0.7788
 8562SOL    HW237320   0.795   1.009  14.980 -2.4077  0.8720  2.3800
 8563SOL     OW37321   4.522   0.791   5.736 -0.0524  0.3613  0.0208
 8563SOL    HW137322   4.522   0.744   5.819  0.7869 -0.0121 -0.1856
 8563SOL    HW237323   4.437   0.787   5.693  0.9895 -0.7888 -1.9425
 8564SOL     OW37324   3.862   1.382   9.895 -0.2411 -0.2100 -0.1752
 8564SOL    HW137325   3.804   1.440   9.846 -0.8339 -1.7275 -1.2602
 8564SOL    HW237326   3.864   1.415   9.985  0.1592 -0.4661 -0.0926
 8565SOL     OW37327   0.072   2.854   2.422 -0.0380 -0.2055 -0.2114
 8565SOL    HW137328   0.078   2.789   2.492  0.8513 -0.5931 -0.6476
 8565SOL    HW237329   0.135   2.812   2.363  0.8439  1.6544 -0.6072
 8566SOL     OW37330   4.511   2.538   8.040  0.7281 -0.3038 -0.1031
 8566SOL    HW137331   4.586   2.595   8.058  0.5210 -0.3727  1.0009
 8566SOL    HW237332   4.469   2.564   8.122  1.1757  0.2923 -0.0655
 8567SOL     OW37333   3.632   0.996  10.822  0.3551 -0.3463  0.5497
 8567SOL    HW137334   3.563   1.007  10.757  0.7717  0.1995  0.1941
 8567SOL    HW237335   3.592   0.925  10.872 -1.2903 -0.6588 -1.2133
 8568SOL     OW37336   1.857   2.504   8.266 -0.3807 -0.4181  0.4053
 8568SOL    HW137337   1.795   2.492   8.195  0.7692  1.2117 -0.8850
 8568SOL    HW237338   1.931   2.451   8.234 -0.3242 -0.4792  0.6374
 8569SOL     OW37339   0.496   1.068   1.823  0.3178  0.2283  0.2426
 8569SOL    HW137340   0.507   1.050   1.730  0.8811  3.8842 -0.3808
 8569SOL    HW237341   0.448   1.151   1.819 -0.1303  0.0048  0.8306
 8570SOL     OW37342   3.212   3.517  12.390  0.4181 -0.2015 -0.4225
 8570SOL    HW137343   3.278   3.481  12.450 -1.1836 -1.5488  0.5222
 8570SOL    HW237344   3.266   3.541  12.314  0.0189  0.7119 -0.4209
 8571SOL     OW37345   1.406   2.111   7.996  0.2246 -0.0760  0.7394
 8571SOL    HW137346   1.424   2.205   8.004  1.0304 -0.1257 -0.5167
 8571SOL    HW237347   1.495   2.078   8.003  0.6710  1.3539  1.7397
 8572SOL     OW37348   3.509   4.181  15.096 -0.0657  0.1806 -0.5864
 8572SOL    HW137349   3.575   4.235  15.053  2.4212 -3.1947 -0.9405
 8572SOL    HW237350   3.431   4.232  15.075  0.1075  0.1237 -1.3901
 8573SOL     OW37351   0.306   1.111   4.655  0.2101 -0.1156 -0.8466
 8573SOL    HW137352   0.352   1.029   4.638 -0.9892 -0.8622 -0.5113
 8573SOL    HW237353   0.340   1.166   4.585  4.2660 -1.3417  0.1531
 8574SOL     OW37354   4.561   1.045   5.619  0.1586 -0.8713 -0.1238
 8574SOL    HW137355   4.580   0.992   5.541 -0.3584  0.5818 -1.2527
 8574SOL    HW237356   4.550   0.971   5.677 -1.1351 -0.1272  0.5691
 8575SOL     OW37357   3.711   4.089   9.019  0.2268 -0.2940  0.1306
 8575SOL    HW137358   3.700   4.008   9.067 -0.9893 -0.5178 -0.5429
 8575SOL    HW237359   3.632   4.103   8.967  0.9970 -0.3242 -1.0505
 8576SOL     OW37360   1.207   1.299   9.156 -0.2313  0.1346  0.1547
 8576SOL    HW137361   1.240   1.286   9.067 -1.0854  0.8700 -0.2579
 8576SOL    HW237362   1.266   1.364   9.195  0.7509 -0.0229 -1.0773
 8577SOL     OW37363   4.398   2.865   7.577  0.5488 -0.0847  0.7788
 8577SOL    HW137364   4.326   2.926   7.563 -0.0530 -0.6575  1.4233
 8577SOL    HW237365   4.418   2.878   7.670  0.0197 -0.7395  0.9810
 8578SOL     OW37366   0.848   3.304   5.939 -0.2059 -0.3072  0.3149
 8578SOL    HW137367   0.905   3.380   5.930 -0.7635 -0.0842 -1.4534
 8578SOL    HW237368   0.866   3.258   5.856  2.4689 -0.3716  0.9256
 8579SOL     OW37369   0.192   3.440   5.238  0.1874 -0.4215  0.0298
 8579SOL    HW137370   0.099   3.446   5.214 -0.3364 -1.0025  1.9271
 8579SOL    HW237371   0.235   3.519   5.204 -0.2895 -0.8652 -1.5926
 8580SOL     OW37372   2.066   4.306   2.756  0.2368  0.2721 -0.2664
 8580SOL    HW137373   2.127   4.236   2.733 -0.2815  0.4264 -2.1127
 8580SOL    HW237374   2.042   4.330   2.666  0.0642 -1.7213 -0.7482
 8581SOL     OW37375   1.778   4.024  15.983 -0.1511 -0.1121  0.2805
 8581SOL    HW137376   1.732   4.067  16.055 -1.1163  1.2869 -1.1927
 8581SOL    HW237377   1.820   4.098  15.939  1.5369 -0.8350  0.6389
 8582SOL     OW37378   0.347   2.229   6.680  0.0797  0.1071 -0.3091
 8582SOL    HW137379   0.273   2.238   6.740 -0.7525 -0.0717 -1.3168
 8582SOL    HW237380   0.317   2.268   6.598  2.7302  2.0169 -0.3829
 8583SOL     OW37381   2.304   3.991   2.115  0.0336 -0.1008  0.0160
 8583SOL    HW137382   2.267   3.944   2.190  1.0754 -1.4724 -0.3290
 8583SOL    HW237383   2.323   4.077   2.152 -0.6203  0.0313  0.0440
 8584SOL     OW37384   0.395   2.911  10.020  0.1828  0.3160  0.4185
 8584SOL    HW137385   0.481   2.869  10.016  0.7071  1.2575  1.6304
 8584SOL    HW237386   0.340   2.843  10.058  1.8680 -0.8972  0.6593
 8585SOL     OW37387   4.504   0.743   3.919  0.1691  0.4642 -0.1000
 8585SOL    HW137388   4.515   0.741   4.014 -0.3189 -0.5202 -0.0636
 8585SOL    HW237389   4.598   0.730   3.908  0.5130  1.6794  1.3616
 8586SOL     OW37390   3.669   2.932   4.570  0.0463 -0.1135  0.3769
 8586SOL    HW137391   3.704   2.848   4.600  1.0070  1.2330  2.9673
 8586SOL    HW237392   3.604   2.950   4.637 -0.6570 -1.7102  0.1317
 8587SOL     OW37393   4.081   2.167   1.486 -0.1675 -0.0072 -0.1052
 8587SOL    HW137394   3.998   2.209   1.465  1.1777  1.8288 -1.7788
 8587SOL    HW237395   4.120   2.217   1.558 -5.5352  0.6633  2.3235
 8588SOL     OW37396   3.410   0.431   7.280  0.1770 -0.1687 -0.2198
 8588SOL    HW137397   3.345   0.485   7.325 -0.7451 -0.6483 -0.9669
 8588SOL    HW237398   3.389   0.347   7.319 -3.6352  0.8391 -0.1466
 8589SOL     OW37399   3.975   1.705   8.741  0.3043  1.0194  0.2381
 8589SOL    HW137400   4.063   1.674   8.763 -0.8554 -0.8968  2.2300
 8589SOL    HW237401   3.999   1.780   8.687 -0.3599  2.2514  1.6432
 8590SOL     OW37402   1.636   1.819   6.580  0.4900  0.2302 -0.0655
 8590SOL    HW137403   1.661   1.904   6.544 -1.0073  0.3431 -0.8253
 8590SOL    HW237404   1.560   1.837   6.635 -0.4057 -1.7470 -0.6575
 8591SOL     OW37405   2.158   3.422   5.744  0.3752  0.3340  0.1572
 8591SOL    HW137406   2.208   3.421   5.826  1.6686 -1.7404 -0.6713
 8591SOL    HW237407   2.210   3.368   5.685 -0.3363 -0.9158  0.6657
 8592SOL     OW37408   4.538   1.223   1.260  0.0830 -0.0307 -0.2385
 8592SOL    HW137409   4.488   1.173   1.324  0.6849  0.6099  0.7369
 8592SOL    HW237410   4.484   1.302   1.260  0.3464  0.1520 -0.5269
 8593SOL     OW37411   1.849   0.533   8.275  0.4595  0.1706  0.0376
 8593SOL    HW137412   1.788   0.469   8.237  1.1394 -0.4085 -0.0896
 8593SOL    HW237413   1.904   0.554   8.200  3.3871 -0.6860  1.9760
 8594SOL     OW37414   1.112   0.805   8.292  0.6061  0.1732  0.2619
 8594SOL    HW137415   1.180   0.740   8.309 -0.6778 -1.1354  0.3858
 8594SOL    HW237416   1.029   0.758   8.296 -1.4178  3.5444 -2.2271
 8595SOL     OW37417   4.656   0.688  13.095  0.2829 -0.3783  0.2091
 8595SOL    HW137418   4.623   0.773  13.125 -0.1385 -0.9308  1.3495
 8595SOL    HW237419   4.591   0.674  13.026  2.4091 -0.6062 -1.7369
 8596SOL     OW37420   3.705   4.219   6.809  0.0338  0.1016 -0.1425
 8596SOL    HW137421   3.789   4.193   6.771  1.6611  0.7499  3.0347
 8596SOL    HW237422   3.637   4.182   6.753  0.4044 -1.4665  0.4421
 8597SOL     OW37423   0.320   3.763   6.736  0.4214  0.3321 -0.0956
 8597SOL    HW137424   0.347   3.723   6.819 -0.1185 -2.2250 -1.1351
 8597SOL    HW237425   0.249   3.823   6.756 -0.1757 -0.4005 -0.0366
 8598SOL     OW37426   0.114   0.505   8.645  0.4757 -0.4999  0.2367
 8598SOL    HW137427   0.054   0.579   8.650  0.9494 -0.2439  2.0328
 8598SOL    HW237428   0.049   0.435   8.637 -0.1950  0.2310 -0.6802
 8599SOL     OW37429   4.241   0.754   5.698 -0.3331 -0.2450  0.2596
 8599SOL    HW137430   4.171   0.748   5.763 -2.4197 -0.2436 -1.9854
 8599SOL    HW237431   4.217   0.835   5.652 -1.0409 -0.3090  0.5267
 8600SOL     OW37432   1.033   2.428   6.442  0.4506  0.1979  0.1024
 8600SOL    HW137433   0.940   2.432   6.420  0.3177 -1.6277  0.3159
 8600SOL    HW237434   1.060   2.520   6.453  0.4712  0.1611  0.3787
 8601SOL     OW37435   4.454   1.706   7.570 -0.1578  0.3974 -0.2519
 8601SOL    HW137436   4.450   1.737   7.480  2.9484  1.3233 -0.1004
 8601SOL    HW237437   4.374   1.738   7.612  0.2406 -0.6365  1.2935
 8602SOL     OW37438   1.117   1.360   3.535 -0.2843  0.0499  0.6902
 8602SOL    HW137439   1.036   1.312   3.551 -1.1666  1.3267  0.0563
 8602SOL    HW237440   1.131   1.330   3.445 -1.7850 -0.0660  0.4991
 8603SOL     OW37441   3.690   0.237   3.753  0.3281  0.4167  0.4957
 8603SOL    HW137442   3.702   0.150   3.715 -1.1132  1.4941 -2.4892
 8603SOL    HW237443   3.767   0.284   3.722 -0.3036  0.5662 -0.8586
 8604SOL     OW37444   3.952   2.045  10.014 -0.0333  0.1711 -0.2117
 8604SOL    HW137445   3.880   2.029  10.075  1.2579  0.2237  1.3179
 8604SOL    HW237446   3.998   2.114  10.062 -1.3204  1.2080 -0.4525
 8605SOL     OW37447   3.744   0.337   0.957 -0.2352  0.2071  0.1206
 8605SOL    HW137448   3.796   0.270   1.002  0.1471  0.5960  0.2557
 8605SOL    HW237449   3.722   0.295   0.874  0.3441  1.4525 -0.6638
 8606SOL     OW37450   0.012   1.412  11.256 -0.4042 -0.1192  0.7628
 8606SOL    HW137451   0.038   1.485  11.200 -0.0322 -0.9594 -0.1456
 8606SOL    HW237452   0.002   1.465  11.336 -1.1017 -1.9025  1.8490
 8607SOL     OW37453   0.136   3.612   3.164 -0.4306  0.0687  0.1842
 8607SOL    HW137454   0.192   3.535   3.152 -0.0324  0.4091 -0.1569
 8607SOL    HW237455   0.205   3.676   3.148 -0.6262  0.2422  0.0347
 8608SOL     OW37456   4.264   1.456   6.282  0.6178  0.2529 -0.0997
 8608SOL    HW137457   4.186   1.462   6.338  1.3989  0.9346  0.9122
 8608SOL    HW237458   4.270   1.363   6.259  1.1842  0.8547 -2.4081
 8609SOL     OW37459   0.325   0.456   7.553  0.1883 -0.4190 -0.5837
 8609SOL    HW137460   0.285   0.442   7.467 -0.5138 -1.7519 -0.0499
 8609SOL    HW237461   0.252   0.502   7.596 -1.1450 -0.1839 -3.1022
 8610SOL     OW37462   2.058   4.313  15.007  0.0900  0.1188 -0.4057
 8610SOL    HW137463   2.072   4.383  14.943 -0.0077  0.0909 -0.4584
 8610SOL    HW237464   2.039   4.238  14.951  0.4523 -1.0463  1.0458
 8611SOL     OW37465   2.588   0.486  11.844  0.1190  0.1079  0.2682
 8611SOL    HW137466   2.598   0.398  11.881 -1.3916  0.1098  0.6819
 8611SOL    HW237467   2.635   0.533  11.913  1.4383  0.6066 -0.9778
 8612SOL     OW37468   0.746   1.039   8.135  0.4010  0.0687 -0.2897
 8612SOL    HW137469   0.831   1.082   8.128 -0.2315  0.8516 -3.2143
 8612SOL    HW237470   0.752   1.015   8.228 -3.1452 -1.7916 -0.5344
 8613SOL     OW37471   1.548   3.325   1.243  0.1925  0.2761  0.0063
 8613SOL    HW137472   1.490   3.302   1.315  1.2318 -1.7508  0.1987
 8613SOL    HW237473   1.637   3.312   1.276  1.2564  2.1996 -2.0937
 8614SOL     OW37474   1.210   3.593   7.073 -0.0414 -0.1368  0.1789
 8614SOL    HW137475   1.171   3.633   6.995 -1.3840 -1.5896  0.1076
 8614SOL    HW237476   1.218   3.669   7.130  1.1196  2.0065 -2.8555
 8615SOL     OW37477   3.393   2.804   7.933 -0.4544  0.1518  0.2225
 8615SOL    HW137478   3.431   2.795   8.020  1.3455  0.3897 -0.5298
 8615SOL    HW237479   3.311   2.757   7.943 -0.2115 -0.0717  1.1731
 8616SOL     OW37480   2.202   2.866   6.027 -0.0203  0.1628  0.1240
 8616SOL    HW137481   2.209   2.807   6.102  0.7891  0.7022  0.4602
 8616SOL    HW237482   2.284   2.912   6.041 -0.0712  0.3811 -0.3080
 8617SOL     OW37483   2.136   4.180   8.289  0.5193 -0.6393  0.5221
 8617SOL    HW137484   2.202   4.113   8.306  2.0634  0.3180 -1.5763
 8617SOL    HW237485   2.120   4.181   8.194 -2.7794 -1.2780  1.0784
 8618SOL     OW37486   3.182   3.529   1.948 -0.0238  0.1704 -0.6408
 8618SOL    HW137487   3.228   3.600   1.993  0.3595  0.2066 -1.0887
 8618SOL    HW237488   3.142   3.589   1.885 -4.2671 -0.6053  1.2733
 8619SOL     OW37489   2.421   2.628   7.381  0.3366  1.1334 -0.1512
 8619SOL    HW137490   2.502   2.576   7.386  0.2523  0.8729 -1.4659
 8619SOL    HW237491   2.358   2.589   7.441  0.4168  0.0850 -0.7322
 8620SOL     OW37492   0.648   4.650  12.037 -0.3577  0.3901  0.4880
 8620SOL    HW137493   0.578   4.616  12.095 -2.2838  0.4673 -1.7907
 8620SOL    HW237494   0.728   4.620  12.080 -1.5602 -1.1467  1.6815
 8621SOL     OW37495   4.288   0.584   9.195 -0.0808 -0.1420  0.3756
 8621SOL    HW137496   4.277   0.584   9.100 -0.9905 -2.6188  0.5058
 8621SOL    HW237497   4.383   0.602   9.198  0.4224 -2.9148  0.6712
 8622SOL     OW37498   1.429   1.813   1.584  0.0720  0.6043 -0.0298
 8622SOL    HW137499   1.469   1.891   1.622 -1.2445  1.0169  0.5089
 8622SOL    HW237500   1.408   1.841   1.495  0.5685  0.9389 -0.0420
 8623SOL     OW37501   4.687   1.690   7.268  0.3711  0.6922 -0.0489
 8623SOL    HW137502   0.010   1.765   7.290 -0.8152  2.0215 -1.6816
 8623SOL    HW237503   4.698   1.636   7.347  1.3490  0.5340 -0.2928
 8624SOL     OW37504   4.324   4.420   6.429 -0.4190 -0.2082 -0.0042
 8624SOL    HW137505   4.264   4.397   6.501 -0.1674 -2.0867 -0.4102
 8624SOL    HW237506   4.278   4.405   6.346 -0.1791  2.7388 -0.6591
 8625SOL     OW37507   4.603   4.499   6.642 -0.7461  0.7616  0.1359
 8625SOL    HW137508   4.565   4.565   6.585 -0.0142  1.4134  0.4008
 8625SOL    HW237509   4.576   4.422   6.593 -0.9316 -0.4702  2.1884
 8626SOL     OW37510   1.270   2.594   9.265 -0.2115 -0.1606 -0.3192
 8626SOL    HW137511   1.200   2.545   9.221  1.3066 -0.9363 -1.8868
 8626SOL    HW237512   1.321   2.533   9.318  1.6441  3.1393  1.6715
 8627SOL     OW37513   2.053   2.652  13.145  0.4305 -0.0907  0.4917
 8627SOL    HW137514   2.121   2.585  13.157 -0.5809 -1.3086 -0.6412
 8627SOL    HW237515   2.006   2.623  13.067 -0.4191  1.3853  0.4636
 8628SOL     OW37516   1.774   4.504  15.816 -0.0777 -0.1068  0.5583
 8628SOL    HW137517   1.767   4.504  15.721  0.5181  0.4039  0.5161
 8628SOL    HW237518   1.717   4.572  15.850 -0.3998  0.8611 -1.9613
 8629SOL     OW37519   4.039   4.259   7.359 -0.0426 -0.2183  0.0389
 8629SOL    HW137520   4.049   4.304   7.443  0.3450 -0.3714  0.0751
 8629SOL    HW237521   4.097   4.185   7.375 -0.2916 -0.2821  0.6744
 8630SOL     OW37522   0.775   4.431   1.232  0.8165 -0.2068 -0.4811
 8630SOL    HW137523   0.720   4.429   1.153 -0.0680  0.2161  0.1183
 8630SOL    HW237524   0.725   4.366   1.281  0.9111 -0.2485 -0.4409
 8631SOL     OW37525   2.147   1.228   6.895  0.6934  0.2991 -0.0074
 8631SOL    HW137526   2.160   1.294   6.827 -0.7861 -0.5648 -1.1380
 8631SOL    HW237527   2.095   1.270   6.964  2.1671 -0.9689  1.8660
 8632SOL     OW37528   3.964   2.149   5.770 -0.4500 -0.7189  0.0770
 8632SOL    HW137529   3.956   2.190   5.856 -3.3041  2.1772 -1.5680
 8632SOL    HW237530   3.960   2.056   5.793 -1.9030 -0.1946  1.8704
 8633SOL     OW37531   0.402   3.119  17.165  0.0543  0.3101 -0.5886
 8633SOL    HW137532   0.451   3.201  17.164 -0.5767  0.7072  0.5080
 8633SOL    HW237533   0.323   3.151  17.209 -1.2722 -0.6095 -2.3004
 8634SOL     OW37534   4.255   4.629   7.287  0.0684 -0.0642 -0.6355
 8634SOL    HW137535   4.312   4.705   7.277  0.8088 -0.5782 -0.3195
 8634SOL    HW237536   4.287   4.594   7.370  1.1487  1.8575 -0.2556
 8635SOL     OW37537   1.204   3.415  14.201 -0.2116 -0.2630  0.1757
 8635SOL    HW137538   1.132   3.372  14.246 -0.2876 -0.9548 -0.6263
 8635SOL    HW237539   1.203   3.504  14.237 -0.0979 -0.2428  0.1309
 8636SOL     OW37540   4.469   1.159   9.014 -0.3259  0.1066 -0.4206
 8636SOL    HW137541   4.492   1.249   9.036 -0.1233 -0.0628  0.0668
 8636SOL    HW237542   4.418   1.127   9.089  1.6289  0.7643  1.1959
 8637SOL     OW37543   0.361   1.176   8.380 -0.1801  0.2071 -0.1499
 8637SOL    HW137544   0.271   1.200   8.400 -0.6588 -0.4581 -1.5748
 8637SOL    HW237545   0.398   1.194   8.467  0.0933  0.9874 -0.4257
 8638SOL     OW37546   2.818   0.296   7.426  0.0938 -0.2214 -0.5745
 8638SOL    HW137547   2.844   0.346   7.503 -0.0028  2.3278 -2.2105
 8638SOL    HW237548   2.884   0.227   7.420 -2.1596 -2.2465 -2.0845
 8639SOL     OW37549   3.073   0.319  11.386 -0.3270 -0.1919  0.0184
 8639SOL    HW137550   3.012   0.252  11.358 -0.8457  1.1292 -2.0249
 8639SOL    HW237551   3.046   0.400  11.342 -1.3343 -0.5804 -0.0702
 8640SOL     OW37552   1.249   1.321   8.877  0.1148 -0.2781 -0.4003
 8640SOL    HW137553   1.271   1.356   8.790 -2.7809 -1.1950 -1.4927
 8640SOL    HW237554   1.155   1.327   8.860 -0.0554 -0.6521  0.4246
 8641SOL     OW37555   4.374   1.932   3.452 -0.3301  0.3512 -0.3227
 8641SOL    HW137556   4.421   1.911   3.371 -2.2589  0.3833 -1.4506
 8641SOL    HW237557   4.357   1.851   3.500 -1.9138  0.6447 -0.3977
 8642SOL     OW37558   1.168   2.093  10.336  0.0545 -0.2680 -0.1549
 8642SOL    HW137559   1.199   2.109  10.425  0.8566 -0.2507 -0.4363
 8642SOL    HW237560   1.079   2.063  10.352 -0.4971  0.8376 -1.1355
 8643SOL     OW37561   2.916   0.716  11.933  0.1085 -0.2542 -0.0794
 8643SOL    HW137562   2.866   0.648  11.978 -0.9922 -1.1105 -2.5569
 8643SOL    HW237563   2.913   0.792  11.991  0.7958  0.2923 -0.7540
 8644SOL     OW37564   4.717   2.874   4.854 -0.7258  0.5023  0.1466
 8644SOL    HW137565   4.632   2.918   4.866  0.0893  1.2898  3.0463
 8644SOL    HW237566   0.036   2.947   4.819  0.3058  0.5972  1.8270
 8645SOL     OW37567   3.207   1.414   7.113  0.1561 -0.4048  0.3584
 8645SOL    HW137568   3.144   1.361   7.163  0.3395 -0.5665  0.4168
 8645SOL    HW237569   3.226   1.352   7.042  1.8164  0.2048  0.2847
 8646SOL     OW37570   0.729   4.358  12.598 -0.2096 -0.0962 -0.3240
 8646SOL    HW137571   0.751   4.322  12.512  1.0558  0.3021 -0.1654
 8646SOL    HW237572   0.738   4.282  12.656 -4.2351 -1.0883 -0.9484
 8647SOL     OW37573   1.085   1.627   5.732 -0.2860 -0.6254 -0.4826
 8647SOL    HW137574   1.163   1.681   5.743 -2.0179  1.9019 -0.5963
 8647SOL    HW237575   1.120   1.540   5.715  2.3024 -0.1016  2.1465
 8648SOL     OW37576   0.306   4.156   6.116 -0.1199 -0.1816 -0.2233
 8648SOL    HW137577   0.218   4.175   6.148  0.4780 -3.1469  3.1033
 8648SOL    HW237578   0.320   4.224   6.049  0.1315  0.7203  0.7533
 8649SOL     OW37579   2.107   2.961   7.978  0.0497  0.6416 -0.0172
 8649SOL    HW137580   2.172   2.965   7.908  1.8283 -0.3433  1.5834
 8649SOL    HW237581   2.036   3.003   7.930 -0.3650 -0.6436 -0.5483
 8650SOL     OW37582   2.530   4.189  10.072 -0.4843 -0.0219 -0.0096
 8650SOL    HW137583   2.482   4.260  10.116 -1.2777  0.6632 -1.9564
 8650SOL    HW237584   2.610   4.234  10.044 -0.4018 -0.6896 -0.8373
 8651SOL     OW37585   3.535   4.297   6.314 -0.2769 -0.0378  0.5298
 8651SOL    HW137586   3.565   4.211   6.341 -0.6396 -0.6894 -1.1852
 8651SOL    HW237587   3.570   4.350   6.386 -0.1240  0.4444  0.0954
 8652SOL     OW37588   2.499   2.979  12.940 -0.0170 -0.3056  0.2724
 8652SOL    HW137589   2.450   2.969  13.022  0.4310  0.8446  0.6881
 8652SOL    HW237590   2.478   2.897  12.896  0.6468 -0.2449 -0.1405
 8653SOL     OW37591   0.562   2.068  15.147  0.5105  0.0747  0.6961
 8653SOL    HW137592   0.506   2.087  15.221  1.0506 -2.2502  1.7110
 8653SOL    HW237593   0.528   1.981  15.123 -2.5691  0.8274  2.4748
 8654SOL     OW37594   3.049   0.998   7.389 -0.1006  0.2770 -0.0397
 8654SOL    HW137595   3.004   0.958   7.315  0.8841  0.6361 -0.8329
 8654SOL    HW237596   3.138   0.964   7.397  1.1311  3.4402 -0.0926
 8655SOL     OW37597   1.454   3.944  14.913  0.0036  0.2404  0.0153
 8655SOL    HW137598   1.444   3.917  14.822 -2.4863 -1.5234  0.8226
 8655SOL    HW237599   1.476   3.855  14.941  1.2528  0.9534  1.3226
 8656SOL     OW37600   2.139   0.981   4.685 -0.5655  0.1682  0.0127
 8656SOL    HW137601   2.133   1.045   4.613 -0.5885 -0.8643 -0.8949
 8656SOL    HW237602   2.107   0.899   4.648 -1.8516 -0.5744  2.8110
 8657SOL     OW37603   3.782   4.389  11.968 -0.5220 -0.4554 -0.0957
 8657SOL    HW137604   3.867   4.429  11.987  0.6942 -3.0919 -0.0125
 8657SOL    HW237605   3.732   4.412  12.047  0.0686  0.8168 -0.0861
 8658SOL     OW37606   0.630   1.868   9.379  0.0742  0.2040 -0.0519
 8658SOL    HW137607   0.699   1.856   9.443 -0.1725  2.3245  0.6194
 8658SOL    HW237608   0.592   1.782   9.363 -0.3315  0.1388  1.3000
 8659SOL     OW37609   1.465   2.331   1.260 -0.0085  0.2919  0.1128
 8659SOL    HW137610   1.517   2.409   1.243  0.1411  0.0162 -0.6793
 8659SOL    HW237611   1.382   2.362   1.296  1.2936  2.4986  1.1925
 8660SOL     OW37612   0.780   1.963   2.834  0.5876  0.2837  0.8011
 8660SOL    HW137613   0.850   2.029   2.827 -1.1783  2.0253 -0.4443
 8660SOL    HW237614   0.813   1.930   2.918 -2.2111 -0.2759  1.6609
 8661SOL     OW37615   2.972   2.175  13.313 -0.2610 -0.7691 -0.5720
 8661SOL    HW137616   2.901   2.174  13.249 -0.2236  0.6229 -0.6211
 8661SOL    HW237617   3.032   2.234  13.268  0.7461 -0.0126  1.7504
 8662SOL     OW37618   1.373   2.727   3.878 -0.1980  0.2727  0.1711
 8662SOL    HW137619   1.289   2.692   3.849 -0.4787  0.3796  0.8516
 8662SOL    HW237620   1.346   2.818   3.890 -2.1284 -0.3423  0.4877
 8663SOL     OW37621   1.578   4.377   1.699  0.0958 -0.6830 -0.2092
 8663SOL    HW137622   1.644   4.324   1.745  0.2486 -0.0066  0.3532
 8663SOL    HW237623   1.492   4.347   1.726  0.4147 -1.8771 -0.5270
 8664SOL     OW37624   2.289   2.727   6.255  0.4556 -0.1649 -0.4277
 8664SOL    HW137625   2.380   2.749   6.234  0.7503  0.4445  1.5188
 8664SOL    HW237626   2.298   2.666   6.328  2.0200 -0.5394 -0.9213
 8665SOL     OW37627   1.402   3.376  13.136 -0.8331 -0.0410 -0.5379
 8665SOL    HW137628   1.320   3.426  13.135 -0.3010  0.8498  0.0922
 8665SOL    HW237629   1.388   3.302  13.077  0.0792  0.9834 -2.0642
 8666SOL     OW37630   1.513   1.497   4.026 -0.1400 -0.0178 -0.1144
 8666SOL    HW137631   1.510   1.454   3.941 -0.6524  1.3287 -0.7756
 8666SOL    HW237632   1.477   1.583   4.006  0.0666  0.4699  1.6198
 8667SOL     OW37633   0.117   4.538  15.620  0.4822  0.4423 -0.4829
 8667SOL    HW137634   0.146   4.596  15.550 -0.0765 -0.5110 -1.5016
 8667SOL    HW237635   0.205   4.513  15.647 -0.8343 -2.7738  0.7932
 8668SOL     OW37636   4.419   1.706   8.249 -0.1880  0.3422 -0.5127
 8668SOL    HW137637   4.499   1.704   8.196 -0.1539 -1.6512 -0.3741
 8668SOL    HW237638   4.390   1.615   8.244 -0.3682  0.5083 -2.7469
 8669SOL     OW37639   0.545   3.479   3.051  0.3686 -0.2837  0.3070
 8669SOL    HW137640   0.531   3.561   3.097 -0.7914  1.2001 -2.7147
 8669SOL    HW237641   0.638   3.459   3.059  0.8563  0.8072 -2.5466
 8670SOL     OW37642   1.502   1.536  15.749 -0.0785 -0.0297  0.5012
 8670SOL    HW137643   1.576   1.542  15.810 -1.6630  1.2819  2.2832
 8670SOL    HW237644   1.520   1.457  15.699  0.5558  1.8832 -2.3147
 8671SOL     OW37645   3.640   3.349   8.568  0.1056 -0.0904  0.0120
 8671SOL    HW137646   3.555   3.313   8.543 -0.5208  0.3796  1.4485
 8671SOL    HW237647   3.672   3.284   8.631  3.7992  0.8711 -0.8528
 8672SOL     OW37648   0.967   2.892   5.850 -0.5180 -0.5320 -0.0554
 8672SOL    HW137649   0.947   2.985   5.855  0.1545 -0.2990 -1.8093
 8672SOL    HW237650   0.998   2.882   5.760  1.3389  3.2675  0.1708
 8673SOL     OW37651   3.588   0.502   8.442 -0.4475 -0.0406 -0.8937
 8673SOL    HW137652   3.595   0.407   8.430  0.8574 -0.0923  0.2651
 8673SOL    HW237653   3.549   0.506   8.530  4.3301  1.5651  1.1748
 8674SOL     OW37654   1.635   0.314   7.812 -0.3436  0.5054 -0.1991
 8674SOL    HW137655   1.609   0.222   7.810 -0.7315  0.6023  0.4456
 8674SOL    HW237656   1.556   0.367   7.818 -0.7261 -0.3841  2.5887
 8675SOL     OW37657   1.013   4.713   4.397  0.7837 -0.4079 -0.4665
 8675SOL    HW137658   0.979   4.626   4.416  2.9936 -0.9418  1.0231
 8675SOL    HW237659   1.045   0.004   4.484  1.9838 -0.0911 -1.0013
 8676SOL     OW37660   3.975   1.419   3.784  0.3824 -0.1908 -0.0138
 8676SOL    HW137661   3.979   1.493   3.844 -2.3767 -0.6165  0.6971
 8676SOL    HW237662   3.922   1.462   3.717 -2.1399  0.5674  2.4734
 8677SOL     OW37663   0.274   2.625  10.032 -0.1307  0.2153 -0.6394
 8677SOL    HW137664   0.323   2.591   9.956  0.8724 -1.4934  0.7587
 8677SOL    HW237665   0.265   2.547  10.087  0.7166 -0.3877 -1.3285
 8678SOL     OW37666   3.635   2.433   0.357 -0.0655 -0.4909 -0.7093
 8678SOL    HW137667   3.700   2.498   0.331  0.1965 -0.1259  0.8508
 8678SOL    HW237668   3.564   2.448   0.294 -1.7142 -1.1630  0.9665
 8679SOL     OW37669   3.701   4.346  14.977  0.0698 -0.1377  0.2787
 8679SOL    HW137670   3.791   4.319  14.958 -0.3224 -2.0912  1.2403
 8679SOL    HW237671   3.718   4.398  15.055 -1.2593  1.8576 -0.7411
 8680SOL     OW37672   0.430   4.585  12.257  0.7247  0.2794 -0.1720
 8680SOL    HW137673   0.383   4.582  12.340  3.4422  1.3601  1.4193
 8680SOL    HW237674   0.380   4.532  12.195  0.9168 -1.5803  1.3050
 8681SOL     OW37675   2.833   0.859   4.104 -0.2425  0.1726 -0.4649
 8681SOL    HW137676   2.913   0.886   4.058  0.7675 -1.4885  0.3191
 8681SOL    HW237677   2.853   0.766   4.120 -1.3201  0.1248  0.5534
 8682SOL     OW37678   1.605   0.813   4.747  0.3103  0.0843  0.1697
 8682SOL    HW137679   1.559   0.779   4.825 -1.7265  0.4767 -0.8745
 8682SOL    HW237680   1.676   0.748   4.748 -0.4071 -0.6908  1.0156
 8683SOL     OW37681   4.375   0.585   2.427  0.0713 -0.5692  0.2383
 8683SOL    HW137682   4.301   0.645   2.413  0.9037  0.5036  0.4508
 8683SOL    HW237683   4.380   0.605   2.520  2.1363  2.0319 -0.4292
 8684SOL     OW37684   2.254   0.489   7.110  0.1034 -0.1619  0.3256
 8684SOL    HW137685   2.282   0.580   7.103  0.8833 -0.5383 -1.4835
 8684SOL    HW237686   2.326   0.426   7.117 -1.6590 -2.0408  1.7643
 8685SOL     OW37687   4.330   3.307  12.428  0.2903 -0.5979 -0.3669
 8685SOL    HW137688   4.418   3.271  12.412  0.3569  0.0618 -1.4175
 8685SOL    HW237689   4.330   3.379  12.365  0.1340 -0.5124 -0.2694
 8686SOL     OW37690   1.292   0.452   4.116 -0.2433 -0.1024  0.0500
 8686SOL    HW137691   1.224   0.443   4.050 -0.5001 -0.6744  0.3951
 8686SOL    HW237692   1.313   0.546   4.114  3.6484 -0.9319  2.1063
 8687SOL     OW37693   2.738   1.517   8.101  0.3651 -0.0894 -0.1294
 8687SOL    HW137694   2.829   1.516   8.129  1.0113 -1.3641 -2.2122
 8687SOL    HW237695   2.732   1.425   8.076 -1.4158  0.2094 -0.8221
 8688SOL     OW37696   2.127   2.018   6.111 -0.1340 -0.6390 -0.4033
 8688SOL    HW137697   2.209   2.062   6.135 -1.6667  1.0912  1.7374
 8688SOL    HW237698   2.114   2.057   6.025 -1.4414 -1.8182 -0.7313
 8689SOL     OW37699   4.222   0.239   5.038  0.1052  0.6379  0.0279
 8689SOL    HW137700   4.234   0.329   5.009 -0.4012  0.8616  0.5245
 8689SOL    HW237701   4.127   0.240   5.051 -0.1714 -0.0634 -1.9301
 8690SOL     OW37702   1.399   4.087  13.822 -0.1186 -0.7006 -0.0721
 8690SOL    HW137703   1.417   4.128  13.907 -1.2990  1.4028 -0.8399
 8690SOL    HW237704   1.415   3.994  13.839 -1.3193 -1.3211 -2.2383
 8691SOL     OW37705   4.534   4.245   6.540  0.1655  0.0973  0.1694
 8691SOL    HW137706   4.439   4.257   6.542  0.0027 -1.2597  0.7659
 8691SOL    HW237707   4.526   4.162   6.493  1.8006  0.9128 -1.5919
 8692SOL     OW37708   2.629   2.430   3.147  0.3954  0.0230  0.1803
 8692SOL    HW137709   2.554   2.409   3.203  0.0240  0.4718 -0.1597
 8692SOL    HW237710   2.701   2.405   3.205  0.7200  0.7801  0.0970
 8693SOL     OW37711   2.512   2.279  15.871 -0.2357  0.3255  0.4706
 8693SOL    HW137712   2.432   2.245  15.830  0.4745  0.6924 -1.2195
 8693SOL    HW237713   2.475   2.282  15.959  2.0824 -0.4958  1.4869
 8694SOL     OW37714   3.895   1.027  12.790  0.1694 -0.0425 -0.4104
 8694SOL    HW137715   3.905   1.122  12.792 -2.3132  0.2525 -2.0581
 8694SOL    HW237716   3.810   1.016  12.833  0.9777 -1.1200  0.8596
 8695SOL     OW37717   2.477   4.475   4.755 -0.0444 -0.0450 -0.1297
 8695SOL    HW137718   2.418   4.501   4.826  0.9631  0.3310  0.5753
 8695SOL    HW237719   2.419   4.419   4.704 -2.5726  1.1905  1.3653
 8696SOL     OW37720   1.064   2.275  11.050 -0.2055 -0.3030  0.3222
 8696SOL    HW137721   1.123   2.350  11.050 -0.8637  0.2088  3.0088
 8696SOL    HW237722   0.997   2.317  10.997  0.2314  2.0311  1.6480
 8697SOL     OW37723   3.460   2.060   2.787 -0.7344 -0.1305  0.8084
 8697SOL    HW137724   3.508   2.059   2.869  1.8197 -0.1011 -0.6905
 8697SOL    HW237725   3.451   1.967   2.766 -0.3675 -0.1150  0.5898
 8698SOL     OW37726   3.063   3.127   3.454  0.4005 -0.2891  0.0385
 8698SOL    HW137727   3.123   3.054   3.442  0.8397  0.1914 -0.7105
 8698SOL    HW237728   3.036   3.145   3.364 -0.2757 -1.8876 -0.0709
 8699SOL     OW37729   2.872   4.600   5.855 -0.4922  0.3918 -0.6254
 8699SOL    HW137730   2.840   4.527   5.802  0.2636  0.2470 -0.8694
 8699SOL    HW237731   2.798   4.618   5.914  1.8528  0.8727  2.1477
 8700SOL     OW37732   3.990   3.331   4.207  0.4050 -0.0914 -0.5092
 8700SOL    HW137733   3.942   3.394   4.261  0.2275 -0.1597 -0.5876
 8700SOL    HW237734   4.012   3.374   4.124 -1.4684 -0.9299 -1.4263
 8701SOL     OW37735   4.057   0.613   0.241 -0.4634  0.2380  0.5290
 8701SOL    HW137736   4.013   0.682   0.193 -2.9553 -0.4749  1.7884
 8701SOL    HW237737   4.114   0.669   0.294 -1.2462  2.0855 -0.6010
 8702SOL     OW37738   0.915   1.627   6.738  0.4713 -0.0560 -0.3082
 8702SOL    HW137739   0.850   1.602   6.672  1.0645 -0.8646 -0.5792
 8702SOL    HW237740   0.913   1.723   6.734 -0.2221  0.0004  1.5536
 8703SOL     OW37741   1.753   4.658  15.249  0.2499 -0.2426 -0.1828
 8703SOL    HW137742   1.788   4.600  15.182 -1.2952 -0.9788 -0.3478
 8703SOL    HW237743   1.681   4.695  15.199  1.2142  2.1894  0.1932
 8704SOL     OW37744   3.711   0.953   7.525 -0.5435 -0.2478 -0.9032
 8704SOL    HW137745   3.633   0.987   7.568 -0.0465  2.9093 -2.4615
 8704SOL    HW237746   3.723   1.007   7.447  1.1238  1.5077  0.5673
 8705SOL     OW37747   2.022   2.306   8.935 -0.3735 -0.3211  0.5080
 8705SOL    HW137748   2.024   2.211   8.928  0.5041  0.0023 -4.0180
 8705SOL    HW237749   1.942   2.320   8.886 -1.1790 -3.8238  0.8387
 8706SOL     OW37750   0.182   1.660  16.902  0.1881 -0.0208  0.2297
 8706SOL    HW137751   0.154   1.638  16.813 -0.2140  0.5257  0.2196
 8706SOL    HW237752   0.184   1.756  16.896 -3.3688  0.1431  1.8690
 8707SOL     OW37753   1.854   0.992   4.397 -0.3969 -0.0353 -0.3311
 8707SOL    HW137754   1.838   1.022   4.307 -0.4582 -1.7905 -0.8976
 8707SOL    HW237755   1.806   1.060   4.445  2.4448  2.0947 -0.5066
 8708SOL     OW37756   1.959   4.505   3.798 -0.1665  0.2589  0.5009
 8708SOL    HW137757   1.936   4.592   3.767  1.1846  0.1419 -0.8668
 8708SOL    HW237758   2.050   4.495   3.770 -0.5561 -2.7787  0.3338
 8709SOL     OW37759   2.061   1.086   4.943 -0.1251  0.0561  0.2628
 8709SOL    HW137760   2.054   1.059   4.851  0.1706 -1.9845  0.8302
 8709SOL    HW237761   2.114   1.166   4.946  1.7100 -1.1793  1.1588
 8710SOL     OW37762   3.292   3.465   2.928 -0.3263  0.6172 -0.0468
 8710SOL    HW137763   3.320   3.551   2.960  0.2497 -0.3229  1.9841
 8710SOL    HW237764   3.206   3.443   2.964 -0.4111  0.9761 -0.0330
 8711SOL     OW37765   2.743   4.197   2.073 -0.1349 -0.3041  0.1904
 8711SOL    HW137766   2.666   4.182   2.128  1.5781 -1.1348  2.4138
 8711SOL    HW237767   2.694   4.184   1.993 -3.1939 -2.2624  2.3923
 8712SOL     OW37768   0.333   4.258   2.806  0.7562  0.1701  0.3000
 8712SOL    HW137769   0.351   4.348   2.832  0.6042  0.3600 -0.2584
 8712SOL    HW237770   0.343   4.215   2.891  0.7431 -0.4149  0.0093
 8713SOL     OW37771   4.640   1.570   7.015 -0.0636  0.0771  0.0507
 8713SOL    HW137772   4.666   1.595   7.104  0.5344 -0.5203  0.0343
 8713SOL    HW237773   4.563   1.628   7.014 -2.2518 -2.7828  2.0947
 8714SOL     OW37774   0.281   3.585   0.366  0.3015  0.3149 -0.2259
 8714SOL    HW137775   0.363   3.580   0.415  0.2145 -0.2060 -0.1308
 8714SOL    HW237776   0.228   3.529   0.422  2.1459 -1.2749 -0.0594
 8715SOL     OW37777   2.488   4.093   9.236 -0.7209 -0.5389 -0.0765
 8715SOL    HW137778   2.498   4.131   9.323 -0.6647  1.2466 -0.8614
 8715SOL    HW237779   2.408   4.135   9.204  0.0599  2.2098  1.6313
 8716SOL     OW37780   1.981   3.283   9.207  0.0975  0.2623  0.2236
 8716SOL    HW137781   1.993   3.246   9.120 -0.4584  1.4655 -0.3748
 8716SOL    HW237782   1.896   3.327   9.202 -0.7965 -1.4646  0.3935
 8717SOL     OW37783   1.329   2.122   3.163 -0.2555  0.2765  0.4066
 8717SOL    HW137784   1.381   2.121   3.243  1.4809  2.2055 -0.7178
 8717SOL    HW237785   1.343   2.029   3.146 -0.7877  0.3168 -0.2548
 8718SOL     OW37786   2.545   3.889   8.824  0.1070  0.5407  0.4846
 8718SOL    HW137787   2.516   3.808   8.866 -1.6291  0.9775  0.1423
 8718SOL    HW237788   2.611   3.865   8.759 -0.9775  0.1253 -0.4559
 8719SOL     OW37789   3.551   0.960   5.579  0.0109  0.0397 -0.2252
 8719SOL    HW137790   3.459   0.936   5.594 -0.3463  1.6453  0.2150
 8719SOL    HW237791   3.589   0.873   5.589 -0.8871 -0.4119 -0.7580
 8720SOL     OW37792   2.674   2.668  12.275 -0.4749 -0.7228 -0.2045
 8720SOL    HW137793   2.654   2.759  12.295  0.9415 -0.5313  0.3255
 8720SOL    HW237794   2.594   2.638  12.232  1.1363 -1.5849 -2.5845
 8721SOL     OW37795   2.967   0.631   6.477  0.1297  0.0400 -0.6542
 8721SOL    HW137796   2.878   0.601   6.498  0.6757 -1.3977 -0.3628
 8721SOL    HW237797   2.966   0.674   6.392  1.4373 -0.5032 -0.9447
 8722SOL     OW37798   1.125   1.409  16.442  0.1990  0.1547  0.3012
 8722SOL    HW137799   1.092   1.491  16.403  3.2722  2.3115  2.2684
 8722SOL    HW237800   1.142   1.356  16.364 -1.5240  2.0505 -1.3848
 8723SOL     OW37801   2.660   0.296   6.552  0.6038 -0.3579 -0.3673
 8723SOL    HW137802   2.569   0.311   6.577 -0.3495 -0.3069 -3.8984
 8723SOL    HW237803   2.657   0.331   6.463  1.7011 -0.4782 -0.4555
 8724SOL     OW37804   3.713   1.972  10.770 -0.4522 -0.2417 -0.0371
 8724SOL    HW137805   3.799   1.965  10.812 -1.4799  2.8895  2.6389
 8724SOL    HW237806   3.737   2.001  10.682  0.8712 -0.6280  0.2001
 8725SOL     OW37807   4.108   1.643   7.422 -0.1336  0.4205  0.3471
 8725SOL    HW137808   4.185   1.618   7.371 -0.4024  0.4559 -0.0791
 8725SOL    HW237809   4.042   1.583   7.387  1.5210 -0.6976 -0.8825
 8726SOL     OW37810   0.824   3.650   8.416  0.2340  0.6068 -0.3146
 8726SOL    HW137811   0.890   3.694   8.469 -0.1895 -0.3981  1.0508
 8726SOL    HW237812   0.850   3.558   8.416  0.5534  0.7035 -1.2559
 8727SOL     OW37813   1.323   0.189   5.724 -0.3024  0.4114  0.4022
 8727SOL    HW137814   1.345   0.110   5.675 -0.0678  1.1759 -0.7363
 8727SOL    HW237815   1.229   0.190   5.712 -0.3750 -0.2118  0.9279
 8728SOL     OW37816   4.030   1.568   6.415 -0.6827 -0.7467 -0.0853
 8728SOL    HW137817   4.018   1.476   6.436 -3.9268 -0.3971 -0.3855
 8728SOL    HW237818   4.055   1.597   6.503  0.5475  0.0937 -0.7200
 8729SOL     OW37819   0.575   1.444   8.603 -0.0133 -0.0605 -0.4567
 8729SOL    HW137820   0.536   1.395   8.676 -0.5563  2.1493  0.7612
 8729SOL    HW237821   0.532   1.528   8.623 -0.9515 -0.8579  0.8953
 8730SOL     OW37822   2.588   2.600  13.974 -0.7206  0.5433  0.3167
 8730SOL    HW137823   2.556   2.643  13.895 -0.9591  1.1925  0.7571
 8730SOL    HW237824   2.677   2.635  13.981 -0.1240 -0.9848  0.3059
 8731SOL     OW37825   3.742   1.773  15.663  0.1994  0.2114 -0.1919
 8731SOL    HW137826   3.781   1.773  15.750  0.3426 -0.8293 -0.2481
 8731SOL    HW237827   3.780   1.695  15.622 -2.1720 -0.2198 -1.6002
 8732SOL     OW37828   1.512   0.470  11.676  0.2625 -0.4466  0.7643
 8732SOL    HW137829   1.445   0.461  11.743 -0.2846  1.5003  0.4802
 8732SOL    HW237830   1.580   0.418  11.720  0.5222 -0.4685  0.3424
 8733SOL     OW37831   1.061   3.608   3.682 -0.0339  0.0250  0.0848
 8733SOL    HW137832   1.038   3.678   3.621 -0.3901 -0.2949 -0.1505
 8733SOL    HW237833   1.153   3.633   3.691 -0.0274  0.0503 -0.0468
 8734SOL     OW37834   0.810   1.522  15.271 -0.2634  0.3620 -0.2054
 8734SOL    HW137835   0.873   1.529  15.199  0.1165 -0.9331  0.0047
 8734SOL    HW237836   0.797   1.427  15.269  0.3750  0.2625  0.3304
 8735SOL     OW37837   2.275   3.812   5.189  0.3611  0.0193  0.2611
 8735SOL    HW137838   2.198   3.857   5.222 -0.2480 -0.5228 -0.4350
 8735SOL    HW237839   2.244   3.736   5.139  1.3208 -1.7494  2.3890
 8736SOL     OW37840   0.545   3.576  14.395  0.3294  0.4407 -0.1343
 8736SOL    HW137841   0.600   3.506  14.359 -0.0536 -0.0619  0.2743
 8736SOL    HW237842   0.555   3.565  14.489  1.0900  0.2872 -0.2337
 8737SOL     OW37843   1.885   2.446   7.631 -0.4492 -0.7412 -0.2533
 8737SOL    HW137844   1.833   2.522   7.604  0.2051  0.9727  3.2758
 8737SOL    HW237845   1.928   2.497   7.700  0.0988 -2.2576  0.5328
 8738SOL     OW37846   4.148   2.627  10.106  0.1024  0.8059  0.0074
 8738SOL    HW137847   4.116   2.696  10.047  0.3339  0.6386 -0.3100
 8738SOL    HW237848   4.107   2.659  10.186 -1.6650 -0.8216 -0.2380
 8739SOL     OW37849   4.013   2.201  12.222  0.7651 -0.1251 -0.6043
 8739SOL    HW137850   4.061   2.244  12.151  3.4239 -1.7962  0.1642
 8739SOL    HW237851   4.084   2.164  12.275  1.7384  0.9348 -1.1746
 8740SOL     OW37852   1.485   4.007   0.108 -0.1663 -0.5283  0.1595
 8740SOL    HW137853   1.414   4.058   0.146 -0.0644  0.1556 -0.5673
 8740SOL    HW237854   1.442   3.967   0.032  1.9238  0.6362 -1.6309
 8741SOL     OW37855   0.627   4.367   6.235  0.4726 -0.5353 -0.0579
 8741SOL    HW137856   0.553   4.407   6.280  1.2216  0.5381  0.2296
 8741SOL    HW237857   0.683   4.341   6.309 -1.5349  1.1876  2.0527
 8742SOL     OW37858   2.646   0.356  11.207  0.3629  0.5560  0.6313
 8742SOL    HW137859   2.657   0.329  11.115  0.1023 -1.7715  1.2898
 8742SOL    HW237860   2.551   0.348  11.215  0.1663  0.4429 -1.6189
 8743SOL     OW37861   0.199   2.316   7.459  0.4137  0.0572 -0.8478
 8743SOL    HW137862   0.139   2.288   7.529  2.1962  0.0596  0.6788
 8743SOL    HW237863   0.273   2.340   7.514 -1.9657  2.4112  1.3735
 8744SOL     OW37864   1.674   3.813   8.329 -0.1320 -0.0730  0.0899
 8744SOL    HW137865   1.733   3.761   8.382  0.8636  0.3436 -0.6147
 8744SOL    HW237866   1.721   3.814   8.246  0.8275  0.2363  0.6397
 8745SOL     OW37867   1.545   1.166   6.179 -0.2433  0.4191 -0.1220
 8745SOL    HW137868   1.558   1.093   6.239  0.7640 -0.6541 -1.6207
 8745SOL    HW237869   1.491   1.121   6.114 -0.3275  0.3022  0.0311
 8746SOL     OW37870   3.207   2.517   2.431 -0.2412  0.8795 -0.9714
 8746SOL    HW137871   3.281   2.458   2.416 -0.1766  0.6378  0.3254
 8746SOL    HW237872   3.137   2.456   2.454  0.0778  0.8913  0.0164
 8747SOL     OW37873   3.469   0.783   7.679 -0.6033 -0.2926  0.4580
 8747SOL    HW137874   3.512   0.868   7.679  0.4445 -0.7997  2.3595
 8747SOL    HW237875   3.503   0.754   7.764 -3.1850  1.2398  2.0296
 8748SOL     OW37876   2.344   2.334  11.316  0.5808 -0.0758  0.0157
 8748SOL    HW137877   2.432   2.368  11.328  0.3287  1.6528 -3.0041
 8748SOL    HW237878   2.381   2.250  11.288 -2.5194 -1.2064 -0.7524
 8749SOL     OW37879   1.305   4.202   7.400  0.0695 -0.1945 -0.5452
 8749SOL    HW137880   1.222   4.204   7.352 -0.9445 -1.4339  1.1811
 8749SOL    HW237881   1.361   4.168   7.330  0.8808 -0.6043  0.3119
 8750SOL     OW37882   0.120   1.190   7.208  0.0639  0.4417 -0.4035
 8750SOL    HW137883   0.073   1.240   7.275  0.0770  0.2041 -0.2161
 8750SOL    HW237884   0.147   1.257   7.145  0.4120 -1.0258 -1.8185
 8751SOL     OW37885   3.300   1.857   9.073  0.4510 -0.3982  0.0600
 8751SOL    HW137886   3.316   1.797   9.000 -1.8439 -1.8333  0.7457
 8751SOL    HW237887   3.386   1.843   9.115  1.0611 -0.7343 -1.3025
 8752SOL     OW37888   1.593   2.664   3.757 -0.4140 -0.2312 -0.3437
 8752SOL    HW137889   1.662   2.628   3.813 -0.1554  0.0246 -0.4983
 8752SOL    HW237890   1.523   2.677   3.820 -1.0909 -2.1983 -0.6857
 8753SOL     OW37891   2.011   4.658  11.816 -0.3007  0.1855  0.3692
 8753SOL    HW137892   2.077   4.619  11.759 -1.6006 -1.2756 -0.1558
 8753SOL    HW237893   2.060   4.684  11.894 -1.0801 -1.8911  1.5408
 8754SOL     OW37894   1.248   0.430  17.342 -0.8250 -0.2714  0.1589
 8754SOL    HW137895   1.191   0.468  17.276  0.3225 -2.5407 -2.1470
 8754SOL    HW237896   1.181   0.378  17.386 -0.8318  0.1975  0.6974
 8755SOL     OW37897   2.246   3.496   7.499  0.7164 -0.0695  0.2136
 8755SOL    HW137898   2.159   3.535   7.498  0.0969 -1.4179  1.7142
 8755SOL    HW237899   2.309   3.566   7.516 -1.7589  2.2814 -0.3846
 8756SOL     OW37900   2.216   3.817  12.333  0.1998 -0.5598 -0.0005
 8756SOL    HW137901   2.275   3.762  12.385 -0.2379 -0.7159  0.3320
 8756SOL    HW237902   2.256   3.806  12.247 -0.2933  1.4345 -0.4827
 8757SOL     OW37903   0.779   3.646  14.794  0.3528 -0.1156  0.0208
 8757SOL    HW137904   0.786   3.680  14.883  0.7631  1.3707 -0.5963
 8757SOL    HW237905   0.864   3.662  14.753  0.1048 -1.2735 -0.9601
 8758SOL     OW37906   0.331   3.835   3.134 -0.1706  0.1887 -0.5674
 8758SOL    HW137907   0.383   3.907   3.099  0.8988  0.1528  0.9738
 8758SOL    HW237908   0.395   3.777   3.174 -0.7428  0.3998  0.6416
 8759SOL     OW37909   3.567   2.499   5.035  0.4911  0.1093 -0.8809
 8759SOL    HW137910   3.652   2.457   5.044  1.3307  1.4162 -2.5756
 8759SOL    HW237911   3.583   2.543   4.951 -2.4008  1.5196 -0.6949
 8760SOL     OW37912   2.619   1.430  13.663 -0.9994 -0.5092  0.3658
 8760SOL    HW137913   2.590   1.382  13.740 -0.3189 -1.8415 -0.2100
 8760SOL    HW237914   2.613   1.370  13.588  1.7305  0.3072 -0.5287
 8761SOL     OW37915   1.289   0.449  11.878  0.0653 -0.9457  0.2168
 8761SOL    HW137916   1.203   0.433  11.916 -1.4394  4.2371 -0.9443
 8761SOL    HW237917   1.340   0.377  11.915  0.6276 -0.5146  0.2835
 8762SOL     OW37918   2.186   4.060   8.954 -0.4596 -0.4005  0.2574
 8762SOL    HW137919   2.189   4.144   9.000  0.3604 -0.5217  0.4222
 8762SOL    HW237920   2.247   4.071   8.882  1.2329  1.8861  2.0491
 8763SOL     OW37921   0.041   2.526   3.295  0.0454 -0.0377  0.2994
 8763SOL    HW137922   0.038   2.576   3.376  0.5063  1.2126 -0.4562
 8763SOL    HW237923   0.082   2.447   3.329  1.3185  1.1115  1.4335
 8764SOL     OW37924   0.606   2.995   9.592 -0.5948 -0.5856 -0.2303
 8764SOL    HW137925   0.698   2.970   9.599 -0.5611 -0.1011  1.0948
 8764SOL    HW237926   0.599   3.011   9.498  0.8769  1.9224  0.0996
 8765SOL     OW37927   4.149   0.411  16.196  0.9246  0.4897  0.1335
 8765SOL    HW137928   4.094   0.380  16.269 -2.3495  0.0257 -2.5420
 8765SOL    HW237929   4.124   0.503  16.198 -2.3004 -0.3458 -2.2791
 8766SOL     OW37930   3.194   0.240   9.036 -0.0202 -0.8874 -0.0720
 8766SOL    HW137931   3.103   0.213   9.054  0.3883 -1.8008  0.6173
 8766SOL    HW237932   3.224   0.269   9.122  0.4510 -0.8092 -0.2649
 8767SOL     OW37933   1.681   1.307   7.791  0.4009  0.0077 -0.6632
 8767SOL    HW137934   1.658   1.398   7.772  2.6609  0.7117  0.0206
 8767SOL    HW237935   1.723   1.312   7.877 -0.9391  0.0934 -0.0161
 8768SOL     OW37936   1.660   0.719   6.277 -0.0443  0.4547 -0.1686
 8768SOL    HW137937   1.713   0.671   6.340  1.3156  1.7717 -0.3178
 8768SOL    HW237938   1.582   0.663   6.279 -0.8452  1.6636  1.7340
 8769SOL     OW37939   1.083   0.535  17.098 -0.1384  0.1003 -0.3878
 8769SOL    HW137940   1.061   0.509  17.008  0.9894  1.1361 -0.9642
 8769SOL    HW237941   1.177   0.538  17.086 -0.0578 -0.9496  0.0485
 8770SOL     OW37942   3.868   3.971  12.298  0.1427  0.3796 -0.1003
 8770SOL    HW137943   3.955   3.997  12.270  0.2457  0.8672  0.6705
 8770SOL    HW237944   3.860   4.011  12.385  0.6000  0.5659 -0.1506
 8771SOL     OW37945   1.995   3.106  11.644 -0.0384 -0.0990  0.1138
 8771SOL    HW137946   2.067   3.119  11.583 -1.5606 -1.5149 -1.9982
 8771SOL    HW237947   2.044   3.070  11.718 -1.4263  0.1005  1.1415
 8772SOL     OW37948   0.146   4.709   2.806  0.3192 -0.7369 -0.2416
 8772SOL    HW137949   0.083   0.010   2.743  0.9591 -2.1710 -1.6598
 8772SOL    HW237950   0.098   4.704   2.889 -0.8075 -0.9393 -0.9033
 8773SOL     OW37951   3.986   0.889   7.171  0.1580 -0.6252  0.0859
 8773SOL    HW137952   3.944   0.920   7.092 -1.0661 -0.5942  0.7484
 8773SOL    HW237953   4.058   0.835   7.139  0.0239 -0.2790 -0.8035
 8774SOL     OW37954   2.595   2.103  10.253  0.5042 -0.3562  0.2246
 8774SOL    HW137955   2.600   2.055  10.170 -0.1698  1.6696 -0.9754
 8774SOL    HW237956   2.593   2.193  10.220  1.9332 -0.3787  0.0896
 8775SOL     OW37957   1.532   1.964   5.521  0.5509 -0.2468  0.0028
 8775SOL    HW137958   1.560   1.908   5.594 -1.8785 -1.5227 -0.0386
 8775SOL    HW237959   1.563   2.050   5.548 -2.1522  1.1407 -1.2957
 8776SOL     OW37960   1.778   0.034   7.714  0.0478 -0.4745  0.2098
 8776SOL    HW137961   1.707   4.710   7.684 -0.5557  0.1181  0.5274
 8776SOL    HW237962   1.785   0.096   7.641 -0.2829 -1.1585 -0.4052
 8777SOL     OW37963   2.767   1.500  15.634  0.1555  0.1564 -0.0810
 8777SOL    HW137964   2.804   1.466  15.716 -0.4351 -0.6264 -0.1462
 8777SOL    HW237965   2.828   1.467  15.569  1.1788 -0.8088  1.3592
 8778SOL     OW37966   0.594   1.044   2.827 -0.1808 -0.0404  0.5024
 8778SOL    HW137967   0.621   1.130   2.794  2.9841 -0.9639  0.6731
 8778SOL    HW237968   0.670   1.026   2.882 -0.7733  1.7435  1.9034
 8779SOL     OW37969   2.806   2.551   7.117  0.2954  0.5649 -0.4172
 8779SOL    HW137970   2.743   2.486   7.148  2.1796 -0.6412  0.8649
 8779SOL    HW237971   2.889   2.505   7.129  0.0766  0.9221  2.6324
 8780SOL     OW37972   0.647   0.491   3.524  0.2465  0.0213  0.3563
 8780SOL    HW137973   0.605   0.510   3.608 -0.0230 -0.0694  0.2442
 8780SOL    HW237974   0.728   0.537   3.542 -1.9045  2.4116  3.9814
 8781SOL     OW37975   2.203   0.006   4.770  0.1646 -0.3829  0.2209
 8781SOL    HW137976   2.126   4.690   4.740 -0.4548 -0.0963  1.3450
 8781SOL    HW237977   2.267   4.668   4.777  0.9421  0.2016 -1.0869
 8782SOL     OW37978   1.594   1.465   2.527 -0.3968  0.1579 -0.2104
 8782SOL    HW137979   1.616   1.541   2.472 -1.3557  1.7499  1.6125
 8782SOL    HW237980   1.553   1.511   2.600 -0.4089 -2.8376  1.6463
 8783SOL     OW37981   2.511   0.588  13.576  0.1060  0.0233  0.0742
 8783SOL    HW137982   2.554   0.624  13.653  0.8700  0.4784 -0.5750
 8783SOL    HW237983   2.540   0.654  13.514  0.1043 -0.6904 -0.6936
 8784SOL     OW37984   3.782   3.895   6.690  0.4161  0.2062 -0.4974
 8784SOL    HW137985   3.768   3.859   6.777  1.2225 -2.0911 -1.3200
 8784SOL    HW237986   3.843   3.967   6.704  0.7235  0.3509 -2.6380
 8785SOL     OW37987   2.645   0.178  11.450 -0.5306 -0.3158 -0.5944
 8785SOL    HW137988   2.633   0.244  11.381 -1.1848 -1.1466 -1.2791
 8785SOL    HW237989   2.582   0.198  11.519 -0.8274  0.8437 -1.2032
 8786SOL     OW37990   1.011   3.826   8.492 -0.1527  0.4496  0.7164
 8786SOL    HW137991   1.048   3.884   8.426  2.3062 -1.0288  0.7622
 8786SOL    HW237992   1.051   3.857   8.573  1.9972  2.0551 -0.9628
 8787SOL     OW37993   2.191   0.894  12.976  0.2432 -0.5282 -0.4149
 8787SOL    HW137994   2.124   0.953  13.012  1.1729  0.6484 -0.6318
 8787SOL    HW237995   2.271   0.942  12.996 -0.0987  0.1757 -0.7049
 8788SOL     OW37996   1.418   3.283  14.094 -0.0463 -0.0617 -0.3889
 8788SOL    HW137997   1.331   3.308  14.124 -0.6472  0.8601 -2.8784
 8788SOL    HW237998   1.421   3.187  14.096  1.3670 -0.0032  0.1924
 8789SOL     OW37999   1.521   2.454  10.617  0.0780  0.1173  0.3734
 8789SOL    HW138000   1.534   2.375  10.671 -1.8194  0.2610  1.0458
 8789SOL    HW238001   1.573   2.515  10.670  0.4909 -0.8889  1.1374
 8790SOL     OW38002   1.032   1.280   6.596  0.2985 -0.0483  0.4042
 8790SOL    HW138003   1.079   1.295   6.514 -0.0808 -1.3035 -0.0263
 8790SOL    HW238004   1.073   1.345   6.654 -1.3396  0.6896  0.7285
 8791SOL     OW38005   1.078   1.117   4.365  0.0492  0.5723  0.9333
 8791SOL    HW138006   1.075   1.027   4.334 -0.1551  1.2017 -0.8440
 8791SOL    HW238007   0.995   1.152   4.333 -1.4455 -3.1939  0.7331
 8792SOL     OW38008   1.830   1.875   5.615  0.0265 -0.1132  0.2308
 8792SOL    HW138009   1.852   1.818   5.688 -1.2483 -0.7042  0.1592
 8792SOL    HW238010   1.795   1.959   5.644 -2.0813 -1.6752  2.1931
 8793SOL     OW38011   0.279   1.367   9.337 -0.1766  0.5618 -0.2920
 8793SOL    HW138012   0.320   1.280   9.329 -2.5078 -0.5272 -0.2776
 8793SOL    HW238013   0.287   1.382   9.432 -1.3889 -0.2912 -0.0564
 8794SOL     OW38014   2.242   3.872   1.890 -0.3320  0.0361 -0.2802
 8794SOL    HW138015   2.321   3.903   1.847  1.0223 -3.2272 -0.1663
 8794SOL    HW238016   2.260   3.901   1.979 -2.6094 -4.4452  1.6450
 8795SOL     OW38017   0.154   4.488  14.842 -0.1170  0.0397  0.0108
 8795SOL    HW138018   0.059   4.484  14.848  0.0190 -1.3422  1.4292
 8795SOL    HW238019   0.169   4.398  14.871  2.0000  0.5261  0.4192
 8796SOL     OW38020   3.503   4.182   2.030  0.0685 -0.1474  0.3525
 8796SOL    HW138021   3.413   4.153   2.012  0.2504 -0.4382 -0.0749
 8796SOL    HW238022   3.495   4.180   2.126  1.6693  1.2151  0.5100
 8797SOL     OW38023   2.856   3.119   6.756  0.1376  0.4953  0.1237
 8797SOL    HW138024   2.885   3.149   6.670 -0.9012  2.3680  0.4269
 8797SOL    HW238025   2.903   3.035   6.762  0.6072  0.8359  1.3537
 8798SOL     OW38026   0.627   2.539  10.849  0.1716 -0.2748 -0.2099
 8798SOL    HW138027   0.567   2.496  10.909 -0.7802  1.7553  0.3251
 8798SOL    HW238028   0.614   2.470  10.784  0.1027  0.1963 -0.6977
 8799SOL     OW38029   1.439   2.992   5.902  0.2549 -0.5273 -0.6042
 8799SOL    HW138030   1.438   2.932   5.827 -0.8007 -0.8821 -0.3007
 8799SOL    HW238031   1.442   3.078   5.862  3.3283 -0.8919 -1.1630
 8800SOL     OW38032   0.067   3.011   6.787 -0.2178 -0.0440 -0.2404
 8800SOL    HW138033   0.014   2.954   6.843  0.0610 -0.4262 -0.3701
 8800SOL    HW238034   0.002   3.048   6.727  1.8915  2.2779 -1.0685
 8801SOL     OW38035   1.461   3.860   3.889 -0.6455 -0.3099  0.0953
 8801SOL    HW138036   1.443   3.849   3.982 -1.1464  0.5421  0.0936
 8801SOL    HW238037   1.449   3.955   3.880 -1.5858 -0.4685 -0.3194
 8802SOL     OW38038   0.175   0.892   6.154  0.0264  0.0630 -0.1455
 8802SOL    HW138039   0.265   0.923   6.160  0.4788 -1.8112  2.3239
 8802SOL    HW238040   0.145   0.904   6.244  1.4014 -2.3785  0.6139
 8803SOL     OW38041   1.613   0.388   5.371  0.2633  0.0640  0.5551
 8803SOL    HW138042   1.552   0.392   5.445  0.4606  2.3321  0.5973
 8803SOL    HW238043   1.698   0.385   5.415 -0.2832 -0.0341  1.6132
 8804SOL     OW38044   1.691   1.387   8.447 -0.1257  0.4341  0.4499
 8804SOL    HW138045   1.635   1.462   8.465  1.5381  1.0976  2.7907
 8804SOL    HW238046   1.782   1.410   8.467  0.4429 -1.0379 -0.4369
 8805SOL     OW38047   2.253   4.281   9.126 -0.5397  0.3204 -0.4154
 8805SOL    HW138048   2.293   4.353   9.175 -0.1878  0.9939 -1.6884
 8805SOL    HW238049   2.204   4.330   9.060 -1.1625  1.8701  1.1600
 8806SOL     OW38050   4.311   2.339   9.090  0.0439 -0.3686 -0.6061
 8806SOL    HW138051   4.258   2.337   9.170 -1.2442 -0.6266 -1.4595
 8806SOL    HW238052   4.325   2.246   9.077 -0.9661 -0.8674  1.7948
 8807SOL     OW38053   2.808   1.074   4.249 -0.3502  1.1451 -0.1443
 8807SOL    HW138054   2.824   0.995   4.198  3.3920  1.5934  0.3223
 8807SOL    HW238055   2.873   1.056   4.317  1.1563  2.4064 -1.2420
 8808SOL     OW38056   0.535   0.407   5.236  0.1468  0.2364  0.1445
 8808SOL    HW138057   0.544   0.369   5.323 -0.7457  1.7364  0.8771
 8808SOL    HW238058   0.547   0.499   5.258  0.0368  0.7915 -2.0784
 8809SOL     OW38059   4.103   4.697   3.703  0.0893  0.3106  0.4650
 8809SOL    HW138060   4.094   0.013   3.621 -1.9985 -2.0410 -0.6701
 8809SOL    HW238061   4.180   4.648   3.677 -0.7702  0.4813 -2.4172
 8810SOL     OW38062   1.187   4.712   7.931 -0.2339 -0.2030 -0.2008
 8810SOL    HW138063   1.103   0.021   7.948 -1.1060 -1.3068 -1.7759
 8810SOL    HW238064   1.163   4.625   7.897 -4.9274  0.6190  1.0638
 8811SOL     OW38065   3.872   0.565   8.450 -0.1384  0.4074  0.4508
 8811SOL    HW138066   3.780   0.551   8.472 -0.9630  2.0888 -1.8706
 8811SOL    HW238067   3.885   0.520   8.366  0.5219  0.2885  0.6173
 8812SOL     OW38068   3.026   4.152   5.769 -0.4563 -0.0378 -0.1207
 8812SOL    HW138069   3.048   4.104   5.849  1.4952  0.4418 -0.3740
 8812SOL    HW238070   3.009   4.080   5.708 -1.7013  0.6640 -0.6073
 8813SOL     OW38071   0.153   2.329  12.696  0.1259  0.3747  0.1469
 8813SOL    HW138072   0.169   2.248  12.648 -1.0669  0.3927 -0.2717
 8813SOL    HW238073   0.202   2.307  12.776 -0.2198 -0.2156  0.1906
 8814SOL     OW38074   2.794   4.270   9.343  0.5767  0.5535  0.4189
 8814SOL    HW138075   2.818   4.193   9.290 -0.8605  0.4223 -0.0488
 8814SOL    HW238076   2.704   4.245   9.366  0.7316  0.7479  1.2118
 8815SOL     OW38077   0.959   4.421   6.164  0.2677  0.4936  0.0946
 8815SOL    HW138078   0.911   4.359   6.110 -2.3434  1.7328  1.0033
 8815SOL    HW238079   0.986   4.359   6.232 -0.7759  1.6308  1.5384
 8816SOL     OW38080   3.470   4.251   2.301  0.4248  0.3718 -0.5870
 8816SOL    HW138081   3.509   4.200   2.372  1.8036  0.6441 -1.1560
 8816SOL    HW238082   3.510   4.337   2.314  1.3805 -0.0268 -0.9334
 8817SOL     OW38083   3.281   1.125   7.503  0.0925  0.0973 -0.1281
 8817SOL    HW138084   3.356   1.160   7.455  0.6261 -0.6599  0.1582
 8817SOL    HW238085   3.218   1.128   7.430  0.1953  3.5470 -0.0871
 8818SOL     OW38086   2.279   3.965   6.775  0.1170  0.5797  0.7525
 8818SOL    HW138087   2.367   3.965   6.814  0.5947 -0.4394 -0.2882
 8818SOL    HW238088   2.308   3.920   6.695 -0.8756  1.7441 -0.2587
 8819SOL     OW38089   1.739   1.500   5.155  0.0417 -0.5356  0.3927
 8819SOL    HW138090   1.794   1.492   5.077  2.9882  1.1805  2.3042
 8819SOL    HW238091   1.777   1.579   5.194  0.2377  1.3767 -3.6544
 8820SOL     OW38092   1.855   0.108  14.567  0.3979 -0.2772  0.0455
 8820SOL    HW138093   1.824   0.108  14.476  1.6026  0.0865 -0.3788
 8820SOL    HW238094   1.888   0.019  14.579  1.6632 -0.2075 -2.9183
 8821SOL     OW38095   0.577   0.476   7.902  0.2682  0.0241  0.6088
 8821SOL    HW138096   0.649   0.509   7.848 -0.6284 -0.2715 -0.7659
 8821SOL    HW238097   0.633   0.460   7.978  0.8369  3.4078  0.9169
 8822SOL     OW38098   1.432   0.767   7.231  0.6436 -0.1556 -0.2712
 8822SOL    HW138099   1.367   0.817   7.182  1.1433  2.4817  1.7581
 8822SOL    HW238100   1.405   0.769   7.323  1.1253  0.6382 -0.1462
 8823SOL     OW38101   2.144   0.501   2.391 -0.5429 -0.1683 -0.4261
 8823SOL    HW138102   2.102   0.587   2.392  0.5630  0.3749 -0.5351
 8823SOL    HW238103   2.118   0.459   2.308  2.8847 -0.0507 -1.5541
 8824SOL     OW38104   2.412   3.289   3.948  0.2185 -0.1471 -0.0679
 8824SOL    HW138105   2.395   3.336   3.867 -2.5879 -1.6969 -0.4180
 8824SOL    HW238106   2.507   3.294   3.950  0.2417 -0.8794  1.0486
 8825SOL     OW38107   2.154   3.489   9.280 -0.0508 -0.3379 -0.3444
 8825SOL    HW138108   2.079   3.511   9.334  0.5614 -0.7803  0.6866
 8825SOL    HW238109   2.143   3.395   9.266 -2.5513 -0.6495  3.7530
 8826SOL     OW38110   2.685   2.405   7.341  0.4011 -0.2696 -0.1517
 8826SOL    HW138111   2.625   2.362   7.280  0.0882  2.3442 -1.6933
 8826SOL    HW238112   2.699   2.340   7.409 -0.0845  0.6722  0.8433
 8827SOL     OW38113   2.565   2.852   6.900  0.3451  0.0609 -0.2267
 8827SOL    HW138114   2.477   2.829   6.930  0.3287 -0.9230 -1.0423
 8827SOL    HW238115   2.554   2.946   6.885 -1.7197 -0.1346  0.1320
 8828SOL     OW38116   4.722   0.983   5.034 -0.3111 -0.3825  0.0080
 8828SOL    HW138117   0.058   1.033   4.989 -0.6750 -0.1308 -0.2621
 8828SOL    HW238118   0.041   0.923   5.088  0.6459  0.1466 -0.3267
 8829SOL     OW38119   2.244   1.467   0.679 -0.3890 -0.3922 -0.8432
 8829SOL    HW138120   2.318   1.523   0.704  0.2894 -3.0443  3.1475
 8829SOL    HW238121   2.230   1.500   0.591  2.0979  0.4936 -0.9170
 8830SOL     OW38122   0.617   4.078  10.645  0.1343 -0.3259  0.4899
 8830SOL    HW138123   0.676   4.042  10.578 -0.6953  1.2314 -1.0658
 8830SOL    HW238124   0.558   4.004  10.661 -0.9286  0.4036 -0.0435
 8831SOL     OW38125   2.768   4.201   8.458 -0.9244  0.0562 -0.2104
 8831SOL    HW138126   2.839   4.145   8.489 -0.9837  0.3390  0.4320
 8831SOL    HW238127   2.771   4.201   8.362  2.8816  0.9914 -0.0715
 8832SOL     OW38128   3.708   2.520   8.920 -0.0672 -0.5274  0.5092
 8832SOL    HW138129   3.718   2.555   8.832  0.6850  0.7494  1.0936
 8832SOL    HW238130   3.615   2.497   8.921  0.0194 -0.8830  0.1787
 8833SOL     OW38131   2.091   4.177  16.578  0.5393 -0.5568 -0.0179
 8833SOL    HW138132   2.069   4.265  16.548  3.2443 -0.1051 -0.6665
 8833SOL    HW238133   2.145   4.138  16.509  1.5126  0.5272  0.1319
 8834SOL     OW38134   4.681   1.752  14.416  0.5192  0.3486 -0.1114
 8834SOL    HW138135   4.732   1.672  14.418  1.1388  0.7824  1.5685
 8834SOL    HW238136   0.003   1.804  14.357  0.7016  0.8547  0.5106
 8835SOL     OW38137   0.960   4.150  15.594  0.1583  0.2820  0.7817
 8835SOL    HW138138   0.925   4.234  15.622  2.8694  0.9001  2.2902
 8835SOL    HW238139   0.918   4.096  15.661 -0.2322 -0.4320 -0.0321
 8836SOL     OW38140   2.653   4.063   8.996  0.3605 -0.1475 -0.2657
 8836SOL    HW138141   2.592   4.038   9.065  0.3921  0.8333  0.1133
 8836SOL    HW238142   2.633   3.999   8.928 -1.1529  0.8349 -0.7516
 8837SOL     OW38143   2.201   0.245   4.908  0.0247  0.1636 -0.1316
 8837SOL    HW138144   2.193   0.153   4.881 -0.1672  0.1324  0.0326
 8837SOL    HW238145   2.276   0.268   4.853 -0.0304  0.9872  0.1339
 8838SOL     OW38146   0.065   3.101   2.821 -0.0466  0.6921 -0.5437
 8838SOL    HW138147   0.152   3.063   2.807  0.6858  2.1507  0.0348
 8838SOL    HW238148   0.090   3.193   2.817  1.5318  0.2513 -1.1133
 8839SOL     OW38149   2.065   3.638  13.355 -0.0045 -0.2950  0.0470
 8839SOL    HW138150   2.129   3.696  13.397  0.0617  0.4557 -1.0745
 8839SOL    HW238151   2.054   3.681  13.270  0.6542  0.6994  0.4678
 8840SOL     OW38152   4.626   4.124   2.293 -0.3083  0.3373 -0.0040
 8840SOL    HW138153   4.573   4.196   2.329  1.1802  0.3985  2.0559
 8840SOL    HW238154   4.686   4.100   2.363  1.8188  2.4569 -1.1177
 8841SOL     OW38155   1.957   0.302   2.576  0.4685 -0.4417  0.0629
 8841SOL    HW138156   1.923   0.216   2.551 -0.1137 -0.6280  1.5208
 8841SOL    HW238157   1.905   0.370   2.533  0.2978 -1.2199 -0.9497
 8842SOL     OW38158   1.529   3.306   4.115  0.5285 -0.1385 -0.2600
 8842SOL    HW138159   1.609   3.345   4.081  1.0002 -0.7692  0.1276
 8842SOL    HW238160   1.504   3.246   4.045  1.9044 -0.1724 -0.7278
 8843SOL     OW38161   3.344   1.369  13.441  0.0013 -0.0657 -0.1735
 8843SOL    HW138162   3.440   1.369  13.447  0.0303 -1.3739 -0.6888
 8843SOL    HW238163   3.322   1.404  13.527 -2.2736  0.9425 -1.1747
 8844SOL     OW38164   1.999   0.607   8.049  0.6032 -0.4680  0.8555
 8844SOL    HW138165   2.021   0.522   8.010 -1.4931  0.2691 -1.9576
 8844SOL    HW238166   2.080   0.658   8.043  0.9697 -1.2276 -0.7818
 8845SOL     OW38167   0.564   3.109   4.137  0.2811  0.1648 -0.2398
 8845SOL    HW138168   0.505   3.034   4.137 -0.6587  0.8791  1.9745
 8845SOL    HW238169   0.531   3.153   4.216 -1.2114  1.6665 -1.6890
 8846SOL     OW38170   1.536   1.945   2.768 -0.2581  0.2229  0.0903
 8846SOL    HW138171   1.464   1.908   2.718 -0.9150  0.0410  1.1787
 8846SOL    HW238172   1.596   1.945   2.693 -2.2143 -0.8712 -1.4706
 8847SOL     OW38173   3.456   2.688  12.631  0.5219 -0.5062 -0.0357
 8847SOL    HW138174   3.541   2.652  12.656  1.5483  0.6146 -1.8973
 8847SOL    HW238175   3.447   2.631  12.555  2.0959  0.3249 -0.8503
 8848SOL     OW38176   4.219   0.017   7.776  0.2269  0.0976 -0.3452
 8848SOL    HW138177   4.243   0.108   7.761  0.2409  0.1648  0.0985
 8848SOL    HW238178   4.193   4.722   7.687 -0.9124 -2.2177  0.6903
 8849SOL     OW38179   0.245   0.234   5.155  0.1064  0.1858  0.5185
 8849SOL    HW138180   0.233   0.321   5.116  1.2910 -0.3480 -1.0368
 8849SOL    HW238181   0.224   0.252   5.247 -0.0221  0.2149  0.4848
 8850SOL     OW38182   3.256   0.039   8.262 -0.6603  0.1528  0.5433
 8850SOL    HW138183   3.294   0.123   8.287  0.6707 -0.5007  0.7291
 8850SOL    HW238184   3.195   0.062   8.192 -0.8888 -1.7150  0.1411
 8851SOL     OW38185   1.635   0.301  15.051 -0.3113 -0.3529  0.2622
 8851SOL    HW138186   1.620   0.206  15.054  1.3688 -0.6315 -0.8967
 8851SOL    HW238187   1.552   0.332  15.089 -0.7303  0.4135 -1.2949
 8852SOL     OW38188   1.172   3.807   6.690 -0.1266  0.5505 -0.0802
 8852SOL    HW138189   1.078   3.817   6.672 -0.0589 -2.4067 -2.1402
 8852SOL    HW238190   1.197   3.730   6.638 -1.1979 -1.9427  3.0997
 8853SOL     OW38191   4.580   0.937   3.577 -0.4059  0.3271 -0.3570
 8853SOL    HW138192   4.666   0.971   3.599 -0.0149  0.5535 -2.1806
 8853SOL    HW238193   4.522   0.992   3.629 -1.5373 -0.0865 -1.1545
 8854SOL     OW38194   0.106   2.955   7.161 -0.4665 -0.4159 -0.4920
 8854SOL    HW138195   0.177   3.018   7.175  1.3364 -2.2197 -1.5832
 8854SOL    HW238196   0.111   2.949   7.066  2.2010  1.5029 -0.4869
 8855SOL     OW38197   3.266   2.606   4.510  0.1233 -0.1585  0.3423
 8855SOL    HW138198   3.211   2.533   4.482  0.4115 -0.6400  1.0586
 8855SOL    HW238199   3.254   2.668   4.438 -0.8461 -1.1112 -0.3144
 8856SOL     OW38200   4.115   1.922   8.558  0.2929  0.0634  0.1919
 8856SOL    HW138201   4.104   2.017   8.566 -1.6892 -0.1839  0.5477
 8856SOL    HW238202   4.155   1.913   8.472  0.4027  0.8769  0.1540
 8857SOL     OW38203   0.322   0.241   4.601  0.4820  0.2591  0.3822
 8857SOL    HW138204   0.341   0.268   4.691 -1.1835  1.5866  0.3404
 8857SOL    HW238205   0.276   0.314   4.559 -1.1022 -0.0161  1.6280
 8858SOL     OW38206   0.873   2.573   9.473  0.5080  0.3828 -0.6637
 8858SOL    HW138207   0.888   2.516   9.398 -0.1376 -0.3031 -0.2622
 8858SOL    HW238208   0.876   2.659   9.430  4.4817  0.3042 -0.5539
 8859SOL     OW38209   2.409   1.274   1.733 -0.5990  0.2539 -0.1084
 8859SOL    HW138210   2.443   1.236   1.652  0.6120  0.3353  0.3644
 8859SOL    HW238211   2.494   1.300   1.769 -0.0758 -1.2741 -0.2526
 8860SOL     OW38212   3.109   4.715   8.516 -0.7813 -0.1338  0.1059
 8860SOL    HW138213   3.017   0.005   8.502 -1.0541 -1.7021 -0.5779
 8860SOL    HW238214   3.142   4.685   8.432  0.2804  1.6071 -0.0918
 8861SOL     OW38215   1.840   3.599   8.726 -0.0874 -0.2206  0.2437
 8861SOL    HW138216   1.892   3.679   8.719 -2.6016  1.6863  3.2932
 8861SOL    HW238217   1.893   3.543   8.782  1.3667 -1.4489 -2.3825
 8862SOL     OW38218   2.667   3.844   6.134  0.3509 -0.0483 -0.3936
 8862SOL    HW138219   2.710   3.925   6.163  0.4065  0.6008 -2.2857
 8862SOL    HW238220   2.604   3.883   6.074 -1.0811 -0.7653  0.6674
 8863SOL     OW38221   2.055   2.851   2.904  0.0513 -0.1226 -0.0746
 8863SOL    HW138222   2.121   2.808   2.958  0.2470  0.3816  0.0898
 8863SOL    HW238223   2.069   2.808   2.820 -2.6553  0.2594 -0.7436
 8864SOL     OW38224   4.709   3.812   3.289  0.8238 -0.1148 -0.1796
 8864SOL    HW138225   0.022   3.740   3.246  2.0794  1.6840 -1.8779
 8864SOL    HW238226   0.016   3.891   3.251  0.8885  0.3806  0.9125
 8865SOL     OW38227   4.411   4.628   0.784 -0.1952  0.0200 -0.6295
 8865SOL    HW138228   4.506   4.632   0.778 -0.2605  0.5687 -1.2748
 8865SOL    HW238229   4.387   4.592   0.698  0.6229  0.2584 -0.9537
 8866SOL     OW38230   2.649   1.117  13.997  0.6761 -0.1730  0.0802
 8866SOL    HW138231   2.637   1.116  14.092 -1.0232 -1.4150 -0.1578
 8866SOL    HW238232   2.648   1.212  13.981  0.0226 -0.2606 -0.3830
 8867SOL     OW38233   3.098   4.475   3.483  0.1448 -0.0702  0.2924
 8867SOL    HW138234   3.183   4.465   3.440  0.2913  0.6389  0.4155
 8867SOL    HW238235   3.116   4.409   3.550 -1.2231 -0.6222  0.0936
 8868SOL     OW38236   1.752   2.294  11.630  0.5783  0.5221  0.7317
 8868SOL    HW138237   1.698   2.328  11.559  1.1320  1.9133  0.9766
 8868SOL    HW238238   1.836   2.298  11.584  0.5917  0.7970  0.7788
 8869SOL     OW38239   2.743   4.395   0.048  0.4638  1.0516 -0.3072
 8869SOL    HW138240   2.770   4.452   0.120  4.5257  0.5880 -1.4671
 8869SOL    HW238241   2.662   4.361   0.087  0.9448  1.6106  1.1672
 8870SOL     OW38242   0.519   0.878   8.036  0.1511  0.4712  0.4604
 8870SOL    HW138243   0.532   0.810   7.969  2.7816  0.9608  0.4848
 8870SOL    HW238244   0.606   0.918   8.038  0.4555 -0.2668  1.6739
 8871SOL     OW38245   1.485   1.517   5.166 -0.0547 -0.2357 -0.1048
 8871SOL    HW138246   1.581   1.518   5.169 -0.0267 -0.6803 -0.9446
 8871SOL    HW238247   1.467   1.605   5.199  1.6352 -0.3652  1.1806
 8872SOL     OW38248   0.296   0.784   7.508  0.0884 -0.6295  0.1910
 8872SOL    HW138249   0.214   0.808   7.551 -0.9642 -1.8897 -1.1189
 8872SOL    HW238250   0.271   0.703   7.464 -0.0196 -0.2921 -0.3770
 8873SOL     OW38251   3.022   4.410   2.173 -0.0928  0.0345  0.6431
 8873SOL    HW138252   2.940   4.420   2.222  0.6140 -0.5875  1.9520
 8873SOL    HW238253   3.000   4.339   2.112 -0.4943  1.1187 -0.4653
 8874SOL     OW38254   3.175   4.006   5.207 -0.0230  0.3742  0.5004
 8874SOL    HW138255   3.079   4.005   5.203 -0.0714 -0.7240  1.9940
 8874SOL    HW238256   3.202   4.075   5.145 -1.1159  0.0280 -0.3574
 8875SOL     OW38257   1.927   3.981   0.098  0.1191  0.4190  0.1403
 8875SOL    HW138258   1.902   3.924   0.025  0.3102  2.7894 -1.7518
 8875SOL    HW238259   1.877   3.941   0.170 -1.0692  0.8023 -0.4735
 8876SOL     OW38260   4.014   2.972   4.703 -0.1801  0.0519  0.6158
 8876SOL    HW138261   4.001   3.057   4.660  0.2368  0.4368  1.2553
 8876SOL    HW238262   4.108   2.958   4.692 -0.1531 -0.4013  1.4981
 8877SOL     OW38263   4.243   1.076  14.477 -1.0241  0.7556  0.2947
 8877SOL    HW138264   4.229   1.166  14.449 -0.4763  0.2153 -1.7343
 8877SOL    HW238265   4.195   1.066  14.559 -0.3050 -1.3969  0.4727
 8878SOL     OW38266   4.188   4.490   8.877  0.1783  0.3270  0.5094
 8878SOL    HW138267   4.254   4.546   8.918  1.0673  0.4369 -1.0880
 8878SOL    HW238268   4.137   4.446   8.944 -1.4548  3.5773  1.4091
 8879SOL     OW38269   0.567   2.784   8.899  0.3860 -0.0880  0.6557
 8879SOL    HW138270   0.565   2.691   8.922  2.0058 -0.5323 -1.0756
 8879SOL    HW238271   0.570   2.773   8.804  1.3989  0.6709  0.6124
 8880SOL     OW38272   0.090   1.662  16.235 -0.2037 -0.0274  0.4736
 8880SOL    HW138273   0.003   1.700  16.233 -0.7484 -1.3278 -0.5242
 8880SOL    HW238274   0.079   1.575  16.196 -1.1637 -0.1299  0.9801
 8881SOL     OW38275   2.848   1.676   0.125  0.1047  0.3485 -0.1421
 8881SOL    HW138276   2.804   1.755   0.094  0.3628  0.4822 -0.1670
 8881SOL    HW238277   2.870   1.641   0.038  0.3753 -1.0146  0.4708
 8882SOL     OW38278   2.366   0.344   6.417  0.2354  0.2920  0.1800
 8882SOL    HW138279   2.372   0.380   6.505  0.0292 -3.0798  1.6007
 8882SOL    HW238280   2.351   0.252   6.441 -0.6549  0.8062  1.6096
 8883SOL     OW38281   4.081   0.024   9.337 -0.7993  0.0114  0.3351
 8883SOL    HW138282   4.061   0.109   9.378  0.5718 -0.8068  2.7065
 8883SOL    HW238283   4.100   4.707   9.417  3.7536 -0.7108 -1.1849
 8884SOL     OW38284   1.573   0.141  10.240 -0.1830 -0.3807 -0.4865
 8884SOL    HW138285   1.620   0.212  10.284  1.5505 -1.9440  0.1767
 8884SOL    HW238286   1.570   0.083  10.316 -3.2811 -1.5421 -1.5009
 8885SOL     OW38287   0.255   3.085   9.396  0.0200  0.2173 -0.4885
 8885SOL    HW138288   0.327   3.146   9.382 -0.2717  0.5234 -0.6373
 8885SOL    HW238289   0.190   3.141   9.438 -2.6683 -0.3259 -3.9620
 8886SOL     OW38290   2.612   0.933   8.134  0.0662 -0.0447 -0.0151
 8886SOL    HW138291   2.527   0.896   8.156  1.2608 -2.8578 -0.1363
 8886SOL    HW238292   2.598   0.967   8.046 -2.7417 -2.0029 -0.3475
 8887SOL     OW38293   1.018   0.586   8.820 -0.3016  0.0296  0.3694
 8887SOL    HW138294   1.079   0.636   8.875  0.9471 -2.1546  0.9822
 8887SOL    HW238295   0.935   0.608   8.863  0.0617 -1.7224  1.9407
 8888SOL     OW38296   3.955   1.876   5.782  0.2209 -0.4893 -0.0196
 8888SOL    HW138297   3.911   1.835   5.708  1.8600  0.0507 -1.2921
 8888SOL    HW238298   3.971   1.811   5.851 -0.2064 -0.3108  0.2501
 8889SOL     OW38299   1.202   4.665   0.659 -0.7944 -0.0561  0.3847
 8889SOL    HW138300   1.280   4.610   0.652  0.7282  2.2154 -0.4022
 8889SOL    HW238301   1.175   4.641   0.748 -1.3050 -1.8979 -0.2694
 8890SOL     OW38302   4.146   1.611   6.648  0.0166  0.0206 -0.2773
 8890SOL    HW138303   4.153   1.572   6.735 -0.4621 -0.7733 -0.5902
 8890SOL    HW238304   4.176   1.700   6.661  0.9758 -0.3812  0.2158
 8891SOL     OW38305   3.056   3.730  17.268  0.3452 -0.0027 -0.1611
 8891SOL    HW138306   2.966   3.760  17.278  1.0173  2.2626 -0.9961
 8891SOL    HW238307   3.097   3.788  17.332  0.3284 -0.4542  0.2536
 8892SOL     OW38308   1.743   2.626   7.209  0.5495 -0.1069  0.6319
 8892SOL    HW138309   1.838   2.632   7.215  0.6337 -2.4995  1.9178
 8892SOL    HW238310   1.727   2.549   7.154  0.8203  0.3495 -0.0781
 8893SOL     OW38311   1.294   2.606  17.491  0.2356  0.2899  0.4890
 8893SOL    HW138312   1.358   2.677  17.493 -0.1466  0.6639 -0.3100
 8893SOL    HW238313   1.322   2.558  17.413  0.8994  0.5885  0.5495
 8894SOL     OW38314   3.470   1.378   3.875  0.3024  0.2582 -0.2700
 8894SOL    HW138315   3.553   1.361   3.829  0.4924  3.2332 -1.0355
 8894SOL    HW238316   3.431   1.292   3.860  0.1484  0.1196  0.9081
 8895SOL     OW38317   0.796   4.710   1.623 -0.2883  0.1025 -0.8788
 8895SOL    HW138318   0.845   4.663   1.556  0.2286 -1.0734  0.3414
 8895SOL    HW238319   0.731   0.013   1.562  0.7965  2.1422 -0.8660
 8896SOL     OW38320   2.866   3.831   4.555  0.3255 -0.3364 -0.4115
 8896SOL    HW138321   2.933   3.799   4.615  1.0102  1.5927 -0.1342
 8896SOL    HW238322   2.925   3.830   4.479  0.3277  0.8435 -0.4375
 8897SOL     OW38323   4.677   4.368  11.361 -0.1611  0.1689  0.4077
 8897SOL    HW138324   4.715   4.453  11.339  1.7175 -0.5353  0.9905
 8897SOL    HW238325   4.696   4.354  11.453  0.5659 -1.1316  0.0615
 8898SOL     OW38326   2.365   3.098   1.632 -0.2646  0.0774 -0.0533
 8898SOL    HW138327   2.355   3.187   1.666 -0.2149 -0.6767  1.9133
 8898SOL    HW238328   2.399   3.045   1.704 -2.8808  0.0270  1.1625
 8899SOL     OW38329   3.420   2.049   9.484  0.3294  0.2985  0.3999
 8899SOL    HW138330   3.344   2.007   9.443  0.7836 -0.4043  0.2808
 8899SOL    HW238331   3.487   1.988   9.453  0.1842 -0.8495  2.2714
 8900SOL     OW38332   0.324   2.252   4.460 -0.4651  0.4057  0.1319
 8900SOL    HW138333   0.402   2.216   4.501  0.7666  1.1843 -1.4917
 8900SOL    HW238334   0.361   2.332   4.422 -1.9492 -0.4328 -3.0857
 8901SOL     OW38335   2.274   3.530   1.511  0.1653 -0.9194 -0.6713
 8901SOL    HW138336   2.301   3.471   1.581  2.3552 -0.5271 -1.1764
 8901SOL    HW238337   2.343   3.596   1.518 -0.4044 -0.3567 -0.3890
 8902SOL     OW38338   3.891   1.307  12.793 -0.0310  0.0230 -0.1230
 8902SOL    HW138339   3.810   1.348  12.822  0.2601  0.2982  0.2998
 8902SOL    HW238340   3.947   1.369  12.840  1.8625 -3.4651  2.2012
 8903SOL     OW38341   1.859   3.301   5.216 -1.1262  0.1546 -0.0941
 8903SOL    HW138342   1.947   3.322   5.247 -0.0837 -0.4955 -2.5819
 8903SOL    HW238343   1.876   3.210   5.190 -1.2973  0.8752 -2.7690
 8904SOL     OW38344   1.354   2.252   7.348  0.6635  0.7684 -0.5539
 8904SOL    HW138345   1.288   2.247   7.417  0.4196  0.3541 -0.8184
 8904SOL    HW238346   1.432   2.227   7.398 -0.9106 -0.6105  1.1936
 8905SOL     OW38347   0.052   3.567   3.492  0.4825 -0.0602  0.0568
 8905SOL    HW138348   4.722   3.528   3.431  1.5404 -0.5598 -0.7200
 8905SOL    HW238349   0.004   3.558   3.575  0.8871  1.2261  0.4247
 8906SOL     OW38350   4.597   3.897   5.888  0.0494 -0.6094  0.0952
 8906SOL    HW138351   4.651   3.919   5.811  0.7012 -1.0728  0.4187
 8906SOL    HW238352   4.510   3.930   5.867  1.7940  3.6123 -0.3880
 8907SOL     OW38353   2.177   3.676   7.171  0.0447 -0.8777  0.0606
 8907SOL    HW138354   2.093   3.630   7.166 -0.2261 -0.3016 -0.8179
 8907SOL    HW238355   2.195   3.675   7.077  0.3282 -0.9940  0.1178
 8908SOL     OW38356   0.270   0.017   2.393  0.2776 -0.4410  0.1535
 8908SOL    HW138357   0.336   0.076   2.428 -0.8275  0.0377  1.4174
 8908SOL    HW238358   0.196   0.044   2.447 -0.1498  0.8128 -1.0721
 8909SOL     OW38359   0.606   3.532  10.690 -0.4398 -0.3411  0.1812
 8909SOL    HW138360   0.648   3.603  10.642 -1.0395  0.6769  1.1607
 8909SOL    HW238361   0.619   3.462  10.627 -0.6523  0.9326 -1.2732
 8910SOL     OW38362   4.529   1.427   6.106 -0.1132  1.1117 -0.0428
 8910SOL    HW138363   4.496   1.367   6.173  2.9454  2.2324  2.4355
 8910SOL    HW238364   4.573   1.490   6.162  0.5456 -1.1662  2.0153
 8911SOL     OW38365   4.316   1.686  10.065  0.0632  0.5492 -0.1901
 8911SOL    HW138366   4.320   1.698  10.160 -1.7600 -1.2066  0.1056
 8911SOL    HW238367   4.390   1.743  10.044  0.7195 -0.6042 -1.0116
 8912SOL     OW38368   0.957   1.982   8.726 -0.4125 -0.3657 -0.2867
 8912SOL    HW138369   0.966   2.018   8.637  3.9648 -1.2048 -0.2067
 8912SOL    HW238370   1.014   2.038   8.779  0.7408 -1.0796 -0.7803
 8913SOL     OW38371   1.684   4.446   3.030  0.2870  0.4553 -0.2967
 8913SOL    HW138372   1.715   4.402   2.951 -3.6501 -1.1711 -0.9482
 8913SOL    HW238373   1.630   4.384   3.080 -0.3810  1.9814  0.8643
 8914SOL     OW38374   2.304   0.387   3.010  0.1157  0.0134 -0.0261
 8914SOL    HW138375   2.257   0.433   3.079 -1.8923 -2.0843  0.0264
 8914SOL    HW238376   2.249   0.323   2.965  1.0320  0.4026 -1.7096
 8915SOL     OW38377   2.235   0.621   7.346  0.0197 -0.0580 -0.3140
 8915SOL    HW138378   2.213   0.580   7.262  4.2692 -1.5451 -0.7394
 8915SOL    HW238379   2.178   0.698   7.349 -2.4710 -1.9155  0.0581
 8916SOL     OW38380   0.479   0.143  17.105  0.4168 -0.7568  0.0082
 8916SOL    HW138381   0.438   0.128  17.190  3.1774  0.2216  1.5014
 8916SOL    HW238382   0.496   0.237  17.105 -0.9402 -0.5048  0.2531
 8917SOL     OW38383   0.126   2.188   2.484 -0.2385  0.6525  0.1385
 8917SOL    HW138384   0.203   2.182   2.541 -1.4072 -4.6360  1.1446
 8917SOL    HW238385   0.061   2.148   2.541  0.2376  1.1230  1.0222
 8918SOL     OW38386   2.961   0.609  15.425 -0.2622  0.2168  1.1276
 8918SOL    HW138387   3.049   0.628  15.457 -0.3372 -0.9061  2.0233
 8918SOL    HW238388   2.969   0.513  15.422 -1.0312  0.2039 -0.3154
 8919SOL     OW38389   3.836   4.466  10.517 -0.5314  0.0475 -0.5071
 8919SOL    HW138390   3.781   4.463  10.438 -0.5820 -2.0567 -0.4054
 8919SOL    HW238391   3.800   4.539  10.566  2.1919  1.4924 -0.7068
 8920SOL     OW38392   2.155   0.335  15.698  0.3544  0.2263  0.3551
 8920SOL    HW138393   2.177   0.342  15.605 -0.0780 -2.3448  0.0595
 8920SOL    HW238394   2.205   0.407  15.736 -1.4573  1.4814  0.3538
 8921SOL     OW38395   0.511   2.546   0.620  0.6643 -0.0237 -0.0041
 8921SOL    HW138396   0.593   2.579   0.656  0.2159  1.1533 -0.0453
 8921SOL    HW238397   0.499   2.467   0.673 -2.0158 -0.6799 -1.6143
 8922SOL     OW38398   1.545   0.959   5.047 -0.0539 -0.3957  0.4528
 8922SOL    HW138399   1.549   0.978   4.953 -0.9158 -1.2517  0.2423
 8922SOL    HW238400   1.507   1.035   5.093 -1.5755 -0.4507 -0.6856
 8923SOL     OW38401   3.072   0.488  17.336 -0.5661 -0.8275  0.2067
 8923SOL    HW138402   3.153   0.467  17.290 -0.8640 -0.9036 -0.2861
 8923SOL    HW238403   3.098   0.499  17.427  2.7274  1.6935 -1.0570
 8924SOL     OW38404   0.197   3.994   6.876  0.2109  0.0813 -0.1975
 8924SOL    HW138405   0.163   4.024   6.961 -1.0075  1.6785 -1.2292
 8924SOL    HW238406   0.150   4.031   6.801  0.9663 -0.6016 -0.9993
 8925SOL     OW38407   0.905   3.538   4.582 -0.1686 -0.6619 -0.2845
 8925SOL    HW138408   0.830   3.542   4.523  0.1514 -0.9201 -0.7161
 8925SOL    HW238409   0.906   3.625   4.622 -0.2408  0.1892 -2.1220
 8926SOL     OW38410   4.365   3.620   8.537 -0.1448 -0.3869 -0.0231
 8926SOL    HW138411   4.339   3.542   8.487  2.5708  1.6242 -4.5571
 8926SOL    HW238412   4.336   3.592   8.624  1.5439 -1.3023  0.2570
 8927SOL     OW38413   0.496   4.253   7.481 -0.4189 -0.0328  0.1181
 8927SOL    HW138414   0.530   4.217   7.399  0.2631  0.6813  0.0844
 8927SOL    HW238415   0.519   4.180   7.537  2.4111  0.0902 -0.8751
 8928SOL     OW38416   0.705   0.824   5.094  0.0538  0.9690 -0.4038
 8928SOL    HW138417   0.616   0.834   5.125 -0.2876 -2.5740 -0.2955
 8928SOL    HW238418   0.757   0.875   5.157  0.1976  3.6032 -2.5997
 8929SOL     OW38419   2.710   3.646   9.430 -0.3252  0.1916  0.4446
 8929SOL    HW138420   2.658   3.724   9.409 -1.0954 -0.3060  0.5395
 8929SOL    HW238421   2.799   3.682   9.429  1.1885 -3.6332 -1.7428
 8930SOL     OW38422   2.838   2.994   5.485 -0.1124 -0.3165  0.8412
 8930SOL    HW138423   2.859   2.947   5.404  0.7220  0.9083  0.3376
 8930SOL    HW238424   2.818   3.083   5.456  1.4894  0.4888  2.1845
 8931SOL     OW38425   2.119   2.289   8.641 -0.2571  0.4369  0.1799
 8931SOL    HW138426   2.071   2.364   8.675 -1.2293 -0.5946  1.0623
 8931SOL    HW238427   2.195   2.283   8.699 -1.0380 -0.1022  1.1379
 8932SOL     OW38428   4.654   1.936  12.159  0.5938 -0.0108  0.2758
 8932SOL    HW138429   4.604   1.998  12.105 -2.5166 -1.7921  1.0653
 8932SOL    HW238430   4.606   1.943  12.241 -2.0760  0.2750 -1.2863
 8933SOL     OW38431   0.143   3.981   5.067  0.3887 -0.2679  0.4765
 8933SOL    HW138432   0.058   3.964   5.106 -0.1834  1.1765 -0.1500
 8933SOL    HW238433   0.118   3.990   4.975 -0.6871  2.1054  1.0035
 8934SOL     OW38434   4.204   1.445   7.188  0.1242 -0.5801  0.0546
 8934SOL    HW138435   4.145   1.505   7.142  3.1365  1.2364 -1.4735
 8934SOL    HW238436   4.203   1.368   7.131 -0.1201 -1.3595  1.0982
 8935SOL     OW38437   3.251   2.042   8.402 -0.1114  0.2322 -0.4368
 8935SOL    HW138438   3.217   2.058   8.314  0.1018 -1.7729 -0.8736
 8935SOL    HW238439   3.166   2.035   8.446  0.4360 -0.0019  0.5841
 8936SOL     OW38440   4.304   4.227  11.188 -0.4992  0.1673  0.1940
 8936SOL    HW138441   4.217   4.226  11.148 -1.0614 -3.1205  1.5224
 8936SOL    HW238442   4.304   4.161  11.257  2.1253 -0.9160 -0.8319
 8937SOL     OW38443   1.053   2.272   1.835  0.2703  0.1157 -0.2250
 8937SOL    HW138444   1.047   2.285   1.741 -0.3314  0.9482 -0.0739
 8937SOL    HW238445   0.971   2.225   1.851  0.1260  0.0207 -1.2938
 8938SOL     OW38446   3.627   0.793  12.177 -0.0322 -0.1771  0.2484
 8938SOL    HW138447   3.689   0.773  12.247 -1.1340 -1.1537  0.9449
 8938SOL    HW238448   3.545   0.815  12.222  0.0992 -1.5544  1.1780
 8939SOL     OW38449   0.117   1.343   7.687 -0.3137 -0.4425  0.0345
 8939SOL    HW138450   0.052   1.407   7.716 -0.3583 -0.9568  1.0927
 8939SOL    HW238451   0.128   1.288   7.765  3.5442  0.7059  0.3027
 8940SOL     OW38452   4.204   0.533   6.954  0.2242 -0.0921  0.6965
 8940SOL    HW138453   4.217   0.565   6.865 -0.3530 -0.2038  0.5704
 8940SOL    HW238454   4.211   0.612   7.007 -0.4648 -0.2575  1.0380
 8941SOL     OW38455   3.112   3.046  16.643  0.1200 -0.3100 -0.2676
 8941SOL    HW138456   3.195   3.086  16.618 -1.9811  4.6872  0.8246
 8941SOL    HW238457   3.134   2.984  16.713  2.1342 -0.7739 -1.2982
 8942SOL     OW38458   4.637   3.753   5.533  0.2373  0.4734 -0.3689
 8942SOL    HW138459   4.648   3.686   5.465  0.6765 -0.9505  1.1034
 8942SOL    HW238460   4.575   3.810   5.488 -1.5158 -0.7552  0.4856
 8943SOL     OW38461   2.438   2.033   8.102 -0.1796  0.3760 -0.0281
 8943SOL    HW138462   2.456   2.088   8.025  0.4315  0.1250 -0.0696
 8943SOL    HW238463   2.422   2.108   8.160 -2.0954 -1.1202  1.3617
 8944SOL     OW38464   0.123   2.026   1.962  0.7486  0.4034 -0.0170
 8944SOL    HW138465   0.043   2.020   2.015  0.6169  1.5232 -0.0762
 8944SOL    HW238466   0.162   2.100   2.009 -0.6483 -0.4751  2.5301
 8945SOL     OW38467   1.568   1.700   3.724  0.0428  0.0709  0.0004
 8945SOL    HW138468   1.620   1.750   3.787 -0.8676 -0.7157  1.3765
 8945SOL    HW238469   1.629   1.633   3.694 -0.7194 -0.8194  0.4316
 8946SOL     OW38470   2.653   1.330   6.689 -0.4013 -0.1413  0.1568
 8946SOL    HW138471   2.634   1.386   6.764 -0.3704  0.1639 -0.0669
 8946SOL    HW238472   2.597   1.361   6.619 -1.7548  1.4829  1.9578
 8947SOL     OW38473   3.279   1.480   1.928  0.5689  0.2237  0.1818
 8947SOL    HW138474   3.266   1.385   1.928 -0.2325  0.3372 -1.4122
 8947SOL    HW238475   3.309   1.483   2.019  2.6820 -1.3766 -0.4650
 8948SOL     OW38476   0.725   3.914   3.368 -0.2710 -0.0150 -0.2155
 8948SOL    HW138477   0.739   3.820   3.384  1.8900  0.2055 -0.8773
 8948SOL    HW238478   0.702   3.940   3.457 -0.9280 -0.5089 -0.2345
 8949SOL     OW38479   0.919   1.495  15.849 -0.2683  0.2989 -0.0153
 8949SOL    HW138480   0.987   1.538  15.901  0.8679 -0.9092 -0.4911
 8949SOL    HW238481   0.943   1.501  15.757 -1.9045  1.7843 -0.3422
 8950SOL     OW38482   3.735   2.443   5.986 -0.0697 -0.3768  0.0294
 8950SOL    HW138483   3.794   2.390   6.039  1.4321 -0.4657 -1.7525
 8950SOL    HW238484   3.650   2.416   6.023 -0.9904 -0.6531 -2.2812
 8951SOL     OW38485   2.470   3.055   7.229  0.5052  0.0575  0.7313
 8951SOL    HW138486   2.563   3.075   7.242  0.4614  0.8307 -0.1204
 8951SOL    HW238487   2.475   2.989   7.161  2.3155  2.6581 -1.6501
 8952SOL     OW38488   1.958   3.293  16.226  0.2035  0.4359  0.2298
 8952SOL    HW138489   1.958   3.370  16.168 -0.2390  1.9917  2.3078
 8952SOL    HW238490   1.973   3.220  16.166 -0.1575 -1.1074  2.0513
 8953SOL     OW38491   3.476   2.810   4.147 -0.4577  0.4622  0.1116
 8953SOL    HW138492   3.497   2.770   4.062 -3.8519 -3.8401  1.2930
 8953SOL    HW238493   3.447   2.899   4.129 -2.9177 -0.2370  0.6065
 8954SOL     OW38494   4.434   3.092   8.306 -0.4110  0.1901  0.2404
 8954SOL    HW138495   4.420   3.092   8.211 -1.5674 -0.3996  0.4039
 8954SOL    HW238496   4.395   3.009   8.336  1.5872 -0.9818 -0.4062
 8955SOL     OW38497   4.351   2.309   6.080  0.1105 -0.5255 -0.4868
 8955SOL    HW138498   4.262   2.283   6.107 -0.2601  1.1054 -0.1464
 8955SOL    HW238499   4.324   2.382   6.024 -2.5834 -2.5570 -1.8660
 8956SOL     OW38500   3.578   1.283   6.140  0.9026 -0.0654  0.4666
 8956SOL    HW138501   3.582   1.201   6.189 -0.6278  0.7597  1.9775
 8956SOL    HW238502   3.483   1.296   6.144  0.8253 -0.3880 -0.3140
 8957SOL     OW38503   3.188   4.621   7.471 -0.0517 -0.1129 -0.5845
 8957SOL    HW138504   3.266   4.637   7.525 -0.1810 -0.3841 -0.3187
 8957SOL    HW238505   3.195   4.528   7.449  0.1483 -0.6038  1.5256
 8958SOL     OW38506   1.200   4.558   2.873  0.4220  0.2103 -0.3544
 8958SOL    HW138507   1.175   4.650   2.869  0.6788  0.1997 -2.3853
 8958SOL    HW238508   1.234   4.550   2.962  0.8965  3.3963 -0.2608
 8959SOL     OW38509   3.525   0.448   5.645 -0.2180  0.2631 -0.6122
 8959SOL    HW138510   3.465   0.373   5.647 -0.1211  0.2615  1.7061
 8959SOL    HW238511   3.600   0.409   5.690 -0.7344 -1.7097 -1.4746
 8960SOL     OW38512   4.309   4.500   0.572 -0.5942 -0.0402  0.0941
 8960SOL    HW138513   4.299   4.451   0.490 -0.3571 -1.0968  0.7069
 8960SOL    HW238514   4.248   4.451   0.627 -1.3291 -0.9007 -1.4829
 8961SOL     OW38515   1.603   2.944   2.967  0.1585 -0.5059 -0.1791
 8961SOL    HW138516   1.637   2.874   3.023  2.5207 -1.8541 -3.3589
 8961SOL    HW238517   1.620   2.908   2.881 -1.2271 -1.2273 -0.1424
 8962SOL     OW38518   1.101   4.511   0.006 -0.5583  0.4710 -0.2566
 8962SOL    HW138519   1.037   4.510   0.078 -0.4441  0.6728 -0.1529
 8962SOL    HW238520   1.179   4.498   0.059  0.1265 -0.0533 -1.3961
 8963SOL     OW38521   0.622   1.500  11.736 -0.1421  0.1798 -0.3161
 8963SOL    HW138522   0.708   1.510  11.695 -1.4257  0.3349 -2.9906
 8963SOL    HW238523   0.641   1.420  11.785  0.2938  0.5756  0.1629
 8964SOL     OW38524   2.632   2.628   0.628 -0.2193  0.0389  0.0489
 8964SOL    HW138525   2.594   2.716   0.634 -0.9883 -0.2183 -0.9818
 8964SOL    HW238526   2.634   2.606   0.721 -2.1205 -0.3953 -0.0033
 8965SOL     OW38527   1.546   2.802   4.782  0.3529  0.0391 -0.4159
 8965SOL    HW138528   1.539   2.729   4.843  0.9314  0.5533  0.2824
 8965SOL    HW238529   1.585   2.755   4.709 -1.8106 -2.5808  0.1070
 8966SOL     OW38530   3.555   1.114   1.746  0.1116 -0.5650  0.1332
 8966SOL    HW138531   3.466   1.093   1.717  0.8615 -0.4695 -2.3005
 8966SOL    HW238532   3.580   1.166   1.670  1.6062  1.6632  2.1722
 8967SOL     OW38533   0.160   0.041  16.423 -0.1312  0.3750  0.2167
 8967SOL    HW138534   0.093   0.078  16.481  0.1451  0.0197  0.7538
 8967SOL    HW238535   0.206   4.715  16.482  0.5100  1.2535  0.5788
 8968SOL     OW38536   4.166   0.167   9.627  0.6256 -0.7955 -0.7193
 8968SOL    HW138537   4.099   0.100   9.624 -0.2526  0.0977 -1.2538
 8968SOL    HW238538   4.244   0.112   9.629  1.5228  0.5185  0.4389
 8969SOL     OW38539   3.972   0.343  14.205  0.2631  0.1274  0.1572
 8969SOL    HW138540   3.938   0.388  14.283 -1.4515 -0.4110 -0.2762
 8969SOL    HW238541   3.905   0.275  14.202  0.2228  0.0514  2.6422
 8970SOL     OW38542   3.784   2.642   9.174  0.8350  0.1714  0.6915
 8970SOL    HW138543   3.863   2.604   9.212 -0.1259 -0.8130  1.6869
 8970SOL    HW238544   3.786   2.606   9.086  0.7696  3.6730 -0.7549
 8971SOL     OW38545   1.528   4.643  12.266 -0.2894 -0.1326  0.0320
 8971SOL    HW138546   1.438   4.622  12.292 -0.8392 -0.3225 -2.0801
 8971SOL    HW238547   1.573   4.644  12.350  2.7202 -0.1603 -1.6056
 8972SOL     OW38548   0.347   4.367   4.785  0.1485  0.2507 -0.0569
 8972SOL    HW138549   0.351   4.388   4.878 -3.2125  1.8163 -0.2733
 8972SOL    HW238550   0.426   4.313   4.777 -0.1679 -0.0408 -1.2686
 8973SOL     OW38551   3.776   1.307  17.118 -0.2635  0.1857  0.3683
 8973SOL    HW138552   3.685   1.333  17.104 -0.0536  1.2985  1.0823
 8973SOL    HW238553   3.770   1.219  17.079  0.8597  0.4484 -0.3881
 8974SOL     OW38554   0.561   4.564   5.387 -0.2011  0.3086  0.0255
 8974SOL    HW138555   0.619   4.638   5.406  0.6907 -0.6855  1.1878
 8974SOL    HW238556   0.479   4.609   5.366 -0.2980  0.4531  0.6984
 8975SOL     OW38557   1.201   4.475   4.439 -0.8036 -0.1268  0.1325
 8975SOL    HW138558   1.293   4.455   4.459 -0.0791  2.8063 -0.3199
 8975SOL    HW238559   1.158   4.514   4.515  0.7610 -1.0077  1.4819
 8976SOL     OW38560   1.796   1.666   7.781  0.5854 -0.0641 -0.0112
 8976SOL    HW138561   1.741   1.718   7.722 -0.4437  0.6082  1.5289
 8976SOL    HW238562   1.806   1.731   7.851 -0.8410 -0.4755  0.5627
 8977SOL     OW38563   1.333   4.316  10.035 -0.3650  0.2372  0.2952
 8977SOL    HW138564   1.348   4.411  10.041  0.8478  0.1735 -1.7403
 8977SOL    HW238565   1.420   4.280  10.018 -0.1518  0.4962  0.8221
 8978SOL     OW38566   4.053   3.919   5.132 -0.2682  0.3720 -0.1581
 8978SOL    HW138567   4.050   4.010   5.104  1.1691  1.2803  2.6765
 8978SOL    HW238568   4.082   3.921   5.223 -0.9833 -0.8041  0.1007
 8979SOL     OW38569   4.635   2.272  12.822 -0.0714 -0.6268  0.8982
 8979SOL    HW138570   4.716   2.298  12.778  0.4999 -1.8159  1.2420
 8979SOL    HW238571   4.568   2.329  12.785  1.2698 -0.4320 -1.2433
 8980SOL     OW38572   3.088   4.577   7.989  0.6335  0.4501 -0.0995
 8980SOL    HW138573   3.099   4.670   8.009  1.3199  0.0601  1.3597
 8980SOL    HW238574   2.995   4.567   7.968  1.3332 -3.0805 -1.6068
 8981SOL     OW38575   2.234   2.940   7.717 -0.2267 -0.2660  0.3137
 8981SOL    HW138576   2.179   2.864   7.700 -1.3799  0.2115  1.9209
 8981SOL    HW238577   2.207   2.999   7.647 -0.4200  1.4687  1.8586
 8982SOL     OW38578   4.306   3.055   2.734  0.0470 -0.0479 -0.6599
 8982SOL    HW138579   4.271   2.970   2.706  1.6287 -0.6933 -0.6395
 8982SOL    HW238580   4.401   3.049   2.729  0.2048  0.2083  2.2449
 8983SOL     OW38581   1.515   0.145   7.105 -0.0579  0.2515 -0.0262
 8983SOL    HW138582   1.515   0.193   7.022  0.0386 -0.5811 -0.5163
 8983SOL    HW238583   1.536   0.213   7.168 -2.0921  1.1223 -0.2905
 8984SOL     OW38584   0.511   3.675   3.264  0.2886  0.2663 -0.5298
 8984SOL    HW138585   0.559   3.678   3.347 -1.7735  1.4614  0.6263
 8984SOL    HW238586   0.438   3.615   3.280 -0.2259  1.1554  0.5419
 8985SOL     OW38587   3.978   3.769   8.344  0.8659 -0.0515 -0.1931
 8985SOL    HW138588   3.977   3.777   8.439 -0.3149 -0.5635 -0.1598
 8985SOL    HW238589   3.914   3.698   8.340  2.1602 -1.1230 -1.7824
 8986SOL     OW38590   0.102   2.857   9.871  0.4321 -0.1618  0.0585
 8986SOL    HW138591   0.136   2.775   9.907 -2.9430 -2.0245 -1.0234
 8986SOL    HW238592   0.052   2.825   9.796 -1.7148  1.9119  0.6446
 8987SOL     OW38593   3.608   2.497   7.699 -0.3380  0.0730  0.2435
 8987SOL    HW138594   3.694   2.493   7.657 -0.5914  0.6172 -0.3196
 8987SOL    HW238595   3.570   2.414   7.671 -1.0872  1.3637 -2.5858
 8988SOL     OW38596   2.691   4.496   9.275  0.3878 -0.3130 -0.0843
 8988SOL    HW138597   2.741   4.423   9.310 -1.1731 -2.0590 -1.4965
 8988SOL    HW238598   2.698   4.476   9.181 -1.3975  5.6196 -1.5126
 8989SOL     OW38599   1.688   3.797   0.485  0.2680 -0.0517  0.5233
 8989SOL    HW138600   1.620   3.864   0.485 -0.5796 -0.9085  0.4639
 8989SOL    HW238601   1.728   3.822   0.402  0.6086  1.6934  1.2235
 8990SOL     OW38602   0.060   3.414   9.798 -0.5559  0.4232 -0.0085
 8990SOL    HW138603   0.055   3.496   9.749  1.3529  1.6242  1.8113
 8990SOL    HW238604   0.036   3.451   9.883 -1.8198 -0.0023 -0.1827
 8991SOL     OW38605   3.892   0.348   4.477 -0.1624 -0.1563  0.0882
 8991SOL    HW138606   3.833   0.283   4.440  1.2119 -0.9715 -0.6670
 8991SOL    HW238607   3.838   0.427   4.476 -1.4556 -1.0371  0.0895
 8992SOL     OW38608   4.357   3.047  11.785 -0.3832 -0.0746  0.4631
 8992SOL    HW138609   4.394   2.989  11.852 -0.0866 -1.4041 -0.8712
 8992SOL    HW238610   4.429   3.106  11.761 -0.1682 -0.8442 -0.7733
 8993SOL     OW38611   0.435   3.027   5.941  0.3345  0.6190 -0.0271
 8993SOL    HW138612   0.481   3.077   5.874  0.6004 -0.6190 -0.7649
 8993SOL    HW238613   0.346   3.034   5.906 -0.1921 -0.7767  1.0411
 8994SOL     OW38614   3.080   4.357  12.239  0.1346 -0.0451  0.0702
 8994SOL    HW138615   2.997   4.345  12.194  0.0145 -0.1510  0.3203
 8994SOL    HW238616   3.044   4.361  12.328  0.9029 -2.0580  0.4729
 8995SOL     OW38617   2.702   1.757   2.485  0.0960 -0.1783 -0.2296
 8995SOL    HW138618   2.760   1.695   2.442 -0.3731 -0.8590  0.1136
 8995SOL    HW238619   2.665   1.698   2.551 -0.6218  0.9844  0.4018
 8996SOL     OW38620   0.326   2.486   3.131  0.6671 -0.3829 -0.5826
 8996SOL    HW138621   0.297   2.395   3.137  0.6762 -0.1942  2.1339
 8996SOL    HW238622   0.318   2.502   3.225 -0.1822 -2.4413 -0.3032
 8997SOL     OW38623   1.224   0.258   7.610 -0.2645 -0.1387  0.3086
 8997SOL    HW138624   1.274   0.195   7.662 -1.2303 -1.4066 -0.3131
 8997SOL    HW238625   1.212   0.210   7.529  2.8833 -0.6767  0.1453
 8998SOL     OW38626   0.745   3.989  16.784  0.1563  0.6845 -0.0227
 8998SOL    HW138627   0.773   3.993  16.875  2.3134 -1.9695 -0.5806
 8998SOL    HW238628   0.779   3.901  16.768 -1.9319 -0.2401  0.6579
 8999SOL     OW38629   2.637   2.921   7.487 -0.6055  0.6204  0.1746
 8999SOL    HW138630   2.655   2.851   7.425 -2.5426 -0.8946  1.3445
 8999SOL    HW238631   2.729   2.941   7.505 -1.1050  2.4584  0.7106
 9000SOL     OW38632   2.572   2.117   9.087  0.6794  0.3715 -0.4191
 9000SOL    HW138633   2.531   2.147   9.168 -1.5008  0.3691 -1.5105
 9000SOL    HW238634   2.660   2.103   9.120 -0.9290 -0.4230  3.5360
 9001SOL     OW38635   3.034   2.189   4.248 -0.0518 -0.0658 -0.0622
 9001SOL    HW138636   3.012   2.267   4.198 -2.3274  0.3509  1.5774
 9001SOL    HW238637   2.955   2.135   4.258 -0.4779  0.2848 -1.5416
 9002SOL     OW38638   0.991   4.093   7.920 -0.0060 -0.1894 -0.3596
 9002SOL    HW138639   1.015   4.003   7.942  1.4513  0.6106  1.3550
 9002SOL    HW238640   1.048   4.157   7.963  1.2236 -0.3067 -1.7811
 9003SOL     OW38641   4.404   0.163   5.292  0.1255 -0.0509  0.5594
 9003SOL    HW138642   4.355   0.245   5.282 -0.5748 -0.5319  0.0183
 9003SOL    HW238643   4.373   0.114   5.216  1.1553  1.5418 -0.9118
 9004SOL     OW38644   3.071   3.521  17.439  0.0496  0.1600  0.7488
 9004SOL    HW138645   3.002   3.580  17.470  1.1753  2.4148 -1.0612
 9004SOL    HW238646   3.080   3.563  17.353  3.2877  1.1749  1.5793
 9005SOL     OW38647   1.386   3.910  16.503 -1.0707 -0.3761  0.3227
 9005SOL    HW138648   1.414   4.001  16.516  1.4937 -0.7450 -2.8168
 9005SOL    HW238649   1.337   3.918  16.421  0.2448  0.4852 -0.3672
 9006SOL     OW38650   3.418   4.515  12.552 -0.7358  0.3888  0.1901
 9006SOL    HW138651   3.499   4.478  12.515 -0.9116 -0.8748  1.0701
 9006SOL    HW238652   3.403   4.582  12.486  2.5049  1.5322  0.6381
 9007SOL     OW38653   0.003   2.630  10.182  0.5436  0.0324 -0.1634
 9007SOL    HW138654   0.007   2.669  10.269  0.8261 -1.2388  0.3995
 9007SOL    HW238655   0.099   2.632  10.186  0.3865  1.9658  2.6548
 9008SOL     OW38656   3.934   4.279   2.442 -0.2083  0.1542  0.0580
 9008SOL    HW138657   3.933   4.342   2.370 -0.0778 -2.1551 -1.9914
 9008SOL    HW238658   3.990   4.206   2.414  1.9171  0.9566  2.1905
 9009SOL     OW38659   0.642   3.792  14.279 -0.0726  0.1903  0.0385
 9009SOL    HW138660   0.600   3.716  14.321 -2.0898  1.9598  1.2213
 9009SOL    HW238661   0.701   3.754  14.214  2.0154  1.6286  1.1024
 9010SOL     OW38662   2.915   2.151  15.543  0.0790  0.5326  0.0343
 9010SOL    HW138663   2.944   2.140  15.634  1.1392  1.5869 -0.1665
 9010SOL    HW238664   2.939   2.069  15.500 -0.1211  0.4782  0.0286
 9011SOL     OW38665   4.446   1.354   4.296 -0.0356 -0.1757 -0.0005
 9011SOL    HW138666   4.442   1.262   4.321 -1.0062  0.2041  1.2343
 9011SOL    HW238667   4.434   1.394   4.382  1.0947  1.0552 -0.4136
 9012SOL     OW38668   4.121   4.647   6.021 -0.0056 -0.2565 -0.3238
 9012SOL    HW138669   4.126   4.724   6.078  1.4576 -0.2166 -0.5090
 9012SOL    HW238670   4.029   4.623   6.033 -0.4766  1.5870 -0.3021
 9013SOL     OW38671   0.033   4.492   1.347 -0.3242  0.2253 -0.7342
 9013SOL    HW138672   0.118   4.459   1.377 -0.2783  0.7395 -0.3025
 9013SOL    HW238673   4.712   4.494   1.427 -2.0371  0.5690 -1.8890
 9014SOL     OW38674   3.607   1.090   7.084 -0.0152 -0.8718 -0.0523
 9014SOL    HW138675   3.555   1.050   7.014  0.3134 -1.6338  0.1482
 9014SOL    HW238676   3.620   1.009   7.133  1.2298 -2.4817 -3.0356
 9015SOL     OW38677   4.708   3.855   7.195 -0.5672  0.4276 -0.2234
 9015SOL    HW138678   4.724   3.949   7.193  2.4004 -0.0622  0.3255
 9015SOL    HW238679   0.054   3.825   7.148  0.2146  1.9954  0.0990
 9016SOL     OW38680   4.547   2.005   2.937 -0.2835  0.4363 -0.0239
 9016SOL    HW138681   4.564   1.936   2.873  0.1885 -0.0044  0.5812
 9016SOL    HW238682   4.471   2.044   2.894 -0.7131  3.0148  3.0962
 9017SOL     OW38683   3.078   3.267  14.989 -0.0159  0.6279 -0.1520
 9017SOL    HW138684   3.080   3.196  15.054  0.8520  1.2507  0.4921
 9017SOL    HW238685   3.167   3.271  14.954 -0.0537 -0.7094 -0.4258
 9018SOL     OW38686   0.760   0.146   2.324 -0.2422 -0.5894 -0.3293
 9018SOL    HW138687   0.847   0.106   2.323 -1.0579 -2.4229  0.5277
 9018SOL    HW238688   0.775   0.207   2.396 -1.6423 -1.9944  1.1528
 9019SOL     OW38689   1.795   1.207   0.048 -0.0268 -0.3644  0.1227
 9019SOL    HW138690   1.765   1.288   0.007 -1.1199 -0.0417  1.5547
 9019SOL    HW238691   1.772   1.138  17.716  0.5744 -0.3406 -0.1268
 9020SOL     OW38692   2.612   2.698   3.096 -0.4211 -0.6013  0.1019
 9020SOL    HW138693   2.629   2.612   3.133  0.6997 -0.1759  0.5528
 9020SOL    HW238694   2.699   2.736   3.103  0.0513 -1.1595 -2.9569
 9021SOL     OW38695   3.702   2.767   2.607 -0.1022  0.6737 -0.8974
 9021SOL    HW138696   3.655   2.724   2.536 -0.2239 -0.6425 -0.0231
 9021SOL    HW238697   3.759   2.694   2.633  0.8317  0.6902 -2.9184
 9022SOL     OW38698   2.829   1.220   5.214 -0.3101 -0.1391 -0.7032
 9022SOL    HW138699   2.739   1.249   5.197 -0.5283 -0.5629 -0.2599
 9022SOL    HW238700   2.845   1.154   5.147 -1.8753  0.0726 -1.2793
 9023SOL     OW38701   1.016   3.960   3.723 -0.4685 -0.7749 -0.1712
 9023SOL    HW138702   1.017   3.912   3.640  1.1841  0.2234 -0.7369
 9023SOL    HW238703   1.069   3.902   3.779  0.4658  0.9956  0.7640
 9024SOL     OW38704   0.295   2.983   7.994 -0.4190  0.0042 -1.0067
 9024SOL    HW138705   0.270   2.928   7.920  0.6514 -0.6395 -0.8924
 9024SOL    HW238706   0.338   3.051   7.942 -0.6559  1.3253  0.5193
 9025SOL     OW38707   3.711   4.283   2.822 -0.3144  0.3086  0.2353
 9025SOL    HW138708   3.760   4.226   2.762  0.1446  0.1380  0.7717
 9025SOL    HW238709   3.774   4.354   2.835  0.5978 -0.2644 -0.9670
 9026SOL     OW38710   3.663   2.636   8.638 -0.0869 -0.0283 -0.4952
 9026SOL    HW138711   3.596   2.681   8.586  0.1649  1.3190  0.3243
 9026SOL    HW238712   3.673   2.556   8.588  2.8473 -1.1533  1.9312
 9027SOL     OW38713   4.575   3.996   8.269  0.5114  0.3685 -0.3291
 9027SOL    HW138714   4.548   4.017   8.179 -1.9348  2.5272  0.9044
 9027SOL    HW238715   4.561   3.902   8.278  1.1150  0.5169  2.0570
 9028SOL     OW38716   1.494   4.549   6.849  0.1406 -0.2079  0.1058
 9028SOL    HW138717   1.552   4.579   6.919  0.8471 -0.4305 -0.3796
 9028SOL    HW238718   1.526   4.459   6.838 -1.0467 -0.3336 -2.2338
 9029SOL     OW38719   1.980   4.537   6.965  0.0429  0.5773 -0.0275
 9029SOL    HW138720   2.068   4.530   7.001  1.2219  0.8460 -2.8332
 9029SOL    HW238721   1.931   4.536   7.047 -2.3575  1.3578 -1.4462
 9030SOL     OW38722   2.540   4.701  16.705  0.9519 -0.2564 -0.3348
 9030SOL    HW138723   2.537   4.726  16.797 -0.1408 -1.6142  0.0062
 9030SOL    HW238724   2.445   4.688  16.703  1.3297 -3.3251  1.0558
 9031SOL     OW38725   2.365   1.917   0.383 -0.3597 -0.5793 -0.1257
 9031SOL    HW138726   2.308   1.928   0.307  0.7443 -2.6046 -1.2464
 9031SOL    HW238727   2.418   1.841   0.360 -0.9662 -1.6129  1.9166
 9032SOL     OW38728   2.875   3.328   9.298 -0.5389 -0.2141  0.4015
 9032SOL    HW138729   2.880   3.415   9.339  4.0119 -0.9090  1.2451
 9032SOL    HW238730   2.839   3.354   9.213 -0.0191  1.1180  0.5779
 9033SOL     OW38731   2.288   3.929   2.398 -0.7342 -0.0124  0.0893
 9033SOL    HW138732   2.228   3.894   2.464 -1.3665  0.7288 -0.0904
 9033SOL    HW238733   2.273   4.024   2.401 -0.2080  0.0484  1.0069
 9034SOL     OW38734   2.834   1.929   3.016  0.0020  0.1282  0.1760
 9034SOL    HW138735   2.794   1.907   3.100  2.1831  1.6342  1.5800
 9034SOL    HW238736   2.825   1.848   2.965 -1.4596  0.6366 -0.3704
 9035SOL     OW38737   1.476   1.064   6.790  0.1087  0.1789 -0.1825
 9035SOL    HW138738   1.463   1.139   6.848 -2.0230  0.1833 -0.6787
 9035SOL    HW238739   1.387   1.052   6.757  0.2091 -0.0148 -0.3762
 9036SOL     OW38740   4.397   0.768   2.993  0.2684 -0.3979  0.2959
 9036SOL    HW138741   4.349   0.839   2.952  1.7885 -2.1165 -4.4475
 9036SOL    HW238742   4.400   0.796   3.085  2.2063  0.1690  0.0452
 9037SOL     OW38743   1.213   3.070   6.695 -0.1088 -0.0259 -0.4613
 9037SOL    HW138744   1.271   3.125   6.747 -1.2397 -1.0591  1.8885
 9037SOL    HW238745   1.269   3.028   6.630 -1.3715 -1.6509 -0.5008
 9038SOL     OW38746   2.055   3.923   2.912  0.3071  0.1037  0.2968
 9038SOL    HW138747   2.048   3.851   2.850  4.3744 -1.2859  1.4328
 9038SOL    HW238748   2.000   3.903   2.988 -1.3970  1.0437 -0.6826
 9039SOL     OW38749   2.372   2.042  14.249  0.5224 -0.4884  0.5285
 9039SOL    HW138750   2.294   2.062  14.301  0.5993 -1.9881  1.2365
 9039SOL    HW238751   2.430   2.112  14.277  2.9869 -1.6447 -1.7622
 9040SOL     OW38752   0.625   3.106  13.264  0.2051  0.5402 -0.3367
 9040SOL    HW138753   0.696   3.140  13.320 -0.4114  0.9116  0.2200
 9040SOL    HW238754   0.629   3.140  13.175 -2.0284 -0.2755 -0.7360
 9041SOL     OW38755   1.502   2.867   2.683  0.2302 -0.5597  0.0387
 9041SOL    HW138756   1.442   2.825   2.745 -1.6021  1.3466 -0.4703
 9041SOL    HW238757   1.510   2.815   2.603 -0.6641 -1.6456  0.6523
 9042SOL     OW38758   3.076   3.445   3.081 -0.1986  0.5433  0.5276
 9042SOL    HW138759   3.101   3.445   3.173  0.5971  1.3719  0.3193
 9042SOL    HW238760   3.008   3.382   3.058 -2.2760  2.5572  1.1676
 9043SOL     OW38761   4.107   0.606   9.919  0.6459 -0.5605 -0.7647
 9043SOL    HW138762   4.178   0.583   9.859  0.8883 -1.7485 -0.0290
 9043SOL    HW238763   4.063   0.521   9.928  0.1820 -0.3680 -1.1988
 9044SOL     OW38764   0.964   1.759   4.200 -0.2268  0.2140  0.2664
 9044SOL    HW138765   0.900   1.700   4.240 -1.9360  1.6364 -0.4188
 9044SOL    HW238766   0.990   1.809   4.278  1.1156  1.8217 -1.2157
 9045SOL     OW38767   1.145   0.894   4.195 -0.4024 -0.1250 -0.3619
 9045SOL    HW138768   1.130   0.819   4.138 -1.8526 -0.0534 -0.0800
 9045SOL    HW238769   1.209   0.946   4.148 -2.0512  1.4143 -0.9051
 9046SOL     OW38770   2.087   3.650   6.134 -0.0427 -0.3186 -0.3229
 9046SOL    HW138771   2.142   3.654   6.056  1.6302 -0.5842  0.8505
 9046SOL    HW238772   2.149   3.652   6.207 -1.0880  0.4977  0.5374
 9047SOL     OW38773   3.601   0.967   2.296  1.2948 -0.2423 -0.1084
 9047SOL    HW138774   3.583   0.963   2.390  0.5796  3.1637 -0.0789
 9047SOL    HW238775   3.522   0.993   2.248  0.8609 -1.7953 -0.2346
 9048SOL     OW38776   1.449   4.492   2.358 -0.0260  0.8763 -0.2512
 9048SOL    HW138777   1.393   4.510   2.433 -0.0829 -0.8690  0.1175
 9048SOL    HW238778   1.417   4.407   2.328  2.5782 -0.6736  1.4087
 9049SOL     OW38779   0.429   3.524   6.593  0.4852  0.0016 -0.3322
 9049SOL    HW138780   0.405   3.603   6.640  1.0645 -0.9389  1.5558
 9049SOL    HW238781   0.441   3.465   6.667  0.7986 -0.8806 -1.0759
 9050SOL     OW38782   0.846   3.987   2.733 -0.5015  0.0224  0.2503
 9050SOL    HW138783   0.910   4.003   2.803 -1.6423 -0.7039  1.4418
 9050SOL    HW238784   0.909   3.963   2.665 -1.5843 -0.2077 -0.6734
 9051SOL     OW38785   3.937   0.959   6.921 -0.3621  0.7402 -0.1239
 9051SOL    HW138786   3.894   0.887   6.875  0.6554  1.0476 -1.5600
 9051SOL    HW238787   4.005   0.980   6.857  0.0232 -1.9498 -0.6038
 9052SOL     OW38788   3.216   1.028   8.031 -0.5919 -0.3509 -0.5752
 9052SOL    HW138789   3.201   0.951   8.087  1.9135  0.6496  1.4933
 9052SOL    HW238790   3.301   1.010   7.991  0.0920 -0.2001  0.8106
 9053SOL     OW38791   1.331   3.487   1.424  0.0732 -0.1780  0.3419
 9053SOL    HW138792   1.326   3.566   1.371  0.6480  0.5216  1.3340
 9053SOL    HW238793   1.424   3.485   1.445  0.3150 -4.3713 -1.0173
 9054SOL     OW38794   3.181   3.774   7.227  0.4066  0.2234  1.1277
 9054SOL    HW138795   3.191   3.689   7.185 -0.6178  1.4531 -1.6014
 9054SOL    HW238796   3.274   3.789   7.243  1.0809 -1.5835 -1.0285
 9055SOL     OW38797   1.850   0.725   3.794 -0.5446 -0.2716 -0.0879
 9055SOL    HW138798   1.932   0.743   3.839 -1.4143  1.8731  0.6894
 9055SOL    HW238799   1.881   0.719   3.704 -1.2380  0.4153 -0.3778
 9056SOL     OW38800   3.428   3.520   8.774  0.2382 -0.0535 -1.0314
 9056SOL    HW138801   3.394   3.542   8.687 -1.5864 -0.4357 -0.4201
 9056SOL    HW238802   3.385   3.436   8.789 -1.3993  0.9879  0.0683
 9057SOL     OW38803   2.875   4.503  11.967  0.7867  0.3707  0.1235
 9057SOL    HW138804   2.840   4.436  12.025  1.5908 -0.1462  0.0223
 9057SOL    HW238805   2.827   4.496  11.884  1.6205 -0.3034 -0.3054
 9058SOL     OW38806   0.929   3.355  17.634 -0.1489 -0.2979  0.0335
 9058SOL    HW138807   0.850   3.334  17.684  0.1947  0.6676  1.0014
 9058SOL    HW238808   0.920   3.297  17.559  2.3643 -2.4229  1.3667
 9059SOL     OW38809   0.014   1.253   7.953 -0.3281 -0.6740  0.0915
 9059SOL    HW138810   0.011   1.221   8.043  2.2551  1.7290  1.0207
 9059SOL    HW238811   0.079   1.323   7.960 -1.6453  0.4636  0.7456
 9060SOL     OW38812   3.904   1.332   9.203  0.6353 -0.9567 -0.0194
 9060SOL    HW138813   3.990   1.372   9.214 -0.0329 -0.0114  1.7942
 9060SOL    HW238814   3.931   1.241   9.217 -0.5787 -1.4510 -0.8943
 9061SOL     OW38815   2.851   4.343   5.758 -0.2308 -0.1268 -0.4338
 9061SOL    HW138816   2.876   4.255   5.786 -0.3193 -0.5818 -1.8155
 9061SOL    HW238817   2.839   4.318   5.667  0.2502  1.6638 -0.9899
 9062SOL     OW38818   1.292   3.214   1.407 -0.1509 -0.0060 -0.0123
 9062SOL    HW138819   1.301   3.309   1.418  0.9098 -0.1665  0.4447
 9062SOL    HW238820   1.302   3.188   1.499 -0.3421 -1.4859 -0.4170
 9063SOL     OW38821   3.792   1.649  14.417  0.5128 -0.0660 -0.6893
 9063SOL    HW138822   3.756   1.655  14.328 -0.2127  0.4446 -0.3579
 9063SOL    HW238823   3.716   1.628  14.472  0.7585  0.6867 -0.0553
 9064SOL     OW38824   4.271   0.825   3.490  0.7661  0.1405 -0.0432
 9064SOL    HW138825   4.266   0.766   3.564  2.1721  1.8621  1.4210
 9064SOL    HW238826   4.248   0.911   3.525  0.8073  0.7099 -1.4034
 9065SOL     OW38827   3.304   2.404  12.756 -0.1405 -0.3831 -0.0396
 9065SOL    HW138828   3.271   2.494  12.754  1.3541  0.1190 -2.5375
 9065SOL    HW238829   3.385   2.415  12.805 -1.1032  0.7164  1.2840
 9066SOL     OW38830   2.501   0.589   0.191  0.2435 -0.3748  0.9068
 9066SOL    HW138831   2.495   0.607   0.285 -0.4824  0.4585  0.7088
 9066SOL    HW238832   2.589   0.622   0.176  0.3370  0.8911  4.0487
 9067SOL     OW38833   2.465   0.728   6.557 -0.1540 -0.5790  0.0981
 9067SOL    HW138834   2.374   0.702   6.571  0.2384 -1.5907  0.7496
 9067SOL    HW238835   2.466   0.763   6.467 -3.0173 -0.2975  0.1648
 9068SOL     OW38836   3.812   4.360   7.851  0.2430 -0.0592  0.3730
 9068SOL    HW138837   3.867   4.385   7.926  0.1289  2.6426 -0.4509
 9068SOL    HW238838   3.846   4.276   7.822 -0.0260  0.4478 -1.3640
 9069SOL     OW38839   2.821   1.458   1.733  0.8078 -0.5195 -0.0451
 9069SOL    HW138840   2.793   1.480   1.644  0.5449  1.4299  0.5353
 9069SOL    HW238841   2.777   1.526   1.784  1.3267  0.1685 -0.5303
 9070SOL     OW38842   2.256   2.362   7.227 -0.4745 -0.2258  0.0605
 9070SOL    HW138843   2.295   2.322   7.305  1.1906  2.4095  0.5792
 9070SOL    HW238844   2.329   2.385   7.169 -0.3409 -0.7007  0.0437
 9071SOL     OW38845   4.043   3.867   2.583 -0.3854 -0.3522 -0.1268
 9071SOL    HW138846   4.130   3.852   2.547 -0.8670 -2.1588 -0.5731
 9071SOL    HW238847   3.994   3.799   2.537  0.9002 -1.4720  0.1648
 9072SOL     OW38848   4.416   0.221   0.697 -0.2695 -0.0540 -0.2573
 9072SOL    HW138849   4.361   0.223   0.619 -0.1534  1.2865 -0.3004
 9072SOL    HW238850   4.403   0.131   0.727  0.3315  0.0004  0.1672
 9073SOL     OW38851   2.546   3.759  16.964 -0.6090 -0.5596  0.6441
 9073SOL    HW138852   2.532   3.711  16.882 -0.9582  1.3615 -0.4101
 9073SOL    HW238853   2.636   3.734  16.985 -1.2594 -0.9991  2.9251
 9074SOL     OW38854   2.183   3.881   4.207 -0.7205 -0.3929  0.0548
 9074SOL    HW138855   2.225   3.797   4.189  2.3854  0.7378  2.2466
 9074SOL    HW238856   2.218   3.942   4.142 -1.5933 -0.0749 -0.1221
 9075SOL     OW38857   0.802   3.893  10.159 -0.4823 -0.5753  0.5392
 9075SOL    HW138858   0.861   3.848  10.099 -0.8582  1.2820 -1.2077
 9075SOL    HW238859   0.732   3.927  10.103 -0.4128 -2.6003 -0.7502
 9076SOL     OW38860   0.158   1.608  11.138  0.0038 -0.1464 -0.1420
 9076SOL    HW138861   0.193   1.661  11.066 -0.8775 -0.0888 -0.5275
 9076SOL    HW238862   0.236   1.577  11.185  0.7789 -0.2576 -1.5090
 9077SOL     OW38863   3.776   1.749   4.435 -0.1274 -0.1379  0.5602
 9077SOL    HW138864   3.771   1.655   4.423  2.0628  0.1259 -2.3556
 9077SOL    HW238865   3.705   1.781   4.380 -0.4728  0.8580  1.5625
 9078SOL     OW38866   1.669   1.099   0.318 -0.1228  0.5783  0.1748
 9078SOL    HW138867   1.764   1.090   0.309 -0.1126 -0.6818  1.6530
 9078SOL    HW238868   1.639   1.020   0.273 -0.0330 -0.3391  1.7309
 9079SOL     OW38869   0.242   0.276   1.495 -0.3147 -0.3130  0.2579
 9079SOL    HW138870   0.193   0.231   1.426 -2.8192  1.3579  0.9409
 9079SOL    HW238871   0.324   0.230   1.476  0.5259  0.8954  0.9562
 9080SOL     OW38872   2.946   2.278   4.785 -0.1428 -0.2420 -0.5369
 9080SOL    HW138873   2.959   2.213   4.855 -0.4440  1.2670  0.9151
 9080SOL    HW238874   3.038   2.301   4.773 -0.4008 -0.1968 -2.3047
 9081SOL     OW38875   4.430   4.708   8.364  0.2467 -0.3932 -0.1347
 9081SOL    HW138876   4.334   4.704   8.372 -0.0258  1.2724 -2.5233
 9081SOL    HW238877   4.451   4.696   8.456 -0.1088  1.6627  0.2246
 9082SOL     OW38878   2.205   2.038   3.651 -0.2786  0.1258  0.0791
 9082SOL    HW138879   2.183   1.982   3.726  0.0751  0.5804  0.5179
 9082SOL    HW238880   2.211   1.970   3.584  0.7458  0.6886 -0.3878
 9083SOL     OW38881   0.043   3.706  11.315  0.1467  0.4427  0.2985
 9083SOL    HW138882   0.108   3.670  11.254 -0.1789  0.3138  0.0248
 9083SOL    HW238883   0.095   3.729  11.392 -0.4420  0.2805  0.7429
 9084SOL     OW38884   3.937   2.097   9.178 -0.0569 -0.1716 -0.0351
 9084SOL    HW138885   3.894   2.168   9.131 -0.6065 -0.9325 -0.6751
 9084SOL    HW238886   3.994   2.051   9.116  0.7203 -0.0333  0.5790
 9085SOL     OW38887   0.163   0.563   4.724  0.1790 -0.2255 -0.1702
 9085SOL    HW138888   0.106   0.490   4.700  0.7783 -0.3310 -1.2543
 9085SOL    HW238889   0.096   0.631   4.712  0.3584  0.0047  0.1328
 9086SOL     OW38890   1.022   3.799  14.651  0.2213  0.3518 -0.4416
 9086SOL    HW138891   1.001   3.857  14.578 -1.9947  1.0832  0.7854
 9086SOL    HW238892   0.983   3.850  14.722 -2.2198 -3.1259  0.6968
 9087SOL     OW38893   2.264   0.285  17.282 -0.5937 -0.3234  0.5441
 9087SOL    HW138894   2.336   0.347  17.298 -1.4978  0.5141  1.4071
 9087SOL    HW238895   2.308   0.202  17.298 -1.0082 -0.8368 -1.0567
 9088SOL     OW38896   0.408   1.027   4.263 -0.1941  0.0134 -0.3388
 9088SOL    HW138897   0.430   1.111   4.223 -0.5494 -1.5687 -3.9251
 9088SOL    HW238898   0.329   1.043   4.314 -1.0348 -0.5235 -1.4611
 9089SOL     OW38899   0.238   1.818   2.135  0.3423  0.1411  0.0665
 9089SOL    HW138900   0.228   1.882   2.065  1.7111  1.9974  1.5595
 9089SOL    HW238901   0.232   1.879   2.209 -0.8430  0.7933 -0.5685
 9090SOL     OW38902   4.636   0.539   8.077  0.6328 -0.2837 -0.2181
 9090SOL    HW138903   4.680   0.493   8.148 -1.7685 -1.4516  0.4953
 9090SOL    HW238904   4.546   0.549   8.109  1.0910 -1.4277  1.4202
 9091SOL     OW38905   2.875   3.407  13.794  0.3693 -0.0706 -0.0455
 9091SOL    HW138906   2.966   3.432  13.806  0.6983 -0.1429 -2.3831
 9091SOL    HW238907   2.881   3.312  13.796  0.5402 -0.1282 -3.0147
 9092SOL     OW38908   2.800   3.830   7.433 -0.4298  1.1223 -0.3320
 9092SOL    HW138909   2.749   3.851   7.354  1.9354  2.7414 -1.4096
 9092SOL    HW238910   2.732   3.817   7.499 -0.5907  2.6227 -0.2098
 9093SOL     OW38911   3.855   0.321   9.716  0.7472  0.0907 -0.4664
 9093SOL    HW138912   3.940   0.357   9.742  0.8518  0.5650 -1.4516
 9093SOL    HW238913   3.850   0.247   9.776  1.8060 -0.5574 -1.1847
 9094SOL     OW38914   3.557   0.328   8.096 -0.4046 -0.0597 -0.4979
 9094SOL    HW138915   3.550   0.250   8.041  0.0838  0.8758 -1.8875
 9094SOL    HW238916   3.651   0.338   8.109 -0.6386 -1.2714  2.1404
 9095SOL     OW38917   2.990   0.103  16.536 -0.4220 -0.0029  0.1373
 9095SOL    HW138918   2.949   0.138  16.616  0.1773 -0.3258  0.5880
 9095SOL    HW238919   3.031   0.019  16.554 -0.3601  0.2717  1.3050
 9096SOL     OW38920   2.900   0.979  13.777  0.4151  0.0204  0.5845
 9096SOL    HW138921   2.889   0.936  13.862 -1.5605  1.7771  1.2294
 9096SOL    HW238922   2.948   1.055  13.810  0.5208  0.3934 -0.4282
 9097SOL     OW38923   1.575   0.980   6.362  0.1259  0.7242  0.4173
 9097SOL    HW138924   1.595   0.892   6.328  1.2807  0.7169  1.1198
 9097SOL    HW238925   1.630   0.988   6.440 -0.3606  0.5302  0.7831
 9098SOL     OW38926   3.306   2.950   5.002 -0.0755  0.3519  0.3719
 9098SOL    HW138927   3.222   2.954   5.049  0.7496 -1.3018  1.9705
 9098SOL    HW238928   3.358   2.877   5.035  0.7780  0.7614 -0.0581
 9099SOL     OW38929   4.071   1.698   8.251 -0.2616  0.4576  0.1740
 9099SOL    HW138930   4.130   1.761   8.294 -1.4793  0.8310  1.2908
 9099SOL    HW238931   4.043   1.645   8.325  0.0831 -1.9831 -1.4516
 9100SOL     OW38932   0.616   2.452   5.014  0.0748 -0.1614 -0.0957
 9100SOL    HW138933   0.682   2.389   4.985 -0.2555 -0.0479 -1.1093
 9100SOL    HW238934   0.566   2.448   4.932  0.2977  0.3222 -0.2540
 9101SOL     OW38935   2.818   2.683  11.678  0.1951 -0.0729 -0.1607
 9101SOL    HW138936   2.738   2.713  11.721 -0.3933  0.2727 -1.4989
 9101SOL    HW238937   2.875   2.654  11.749  0.3525  0.2494 -0.1562
 9102SOL     OW38938   4.415   3.352   8.907  0.6930  0.1771 -0.0066
 9102SOL    HW138939   4.357   3.391   8.841  0.2350 -1.1824 -0.4303
 9102SOL    HW238940   4.423   3.266   8.865 -3.3117 -1.6063  2.8141
 9103SOL     OW38941   1.787   3.946   5.188 -0.2771  0.2497 -0.0142
 9103SOL    HW138942   1.772   4.026   5.240 -1.9032 -0.3589  0.4470
 9103SOL    HW238943   1.700   3.946   5.149  0.1134 -0.0895 -0.8937
 9104SOL     OW38944   0.923   3.953  17.563 -0.8090 -0.0124  0.8442
 9104SOL    HW138945   0.967   3.868  17.561 -0.8208 -0.0002  0.1569
 9104SOL    HW238946   0.980   4.000  17.502  1.4550 -1.4714  1.8475
 9105SOL     OW38947   0.820   0.215  11.116 -0.2565  0.6232  0.5885
 9105SOL    HW138948   0.760   0.146  11.089  0.0659  0.0390  1.3476
 9105SOL    HW238949   0.893   0.172  11.162 -1.3138  1.4933  3.0891
 9106SOL     OW38950   2.114   1.125   3.299  0.9162 -0.5836 -0.3499
 9106SOL    HW138951   2.153   1.166   3.222  0.2382  0.7412 -0.0038
 9106SOL    HW238952   2.153   1.038   3.294  0.0294 -1.0647  0.9865
 9107SOL     OW38953   3.293   1.382   4.764 -0.5025 -0.0827  0.0584
 9107SOL    HW138954   3.235   1.457   4.747  0.9274  0.3467 -2.9836
 9107SOL    HW238955   3.339   1.424   4.836  0.2777  0.1367 -0.5619
 9108SOL     OW38956   4.577   0.481   9.279 -0.2973  0.2258 -0.1024
 9108SOL    HW138957   4.519   0.412   9.246  0.1961 -0.7152  0.9889
 9108SOL    HW238958   4.623   0.506   9.198  1.9746  2.0584  1.7432
 9109SOL     OW38959   4.718   3.427  14.534 -0.3273  0.1191  0.7912
 9109SOL    HW138960   4.648   3.491  14.526 -0.0974  0.1554 -0.9041
 9109SOL    HW238961   4.670   3.355  14.576 -1.1033 -0.1576 -0.6086
 9110SOL     OW38962   0.151   2.316   3.521 -0.6157  0.3337  0.1096
 9110SOL    HW138963   0.136   2.369   3.599 -0.2255  0.5253  0.0570
 9110SOL    HW238964   0.095   2.239   3.533 -0.6174  0.2389 -0.5137
 9111SOL     OW38965   4.629   2.452   4.739  0.3676  0.3792  0.3560
 9111SOL    HW138966   4.697   2.475   4.801 -0.0976  0.6455  0.7688
 9111SOL    HW238967   4.552   2.434   4.793  0.7774 -2.4092  0.0336
 9112SOL     OW38968   0.044   4.134   6.719 -0.3780 -0.2502  0.7945
 9112SOL    HW138969   4.699   4.175   6.682 -0.4917 -0.7615  0.4699
 9112SOL    HW238970   0.101   4.211   6.725 -1.0072  0.4824 -2.8223
 9113SOL     OW38971   0.433   0.189   5.883  0.2887  0.4589 -0.1772
 9113SOL    HW138972   0.427   0.247   5.808 -1.1872  1.5747  0.8084
 9113SOL    HW238973   0.445   0.250   5.956 -2.3778 -0.1144  0.7249
 9114SOL     OW38974   2.009   0.432   8.807 -1.3234  1.1271  0.6217
 9114SOL    HW138975   1.994   0.453   8.715 -0.2557 -0.5607  0.0564
 9114SOL    HW238976   1.951   0.358   8.825  0.2732 -0.3605 -0.3912
 9115SOL     OW38977   2.429   1.239   2.019  0.0271 -0.0566  0.0524
 9115SOL    HW138978   2.368   1.216   1.950 -0.7753  0.8878  0.4472
 9115SOL    HW238979   2.515   1.211   1.986 -0.3201  1.2825 -1.9296
 9116SOL     OW38980   0.450   4.120   6.343  0.2856  0.0575 -0.2568
 9116SOL    HW138981   0.407   4.178   6.405  0.0137 -0.9111  0.4549
 9116SOL    HW238982   0.396   4.137   6.266 -0.7984  0.5115  0.6045
 9117SOL     OW38983   2.322   2.640  13.508  0.0008  0.3896 -0.4338
 9117SOL    HW138984   2.314   2.563  13.453 -0.4503  1.0785 -1.3328
 9117SOL    HW238985   2.307   2.704  13.438 -3.1211  1.7734  1.4869
 9118SOL     OW38986   0.686   1.936   6.041  0.7246 -0.1749 -0.2684
 9118SOL    HW138987   0.643   1.958   5.958  1.5561  0.7790 -0.4441
 9118SOL    HW238988   0.767   1.987   6.035  0.6492 -0.1735 -1.3425
 9119SOL     OW38989   4.336   1.572   9.344  0.2632  0.5605  0.7530
 9119SOL    HW138990   4.411   1.529   9.384 -0.0523 -0.2462  0.4786
 9119SOL    HW238991   4.271   1.561   9.413  1.7360 -0.6445  1.9360
 9120SOL     OW38992   1.182   3.390  13.433 -0.0379  0.0785  0.3515
 9120SOL    HW138993   1.153   3.331  13.363  0.5243  1.3999 -0.9876
 9120SOL    HW238994   1.274   3.364  13.436 -0.4338 -1.3484  0.4478
 9121SOL     OW38995   3.535   0.467   6.155 -0.2397 -0.0124  0.2321
 9121SOL    HW138996   3.480   0.542   6.133 -0.6259 -0.2432  0.4088
 9121SOL    HW238997   3.482   0.418   6.218 -0.9281  0.5489  0.0927
 9122SOL     OW38998   4.235   1.228   7.027 -0.0241  0.3095 -0.7330
 9122SOL    HW138999   4.221   1.152   7.083  0.0169 -0.2860 -1.5212
 9122SOL    HW239000   4.331   1.230   7.031 -0.0520 -0.9414  0.4973
 9123SOL     OW39001   1.293   1.835   4.978 -1.2192  0.7236 -0.5525
 9123SOL    HW139002   1.257   1.747   4.968  0.8384 -0.2813  0.8208
 9123SOL    HW239003   1.223   1.885   5.018 -0.1878 -1.0289  3.4188
 9124SOL     OW39004   4.302   0.424   5.273 -0.2085  0.2082  0.6144
 9124SOL    HW139005   4.314   0.474   5.354  1.3637  1.3613 -0.3201
 9124SOL    HW239006   4.246   0.480   5.220  0.5379  1.4409  1.1253
 9125SOL     OW39007   4.655   3.306   7.557  0.4217  0.3503  0.1622
 9125SOL    HW139008   4.692   3.264   7.634  2.4208  0.0312 -0.9587
 9125SOL    HW239009   4.724   3.363   7.523  0.6039  1.2039  1.9746
 9126SOL     OW39010   3.080   4.443  11.321 -0.2819  0.5492  0.6450
 9126SOL    HW139011   3.028   4.451  11.401 -1.1956 -0.3323  0.1486
 9126SOL    HW239012   3.138   4.368  11.337 -0.7566  0.4459  1.8956
 9127SOL     OW39013   1.676   2.336  11.346 -0.1857  0.1523  0.2791
 9127SOL    HW139014   1.689   2.260  11.290 -1.9387  0.0756 -0.0331
 9127SOL    HW239015   1.767   2.355  11.368 -0.3604  1.1337  0.1515
 9128SOL     OW39016   2.329   3.600   8.114  0.0612 -0.3193 -0.0170
 9128SOL    HW139017   2.336   3.687   8.154 -0.7081 -0.0737 -0.4342
 9128SOL    HW239018   2.322   3.629   8.023  3.0184  0.5267  0.0243
 9129SOL     OW39019   4.302   2.940  16.619 -0.2531 -0.5906 -0.3662
 9129SOL    HW139020   4.292   2.957  16.526  1.1987 -1.8540 -0.7545
 9129SOL    HW239021   4.236   2.876  16.643  0.3692 -1.4002 -0.8143
 9130SOL     OW39022   0.020   4.607   0.120 -0.2491  0.0762  0.0291
 9130SOL    HW139023   0.090   4.565   0.070  0.4957  0.0403  1.1108
 9130SOL    HW239024   0.073   4.636   0.194  1.7045  0.2699 -1.4426
 9131SOL     OW39025   2.857   4.459  14.281  0.1575 -0.4419 -0.5029
 9131SOL    HW139026   2.864   4.488  14.190  0.6812  1.0361  0.0224
 9131SOL    HW239027   2.797   4.386  14.263 -2.0271  0.6301  2.2986
 9132SOL     OW39028   0.671   3.398   4.922  0.2258 -0.2305  0.1094
 9132SOL    HW139029   0.739   3.440   4.974  0.2776  1.6027 -1.4280
 9132SOL    HW239030   0.639   3.464   4.861  1.4423 -1.1134 -1.4821
 9133SOL     OW39031   2.751   0.738   5.279  0.5708 -0.1444  0.2264
 9133SOL    HW139032   2.741   0.833   5.285 -0.4402 -0.2457  0.2256
 9133SOL    HW239033   2.767   0.729   5.185  0.8471 -1.5767  0.4128
 9134SOL     OW39034   1.708   3.868  11.887  0.6302 -0.2923 -0.1489
 9134SOL    HW139035   1.712   3.962  11.903 -0.2215 -0.0718 -1.1995
 9134SOL    HW239036   1.667   3.872  11.800 -1.1114  1.9865  0.7775
 9135SOL     OW39037   1.295   0.709  10.848  0.6917 -0.7654  0.5051
 9135SOL    HW139038   1.280   0.626  10.893 -1.3382  0.0911  1.3989
 9135SOL    HW239039   1.390   0.713  10.863  0.7436 -1.0551  0.2546
 9136SOL     OW39040   4.358   0.920   3.258  0.6913 -0.0049 -0.5898
 9136SOL    HW139041   4.441   0.876   3.276  0.7604  0.4864  0.2903
 9136SOL    HW239042   4.303   0.903   3.335  0.5084  0.7143 -0.5696
 9137SOL     OW39043   1.331   1.384   2.916  0.0900  0.5673  0.0733
 9137SOL    HW139044   1.269   1.347   2.978  1.4520 -2.6836 -0.4923
 9137SOL    HW239045   1.414   1.365   2.960  0.9769  0.3930 -1.6710
 9138SOL     OW39046   1.677   2.490   1.919 -0.1293  0.2363  0.8089
 9138SOL    HW139047   1.733   2.525   1.989  2.0996  1.1546 -1.4705
 9138SOL    HW239048   1.733   2.426   1.877 -1.0326  0.1548 -0.2643
 9139SOL     OW39049   0.093   0.432   9.947 -0.2214  0.2898 -0.4719
 9139SOL    HW139050   0.090   0.400  10.037 -0.5186  3.4551  0.6354
 9139SOL    HW239051   0.132   0.519   9.953  0.2410  0.0110  0.5561
 9140SOL     OW39052   2.711   4.062   3.117  0.3539  0.2177  0.0807
 9140SOL    HW139053   2.799   4.045   3.152 -0.5014  0.4681  2.3345
 9140SOL    HW239054   2.729   4.004   3.043 -0.4773  0.0721  0.0001
 9141SOL     OW39055   0.178   0.310   7.936 -0.1878 -0.0994  0.5367
 9141SOL    HW139056   0.211   0.396   7.911 -0.3983 -0.6505 -1.5836
 9141SOL    HW239057   0.085   0.310   7.912 -0.8171  0.6758  2.9112
 9142SOL     OW39058   2.764   3.234   5.413  0.0981 -0.2713  0.2187
 9142SOL    HW139059   2.721   3.270   5.336  0.6945  0.5880  0.2884
 9142SOL    HW239060   2.752   3.314   5.464  1.3284  0.3232 -0.4469
 9143SOL     OW39061   0.118   1.089  14.490  0.1977 -0.0052 -0.1204
 9143SOL    HW139062   0.060   1.135  14.551  1.6294  1.3847  0.2012
 9143SOL    HW239063   0.202   1.136  14.494 -0.1243  0.4096  1.7543
 9144SOL     OW39064   4.641   0.480   7.272 -0.0735  0.2313 -0.0589
 9144SOL    HW139065   4.644   0.562   7.322 -1.2276  0.2700 -0.0554
 9144SOL    HW239066   4.597   0.426   7.337 -0.2367  0.1221 -0.2607
 9145SOL     OW39067   0.960   3.925   3.248 -0.2803 -0.5559 -0.3668
 9145SOL    HW139068   0.944   3.978   3.170  0.7928  0.0145 -0.1856
 9145SOL    HW239069   0.871   3.916   3.282 -0.8854  3.4328 -0.9400
 9146SOL     OW39070   3.754   2.813   4.270 -0.4470 -0.1219  0.0303
 9146SOL    HW139071   3.682   2.869   4.298  0.7393  0.3453  2.1824
 9146SOL    HW239072   3.715   2.733   4.235 -0.5850  0.2652 -0.6979
 9147SOL     OW39073   1.172   4.068   0.422 -0.3479 -0.2075  0.1403
 9147SOL    HW139074   1.236   4.103   0.360  1.0149 -0.9134  1.1390
 9147SOL    HW239075   1.208   3.980   0.429 -0.9573 -0.5894 -1.5505
 9148SOL     OW39076   1.030   3.664  17.578  0.4515  0.1502  0.3253
 9148SOL    HW139077   0.983   3.601  17.633  0.0507 -1.4891 -1.8743
 9148SOL    HW239078   1.027   3.619  17.493 -1.2044  0.4939  0.1951
 9149SOL     OW39079   2.824   2.929   1.735  0.1736 -0.0314 -0.4150
 9149SOL    HW139080   2.836   3.009   1.683  2.7870  0.9398  1.6551
 9149SOL    HW239081   2.825   2.962   1.825 -2.4248 -0.3098 -0.2862
 9150SOL     OW39082   1.581   3.531   1.553 -0.2059  0.2822  0.2530
 9150SOL    HW139083   1.524   3.502   1.624  1.0974 -1.2799  0.6518
 9150SOL    HW239084   1.662   3.486   1.577 -0.1785 -0.0906 -0.5474
 9151SOL     OW39085   3.359   0.954  12.822 -0.3955  0.4026  0.0257
 9151SOL    HW139086   3.283   0.941  12.765  0.5820 -0.2308 -1.1478
 9151SOL    HW239087   3.380   0.863  12.844  0.5381  0.6055 -0.0177
 9152SOL     OW39088   1.429   2.041   0.675 -0.0953  0.0172  0.2989
 9152SOL    HW139089   1.383   2.047   0.759 -1.8573  0.2609 -0.6970
 9152SOL    HW239090   1.472   1.955   0.680  0.2801  0.2185  0.5629
 9153SOL     OW39091   1.414   3.418  15.279  0.3374 -0.2316 -0.1860
 9153SOL    HW139092   1.393   3.510  15.263  2.5851  0.1134 -1.1330
 9153SOL    HW239093   1.441   3.416  15.371  1.4209 -0.2018 -0.5001
 9154SOL     OW39094   2.912   0.393   2.901 -0.1050  0.1169  0.2319
 9154SOL    HW139095   3.004   0.419   2.909 -0.7458  2.1604  0.9537
 9154SOL    HW239096   2.930   0.299   2.898 -0.4185  0.0239  1.2095
 9155SOL     OW39097   0.998   3.808   1.507 -0.3543 -0.0283 -0.0163
 9155SOL    HW139098   1.071   3.852   1.551 -1.3169  1.4334  0.1220
 9155SOL    HW239099   0.959   3.874   1.450 -0.9524 -0.2674  0.1133
 9156SOL     OW39100   4.096   2.418  12.858 -0.0218  0.3911  0.0435
 9156SOL    HW139101   4.174   2.370  12.887  0.5576  1.2503 -0.0729
 9156SOL    HW239102   4.134   2.506  12.867  0.9918 -0.1189  0.7796
 9157SOL     OW39103   0.480   2.058   2.769  0.4214 -0.5606 -0.1626
 9157SOL    HW139104   0.520   1.971   2.768  2.5025  0.4304 -2.1480
 9157SOL    HW239105   0.532   2.093   2.841 -2.6015 -2.9086  3.1482
 9158SOL     OW39106   2.708   1.241   3.575 -0.6316  0.3313 -0.3820
 9158SOL    HW139107   2.782   1.288   3.537 -0.8775 -0.0725 -1.3642
 9158SOL    HW239108   2.722   1.266   3.666 -0.6704 -0.6931 -0.0981
 9159SOL     OW39109   2.493   1.219   0.068 -0.2539 -0.0229 -0.4690
 9159SOL    HW139110   2.466   1.138   0.111 -1.3135  0.9866  0.7592
 9159SOL    HW239111   2.436   1.277   0.118  0.0925  0.7777 -1.0046
 9160SOL     OW39112   3.057   4.631   4.146 -0.3133  0.2414  0.4141
 9160SOL    HW139113   3.103   4.626   4.062  0.9682 -0.9414  1.1837
 9160SOL    HW239114   3.100   4.560   4.194  1.3414  1.6410  1.0412
 9161SOL     OW39115   2.388   0.118  12.536 -0.1154  0.7796 -0.2145
 9161SOL    HW139116   2.292   0.125  12.530 -0.3571 -1.3998  1.3166
 9161SOL    HW239117   2.402   0.048  12.600 -1.8896 -1.2566 -2.0484
 9162SOL     OW39118   4.134   2.260   8.529  0.0127 -0.4811  0.1706
 9162SOL    HW139119   4.213   2.210   8.548  1.0123  1.2502  0.6065
 9162SOL    HW239120   4.160   2.300   8.446 -1.9415 -0.8531 -0.6098
 9163SOL     OW39121   0.255   3.372   2.055 -0.4159  0.1156  0.4149
 9163SOL    HW139122   0.234   3.294   2.106  0.0893 -0.3910 -0.1391
 9163SOL    HW239123   0.339   3.405   2.089  0.1105 -2.1981  1.3544
 9164SOL     OW39124   0.981   3.551  16.824 -0.1176  0.4202  0.3259
 9164SOL    HW139125   0.940   3.469  16.797  0.4478  0.9491 -2.1490
 9164SOL    HW239126   0.932   3.577  16.902 -0.7615  0.1945 -0.0120
 9165SOL     OW39127   2.030   0.483   6.016  0.0451 -0.0486  0.1398
 9165SOL    HW139128   2.027   0.425   6.092 -1.3416  0.6843  0.6443
 9165SOL    HW239129   2.032   0.573   6.047  2.0606  0.1126 -0.4384
 9166SOL     OW39130   3.137   2.376  15.652 -0.1189  0.0083  0.4766
 9166SOL    HW139131   3.210   2.323  15.682 -0.2365 -0.2966  0.2320
 9166SOL    HW239132   3.074   2.338  15.713 -0.5981  2.4590  1.4899
 9167SOL     OW39133   2.211   2.707  10.327 -0.2519 -0.3235 -0.0700
 9167SOL    HW139134   2.144   2.640  10.334 -1.0276  0.3004 -1.5372
 9167SOL    HW239135   2.168   2.780  10.283  2.4575  0.8335 -0.8609
 9168SOL     OW39136   0.306   2.085  10.076 -0.7518 -0.0021  0.4802
 9168SOL    HW139137   0.335   2.176  10.063 -2.0657  0.0983 -1.6818
 9168SOL    HW239138   0.217   2.088  10.041 -1.0703 -0.2255  1.2683
 9169SOL     OW39139   1.411   3.032   4.687  0.6511 -0.0966 -0.1760
 9169SOL    HW139140   1.398   2.995   4.599  0.6815  0.6260 -0.4804
 9169SOL    HW239141   1.445   2.951   4.725 -4.6192 -2.0881  0.1913
 9170SOL     OW39142   3.292   3.618   8.520 -0.4158 -0.5014  0.4838
 9170SOL    HW139143   3.250   3.697   8.555 -1.5991 -0.8911 -0.0337
 9170SOL    HW239144   3.253   3.636   8.434  2.1473  1.0988 -0.3293
 9171SOL     OW39145   4.267   0.339  10.162 -0.5110 -0.0608 -0.3242
 9171SOL    HW139146   4.220   0.381  10.235 -0.9237 -0.1565 -0.5329
 9171SOL    HW239147   4.277   0.411  10.099 -0.3853  1.7635  1.7463
 9172SOL     OW39148   3.806   0.067   7.524  0.3977  0.0319  0.3189
 9172SOL    HW139149   3.824   0.046   7.616 -2.5408 -1.6717  0.5433
 9172SOL    HW239150   3.868   0.009   7.481 -1.2183 -1.5801  0.1058
 9173SOL     OW39151   2.026   1.901   2.455 -0.1256  0.1451 -0.5546
 9173SOL    HW139152   2.100   1.890   2.515 -1.4066 -0.4244  0.9109
 9173SOL    HW239153   2.010   1.994   2.471  1.9976  0.1898  1.3230
 9174SOL     OW39154   0.810   3.583  10.433  0.7514  0.0097 -0.0086
 9174SOL    HW139155   0.864   3.579  10.354  2.3273  1.1222  0.9929
 9174SOL    HW239156   0.762   3.501  10.434  0.1590  0.3455 -2.0404
 9175SOL     OW39157   0.938   3.454  11.034 -0.0717 -0.3370  0.3843
 9175SOL    HW139158   0.916   3.520  11.100 -1.1139  0.2609 -0.5668
 9175SOL    HW239159   0.912   3.506  10.959 -0.3081  0.3712  0.9533
 9176SOL     OW39160   2.426   2.710  13.774 -0.7413  0.0454  0.1477
 9176SOL    HW139161   2.387   2.797  13.774  1.8935  1.2344 -0.6212
 9176SOL    HW239162   2.462   2.707  13.686  1.3093 -0.3355  0.9941
 9177SOL     OW39163   4.597   2.734   5.627  0.7840  0.1080  0.5495
 9177SOL    HW139164   4.674   2.719   5.571  0.6926  0.3866  0.3467
 9177SOL    HW239165   4.555   2.655   5.592 -0.9974  1.8642 -1.3076
 9178SOL     OW39166   4.604   0.703   4.170 -0.1507 -0.7352 -0.5089
 9178SOL    HW139167   4.579   0.768   4.235  0.3946 -0.5623 -0.4706
 9178SOL    HW239168   4.693   0.682   4.198  0.0671 -0.2818 -0.8534
 9179SOL     OW39169   4.368   0.129   4.823 -0.1170  0.8163  0.0525
 9179SOL    HW139170   4.299   0.121   4.758  0.2276 -1.2126 -0.0593
 9179SOL    HW239171   4.319   0.145   4.904 -0.5861 -1.6263  0.2436
 9180SOL     OW39172   2.782   1.015   5.386 -0.0357  0.4784 -0.1055
 9180SOL    HW139173   2.857   0.973   5.428 -0.1364 -0.0719 -0.4824
 9180SOL    HW239174   2.808   1.096   5.342  2.1363  0.0979  0.4419
 9181SOL     OW39175   2.577   2.254   2.947  0.8946 -0.6176 -0.4050
 9181SOL    HW139176   2.598   2.167   2.980 -0.2756 -0.1893  1.5195
 9181SOL    HW239177   2.614   2.301   3.023  1.7307 -0.6383 -0.7981
 9182SOL     OW39178   4.647   1.069  12.396 -0.9513 -0.3321 -0.3054
 9182SOL    HW139179   4.682   1.155  12.377  1.2477 -0.6624  2.2909
 9182SOL    HW239180   4.692   1.013  12.332  0.5689 -0.8169  1.2161
 9183SOL     OW39181   0.970   2.757   8.682  0.0498  0.0153 -0.5204
 9183SOL    HW139182   0.887   2.716   8.658  0.3991 -1.7258  1.3205
 9183SOL    HW239183   0.951   2.848   8.657 -0.1972 -0.0905 -0.7243
 9184SOL     OW39184   4.011   2.140   7.105  0.3418  0.4788 -0.7809
 9184SOL    HW139185   3.936   2.082   7.122  2.3395 -1.7665  0.3174
 9184SOL    HW239186   4.049   2.154   7.192  1.3552  0.7759 -1.2775
 9185SOL     OW39187   0.199   0.299  11.089 -0.2816  0.2700  0.6626
 9185SOL    HW139188   0.271   0.244  11.059 -0.7268  0.7143 -1.2811
 9185SOL    HW239189   0.245   0.374  11.125 -1.2560  1.5995 -0.8692
 9186SOL     OW39190   3.770   3.270   5.853  0.2278 -0.3936  0.2303
 9186SOL    HW139191   3.796   3.267   5.945 -0.1385 -0.1550  0.3412
 9186SOL    HW239192   3.680   3.236   5.847  0.5561 -1.4922  1.5721
 9187SOL     OW39193   0.076   1.493   0.508 -0.0951 -0.1051  0.2481
 9187SOL    HW139194   0.119   1.484   0.423  2.5161 -1.2264  1.6710
 9187SOL    HW239195   0.138   1.541   0.563 -0.2884  0.5755 -0.1315
 9188SOL     OW39196   2.741   3.366   8.353  0.4523 -0.3621  0.3998
 9188SOL    HW139197   2.648   3.367   8.329  0.9686  2.4105 -1.5043
 9188SOL    HW239198   2.751   3.356   8.447  1.9667 -1.9136  0.0782
 9189SOL     OW39199   3.880   0.142   4.226  0.4149 -0.1439 -0.0493
 9189SOL    HW139200   3.864   0.163   4.134 -1.4394 -0.9703  0.0752
 9189SOL    HW239201   3.887   0.046   4.224 -0.5508 -0.2104 -0.3519
 9190SOL     OW39202   0.665   4.729  11.077 -0.4133 -0.4315  0.0465
 9190SOL    HW139203   0.660   4.728  11.173  0.4677  0.4710  0.1088
 9190SOL    HW239204   0.641   4.639  11.054 -1.4660 -0.2274  0.3357
 9191SOL     OW39205   2.132   0.562   4.043 -0.0738 -0.3119 -0.0929
 9191SOL    HW139206   2.092   0.475   4.045 -1.8870  0.5105 -0.7653
 9191SOL    HW239207   2.150   0.566   3.950 -1.8668 -3.6340 -0.5868
 9192SOL     OW39208   4.168   1.879   6.715  0.1088  0.1450  0.2061
 9192SOL    HW139209   4.113   1.901   6.640  3.5473 -1.6572 -2.8878
 9192SOL    HW239210   4.110   1.897   6.789 -0.1087  0.4938 -0.0506
 9193SOL     OW39211   2.277   3.869   0.972  0.4484  0.0923 -0.0853
 9193SOL    HW139212   2.341   3.845   0.905  1.4353  1.2859  0.4256
 9193SOL    HW239213   2.232   3.787   0.990 -0.5111  0.3303 -1.3176
 9194SOL     OW39214   1.941   0.739   2.623  0.1847 -0.2962  0.1233
 9194SOL    HW139215   1.969   0.721   2.533  3.7196  3.8591  0.4017
 9194SOL    HW239216   1.847   0.750   2.611  0.4402  0.8501 -0.9313
 9195SOL     OW39217   4.236   3.689   6.371 -0.3989  0.2217  0.1056
 9195SOL    HW139218   4.165   3.749   6.349 -0.4352  0.0317 -0.3002
 9195SOL    HW239219   4.212   3.624   6.305 -1.1421 -0.9935  1.5769
 9196SOL     OW39220   2.725   1.735  16.056 -0.8235 -0.5945  0.5988
 9196SOL    HW139221   2.744   1.821  16.093  1.1742 -1.5604  1.8254
 9196SOL    HW239222   2.633   1.744  16.034 -0.6670  0.5121  0.4127
 9197SOL     OW39223   3.022   3.872  12.015 -0.0749  0.7119 -0.1916
 9197SOL    HW139224   3.102   3.921  11.999  0.3432  0.9367  2.7005
 9197SOL    HW239225   3.042   3.778  12.015  2.5590  1.3033  0.8529
 9198SOL     OW39226   3.688   0.339  13.178  0.2704  0.3059  0.0872
 9198SOL    HW139227   3.662   0.268  13.119  0.7433 -0.3672  0.6923
 9198SOL    HW239228   3.650   0.418  13.141  1.0039 -0.4071 -2.1919
 9199SOL     OW39229   4.551   3.567  11.270  0.1998 -0.0359  0.5722
 9199SOL    HW139230   4.631   3.615  11.295  0.8971 -0.5819 -0.6215
 9199SOL    HW239231   4.493   3.606  11.335  1.8419  0.0056  2.0216
 9200SOL     OW39232   3.953   0.878  17.509  0.2178  0.0836  0.2193
 9200SOL    HW139233   3.986   0.920  17.430  1.5648  1.2954  1.4152
 9200SOL    HW239234   3.889   0.942  17.543  1.2306  2.3815 -2.2219
 9201SOL     OW39235   1.678   2.357  11.884 -0.5099 -0.5722 -0.6753
 9201SOL    HW139236   1.585   2.357  11.859 -0.9580 -1.2994  0.9749
 9201SOL    HW239237   1.718   2.319  11.806  0.3184  0.7683 -0.9007
 9202SOL     OW39238   2.322   2.429   4.252 -0.2661 -0.3747 -0.6867
 9202SOL    HW139239   2.324   2.434   4.156  1.3890 -1.4931 -0.7254
 9202SOL    HW239240   2.251   2.366   4.265  0.5539 -1.3932 -1.1441
 9203SOL     OW39241   4.097   1.862   8.007 -0.5920  0.4037 -0.5319
 9203SOL    HW139242   4.130   1.789   7.955 -3.2072 -0.3251 -1.1397
 9203SOL    HW239243   4.130   1.829   8.091  1.7237 -0.5513 -1.8182
 9204SOL     OW39244   1.210   2.095   5.698 -0.0123  0.0686  0.6126
 9204SOL    HW139245   1.221   2.010   5.741  1.4678  0.9985  2.1023
 9204SOL    HW239246   1.168   2.153   5.762 -1.5178  0.9869 -1.2232
 9205SOL     OW39247   4.161   4.561   7.016  0.3887  0.1529  0.0784
 9205SOL    HW139248   4.182   4.615   6.940 -2.1139 -0.2659 -0.9432
 9205SOL    HW239249   4.173   4.619   7.091  0.7034  1.6812 -1.1799
 9206SOL     OW39250   4.086   4.073   3.925 -0.3660  0.5178  0.3753
 9206SOL    HW139251   4.057   4.113   3.843  0.6201 -2.5787 -1.4923
 9206SOL    HW239252   4.057   3.983   3.907  0.3503  0.7226 -1.7954
 9207SOL     OW39253   4.148   0.739   8.015 -0.0213 -0.1670 -0.6046
 9207SOL    HW139254   4.094   0.813   8.042 -0.4614 -0.2672 -1.2120
 9207SOL    HW239255   4.168   0.703   8.102 -0.0718 -0.7433 -0.8303
 9208SOL     OW39256   3.240   1.510   3.840 -0.8511 -0.1646 -0.3576
 9208SOL    HW139257   3.273   1.600   3.852  1.9363 -0.5156 -5.3632
 9208SOL    HW239258   3.299   1.457   3.894  0.0333 -0.1333 -1.3089
 9209SOL     OW39259   4.029   3.617  11.497  0.6338 -0.0981 -0.7422
 9209SOL    HW139260   3.984   3.597  11.415  0.1794  0.3206 -0.5961
 9209SOL    HW239261   3.984   3.697  11.527  2.2665 -0.2656  2.2156
 9210SOL     OW39262   0.925   2.934   2.066  0.1033 -0.7083  0.2745
 9210SOL    HW139263   0.851   2.988   2.090  0.0533 -0.7028  0.1063
 9210SOL    HW239264   0.867   2.871   2.024  0.5677 -1.5810  0.9301
 9211SOL     OW39265   2.564   3.523   6.422 -0.2118  0.5638 -0.0942
 9211SOL    HW139266   2.488   3.472   6.397 -0.4668  1.3678 -0.9563
 9211SOL    HW239267   2.597   3.467   6.492 -1.7994 -1.2912 -0.8319
 9212SOL     OW39268   1.567   0.613   8.019  0.2228  0.0740 -0.2098
 9212SOL    HW139269   1.621   0.682   7.981  0.6685  1.2375  2.4836
 9212SOL    HW239270   1.514   0.599   7.941  0.3775 -0.4944 -0.2165
 9213SOL     OW39271   1.902   0.544   3.582  0.2233  0.9102 -0.2986
 9213SOL    HW139272   1.842   0.495   3.638 -0.8884  0.9564 -1.4545
 9213SOL    HW239273   1.946   0.473   3.536  0.4677  0.6878  0.2708
 9214SOL     OW39274   3.951   3.650   1.541 -0.0111  0.0760 -0.1575
 9214SOL    HW139275   3.964   3.704   1.619 -2.3231  0.1841  0.1539
 9214SOL    HW239276   3.938   3.565   1.584  0.5142 -0.0971 -0.3369
 9215SOL     OW39277   4.304   3.751   7.546 -0.0793  0.2431 -0.1460
 9215SOL    HW139278   4.267   3.715   7.466  0.2591 -2.6369  0.9801
 9215SOL    HW239279   4.270   3.693   7.614 -1.1893  2.1136  0.8815
 9216SOL     OW39280   3.655   4.009   7.408  0.3045 -0.1529  0.3437
 9216SOL    HW139281   3.678   4.080   7.348  0.1455 -0.8561 -0.5566
 9216SOL    HW239282   3.647   4.064   7.485  2.0015  0.3195  0.1827
 9217SOL     OW39283   1.910   1.301   2.930 -0.4053  0.1164 -0.0586
 9217SOL    HW139284   1.992   1.313   2.884 -0.8448  1.9147 -0.3767
 9217SOL    HW239285   1.853   1.283   2.855  0.3392 -0.6254 -0.4331
 9218SOL     OW39286   2.375   3.844   4.556 -0.0236 -0.4299 -0.2121
 9218SOL    HW139287   2.447   3.839   4.618 -0.8918 -0.9349  0.7513
 9218SOL    HW239288   2.298   3.821   4.608 -1.7334 -0.4991 -2.7804
 9219SOL     OW39289   4.428   3.108   9.234 -0.1610  0.6919  0.4675
 9219SOL    HW139290   4.433   3.136   9.325 -1.3022  1.3171  0.3392
 9219SOL    HW239291   4.391   3.187   9.194 -1.0457  0.2721  0.4704
 9220SOL     OW39292   1.663   3.583   5.157  0.0186  0.2690 -0.3824
 9220SOL    HW139293   1.639   3.595   5.065  0.2125 -0.0758 -0.4797
 9220SOL    HW239294   1.742   3.638   5.154  1.2012 -1.4313 -0.4516
 9221SOL     OW39295   0.866   2.572   3.609 -0.5810 -0.4289  0.1667
 9221SOL    HW139296   0.835   2.607   3.526  2.5657  1.4039 -0.2031
 9221SOL    HW239297   0.928   2.640   3.635  0.5816 -0.4911 -2.5599
 9222SOL     OW39298   4.152   1.966   9.325  0.4820  0.0481 -0.2882
 9222SOL    HW139299   4.180   1.926   9.243 -0.7547  1.4681 -1.3953
 9222SOL    HW239300   4.075   2.011   9.291  0.4713  0.2983  0.0579
 9223SOL     OW39301   1.229   3.257  14.594 -0.4524  0.2354  0.1230
 9223SOL    HW139302   1.214   3.272  14.687 -0.2614 -1.3960  0.4178
 9223SOL    HW239303   1.254   3.166  14.578 -0.0560  0.2973  0.3833
 9224SOL     OW39304   4.617   4.581   6.890 -0.3687  0.0396 -0.5873
 9224SOL    HW139305   4.665   4.663   6.877 -0.8836  0.4359  0.0531
 9224SOL    HW239306   4.618   4.552   6.799  0.7423 -2.7023  0.3174
 9225SOL     OW39307   0.651   3.804   8.815 -0.6776 -0.7671 -0.7363
 9225SOL    HW139308   0.693   3.876   8.767 -0.2928  0.1708  1.0149
 9225SOL    HW239309   0.577   3.851   8.853 -0.2193  0.6953 -1.6588
 9226SOL     OW39310   3.004   1.230   1.748  0.2592  0.0470 -0.0888
 9226SOL    HW139311   2.976   1.320   1.765  1.5686  0.9425 -2.6918
 9226SOL    HW239312   2.966   1.185   1.824 -1.1075  0.5625 -0.4634
 9227SOL     OW39313   0.090   2.864   8.825  0.5225  0.4024 -0.1346
 9227SOL    HW139314   0.121   2.835   8.911 -2.9877 -0.8820  0.7025
 9227SOL    HW239315   0.090   2.779   8.781 -2.1341  0.1626  0.3156
 9228SOL     OW39316   2.499   1.114   3.413 -0.2636 -0.0638 -0.2274
 9228SOL    HW139317   2.559   1.145   3.481  0.3731  1.1667 -1.3704
 9228SOL    HW239318   2.428   1.178   3.408  0.3214  0.8225  2.5195
 9229SOL     OW39319   4.281   0.650  14.420 -0.2071 -0.2939  1.3017
 9229SOL    HW139320   4.374   0.646  14.442  0.6087 -0.0344 -2.2488
 9229SOL    HW239321   4.286   0.667  14.326  1.3015 -0.9555  1.2571
 9230SOL     OW39322   1.757   3.996   2.858 -0.3262  0.6741  0.2402
 9230SOL    HW139323   1.675   3.947   2.868 -0.2463  0.4942  0.0168
 9230SOL    HW239324   1.811   3.954   2.924  0.1754  0.9590  0.0074
 9231SOL     OW39325   1.896   4.380   6.768 -0.2118 -0.6886 -0.0083
 9231SOL    HW139326   1.946   4.298   6.773 -1.1954 -1.4111 -1.8499
 9231SOL    HW239327   1.921   4.429   6.846 -0.2908  0.0964 -0.4726
 9232SOL     OW39328   4.729   1.261  16.165 -0.9272  0.2307 -0.6591
 9232SOL    HW139329   0.003   1.315  16.244  0.7412  1.9937 -1.9942
 9232SOL    HW239330   0.073   1.203  16.169  0.1386  1.8533  2.4789
 9233SOL     OW39331   3.251   4.339  15.976 -0.2771  0.1995 -0.0274
 9233SOL    HW139332   3.180   4.292  15.932 -0.4778 -0.1730  0.6992
 9233SOL    HW239333   3.283   4.269  16.033  0.7774  0.6949 -0.0103
 9234SOL     OW39334   3.237   3.924   8.244  0.4189 -0.0575 -0.1606
 9234SOL    HW139335   3.221   3.920   8.338  0.5359  0.2317 -0.1285
 9234SOL    HW239336   3.332   3.921   8.230  0.3667  1.1858 -0.8460
 9235SOL     OW39337   3.761   4.232   7.293  0.0019 -0.4290 -0.0173
 9235SOL    HW139338   3.856   4.229   7.296  0.0843  1.1125 -0.8707
 9235SOL    HW239339   3.750   4.313   7.343 -2.2193 -0.1383 -0.9538
 9236SOL     OW39340   4.527   0.699   6.583 -0.5896  0.0476  0.5379
 9236SOL    HW139341   4.607   0.731   6.624 -0.4624  1.2174 -0.6208
 9236SOL    HW239342   4.544   0.606   6.571  2.1619  0.9380 -2.5395
 9237SOL     OW39343   4.568   0.041   0.004 -0.3515 -0.1230 -0.1039
 9237SOL    HW139344   4.609   0.012  17.652 -2.5588 -0.7844 -0.9711
 9237SOL    HW239345   4.625   0.004   0.071 -1.4945  0.3437  1.1278
 9238SOL     OW39346   3.787   2.310   4.938 -0.1593 -0.0311 -0.2817
 9238SOL    HW139347   3.852   2.366   4.898 -0.3089 -0.6571 -1.4068
 9238SOL    HW239348   3.727   2.280   4.869 -0.7603  0.9156 -0.1709
 9239SOL     OW39349   2.742   2.787   2.023  0.7281  0.3712 -0.1646
 9239SOL    HW139350   2.780   2.790   1.935  0.5446 -0.6840 -0.2754
 9239SOL    HW239351   2.737   2.692   2.037 -0.0138  0.4088 -0.1737
 9240SOL     OW39352   4.493   4.563   8.746 -0.2516  0.3927 -0.1404
 9240SOL    HW139353   4.453   4.486   8.706  0.7206 -0.2983  0.2143
 9240SOL    HW239354   4.588   4.552   8.742 -0.2997  0.4909 -1.4656
 9241SOL     OW39355   3.197   3.160   7.778  0.5920 -0.7015 -0.3619
 9241SOL    HW139356   3.127   3.101   7.803  1.0803 -0.4147  1.6553
 9241SOL    HW239357   3.207   3.142   7.684 -0.2006  1.6943 -0.9054
 9242SOL     OW39358   0.296   0.775   2.068 -0.2714  0.3265  0.2240
 9242SOL    HW139359   0.350   0.809   2.139  0.2886 -0.3869  0.1407
 9242SOL    HW239360   0.356   0.785   1.995 -2.6873  0.4272 -1.7288
 9243SOL     OW39361   2.614   3.667   6.996  0.0995  0.0874  0.1438
 9243SOL    HW139362   2.574   3.730   6.936 -0.1555 -0.4896 -0.2894
 9243SOL    HW239363   2.545   3.604   7.015 -0.1233 -0.2592 -1.9130
 9244SOL     OW39364   2.561   4.309  11.543  0.4410  0.5675  0.7261
 9244SOL    HW139365   2.507   4.304  11.464  0.1634 -0.2098  0.9648
 9244SOL    HW239366   2.569   4.215  11.560 -0.3466 -0.0563 -2.3548
 9245SOL     OW39367   1.323   4.145  17.339  0.4277 -0.1233  0.2639
 9245SOL    HW139368   1.363   4.122  17.255  0.2001  0.8748 -0.1132
 9245SOL    HW239369   1.291   4.233  17.319  2.1434  0.5414  0.4412
 9246SOL     OW39370   1.152   1.955   6.137  0.1159 -0.5118 -0.0357
 9246SOL    HW139371   1.234   2.002   6.127  0.6129 -1.2993  0.3278
 9246SOL    HW239372   1.157   1.904   6.218  2.5365 -0.1416  0.0300
 9247SOL     OW39373   3.841   1.850   8.068  0.1073 -0.2553  0.0668
 9247SOL    HW139374   3.935   1.852   8.048  0.1625 -0.5170  0.2955
 9247SOL    HW239375   3.852   1.894   8.153 -2.7968 -2.1419  1.4183
 9248SOL     OW39376   1.636   3.011   8.480  0.1363  0.1308  0.6850
 9248SOL    HW139377   1.580   3.046   8.549  1.7857  1.4842  1.3565
 9248SOL    HW239378   1.641   2.919   8.506  3.3430 -0.4927 -2.1733
 9249SOL     OW39379   3.548   1.997  11.593 -0.1307  0.1424 -0.0728
 9249SOL    HW139380   3.477   2.057  11.569  1.5552  2.9513  1.9516
 9249SOL    HW239381   3.541   1.924  11.531  0.0819 -0.5360  0.6984
 9250SOL     OW39382   4.717   0.413   8.304  0.0522  0.2233 -0.0837
 9250SOL    HW139383   4.695   0.320   8.309 -0.0238  0.2543  0.1699
 9250SOL    HW239384   4.682   0.446   8.387 -0.8777 -0.7704 -0.0878
 9251SOL     OW39385   1.694   0.918   6.904  0.1343  0.2315  0.1235
 9251SOL    HW139386   1.772   0.974   6.901  1.0678 -1.0554  0.0018
 9251SOL    HW239387   1.619   0.972   6.881 -0.0755  0.3709  1.1570
 9252SOL     OW39388   1.650   0.679  11.554 -0.2371 -0.1579 -0.1882
 9252SOL    HW139389   1.575   0.713  11.506  1.4301  3.3813 -0.2881
 9252SOL    HW239390   1.618   0.592  11.577 -1.6871  0.7009  1.0850
 9253SOL     OW39391   4.549   0.666  14.503  0.2998 -0.1444  0.4179
 9253SOL    HW139392   4.582   0.603  14.568  0.2250  0.3956  0.9754
 9253SOL    HW239393   4.622   0.727  14.506 -0.9741  1.3443  0.9162
 9254SOL     OW39394   2.477   1.542   8.227 -0.5716  0.3058 -0.2831
 9254SOL    HW139395   2.476   1.629   8.188  1.1496  0.1323 -0.7183
 9254SOL    HW239396   2.554   1.511   8.178 -0.5694 -0.2921  0.1010
 9255SOL     OW39397   1.121   0.960   9.251 -0.1138  0.2291  0.1201
 9255SOL    HW139398   1.215   0.967   9.268 -0.4343  0.2251  1.9142
 9255SOL    HW239399   1.076   0.977   9.334 -0.6156 -0.5784  0.0158
 9256SOL     OW39400   4.117   2.220   4.673  0.1596  0.0141 -0.1671
 9256SOL    HW139401   4.111   2.204   4.579 -0.0769 -1.7939  0.1450
 9256SOL    HW239402   4.090   2.136   4.712 -2.2271  0.2535 -1.2905
 9257SOL     OW39403   4.602   0.732   8.878  0.0008  0.1197 -0.7504
 9257SOL    HW139404   4.602   0.804   8.942 -0.7192  1.1529 -1.9270
 9257SOL    HW239405   4.517   0.753   8.840 -0.0659  0.7416 -0.2553
 9258SOL     OW39406   3.502   1.303   3.448 -0.0648  0.4475  1.0789
 9258SOL    HW139407   3.449   1.361   3.502 -0.2700  0.5922  0.7256
 9258SOL    HW239408   3.470   1.219   3.478 -0.5716  0.1169 -0.3582
 9259SOL     OW39409   0.696   3.974   6.291  0.0114  0.6369  0.0547
 9259SOL    HW139410   0.625   4.038   6.292 -1.2450 -0.7765  0.7545
 9259SOL    HW239411   0.649   3.893   6.276  2.3158 -0.3249 -2.0223
 9260SOL     OW39412   2.139   2.794   7.390  0.0681 -0.8158 -0.1294
 9260SOL    HW139413   2.054   2.831   7.413 -1.1426 -2.7477 -1.5036
 9260SOL    HW239414   2.193   2.865   7.425 -1.4778 -0.8974  2.3763
 9261SOL     OW39415   4.541   1.227  14.312  0.5372 -0.7836  0.0566
 9261SOL    HW139416   4.512   1.154  14.367 -0.3651  0.1577  0.8323
 9261SOL    HW239417   4.554   1.285  14.387 -0.2737  0.5538 -0.8563
 9262SOL     OW39418   1.735   1.010  17.574  0.4943  0.0902 -0.1817
 9262SOL    HW139419   1.754   1.025  17.482 -0.2286 -1.1974 -0.5356
 9262SOL    HW239420   1.761   0.919  17.585 -0.6881 -0.0540  1.5740
 9263SOL     OW39421   0.155   4.003   4.614 -0.3206  0.2255  0.6373
 9263SOL    HW139422   0.168   3.910   4.594 -2.1558  0.4942 -1.8613
 9263SOL    HW239423   0.235   4.051   4.590 -0.3497  0.6904  1.4726
 9264SOL     OW39424   0.394   2.715   2.713 -0.0498 -0.6154  0.1162
 9264SOL    HW139425   0.300   2.716   2.695  0.3780 -1.6706 -2.1500
 9264SOL    HW239426   0.392   2.672   2.799  2.7773 -1.2880 -0.1416
 9265SOL     OW39427   0.507   3.779   1.551  0.5707  0.5494  0.0475
 9265SOL    HW139428   0.455   3.729   1.615  1.5033 -0.7578 -0.2034
 9265SOL    HW239429   0.564   3.706   1.526 -0.5529 -0.6988  1.0959
 9266SOL     OW39430   1.832   0.309   1.367  0.0651 -0.5222  0.4834
 9266SOL    HW139431   1.799   0.220   1.361 -1.2843  0.0315 -0.4136
 9266SOL    HW239432   1.913   0.298   1.317 -0.1521 -1.4357  0.3372
 9267SOL     OW39433   4.081   4.261   8.013 -0.6424 -0.5569 -0.1275
 9267SOL    HW139434   4.144   4.218   7.954  0.3380  0.0287  0.4967
 9267SOL    HW239435   4.130   4.341   8.034 -0.5460 -0.1910 -1.7695
 9268SOL     OW39436   0.103   1.270  12.321 -0.1933  0.5234  0.1916
 9268SOL    HW139437   0.069   1.354  12.351  0.1226  1.2942 -1.6118
 9268SOL    HW239438   0.048   1.240  12.249  1.0820 -0.5733 -0.3317
 9269SOL     OW39439   3.779   4.108  11.959  0.5867 -0.5907 -0.5819
 9269SOL    HW139440   3.871   4.096  11.985  0.3665 -1.8783 -0.3848
 9269SOL    HW239441   3.779   4.198  11.928  3.5355  0.2621  1.9208
 9270SOL     OW39442   3.703   3.179   4.442 -0.0809 -0.0858  0.3106
 9270SOL    HW139443   3.661   3.094   4.456  0.1398 -0.3594 -0.7072
 9270SOL    HW239444   3.705   3.190   4.347 -3.3528 -1.5232  0.0661
 9271SOL     OW39445   0.408   3.859  10.695  0.0926 -0.3122 -0.3131
 9271SOL    HW139446   0.329   3.810  10.671 -1.0719  1.8914 -1.0212
 9271SOL    HW239447   0.430   3.816  10.777 -0.2164  2.0997  1.0235
 9272SOL     OW39448   0.649   0.964   2.384 -0.9537  0.7849 -0.3180
 9272SOL    HW139449   0.738   0.929   2.385 -0.9411  0.8163 -0.3624
 9272SOL    HW239450   0.630   0.976   2.477 -2.1853 -1.7412 -0.2501
 9273SOL     OW39451   0.819   4.638  17.524 -0.2454  0.0516  0.1690
 9273SOL    HW139452   0.909   4.667  17.537  0.1557 -1.6017  1.0322
 9273SOL    HW239453   0.774   4.722  17.532 -1.2777 -0.4487 -0.4066
 9274SOL     OW39454   3.264   2.916   3.291 -0.2733  0.1671 -0.0039
 9274SOL    HW139455   3.291   2.827   3.269  1.0241  0.5472  0.0539
 9274SOL    HW239456   3.238   2.899   3.382 -0.4797  1.7884  0.2390
 9275SOL     OW39457   0.401   3.460   1.108  0.1253  0.6297  0.0509
 9275SOL    HW139458   0.383   3.419   1.193  1.6990 -0.5659 -0.1842
 9275SOL    HW239459   0.374   3.550   1.125 -0.7473 -0.2083  3.1578
 9276SOL     OW39460   0.884   3.006   5.326  0.4514 -0.0842 -0.2830
 9276SOL    HW139461   0.866   3.047   5.241  2.4200 -0.6638 -0.9762
 9276SOL    HW239462   0.862   3.083   5.378 -0.0030  0.3269 -1.0827
 9277SOL     OW39463   2.381   0.451  15.227  0.3935  0.3219  0.0927
 9277SOL    HW139464   2.394   0.429  15.135 -0.2483  0.5791 -0.0568
 9277SOL    HW239465   2.451   0.396  15.263 -0.7756 -1.2256 -0.0338
 9278SOL     OW39466   0.561   2.418   3.957  0.1754  0.0422  0.3619
 9278SOL    HW139467   0.581   2.472   3.881 -0.7821 -0.5364 -0.3043
 9278SOL    HW239468   0.560   2.481   4.029 -1.3470 -0.2464  0.6094
 9279SOL     OW39469   1.363   3.253   6.816 -0.4702 -0.7174 -0.1507
 9279SOL    HW139470   1.397   3.248   6.906  3.0710 -0.9100 -1.4962
 9279SOL    HW239471   1.415   3.319   6.770  1.3529 -2.1779 -0.1893
 9280SOL     OW39472   1.372   0.784   5.972  0.1337 -0.2727  0.1816
 9280SOL    HW139473   1.299   0.783   5.910 -0.5380 -0.9440  0.9926
 9280SOL    HW239474   1.367   0.868   6.017 -0.8806  0.4751 -1.3127
 9281SOL     OW39475   2.456   3.917   1.691  0.0761  0.1565  0.0492
 9281SOL    HW139476   2.476   3.849   1.627  0.4391  1.4340 -1.1986
 9281SOL    HW239477   2.469   4.002   1.648 -0.8930  0.2554 -0.0334
 9282SOL     OW39478   4.438   4.560   4.124  0.0295  0.2220  0.2939
 9282SOL    HW139479   4.382   4.575   4.201 -0.2301  1.2808 -0.0934
 9282SOL    HW239480   4.525   4.569   4.161  1.4123 -3.0023 -2.2508
 9283SOL     OW39481   3.344   0.006   0.154  0.6617  0.5363  0.6396
 9283SOL    HW139482   3.308   4.690   0.228 -0.7404 -1.1509 -1.1362
 9283SOL    HW239483   3.312   0.095   0.173  1.9018  1.0012  0.5272
 9284SOL     OW39484   0.897   2.460  15.168 -0.1546  0.3112  0.0557
 9284SOL    HW139485   0.904   2.524  15.098 -0.4326  2.3599  1.8982
 9284SOL    HW239486   0.988   2.456  15.196 -0.4621 -1.4446  0.8240
 9285SOL     OW39487   0.793   1.970   1.629 -0.2272 -0.3291 -0.2588
 9285SOL    HW139488   0.757   1.882   1.616  2.1287 -0.9856 -2.3197
 9285SOL    HW239489   0.763   2.002   1.713 -0.1981 -3.2431  0.8759
 9286SOL     OW39490   3.688   3.046   2.938  0.3353 -0.0871 -0.4370
 9286SOL    HW139491   3.658   3.078   3.023  1.5313 -1.9671  0.7038
 9286SOL    HW239492   3.651   3.120   2.890 -2.8104 -1.6785 -0.4510
 9287SOL     OW39493   0.415   4.252   7.973  0.1711  0.2825  0.5032
 9287SOL    HW139494   0.402   4.340   8.009 -0.8463  1.4800 -2.7820
 9287SOL    HW239495   0.479   4.281   7.907 -0.1658  0.1509  0.1142
 9288SOL     OW39496   3.829   0.210  10.627 -0.2970  0.0760 -0.0676
 9288SOL    HW139497   3.847   0.197  10.534  2.0226 -2.2031  0.6898
 9288SOL    HW239498   3.887   0.153  10.677  0.7060  1.2806  0.1317
 9289SOL     OW39499   2.484   3.094   0.798  0.3627  0.6012  0.0088
 9289SOL    HW139500   2.433   3.098   0.878  1.4573  1.0436  0.6778
 9289SOL    HW239501   2.423   3.142   0.742 -0.9350 -1.8619 -0.6800
 9290SOL     OW39502   3.042   3.431   3.995  0.0698  0.1197 -0.4232
 9290SOL    HW139503   3.092   3.359   4.033 -2.7413 -1.3861  0.4099
 9290SOL    HW239504   3.108   3.500   4.007  1.6459 -1.6157  0.7985
 9291SOL     OW39505   2.801   4.202   4.664  0.2764 -0.4896 -0.1096
 9291SOL    HW139506   2.883   4.221   4.619  1.2031 -2.1432  0.8592
 9291SOL    HW239507   2.742   4.182   4.592 -0.5927  0.2417  0.3937
 9292SOL     OW39508   2.224   0.898   1.355 -0.1135 -0.1424 -0.6514
 9292SOL    HW139509   2.219   0.805   1.334 -0.0246 -0.0746 -0.9725
 9292SOL    HW239510   2.285   0.926   1.286  0.4070  1.2453  0.3835
 9293SOL     OW39511   3.518   1.057   7.672 -0.1136 -0.1051  0.3721
 9293SOL    HW139512   3.430   1.082   7.644 -0.1508  0.0544  0.6321
 9293SOL    HW239513   3.563   1.135   7.705 -0.3067 -0.5330  1.6287
 9294SOL     OW39514   2.290   2.714   4.196  0.3665  0.1230  0.3026
 9294SOL    HW139515   2.254   2.736   4.282 -1.4771  0.6027 -0.5935
 9294SOL    HW239516   2.256   2.627   4.180 -0.3115  0.0427  2.1673
 9295SOL     OW39517   2.276   2.855   6.617 -0.4835 -0.2899 -0.2593
 9295SOL    HW139518   2.223   2.775   6.615  0.6459 -1.1000  2.2428
 9295SOL    HW239519   2.295   2.863   6.710  0.4408 -1.2976 -0.3508
 9296SOL     OW39520   4.000   3.444   2.953  0.1830  0.2215 -0.1657
 9296SOL    HW139521   4.004   3.349   2.968  1.0086  0.2092 -0.4653
 9296SOL    HW239522   4.089   3.464   2.981 -0.1005  2.4553 -0.8753
 9297SOL     OW39523   4.647   1.696   0.714  0.2052 -0.1245 -0.2765
 9297SOL    HW139524   4.683   1.614   0.747 -0.9082 -0.8457 -0.8318
 9297SOL    HW239525   4.721   1.733   0.667  0.4933 -1.2570 -0.6994
 9298SOL     OW39526   1.930   2.436   3.222 -0.0905 -0.1775 -0.0037
 9298SOL    HW139527   1.932   2.528   3.249  2.2516 -0.1698 -0.1817
 9298SOL    HW239528   2.004   2.401   3.272  0.5430  0.5510 -0.4331
 9299SOL     OW39529   2.511   0.234  16.513 -0.2720 -0.0718  0.9434
 9299SOL    HW139530   2.454   0.162  16.485  0.6154  0.8139 -3.0229
 9299SOL    HW239531   2.598   0.209  16.484  0.3419  0.2100  2.5502
 9300SOL     OW39532   3.043   1.783   1.343  0.5108  0.2973 -0.2613
 9300SOL    HW139533   3.027   1.747   1.431 -0.2403 -1.0583 -0.9551
 9300SOL    HW239534   3.041   1.700   1.296  2.3191  0.4156 -0.5337
 9301SOL     OW39535   1.363   1.569   5.634 -0.1271 -0.0248 -0.1539
 9301SOL    HW139536   1.436   1.508   5.624  0.0806 -0.4005  3.3393
 9301SOL    HW239537   1.354   1.568   5.730  1.7404 -0.1438  0.0086
 9302SOL     OW39538   4.706   3.537   5.097  0.1797 -0.1246  0.2670
 9302SOL    HW139539   4.672   3.471   5.036  2.6629 -3.2761  2.3567
 9302SOL    HW239540   0.004   3.605   5.037  0.8516 -1.0293 -0.4317
 9303SOL     OW39541   3.272   2.720   1.139 -0.0869  0.3139  0.9948
 9303SOL    HW139542   3.348   2.728   1.081 -0.5074  0.3756  0.4461
 9303SOL    HW239543   3.273   2.624   1.147  2.0236  0.0951 -1.8762
 9304SOL     OW39544   2.171   0.358   6.853  0.5310 -0.5162 -0.2908
 9304SOL    HW139545   2.146   0.415   6.926  2.6287 -2.0275  1.5983
 9304SOL    HW239546   2.095   0.370   6.796 -0.4425 -2.9265  0.4772
 9305SOL     OW39547   0.597   3.084   7.808  0.1503 -0.1597  0.2001
 9305SOL    HW139548   0.610   3.062   7.715 -1.3488  0.5082 -0.1754
 9305SOL    HW239549   0.502   3.095   7.811 -0.0575 -1.0127 -2.6657
 9306SOL     OW39550   0.786   0.060   4.287 -0.2322  0.2990  0.3798
 9306SOL    HW139551   0.868   0.024   4.321 -1.3931  0.3953  3.2698
 9306SOL    HW239552   0.732   0.054   4.366  1.9166  0.3427  1.8350
 9307SOL     OW39553   1.300   1.521   7.377  0.3817 -0.0106  0.7283
 9307SOL    HW139554   1.396   1.516   7.376  0.3272 -1.0197  0.8951
 9307SOL    HW239555   1.291   1.609   7.340 -1.1465  0.1116  1.3975
 9308SOL     OW39556   4.530   2.128   6.553 -0.3075  0.6974  0.0890
 9308SOL    HW139557   4.508   2.172   6.471 -1.2882 -1.2214 -0.6847
 9308SOL    HW239558   4.618   2.166   6.559 -0.8707  2.1689 -0.8684
 9309SOL     OW39559   2.237   2.578   3.882 -1.2387 -0.7537 -0.0754
 9309SOL    HW139560   2.219   2.512   3.815  0.6402 -1.2786 -0.0743
 9309SOL    HW239561   2.319   2.540   3.915 -0.1570  1.0452 -0.7206
 9310SOL     OW39562   0.121   1.382   4.991  0.0638 -0.0975  0.2869
 9310SOL    HW139563   0.073   1.433   4.924  0.3054 -0.8646 -0.4713
 9310SOL    HW239564   0.099   1.439   5.065  1.0454 -0.9528  1.2242
 9311SOL     OW39565   1.079   2.512  12.203  0.2155 -0.6553 -0.2547
 9311SOL    HW139566   1.139   2.439  12.217 -1.8958 -2.0110  1.5490
 9311SOL    HW239567   1.076   2.512  12.107  4.0152 -1.0370 -0.3950
 9312SOL     OW39568   1.997   2.769  17.266 -0.4878  1.2464 -0.0590
 9312SOL    HW139569   1.952   2.830  17.207  0.3084  0.7624 -1.1828
 9312SOL    HW239570   2.086   2.771  17.229 -0.5212  0.2428 -0.1928
 9313SOL     OW39571   3.874   3.397  10.118  0.4908  0.1353  0.4845
 9313SOL    HW139572   3.861   3.477  10.168  0.0772  0.7727 -0.6323
 9313SOL    HW239573   3.786   3.361  10.111  1.0381 -0.8266 -1.5929
 9314SOL     OW39574   1.031   2.907   6.571  0.4713  0.2232 -0.4558
 9314SOL    HW139575   0.969   2.948   6.511 -0.0174  0.9980  0.5761
 9314SOL    HW239576   1.075   2.982   6.611  1.5815 -0.1759 -0.9535
 9315SOL     OW39577   3.177   2.013   4.114 -0.1167 -0.2002  0.3360
 9315SOL    HW139578   3.124   2.073   4.167 -0.0152 -0.2851  0.5313
 9315SOL    HW239579   3.117   1.939   4.104  1.0842 -0.7789 -2.4094
 9316SOL     OW39580   1.454   0.527   6.217 -0.1668 -0.2957  0.4287
 9316SOL    HW139581   1.478   0.538   6.125 -0.3408 -0.1228  0.4044
 9316SOL    HW239582   1.443   0.432   6.222 -0.6256 -0.1873  1.5718
 9317SOL     OW39583   3.355   0.973   2.076 -0.4471  0.5582 -0.7032
 9317SOL    HW139584   3.364   0.884   2.041  2.1470  1.0304 -1.2680
 9317SOL    HW239585   3.268   0.949   2.106  1.6799 -2.2531  3.2549
 9318SOL     OW39586   2.988   3.359   1.746 -0.0087 -0.0368 -0.0881
 9318SOL    HW139587   2.999   3.339   1.839  0.1555  0.7197  0.0539
 9318SOL    HW239588   3.077   3.386   1.725  0.0707  0.4105  0.8449
 9319SOL     OW39589   4.487   0.606  12.883  0.2162 -0.3707  0.6846
 9319SOL    HW139590   4.445   0.520  12.877 -2.2563  1.0434 -1.7434
 9319SOL    HW239591   4.485   0.637  12.792 -3.0064 -0.3699  0.7710
 9320SOL     OW39592   2.663   3.324   7.896  0.6466 -0.4453 -0.5171
 9320SOL    HW139593   2.579   3.285   7.918  1.3969 -1.6377  0.2393
 9320SOL    HW239594   2.723   3.263   7.940  0.8460  0.1803  0.0838
 9321SOL     OW39595   1.806   2.356   2.630  0.4859 -0.0634 -0.9321
 9321SOL    HW139596   1.743   2.299   2.675  1.4735 -1.0429 -0.7761
 9321SOL    HW239597   1.784   2.430   2.686  2.7387 -1.0860  1.3151
 9322SOL     OW39598   2.582   3.460   6.058 -0.3512 -0.5712 -0.0046
 9322SOL    HW139599   2.573   3.378   6.108 -0.2951 -1.0258 -0.7356
 9322SOL    HW239600   2.671   3.483   6.084  0.4233 -4.5219  0.9273
 9323SOL     OW39601   3.607   1.878  16.374 -0.0158  0.7126  0.2726
 9323SOL    HW139602   3.646   1.856  16.459 -1.2559 -0.8961  0.4284
 9323SOL    HW239603   3.541   1.942  16.400 -0.5645 -0.7752  2.5980
 9324SOL     OW39604   4.657   2.766   6.114  0.0442  0.1827  0.3688
 9324SOL    HW139605   4.706   2.809   6.044 -0.0899 -0.4038 -0.0874
 9324SOL    HW239606   4.663   2.674   6.086  0.2293 -0.4817  2.5735
 9325SOL     OW39607   3.032   2.515   9.151  0.0905  0.2031 -0.7956
 9325SOL    HW139608   2.967   2.564   9.201  0.1385 -0.7662  0.1951
 9325SOL    HW239609   3.102   2.520   9.216  0.1069 -0.7586 -0.7401
 9326SOL     OW39610   1.223   3.732   4.617  0.4202 -0.1131 -0.3598
 9326SOL    HW139611   1.316   3.734   4.592  0.7867  1.6732  1.1748
 9326SOL    HW239612   1.191   3.651   4.577  2.2675 -1.1850  0.2695
 9327SOL     OW39613   1.861   4.237   8.388 -0.0481 -0.2743 -0.1224
 9327SOL    HW139614   1.928   4.197   8.334  0.8451  1.3348 -0.2323
 9327SOL    HW239615   1.917   4.249   8.465 -0.7383  1.3054  0.1576
 9328SOL     OW39616   1.458   3.412  11.366  0.1587  0.4026 -0.0439
 9328SOL    HW139617   1.400   3.387  11.294 -1.3958 -2.5326  2.2618
 9328SOL    HW239618   1.419   3.365  11.439  1.8253 -0.4872  0.2619
 9329SOL     OW39619   2.917   2.394   5.647  0.5516  0.3685  0.4434
 9329SOL    HW139620   2.828   2.369   5.624  0.4616  0.9403  0.1775
 9329SOL    HW239621   2.908   2.489   5.653 -0.2302  0.2871  0.5027
 9330SOL     OW39622   0.340   0.670   2.768 -0.0651 -0.5004  0.2649
 9330SOL    HW139623   0.338   0.599   2.832  1.0085 -1.4869 -0.7931
 9330SOL    HW239624   0.431   0.696   2.784  0.3252  0.1058 -2.9399
 9331SOL     OW39625   2.347   4.100   0.183 -0.4117  0.2994  0.4797
 9331SOL    HW139626   2.320   4.083   0.093  1.4775  0.2343 -0.0808
 9331SOL    HW239627   2.261   4.120   0.219 -0.1906 -1.9907  2.2875
 9332SOL     OW39628   2.304   3.871  17.342 -0.1489 -0.8665 -0.1511
 9332SOL    HW139629   2.249   3.913  17.276 -0.3154 -0.9306 -0.0532
 9332SOL    HW239630   2.242   3.870  17.415  1.2173 -0.0284  1.0160
 9333SOL     OW39631   4.424   3.076   6.818 -0.9403  0.0091 -0.3008
 9333SOL    HW139632   4.501   3.047   6.866  0.5145  3.1099 -0.7524
 9333SOL    HW239633   4.462   3.148   6.768  0.4289  0.3414  1.2382
 9334SOL     OW39634   1.106   3.614   0.511 -0.4138  0.2605 -0.5165
 9334SOL    HW139635   1.015   3.643   0.519  0.0592  1.4858  0.4301
 9334SOL    HW239636   1.150   3.605   0.595  0.8856  0.3524 -1.1751
 9335SOL     OW39637   0.308   2.982   8.561  0.2790  0.3513 -0.2519
 9335SOL    HW139638   0.385   2.933   8.590 -1.3720 -1.4921  0.9314
 9335SOL    HW239639   0.322   3.062   8.612 -0.7886 -1.1474  2.3725
 9336SOL     OW39640   0.792   0.907   2.991  0.1346 -0.1132 -0.3398
 9336SOL    HW139641   0.785   0.958   3.071  0.6635 -0.6429  0.0511
 9336SOL    HW239642   0.885   0.889   2.976 -0.2019 -0.5042 -1.9614
 9337SOL     OW39643   2.910   2.293   3.066  0.4144  0.6220  0.2535
 9337SOL    HW139644   2.932   2.384   3.045  1.6341  0.6753  1.7783
 9337SOL    HW239645   2.889   2.265   2.977 -1.1888  2.7732 -0.0431
 9338SOL     OW39646   4.199   2.413   5.363 -0.1941  0.6819 -0.0415
 9338SOL    HW139647   4.137   2.356   5.317  0.8509 -0.1493 -0.4300
 9338SOL    HW239648   4.188   2.389   5.455  0.1585 -1.3959 -0.5317
 9339SOL     OW39649   4.528   4.534   3.296 -0.4450  0.2950 -0.0757
 9339SOL    HW139650   4.521   4.602   3.363 -1.0138  2.1231 -2.0028
 9339SOL    HW239651   4.465   4.466   3.322  0.5569 -0.5980  0.0128
 9340SOL     OW39652   1.681   2.563  11.146 -0.6231  0.1044 -0.3724
 9340SOL    HW139653   1.760   2.583  11.096  0.7232 -3.0979  0.4600
 9340SOL    HW239654   1.710   2.576  11.237  0.4641 -1.2844 -0.5064
 9341SOL     OW39655   2.203   2.704   9.051 -0.1791  0.1328 -0.0264
 9341SOL    HW139656   2.142   2.656   8.995  1.5346  0.7580 -2.4048
 9341SOL    HW239657   2.283   2.689   9.001 -0.3520  1.5076 -0.7399
 9342SOL     OW39658   2.980   3.437   3.366 -0.0563 -0.7547 -0.2691
 9342SOL    HW139659   3.002   3.405   3.453  1.3730 -3.6969 -1.6810
 9342SOL    HW239660   2.886   3.441   3.381  0.0011 -0.3364 -0.0288
 9343SOL     OW39661   1.644   1.356   6.852 -0.5328  0.1202  0.7731
 9343SOL    HW139662   1.664   1.309   6.933  3.3207  0.7029  0.1471
 9343SOL    HW239663   1.589   1.421   6.896  1.5374  1.4103  1.4567
 9344SOL     OW39664   0.368   1.975   5.805 -0.1064  0.2302  0.3732
 9344SOL    HW139665   0.400   1.913   5.871 -0.5326 -1.0206 -0.5867
 9344SOL    HW239666   0.315   1.921   5.746  1.0192 -2.2221  1.5718
 9345SOL     OW39667   4.521   2.721  14.322 -0.0348 -0.6461 -0.1105
 9345SOL    HW139668   4.478   2.652  14.273 -0.3695 -1.1713  0.9244
 9345SOL    HW239669   4.484   2.795  14.274  1.4930 -0.6799 -1.3669
 9346SOL     OW39670   4.471   3.949   3.674 -0.1772  0.4583 -0.1173
 9346SOL    HW139671   4.476   3.899   3.592  3.1819 -0.2678  0.5557
 9346SOL    HW239672   4.380   3.939   3.701 -0.1709 -1.4938 -0.8182
 9347SOL     OW39673   0.074   4.529   5.293  0.0398 -0.5873 -0.8447
 9347SOL    HW139674   0.078   4.451   5.238 -1.4610 -1.6448  0.5661
 9347SOL    HW239675   0.075   4.590   5.219 -0.3250 -0.3770 -0.6754
 9348SOL     OW39676   3.233   2.717   7.515  0.2785  0.4768  0.3353
 9348SOL    HW139677   3.319   2.748   7.546  1.2423  0.3709 -2.2347
 9348SOL    HW239678   3.216   2.774   7.440 -0.6723  0.7916  0.7861
 9349SOL     OW39679   3.190   0.515  15.166 -0.4909  0.1078 -0.0767
 9349SOL    HW139680   3.098   0.490  15.161 -1.0418  2.4202 -1.4912
 9349SOL    HW239681   3.181   0.564  15.248  0.7270 -0.7567  0.5791
 9350SOL     OW39682   4.678   2.158   7.336 -0.1885  0.6128 -0.0461
 9350SOL    HW139683   4.683   2.092   7.405 -0.6415 -2.0269 -2.5100
 9350SOL    HW239684   4.595   2.145   7.291  0.7514  1.3448 -2.0341
 9351SOL     OW39685   2.060   3.314   4.957 -0.5761 -0.1884 -0.2445
 9351SOL    HW139686   2.131   3.333   4.896 -1.0168 -2.2433 -1.4093
 9351SOL    HW239687   2.033   3.232   4.915 -1.8650  0.0875  0.0607
 9352SOL     OW39688   3.725   2.775  10.210 -0.4560 -0.0754 -0.1365
 9352SOL    HW139689   3.750   2.803  10.121  0.1692 -1.6436 -0.4430
 9352SOL    HW239690   3.773   2.692  10.212  0.1281  0.2748  0.4489
 9353SOL     OW39691   2.919   4.205   7.051 -0.6662  0.1107  0.4660
 9353SOL    HW139692   2.856   4.144   7.014 -0.7871  0.5618 -0.0645
 9353SOL    HW239693   2.935   4.262   6.976 -1.3363 -0.8040 -0.3788
 9354SOL     OW39694   2.901   0.938   7.178  0.7460  0.3391  0.5223
 9354SOL    HW139695   2.887   0.965   7.087  1.4607  1.5561  0.7850
 9354SOL    HW239696   2.841   0.866   7.196 -0.5463  1.3773  0.3417
 9355SOL     OW39697   2.977   0.438   6.141 -0.2178 -0.5097 -0.1522
 9355SOL    HW139698   3.066   0.472   6.143 -0.1257 -0.7253 -0.5344
 9355SOL    HW239699   2.976   0.388   6.223 -0.0408 -0.5621 -0.1835
 9356SOL     OW39700   3.118   0.236   4.522 -0.3472 -0.5753 -0.1017
 9356SOL    HW139701   3.106   0.262   4.613 -1.5773 -1.0005 -0.1428
 9356SOL    HW239702   3.038   0.262   4.477 -0.3531 -0.1655  0.1425
 9357SOL     OW39703   3.546   3.957   5.267 -0.5478 -0.6140  0.5931
 9357SOL    HW139704   3.619   3.920   5.317  1.7443  0.1860 -2.1497
 9357SOL    HW239705   3.589   3.996   5.191 -3.5460  0.5765 -0.5087
 9358SOL     OW39706   0.867   2.159  14.138  0.2035  1.1664 -0.0733
 9358SOL    HW139707   0.819   2.242  14.135 -2.3380 -0.2908  0.3753
 9358SOL    HW239708   0.798   2.094  14.128 -1.4535  3.0920 -1.0184
 9359SOL     OW39709   0.284   1.396   9.955 -0.1057  0.1321  0.3904
 9359SOL    HW139710   0.232   1.360  10.027  1.4214 -1.5249  0.6834
 9359SOL    HW239711   0.302   1.484   9.987  0.4276 -0.7111  2.4400
 9360SOL     OW39712   1.493   3.475  15.542 -0.1430 -0.6499  0.7300
 9360SOL    HW139713   1.427   3.516  15.599 -1.6242 -0.0211 -1.4441
 9360SOL    HW239714   1.559   3.544  15.553  0.2355 -0.9379  0.2200
 9361SOL     OW39715   1.622   2.134  15.181  0.0689  0.1720 -1.0284
 9361SOL    HW139716   1.685   2.073  15.141 -0.2377  0.1466 -1.4692
 9361SOL    HW239717   1.601   2.187  15.105 -0.7093  0.2438 -0.7572
 9362SOL     OW39718   4.636   2.434   0.112  0.2064  0.3264 -0.5513
 9362SOL    HW139719   4.731   2.441   0.106  0.1313  0.8689 -1.1366
 9362SOL    HW239720   4.618   2.367   0.046  0.8954 -0.4400  0.0346
 9363SOL     OW39721   3.547   1.798   1.768 -0.7672  0.5045 -0.4128
 9363SOL    HW139722   3.487   1.723   1.759 -2.2847  1.5189  1.1702
 9363SOL    HW239723   3.542   1.832   1.679  1.5597 -0.1097 -0.7688
 9364SOL     OW39724   2.616   1.988  10.005 -0.1717  0.5505  0.5565
 9364SOL    HW139725   2.529   1.962   9.973  1.0471 -0.9719 -1.4990
 9364SOL    HW239726   2.660   2.007   9.922 -1.0122  0.1155  0.0064
 9365SOL     OW39727   0.884   0.347   4.628  0.1776  0.3445  0.4942
 9365SOL    HW139728   0.914   0.257   4.618 -0.7409  0.3732 -2.2677
 9365SOL    HW239729   0.796   0.329   4.662 -0.8142  2.3735 -1.0397
 9366SOL     OW39730   2.353   1.230   9.206  0.2086 -0.4088 -0.4860
 9366SOL    HW139731   2.336   1.237   9.300  1.9832 -0.5702 -0.1481
 9366SOL    HW239732   2.449   1.225   9.208  0.1895 -0.4429  0.9505
 9367SOL     OW39733   3.964   0.558   7.925 -0.8405 -0.2931  0.2772
 9367SOL    HW139734   4.028   0.627   7.944 -1.7781 -0.1916  3.1009
 9367SOL    HW239735   3.896   0.610   7.880 -0.9582 -0.4999  0.2180
 9368SOL     OW39736   2.962   0.893   8.673  0.1097  0.5613 -0.3330
 9368SOL    HW139737   2.955   0.809   8.719 -2.7018  0.1832 -1.4251
 9368SOL    HW239738   2.873   0.930   8.676  0.0372  0.3004  0.7833
 9369SOL     OW39739   1.860   3.425  17.207  0.6779 -0.0543 -0.2876
 9369SOL    HW139740   1.862   3.437  17.112 -0.8333  1.8836 -0.0620
 9369SOL    HW239741   1.949   3.396  17.230  0.3695 -0.4842  0.3672
 9370SOL     OW39742   0.641   1.654   5.995  0.1377 -0.4997  0.5769
 9370SOL    HW139743   0.658   1.745   6.019 -0.8481 -0.0078 -0.5798
 9370SOL    HW239744   0.637   1.656   5.899  0.7708 -1.0875  0.5372
 9371SOL     OW39745   2.762   0.028   9.326 -0.3816  0.0321 -0.7456
 9371SOL    HW139746   2.733   4.670   9.330  1.3647 -0.5055 -0.2881
 9371SOL    HW239747   2.825   0.025   9.254 -1.9006 -1.2395 -2.0235
 9372SOL     OW39748   4.668   0.484   2.998  0.3886  0.0875 -0.6855
 9372SOL    HW139749   4.649   0.501   2.906  0.1296  0.8594 -0.4850
 9372SOL    HW239750   4.707   0.564   3.034  1.4604 -1.3432  1.3980
 9373SOL     OW39751   4.510   3.975   7.375  0.1866 -0.5646 -0.3649
 9373SOL    HW139752   4.547   3.887   7.365 -0.6595 -0.9076 -0.4900
 9373SOL    HW239753   4.432   3.970   7.320  0.8360  2.6194 -1.5511
 9374SOL     OW39754   2.455   4.429  10.252  0.2948 -0.3084  0.7939
 9374SOL    HW139755   2.523   4.394  10.308  1.2717 -0.3925 -0.4317
 9374SOL    HW239756   2.493   4.500  10.201 -2.9891  2.0797  1.6976
 9375SOL     OW39757   2.279   1.007   2.897 -0.0735 -0.1104 -0.1608
 9375SOL    HW139758   2.366   1.006   2.859 -0.1470  1.4776 -0.3530
 9375SOL    HW239759   2.222   0.973   2.828 -0.5690 -2.6658  1.4863
 9376SOL     OW39760   1.732   2.099   5.723  0.1888  0.2452  0.2038
 9376SOL    HW139761   1.653   2.092   5.776 -0.0307 -0.2089 -0.1877
 9376SOL    HW239762   1.709   2.184   5.684  1.0536  0.6535  0.5638
 9377SOL     OW39763   2.424   2.171   3.910  0.6420  0.4614 -1.0038
 9377SOL    HW139764   2.457   2.142   3.825  2.3097  1.4540 -0.6825
 9377SOL    HW239765   2.479   2.248   3.919  0.0181  0.7437  0.4639
 9378SOL     OW39766   0.431   2.396   6.207 -0.5307  0.5753 -0.3985
 9378SOL    HW139767   0.370   2.451   6.158 -0.0838  0.4495 -1.0905
 9378SOL    HW239768   0.381   2.315   6.201  1.3561 -0.7551  2.0830
 9379SOL     OW39769   4.467   3.374   8.029  0.3714 -0.3881 -0.3439
 9379SOL    HW139770   4.558   3.401   8.037  0.1947 -0.6419  2.8002
 9379SOL    HW239771   4.424   3.428   8.096 -1.8542  1.5437 -3.3191
 9380SOL     OW39772   1.953   2.225   2.240 -0.3069  0.5811  0.3019
 9380SOL    HW139773   1.979   2.134   2.227 -0.1430  0.9462 -1.9707
 9380SOL    HW239774   1.869   2.202   2.277 -0.5383  0.4196 -0.3291
 9381SOL     OW39775   3.375   1.936   9.790  0.0691  0.3796  0.0433
 9381SOL    HW139776   3.452   1.990   9.771  1.4958 -1.6201  0.1888
 9381SOL    HW239777   3.318   2.007   9.761  0.2135  0.9130  1.0537
 9382SOL     OW39778   2.952   4.376   8.678  0.1045 -0.0256  0.0993
 9382SOL    HW139779   2.874   4.404   8.630 -0.3148 -0.4944  0.5126
 9382SOL    HW239780   2.973   4.456   8.726  0.0663  0.3165 -0.4539
 9383SOL     OW39781   0.235   1.426   8.033 -0.1216  0.1706 -0.2368
 9383SOL    HW139782   0.319   1.434   8.078  0.5891  0.1725 -1.5686
 9383SOL    HW239783   0.200   1.515   8.034  0.1112  0.2763 -1.7297
 9384SOL     OW39784   2.082   4.673   6.738 -0.0612 -0.2786 -0.5581
 9384SOL    HW139785   2.027   4.637   6.807  2.6564 -0.7016  1.3858
 9384SOL    HW239786   2.157   4.705   6.788  0.8374 -0.0545 -2.0387
 9385SOL     OW39787   2.132   4.422   0.081 -0.4515  0.6088  0.2827
 9385SOL    HW139788   2.123   4.351   0.017  0.8237  0.5636  0.1525
 9385SOL    HW239789   2.215   4.463   0.055  0.0759 -1.1819 -0.8115
 9386SOL     OW39790   4.040   4.714   8.697 -0.2265 -0.0039  0.0098
 9386SOL    HW139791   3.948   4.688   8.702 -0.0159 -0.6429  0.5716
 9386SOL    HW239792   4.094   4.637   8.714 -0.1748  0.5550  2.3953
 9387SOL     OW39793   4.537   0.854   4.396  0.2337  0.3384 -0.4461
 9387SOL    HW139794   4.534   0.856   4.492 -3.4140  1.0237 -0.5693
 9387SOL    HW239795   4.494   0.933   4.362  0.7604  1.1421  0.7227
 9388SOL     OW39796   3.468   2.567   3.985  0.3962  0.4591  0.0574
 9388SOL    HW139797   3.390   2.602   3.944  1.6185  1.2983 -1.5322
 9388SOL    HW239798   3.521   2.552   3.907  0.7551  0.1278  0.3624
 9389SOL     OW39799   3.636   0.538   6.469 -0.2746 -0.1785 -0.1668
 9389SOL    HW139800   3.724   0.560   6.440 -0.6086 -0.4564 -1.3929
 9389SOL    HW239801   3.581   0.515   6.394  0.0175 -2.7182  0.4102
 9390SOL     OW39802   3.496   4.416  14.754 -0.2020 -0.3719  0.7618
 9390SOL    HW139803   3.550   4.373  14.821 -0.6836  0.6071  1.7713
 9390SOL    HW239804   3.443   4.467  14.815 -0.4074  1.0078 -0.5758
 9391SOL     OW39805   2.821   0.121   7.002  0.4440  0.0169 -0.2370
 9391SOL    HW139806   2.852   0.165   6.923  3.0852 -0.7257  0.4013
 9391SOL    HW239807   2.863   0.173   7.070 -0.8098  0.1488  0.4314
 9392SOL     OW39808   2.492   1.631   4.081 -0.5740  0.0463 -0.6869
 9392SOL    HW139809   2.408   1.589   4.063  0.1914 -1.3269 -1.1051
 9392SOL    HW239810   2.556   1.594   4.020  0.7300 -0.3910  0.9344
 9393SOL     OW39811   3.584   1.507  11.055 -0.4824 -0.3418  0.3054
 9393SOL    HW139812   3.588   1.603  11.054  2.6217 -0.4356  1.8641
 9393SOL    HW239813   3.665   1.476  11.014  0.5019  0.8233  1.3689
 9394SOL     OW39814   3.252   4.720   9.717  0.3256 -0.1179 -0.1736
 9394SOL    HW139815   3.265   0.068   9.666  0.5893 -0.4025 -0.5528
 9394SOL    HW239816   3.199   0.028   9.786  1.0845 -1.5416  1.2492
 9395SOL     OW39817   3.790   2.144   3.903  0.0862 -0.1860  0.0743
 9395SOL    HW139818   3.724   2.203   3.867  0.3584  0.1077  0.0616
 9395SOL    HW239819   3.737   2.090   3.962 -0.0424 -0.1434 -0.0027
 9396SOL     OW39820   3.198   0.151  13.195  0.0556  0.0428  0.2739
 9396SOL    HW139821   3.127   0.172  13.135 -0.7516  1.3721  1.6749
 9396SOL    HW239822   3.170   0.223  13.252 -2.7499 -0.8779  0.0484
 9397SOL     OW39823   0.685   0.131  17.505  0.3697 -0.4788 -0.2885
 9397SOL    HW139824   0.593   0.148  17.484 -0.1002 -3.2836 -0.3757
 9397SOL    HW239825   0.728   0.213  17.480 -2.4087  0.7584 -0.9976
 9398SOL     OW39826   3.579   3.585   5.393  0.1449 -0.1334  0.4045
 9398SOL    HW139827   3.642   3.611   5.459  0.1373  0.7559  0.0561
 9398SOL    HW239828   3.636   3.580   5.316 -0.9032  2.4430 -0.5335
 9399SOL     OW39829   1.003   1.963   0.191  0.1033  0.1914 -0.2129
 9399SOL    HW139830   0.928   1.999   0.145 -0.3494 -0.2058  0.2104
 9399SOL    HW239831   0.961   1.884   0.223 -1.4128  0.8511 -0.6120
 9400SOL     OW39832   4.358   3.446   8.308  0.1949 -0.0561 -0.3301
 9400SOL    HW139833   4.271   3.406   8.307  1.0568 -1.9846  2.2597
 9400SOL    HW239834   4.397   3.376   8.360 -1.4139 -1.0024 -0.4121
 9401SOL     OW39835   2.766   3.401   3.557 -0.1159 -0.1098  0.7425
 9401SOL    HW139836   2.731   3.313   3.548  1.0759 -0.4967 -0.0500
 9401SOL    HW239837   2.746   3.413   3.649  0.0408 -1.9728  1.0148
 9402SOL     OW39838   4.722   0.960   7.905 -0.2973 -0.4911  0.5069
 9402SOL    HW139839   0.084   0.975   7.910 -0.2351 -1.2675  1.5807
 9402SOL    HW239840   4.693   1.051   7.893 -0.7921 -0.4834  1.7953
 9403SOL     OW39841   4.647   0.023  13.720  0.2177  0.5226 -0.0096
 9403SOL    HW139842   4.571   0.017  13.778 -1.9335  0.2577 -2.8352
 9403SOL    HW239843   4.728   0.015  13.770 -0.1178  0.7492  0.5668
 9404SOL     OW39844   1.887   4.087   4.021  0.4960  0.2980 -0.1491
 9404SOL    HW139845   1.916   4.004   3.983 -0.3446  0.3162 -0.8443
 9404SOL    HW239846   1.809   4.062   4.070  0.6183  0.0671 -0.0742
 9405SOL     OW39847   4.624   0.002   2.713  0.0844 -0.3131  0.7950
 9405SOL    HW139848   4.550   4.680   2.739  0.2316 -1.0544 -0.3830
 9405SOL    HW239849   4.633   0.056   2.792  1.4080  0.8407 -0.1473
 9406SOL     OW39850   3.159   1.949   2.409  0.1625 -0.0842  0.5610
 9406SOL    HW139851   3.071   1.939   2.374 -0.2137  1.9649  0.9059
 9406SOL    HW239852   3.197   1.991   2.332 -2.0116 -1.2850 -1.1731
 9407SOL     OW39853   3.085   0.130  12.793 -0.0372 -0.1163 -0.2586
 9407SOL    HW139854   3.007   0.130  12.848 -0.8105 -0.4010 -1.3528
 9407SOL    HW239855   3.045   0.155  12.710 -0.4455  2.8677  0.8372
 9408SOL     OW39856   3.400   4.516   7.267  0.0290 -0.4161 -0.6134
 9408SOL    HW139857   3.324   4.575   7.258  1.3826  1.2792 -1.0374
 9408SOL    HW239858   3.468   4.573   7.230 -0.2812 -0.7536 -1.7284
 9409SOL     OW39859   1.751   2.040   6.105 -0.0337  0.3321 -0.5627
 9409SOL    HW139860   1.800   1.963   6.133  0.0428 -0.1617 -2.0498
 9409SOL    HW239861   1.660   2.011   6.112  0.3038 -0.2431  1.4654
 9410SOL     OW39862   2.035   3.891   5.302  0.5745 -0.4023  0.0190
 9410SOL    HW139863   2.034   3.849   5.388 -1.4936 -1.1353 -0.3509
 9410SOL    HW239864   1.943   3.920   5.301  0.3551 -1.1652 -2.5141
 9411SOL     OW39865   4.724   0.224  10.924 -0.0705  0.2786  0.0331
 9411SOL    HW139866   0.010   0.250  11.014  0.3548  0.0898 -0.0008
 9411SOL    HW239867   0.084   0.220  10.900 -0.2701 -1.2071 -0.5078
 9412SOL     OW39868   0.244   4.630   5.677 -0.4739 -0.4535 -0.5222
 9412SOL    HW139869   0.291   4.617   5.595  1.1290 -0.1717  0.3560
 9412SOL    HW239870   0.195   4.548   5.670 -2.5436  0.7977 -0.7519
 9413SOL     OW39871   3.451   0.169   7.094 -0.7699 -0.9547 -0.7285
 9413SOL    HW139872   3.506   0.127   7.029  1.2793  0.3847  0.1395
 9413SOL    HW239873   3.509   0.225   7.146 -0.2748 -1.2751 -0.9406
 9414SOL     OW39874   4.360   4.633   2.750 -0.3643 -0.1876 -0.0618
 9414SOL    HW139875   4.322   4.698   2.691  0.7168  1.4338  1.0556
 9414SOL    HW239876   4.280   4.589   2.780 -1.6795  2.3250  0.0967
 9415SOL     OW39877   3.697   1.444   5.640  0.3101  0.3557 -0.0285
 9415SOL    HW139878   3.698   1.349   5.650  0.4786  0.2224 -1.3058
 9415SOL    HW239879   3.746   1.468   5.718 -0.2053 -0.0786  0.4275
 9416SOL     OW39880   3.619   0.194   1.245 -0.0915 -0.2769 -0.4680
 9416SOL    HW139881   3.571   0.192   1.328  3.1576  1.2415  1.4292
 9416SOL    HW239882   3.682   0.123   1.261 -1.3641 -1.3828 -0.3146
 9417SOL     OW39883   4.424   1.559   5.645  0.6141  0.1474  0.1113
 9417SOL    HW139884   4.502   1.517   5.683  0.3545 -0.1866  0.2805
 9417SOL    HW239885   4.356   1.493   5.660  2.4300 -1.4014  1.5907
 9418SOL     OW39886   3.771   1.998   2.573  0.0701  0.0301  0.8263
 9418SOL    HW139887   3.733   1.911   2.579  0.9449 -0.6189 -2.7802
 9418SOL    HW239888   3.814   1.982   2.489 -0.5075  1.1596  0.3182
 9419SOL     OW39889   3.229   1.259  10.814 -0.2605 -0.1909 -0.2707
 9419SOL    HW139890   3.187   1.179  10.783  0.4059 -0.7013  0.1644
 9419SOL    HW239891   3.319   1.229  10.826 -0.2311 -0.1008 -0.2620
 9420SOL     OW39892   0.438   4.329   0.236  0.0579 -0.8068 -0.5437
 9420SOL    HW139893   0.388   4.373   0.305  0.9852  1.3783 -1.2694
 9420SOL    HW239894   0.525   4.307   0.269  0.5404  1.3334 -0.4453
 9421SOL     OW39895   3.970   0.341  16.418  0.3980 -0.1431  0.1941
 9421SOL    HW139896   4.031   0.278  16.456  0.0692 -0.5886 -0.0216
 9421SOL    HW239897   3.961   0.397  16.495  0.2871 -0.2933  0.2896
 9422SOL     OW39898   1.163   2.907   4.054 -0.1135 -0.0829 -0.1758
 9422SOL    HW139899   1.180   2.887   4.146 -1.4100 -1.5475 -0.2655
 9422SOL    HW239900   1.118   2.825   4.034 -2.7662  1.4317 -0.3122
 9423SOL     OW39901   2.779   3.072   1.967 -0.0588  0.0953 -0.1724
 9423SOL    HW139902   2.838   3.127   2.018  3.7540 -1.9788 -2.3090
 9423SOL    HW239903   2.750   2.998   2.020 -0.3360  0.6454  0.4398
 9424SOL     OW39904   3.617   1.592   7.770 -0.1740 -0.8043  0.5029
 9424SOL    HW139905   3.680   1.615   7.703 -0.9416 -0.7356 -0.2020
 9424SOL    HW239906   3.544   1.560   7.716 -1.8078  1.4512  1.3735
 9425SOL     OW39907   0.066   0.475   0.523  0.6640  0.5028  0.3273
 9425SOL    HW139908   0.082   0.562   0.558 -1.0977  0.2305  1.8228
 9425SOL    HW239909   4.706   0.470   0.549 -0.0969  0.5670 -2.3476
 9426SOL     OW39910   0.218   3.064   5.347 -0.2370 -0.2394  0.1086
 9426SOL    HW139911   0.193   3.097   5.261 -1.8022 -0.1724  0.5989
 9426SOL    HW239912   0.272   2.989   5.321  2.8558  2.2567 -0.7714
 9427SOL     OW39913   3.948   3.089  10.082 -0.0872 -0.3564 -0.2535
 9427SOL    HW139914   4.009   3.034  10.131  0.6371 -1.0521 -1.9419
 9427SOL    HW239915   3.935   3.170  10.133  0.0356 -0.7218  0.3631
 9428SOL     OW39916   1.145   4.104   1.217  0.1525 -0.2258  0.6654
 9428SOL    HW139917   1.155   4.078   1.309 -0.9674  0.4584  0.9763
 9428SOL    HW239918   1.200   4.039   1.173  1.3680  0.5941  0.9761
 9429SOL     OW39919   0.909   3.323  16.260 -0.0854 -0.5765 -0.2061
 9429SOL    HW139920   0.821   3.286  16.268 -0.1834 -0.3557 -0.2600
 9429SOL    HW239921   0.955   3.248  16.296  2.7116  2.4307  2.3806
 9430SOL     OW39922   2.826   1.844   3.551  0.0055  0.3162  0.3896
 9430SOL    HW139923   2.844   1.804   3.636  2.0810  1.8414  0.6620
 9430SOL    HW239924   2.900   1.904   3.539 -1.5803  1.8920 -1.4054
 9431SOL     OW39925   0.850   2.289   4.341 -0.5892  0.2212  0.6305
 9431SOL    HW139926   0.923   2.248   4.387  0.0996 -3.7307 -3.9335
 9431SOL    HW239927   0.821   2.203   4.311  0.1949 -0.0239  0.5583
 9432SOL     OW39928   0.273   1.167  16.514 -0.3517  0.0789 -0.3707
 9432SOL    HW139929   0.355   1.172  16.563 -0.7307 -1.3667  0.3810
 9432SOL    HW239930   0.274   1.072  16.505  1.0162  0.1269 -0.7477
 9433SOL     OW39931   1.431   2.016  11.002  0.4480  0.3411  0.1227
 9433SOL    HW139932   1.355   2.055  11.045 -0.3452 -0.8418 -0.1973
 9433SOL    HW239933   1.397   1.927  11.011 -0.0813  0.5303  0.0225
 9434SOL     OW39934   2.340   1.427   2.197 -0.7138 -0.0439 -0.3005
 9434SOL    HW139935   2.381   1.370   2.132  0.4809 -1.1452  1.4367
 9434SOL    HW239936   2.250   1.425   2.163 -0.4583  0.8302 -1.0242
 9435SOL     OW39937   0.619   4.127   4.992 -0.0461 -0.2477 -0.4027
 9435SOL    HW139938   0.625   4.138   4.897 -1.0008  0.7024 -0.3499
 9435SOL    HW239939   0.555   4.056   4.995 -1.5564  1.0870 -1.3028
 9436SOL     OW39940   1.434   3.043   0.745  0.0574  0.3057  0.0810
 9436SOL    HW139941   1.361   3.038   0.807  0.4504 -0.3707  0.4900
 9436SOL    HW239942   1.454   3.136   0.749 -1.3397  0.7357 -2.3120
 9437SOL     OW39943   3.744   2.634  12.607  0.0921 -0.0634 -0.4864
 9437SOL    HW139944   3.763   2.719  12.568  0.6541  0.8636  1.8496
 9437SOL    HW239945   3.784   2.648  12.693 -0.0752 -0.4853 -0.3403
 9438SOL     OW39946   2.753   2.707   3.788 -0.0257  0.5059  0.0214
 9438SOL    HW139947   2.702   2.768   3.735 -1.9139  0.2821  1.5519
 9438SOL    HW239948   2.725   2.622   3.754  0.0067  1.0185 -1.2542
 9439SOL     OW39949   0.775   4.117  12.696  0.3368  0.5840 -0.2762
 9439SOL    HW139950   0.868   4.109  12.672  0.0784  0.0817 -1.1019
 9439SOL    HW239951   0.746   4.036  12.654 -0.4958  0.7615 -0.0431
 9440SOL     OW39952   0.713   1.329  10.300 -0.2018 -0.2918  0.0947
 9440SOL    HW139953   0.681   1.271  10.369  0.6396 -1.1846 -0.2571
 9440SOL    HW239954   0.771   1.387  10.347 -2.3368  2.2207 -0.3705
 9441SOL     OW39955   2.681   0.436   4.534 -0.0608  0.3844 -0.2365
 9441SOL    HW139956   2.596   0.422   4.492 -1.8015  1.6762  2.8709
 9441SOL    HW239957   2.677   0.362   4.594  1.2534 -0.7367 -1.5541
 9442SOL     OW39958   1.619   2.386   7.105 -0.1447 -0.0427 -0.6206
 9442SOL    HW139959   1.539   2.435   7.086  0.9981  0.9676 -2.7896
 9442SOL    HW239960   1.571   2.306   7.127 -0.8836  0.3142 -0.9412
 9443SOL     OW39961   3.484   1.539   4.349 -0.1493  0.0126  0.3550
 9443SOL    HW139962   3.530   1.508   4.271 -0.5276 -2.7979  1.2570
 9443SOL    HW239963   3.424   1.468   4.372 -2.5139  1.9966  0.4389
 9444SOL     OW39964   4.214   3.078   3.004  0.3267 -0.4224  0.0537
 9444SOL    HW139965   4.218   3.090   2.909 -2.4592  1.4940  0.1440
 9444SOL    HW239966   4.130   3.123   3.018  0.2709  0.7086 -3.7810
 9445SOL     OW39967   3.712   4.586   0.254  0.2287  0.2385 -0.5040
 9445SOL    HW139968   3.644   4.596   0.188 -2.3327 -0.8655  1.9665
 9445SOL    HW239969   3.782   4.531   0.218  1.2557  2.4738 -1.8871
 9446SOL     OW39970   0.729   1.900   7.923  0.1827  0.0919 -0.0217
 9446SOL    HW139971   0.671   1.972   7.903  1.5694  1.5652  1.2641
 9446SOL    HW239972   0.712   1.877   8.015 -0.5335  1.0577  0.0808
 9447SOL     OW39973   3.808   0.619  10.045  0.0489  0.4291 -0.3141
 9447SOL    HW139974   3.882   0.679  10.057 -0.3142  0.6847  0.6446
 9447SOL    HW239975   3.851   0.534  10.058 -0.8610 -0.2795 -1.9592
 9448SOL     OW39976   3.926   1.189  10.086  0.5353  0.9155 -0.4141
 9448SOL    HW139977   3.879   1.237  10.017 -1.2419 -0.9592 -0.4954
 9448SOL    HW239978   3.892   1.100  10.078  0.2315  1.2388 -2.6885
 9449SOL     OW39979   2.611   1.389  13.958  0.0187 -0.0427  0.7144
 9449SOL    HW139980   2.526   1.397  14.002 -1.2621  0.7104 -1.8334
 9449SOL    HW239981   2.624   1.482  13.937  0.2619  0.4338  2.9648
 9450SOL     OW39982   4.111   3.749   0.011 -0.3937  0.2240  0.2931
 9450SOL    HW139983   4.204   3.729   0.018 -0.2359  0.7081 -0.4132
 9450SOL    HW239984   4.107   3.790  17.654  0.3725  2.6836  1.4270
 9451SOL     OW39985   3.988   4.116   8.318  0.4039  0.1426  0.3380
 9451SOL    HW139986   4.022   4.039   8.272 -0.3542 -0.0366  0.0909
 9451SOL    HW239987   4.076   4.152   8.334 -0.9799  3.2803  0.9923
 9452SOL     OW39988   3.278   3.343   4.123  0.0087 -0.4318 -0.6373
 9452SOL    HW139989   3.366   3.344   4.086 -0.1241 -0.4054 -0.9452
 9452SOL    HW239990   3.304   3.313   4.210 -1.5501  0.2466  0.0649
 9453SOL     OW39991   3.388   0.259   3.160 -0.1197  0.7482  0.4170
 9453SOL    HW139992   3.413   0.332   3.104  2.1841 -1.3663 -1.3211
 9453SOL    HW239993   3.473   0.222   3.185 -2.2570 -2.6944  2.6448
 9454SOL     OW39994   3.539   2.421  12.907  0.0391  0.4154  0.4708
 9454SOL    HW139995   3.560   2.507  12.942  3.8639 -0.6533  0.8912
 9454SOL    HW239996   3.629   2.390  12.892 -0.2512 -0.0846 -0.2346
 9455SOL     OW39997   3.886   1.158   4.553 -0.4753  0.1968 -0.1316
 9455SOL    HW139998   3.831   1.211   4.496 -0.7820  0.3999  0.3591
 9455SOL    HW239999   3.823   1.093   4.583  0.5487 -1.1207 -0.8150
 9456SOL     OW40000   2.989   2.530  16.531  0.3757  0.1286  0.3482
 9456SOL    HW140001   2.945   2.594  16.587 -1.5629 -0.9157  0.0267
 9456SOL    HW240002   2.973   2.558  16.441 -0.8251  0.6194  0.7197
 9457SOL     OW40003   2.748   3.562   8.081  0.7856  0.5415 -0.3579
 9457SOL    HW140004   2.820   3.542   8.022 -1.9508 -1.7125 -2.9397
 9457SOL    HW240005   2.708   3.477   8.099 -0.3163  1.5208  1.7670
 9458SOL     OW40006   4.699   1.867   1.767  0.1360  0.6298 -0.6101
 9458SOL    HW140007   4.632   1.927   1.733 -0.0841  0.1362 -1.0357
 9458SOL    HW240008   0.024   1.923   1.819 -1.0393  2.0402 -0.8168
 9459SOL     OW40009   2.527   3.755   5.291 -0.1475  0.6273 -0.0852
 9459SOL    HW140010   2.444   3.796   5.266 -0.4414 -0.9998 -1.8130
 9459SOL    HW240011   2.499   3.664   5.284 -2.8954  1.5993 -1.9500
 9460SOL     OW40012   1.018   4.031   8.312  0.2094 -0.6291  0.2488
 9460SOL    HW140013   0.996   4.008   8.222  2.3003 -0.0338 -0.4062
 9460SOL    HW240014   0.930   4.050   8.344  0.6886 -0.7222  1.6143
 9461SOL     OW40015   1.452   3.886  14.060  0.2562  0.1578 -0.0350
 9461SOL    HW140016   1.534   3.866  14.014  0.9038 -0.1633  1.2387
 9461SOL    HW240017   1.487   3.871  14.148  0.4882  0.5089 -0.0656
 9462SOL     OW40018   3.797   1.249   5.160 -0.0391 -0.4314 -0.1976
 9462SOL    HW140019   3.778   1.284   5.073 -1.0276  1.5940  0.8369
 9462SOL    HW240020   3.757   1.163   5.144 -2.2155  0.5874 -0.2548
 9463SOL     OW40021   1.271   3.447  11.712  0.3453 -0.1901 -0.2351
 9463SOL    HW140022   1.241   3.389  11.642 -1.1462  3.0262 -2.2771
 9463SOL    HW240023   1.296   3.383  11.778  3.0498  0.7542 -0.3336
 9464SOL     OW40024   0.876   2.975  17.088 -0.3042  0.2988  0.0519
 9464SOL    HW140025   0.798   3.029  17.078 -0.4331  0.3036  1.0689
 9464SOL    HW240026   0.835   2.889  17.088  0.2025  0.0480  2.5215
 9465SOL     OW40027   3.562   3.654   7.945  0.2599 -0.8822 -0.6844
 9465SOL    HW140028   3.626   3.713   7.985  0.6451 -0.6395 -1.6647
 9465SOL    HW240029   3.576   3.671   7.852  1.3932  0.7536 -0.2153
 9466SOL     OW40030   1.471   0.932   4.425 -0.3267  0.1249 -0.0648
 9466SOL    HW140031   1.396   0.974   4.465 -0.4392  0.4086 -0.5671
 9466SOL    HW240032   1.439   0.849   4.389  0.4098 -0.4503  0.5935
 9467SOL     OW40033   2.635   1.957   2.329 -0.4121 -0.1908 -0.1110
 9467SOL    HW140034   2.649   1.878   2.380  2.2528  0.1353 -0.3294
 9467SOL    HW240035   2.555   1.941   2.281  1.1563 -3.2747 -1.6594
 9468SOL     OW40036   2.887   2.239   3.650  0.5548 -0.2017 -0.4135
 9468SOL    HW140037   2.891   2.212   3.742 -2.0208  0.4093 -0.1323
 9468SOL    HW240038   2.952   2.183   3.608 -2.7282 -2.4729 -2.4126
 9469SOL     OW40039   1.959   2.209  11.974 -0.2784 -0.0648  0.0573
 9469SOL    HW140040   2.029   2.145  11.966  0.6788  1.0057 -0.1419
 9469SOL    HW240041   1.952   2.210  12.070 -1.4985  0.3682 -0.0336
 9470SOL     OW40042   1.105   0.107   7.108 -0.0286 -0.3783  0.8010
 9470SOL    HW140043   1.169   0.056   7.059  0.2522 -1.6334  2.4540
 9470SOL    HW240044   1.156   0.186   7.123 -0.6089  0.2576 -0.5998
 9471SOL     OW40045   1.240   1.239   4.856 -0.6551  0.1421  0.4430
 9471SOL    HW140046   1.334   1.229   4.836 -1.1048 -0.6825 -1.2437
 9471SOL    HW240047   1.211   1.161   4.810  1.4397 -0.9178  0.8878
 9472SOL     OW40048   2.758   4.543   3.500 -0.5729  0.6914 -0.2077
 9472SOL    HW140049   2.797   4.467   3.457 -1.2652  1.8807 -2.9343
 9472SOL    HW240050   2.669   4.510   3.488  1.6995 -3.4849 -5.4565
 9473SOL     OW40051   0.407   2.775   9.219  0.0700  0.8264  0.2829
 9473SOL    HW140052   0.364   2.845   9.170 -0.4075  0.9273  0.8430
 9473SOL    HW240053   0.340   2.707   9.226 -0.2031  1.2969  2.2237
 9474SOL     OW40054   2.076   1.993  16.474  0.3424  0.2146 -0.3452
 9474SOL    HW140055   1.992   2.038  16.476  0.4411  0.3994 -0.3789
 9474SOL    HW240056   2.121   2.028  16.397  0.8508 -1.7834 -0.9602
 9475SOL     OW40057   4.126   2.088   7.671 -0.1059  0.3626 -0.2171
 9475SOL    HW140058   4.216   2.055   7.668  0.8116  2.7974  0.0837
 9475SOL    HW240059   4.147   2.171   7.714  0.7418 -0.1815  0.4008
 9476SOL     OW40060   2.311   4.320   9.793  0.0720  0.0615 -0.4049
 9476SOL    HW140061   2.231   4.288   9.751  0.2143 -0.2722 -0.4142
 9476SOL    HW240062   2.380   4.268   9.752 -0.5714 -0.0182 -1.3821
 9477SOL     OW40063   2.368   2.751  14.779  0.0767 -0.3324 -0.3093
 9477SOL    HW140064   2.400   2.809  14.848 -2.5240  0.4533  0.2054
 9477SOL    HW240065   2.443   2.694  14.759 -0.0830  0.1301 -2.2496
 9478SOL     OW40066   0.658   3.835   3.066 -0.2046 -0.2536  0.2233
 9478SOL    HW140067   0.648   3.806   3.157 -0.6162 -0.3602  0.1418
 9478SOL    HW240068   0.704   3.916   3.087 -0.7371  0.2093 -0.3982
 9479SOL     OW40069   0.287   0.103   6.967 -0.6062 -0.0541 -0.1691
 9479SOL    HW140070   0.263   0.080   7.056 -0.5857  1.8890  0.3458
 9479SOL    HW240071   0.371   0.148   6.980  0.3468 -1.9916  0.3854
 9480SOL     OW40072   1.536   1.176   4.858  0.2250  0.1405 -0.5415
 9480SOL    HW140073   1.622   1.198   4.893  0.5924 -0.4937 -1.0303
 9480SOL    HW240074   1.561   1.136   4.774 -1.2945  0.1280 -0.9965
 9481SOL     OW40075   4.042   0.311   8.476  0.3362  0.7433  0.2335
 9481SOL    HW140076   3.998   0.231   8.449  0.2057  0.8623  0.0975
 9481SOL    HW240077   4.011   0.310   8.567 -0.8069 -1.0625 -0.1831
 9482SOL     OW40078   3.771   0.442   9.482 -0.1498 -0.4501 -0.4084
 9482SOL    HW140079   3.771   0.530   9.519 -0.5030 -0.5817 -0.0898
 9482SOL    HW240080   3.777   0.390   9.563  2.2773  0.2137 -0.1834
 9483SOL     OW40081   0.884   0.152   2.703  0.4154  0.3786 -0.2018
 9483SOL    HW140082   0.825   0.078   2.719  1.0209 -0.3406 -1.3122
 9483SOL    HW240083   0.973   0.120   2.716 -0.3124 -1.5592 -0.0086
 9484SOL     OW40084   2.274   0.355  16.581  0.0155 -0.5504 -0.1390
 9484SOL    HW140085   2.255   0.308  16.662 -3.5069  0.4831 -0.4068
 9484SOL    HW240086   2.358   0.314  16.557 -0.9446 -2.1245 -0.8006
 9485SOL     OW40087   2.745   1.234   3.838 -0.0120  0.3334  0.6487
 9485SOL    HW140088   2.820   1.239   3.897 -1.1516  0.0502  2.1415
 9485SOL    HW240089   2.699   1.158   3.875 -1.6000  0.4335 -1.1546
 9486SOL     OW40090   0.954   4.285   3.689 -0.1772 -0.6435 -0.3213
 9486SOL    HW140091   0.869   4.270   3.649 -0.7858  1.4375  0.1683
 9486SOL    HW240092   0.986   4.195   3.700  0.8668 -0.0729  1.4552
 9487SOL     OW40093   1.260   0.317   6.490 -0.3155  0.5217  0.2903
 9487SOL    HW140094   1.191   0.367   6.447  0.3474 -1.0802 -2.6181
 9487SOL    HW240095   1.283   0.388   6.551 -2.1146  0.8341  0.5983
 9488SOL     OW40096   0.805   1.205   6.968 -0.5599 -0.0007  0.3357
 9488SOL    HW140097   0.852   1.283   6.937 -0.9853  0.4270  0.7811
 9488SOL    HW240098   0.838   1.194   7.057 -0.7031  3.0269  0.7517
 9489SOL     OW40099   0.114   1.552   7.468  0.1436  0.8714 -0.2965
 9489SOL    HW140100   0.181   1.564   7.400  1.0962 -3.1981 -0.0684
 9489SOL    HW240101   0.147   1.481   7.523  0.3829  0.5577 -0.8467
 9490SOL     OW40102   0.371   3.736   1.117 -0.2231  0.3936 -0.5225
 9490SOL    HW140103   0.298   3.793   1.097 -0.6743 -0.8530 -2.4622
 9490SOL    HW240104   0.404   3.791   1.188 -1.7070 -0.1660  0.6118
 9491SOL     OW40105   0.829   1.012   5.270 -0.3895  0.1404  0.0062
 9491SOL    HW140106   0.879   1.093   5.258 -1.6964  0.9373 -0.0969
 9491SOL    HW240107   0.746   1.044   5.305 -1.1338  0.0527 -1.6981
 9492SOL     OW40108   2.745   4.262   8.172  0.4429  0.5886  0.1502
 9492SOL    HW140109   2.827   4.309   8.157  0.5026  0.1869 -0.7779
 9492SOL    HW240110   2.710   4.278   8.085  1.5964 -0.6247 -0.5252
 9493SOL     OW40111   0.691   2.262  14.991  0.0935 -0.0403 -0.5751
 9493SOL    HW140112   0.672   2.198  15.060 -0.4188 -0.4323 -1.0773
 9493SOL    HW240113   0.786   2.268  15.000  0.0629  0.9632 -1.0096
 9494SOL     OW40114   0.070   1.895   2.822  0.5329 -0.4044 -0.1172
 9494SOL    HW140115   0.144   1.955   2.822  0.6140 -0.5083  1.5896
 9494SOL    HW240116   0.026   1.942   2.894  1.5189  1.3510 -0.6743
 9495SOL     OW40117   0.372   3.177   3.823 -0.3498 -0.4704 -0.1746
 9495SOL    HW140118   0.376   3.105   3.885  0.7002  0.0087  0.3018
 9495SOL    HW240119   0.346   3.253   3.876 -4.7154 -1.3256 -1.1051
 9496SOL     OW40120   2.196   4.106  16.300  0.0392  0.3448  0.2683
 9496SOL    HW140121   2.291   4.120  16.294 -0.3676  2.6352 -1.1288
 9496SOL    HW240122   2.185   4.126  16.207  0.9512  1.1271  0.3187
 9497SOL     OW40123   1.177   1.372   6.356 -0.0131 -0.3363  0.3564
 9497SOL    HW140124   1.267   1.397   6.334  0.4134 -0.3351  2.1124
 9497SOL    HW240125   1.127   1.451   6.337 -0.0194 -0.7626 -1.4063
 9498SOL     OW40126   1.294   2.792   9.094 -0.4969  0.0767 -0.0341
 9498SOL    HW140127   1.270   2.727   9.161  1.8360  0.5263  1.2256
 9498SOL    HW240128   1.346   2.849   9.150 -0.0669 -0.7158  0.3746
 9499SOL     OW40129   0.243   2.670   9.613 -0.3060 -0.2352  0.2061
 9499SOL    HW140130   0.288   2.753   9.629  0.8430 -0.7569 -0.3106
 9499SOL    HW240131   0.156   2.701   9.635  0.0753  0.3590  0.8405
 9500SOL     OW40132   2.387   3.372   1.733  0.0946 -0.7280  0.1216
 9500SOL    HW140133   2.467   3.360   1.784 -0.1949  1.7309  1.1574
 9500SOL    HW240134   2.342   3.428   1.796 -0.8677 -0.7922 -0.5016
 9501SOL     OW40135   3.685   1.533   2.360 -0.1106  0.1887  0.5843
 9501SOL    HW140136   3.663   1.595   2.290  2.8947  0.6920  0.0752
 9501SOL    HW240137   3.725   1.458   2.316 -0.5844 -0.4864  1.3155
 9502SOL     OW40138   0.730   3.632   0.271 -0.1216 -0.7525  0.9247
 9502SOL    HW140139   0.771   3.719   0.276 -0.3466 -0.5931 -0.0025
 9502SOL    HW240140   0.655   3.641   0.212  0.8649  0.6184 -0.1346
 9503SOL     OW40141   4.451   3.965   6.932 -0.2879  0.4752 -0.4872
 9503SOL    HW140142   4.523   3.935   6.878  1.4523  0.1158  2.0200
 9503SOL    HW240143   4.488   4.043   6.973 -0.7178 -0.7500  2.3100
 9504SOL     OW40144   1.483   3.980  11.358 -0.1529  0.1911 -0.7974
 9504SOL    HW140145   1.487   3.959  11.451 -0.1751  3.6660  0.0041
 9504SOL    HW240146   1.405   3.938  11.323  0.2939 -1.8428  0.6616
 9505SOL     OW40147   1.011   4.502   5.683  0.0704 -0.5102  0.0339
 9505SOL    HW140148   0.953   4.497   5.759 -1.0323  1.4577 -0.6936
 9505SOL    HW240149   0.982   4.583   5.641  1.3926 -0.0891 -0.0730
 9506SOL     OW40150   0.174   1.033   6.656  0.3400  0.4302  0.3908
 9506SOL    HW140151   0.192   1.046   6.749  0.4421 -2.0231  0.7074
 9506SOL    HW240152   0.200   1.118   6.621  1.5594 -0.4177 -0.7419
 9507SOL     OW40153   4.340   0.595   8.600 -0.4666 -0.3936 -0.2828
 9507SOL    HW140154   4.278   0.579   8.529  0.1240 -1.6764 -0.5005
 9507SOL    HW240155   4.334   0.689   8.616  0.3888 -0.0638 -1.9100
 9508SOL     OW40156   3.141   0.841  11.723  0.2049  0.0395  0.5168
 9508SOL    HW140157   3.071   0.783  11.693  1.3705 -0.0834 -2.0049
 9508SOL    HW240158   3.209   0.773  11.729  1.4022  1.0940 -1.1442
 9509SOL     OW40159   3.183   0.878   8.852  0.1799  0.0037  0.4948
 9509SOL    HW140160   3.266   0.856   8.811 -0.6566  0.0557 -1.2445
 9509SOL    HW240161   3.132   0.918   8.781  0.7822 -1.0512 -0.5368
 9510SOL     OW40162   2.318   2.619  14.382 -0.1478  0.1002 -0.0290
 9510SOL    HW140163   2.393   2.648  14.434 -0.1228 -0.2963  0.1564
 9510SOL    HW240164   2.340   2.527  14.374  1.0195  0.6515 -2.9547
 9511SOL     OW40165   3.688   0.933   9.780 -0.1178  0.1834 -0.3244
 9511SOL    HW140166   3.729   0.949   9.865  2.1375 -0.7635 -1.2370
 9511SOL    HW240167   3.697   1.020   9.739  1.3872  0.4305  0.5376
 9512SOL     OW40168   2.076   3.439   3.080 -0.6853  0.0686 -0.2260
 9512SOL    HW140169   2.138   3.463   3.011  1.4612  0.5215  1.8446
 9512SOL    HW240170   2.024   3.516   3.102 -0.5187  0.0614  0.1891
 9513SOL     OW40171   4.171   0.929   9.152  0.3445 -0.6999  0.6630
 9513SOL    HW140172   4.159   0.897   9.063 -0.6996 -0.6635  0.7900
 9513SOL    HW240173   4.080   0.944   9.179  0.0347  0.9830 -1.3332
 9514SOL     OW40174   3.640   1.039   6.020 -0.3573  0.1833 -0.0813
 9514SOL    HW140175   3.662   1.129   5.994  2.0960 -0.1200  0.8858
 9514SOL    HW240176   3.700   1.032   6.095 -1.2994 -1.3819  0.5342
 9515SOL     OW40177   1.676   2.215   2.821 -0.2146  0.4046  0.7544
 9515SOL    HW140178   1.627   2.250   2.895  0.1518  1.2996  0.5699
 9515SOL    HW240179   1.639   2.127   2.812 -0.2690  0.6622 -1.5382
 9516SOL     OW40180   3.248   1.393  13.165  0.3887 -0.0870  0.0927
 9516SOL    HW140181   3.298   1.357  13.238  0.6518  2.8144  1.3232
 9516SOL    HW240182   3.230   1.484  13.187  2.2918  0.5485 -0.9486
 9517SOL     OW40183   4.622   1.871   2.376  0.2530  0.1297 -0.0802
 9517SOL    HW140184   4.663   1.797   2.421 -1.7327  0.1365  1.7058
 9517SOL    HW240185   4.536   1.831   2.364  0.0971  0.9159 -1.5933
 9518SOL     OW40186   3.707   2.082   5.651 -0.0049  0.0297 -0.3955
 9518SOL    HW140187   3.777   2.042   5.600  0.9443  2.5620 -1.0198
 9518SOL    HW240188   3.720   2.036   5.734  0.4736 -0.6146 -0.8267
 9519SOL     OW40189   4.689   0.187   9.548  0.7506  0.0346 -0.2569
 9519SOL    HW140190   4.648   0.249   9.608  0.6468 -0.4334  0.1563
 9519SOL    HW240191   0.033   0.163   9.600  0.5640  0.0461  0.0236
 9520SOL     OW40192   0.917   3.221   2.279 -0.4233  0.4025  0.0851
 9520SOL    HW140193   0.998   3.243   2.324  0.3408 -1.1985 -0.5042
 9520SOL    HW240194   0.934   3.267   2.196  0.3086  0.2155  0.1333
 9521SOL     OW40195   3.222   1.834  16.355 -0.4746 -0.0076 -0.3710
 9521SOL    HW140196   3.147   1.780  16.327  0.1710 -1.6541  1.0993
 9521SOL    HW240197   3.287   1.765  16.370 -1.2483 -0.5446  0.4918
 9522SOL     OW40198   4.077   3.965   4.453 -0.2271 -0.6333  0.0012
 9522SOL    HW140199   4.164   4.004   4.450  0.5308 -2.4308 -0.6762
 9522SOL    HW240200   4.080   3.883   4.404 -2.2119 -1.0809  0.6341
 9523SOL     OW40201   1.109   2.365  11.903  0.2387  0.2015 -0.5870
 9523SOL    HW140202   1.042   2.418  11.861  0.6394 -0.1674 -1.6931
 9523SOL    HW240203   1.057   2.295  11.943 -0.1255  1.5196  1.2329
 9524SOL     OW40204   3.372   1.230   6.510  0.3472  0.4026 -0.5855
 9524SOL    HW140205   3.353   1.323   6.525  0.1618  0.1657  0.6447
 9524SOL    HW240206   3.294   1.181   6.537  0.9141 -0.7342 -1.0077
 9525SOL     OW40207   0.238   2.622   7.038 -0.2219 -0.1352 -0.0286
 9525SOL    HW140208   0.277   2.699   7.080  3.8392 -1.8392 -0.6954
 9525SOL    HW240209   0.255   2.568   7.116 -0.5827  1.4238  1.1389
 9526SOL     OW40210   0.713   4.149  11.111 -0.4546 -0.3731 -0.0088
 9526SOL    HW140211   0.657   4.155  11.033 -2.0635 -0.7446  1.1195
 9526SOL    HW240212   0.786   4.097  11.078  1.5470  2.6439 -0.3687
 9527SOL     OW40213   0.053   1.888  16.618 -0.1915  0.0895 -0.5378
 9527SOL    HW140214   0.116   1.839  16.565  0.1908  1.1715 -1.0869
 9527SOL    HW240215   4.714   1.906  16.558  0.9618 -1.8529 -2.4919
 9528SOL     OW40216   2.135   3.556   2.173  0.3180  0.2692 -0.6247
 9528SOL    HW140217   2.180   3.575   2.256  1.4758  0.2592 -1.2552
 9528SOL    HW240218   2.139   3.462   2.190 -1.6955  0.4290  0.8327
 9529SOL     OW40219   3.713   0.373   5.358 -0.5128  0.1315 -0.3464
 9529SOL    HW140220   3.682   0.463   5.346 -0.9436  0.2154  1.3821
 9529SOL    HW240221   3.796   0.382   5.404 -0.9517 -1.5074  0.7825
 9530SOL     OW40222   3.683   1.509  14.775  0.4546  0.3133 -0.1349
 9530SOL    HW140223   3.599   1.517  14.818  0.1191  1.7628 -1.0489
 9530SOL    HW240224   3.660   1.558  14.696 -0.3889 -3.1339 -2.0403
 9531SOL     OW40225   4.480   2.289   4.553  0.9002 -0.4181  0.3431
 9531SOL    HW140226   4.398   2.337   4.542  0.6354 -1.0013 -0.2507
 9531SOL    HW240227   4.530   2.345   4.612 -1.5567  1.9884  0.1514
 9532SOL     OW40228   3.217   4.725   2.987  0.4525 -0.1154  0.6356
 9532SOL    HW140229   3.246   0.004   3.078 -0.1037  0.0146  0.7941
 9532SOL    HW240230   3.303   4.731   2.945  0.5983 -1.5717  0.7247
 9533SOL     OW40231   3.031   0.129   5.684  0.4563 -0.1872  0.1924
 9533SOL    HW140232   3.015   0.142   5.590  2.6398  0.1320 -0.1372
 9533SOL    HW240233   2.996   0.207   5.728  1.3338 -1.0586  2.4064
 9534SOL     OW40234   3.303   1.035   5.794 -0.6436 -0.2388 -0.0691
 9534SOL    HW140235   3.344   0.988   5.868 -2.0549 -1.0134  0.2206
 9534SOL    HW240236   3.280   0.964   5.734  0.9779 -1.3162  0.5810
 9535SOL     OW40237   2.295   0.947   5.480  0.1880  0.4856  0.1568
 9535SOL    HW140238   2.259   1.031   5.511 -0.4727 -0.3591  1.6930
 9535SOL    HW240239   2.222   0.892   5.452 -0.7002  0.6128  2.2169
 9536SOL     OW40240   0.855   2.156   1.317  0.2149  0.2534  0.5563
 9536SOL    HW140241   0.878   2.103   1.242 -2.1827  0.0991 -0.0927
 9536SOL    HW240242   0.774   2.112   1.344  0.6909 -0.8007  0.2679
 9537SOL     OW40243   0.613   4.494   4.082  0.2768 -0.5883 -0.4773
 9537SOL    HW140244   0.550   4.545   4.133 -0.0435 -0.6898 -0.7690
 9537SOL    HW240245   0.604   4.407   4.121 -0.3763 -0.1050  0.4646
 9538SOL     OW40246   1.368   3.032   3.058  0.3429 -0.1806 -0.2086
 9538SOL    HW140247   1.461   3.013   3.042  0.6327 -0.0955  1.4037
 9538SOL    HW240248   1.355   3.117   3.016  1.2205 -0.7110 -1.5674
 9539SOL     OW40249   3.432   4.591   8.360  0.1766 -0.8943 -0.5927
 9539SOL    HW140250   3.363   4.646   8.322  0.8022 -0.7188 -1.4911
 9539SOL    HW240251   3.387   4.542   8.428 -2.2335  1.4562 -0.4607
 9540SOL     OW40252   4.286   4.524   4.915  0.2293 -0.1326 -0.1977
 9540SOL    HW140253   4.280   4.594   4.849  1.1353 -0.4617 -0.6359
 9540SOL    HW240254   4.246   4.451   4.868  0.9036  0.3263 -1.5215
 9541SOL     OW40255   2.649   3.750   7.664 -0.5975  0.3332 -0.0672
 9541SOL    HW140256   2.692   3.667   7.687 -0.5515 -0.0688 -1.5887
 9541SOL    HW240257   2.677   3.821   7.722 -1.5579  1.8297 -1.4622
 9542SOL     OW40258   1.018   0.652   3.146 -0.0785  0.2804  0.4152
 9542SOL    HW140259   0.995   0.600   3.069  0.6805  1.6529 -0.7201
 9542SOL    HW240260   0.934   0.662   3.192  0.5653 -1.5705  2.0097
 9543SOL     OW40261   1.511   3.382   8.516 -0.4895  0.1925 -0.0324
 9543SOL    HW140262   1.497   3.472   8.487  2.2348 -0.0206 -1.9442
 9543SOL    HW240263   1.482   3.386   8.607 -0.1518  2.9566 -0.0642
 9544SOL     OW40264   2.648   0.104   2.754  0.0205 -0.1100 -0.2507
 9544SOL    HW140265   2.591   0.166   2.798 -1.7901 -0.8619 -1.5519
 9544SOL    HW240266   2.699   0.165   2.700 -0.7636 -0.5869 -1.5502
 9545SOL     OW40267   1.390   0.614   2.561 -0.2662 -0.1209  0.0166
 9545SOL    HW140268   1.304   0.652   2.546 -0.7075 -0.6665  1.1909
 9545SOL    HW240269   1.371   0.521   2.556  1.7234 -0.6280  1.7924
 9546SOL     OW40270   2.833   2.895   8.763 -0.7200  0.3858  0.3759
 9546SOL    HW140271   2.877   2.845   8.694 -0.5127  1.7659 -0.4860
 9546SOL    HW240272   2.885   2.975   8.762 -1.9153  1.1664  1.6952
 9547SOL     OW40273   0.914   4.223   9.527 -0.3752  0.3088  0.1941
 9547SOL    HW140274   0.935   4.315   9.544 -0.3077  0.2315  0.5220
 9547SOL    HW240275   0.973   4.179   9.587 -0.6561 -0.1273  0.1502
 9548SOL     OW40276   2.062   3.406   3.452  0.1646 -0.6240  0.2355
 9548SOL    HW140277   2.058   3.498   3.427  1.3514 -0.7237 -0.3323
 9548SOL    HW240278   1.972   3.377   3.467 -0.8473  1.6264 -1.6327
 9549SOL     OW40279   1.091   2.154   8.271  0.5854  0.1339 -0.1595
 9549SOL    HW140280   1.050   2.103   8.201  0.9805 -0.2567 -0.1082
 9549SOL    HW240281   1.175   2.110   8.284 -0.2645 -1.5905 -0.4927
 9550SOL     OW40282   2.140   2.317   3.688 -0.4006  0.2521 -0.0704
 9550SOL    HW140283   2.144   2.223   3.673  0.7749  0.0437  1.6006
 9550SOL    HW240284   2.045   2.331   3.680 -0.5675  0.1595  1.6659
 9551SOL     OW40285   2.013   1.004   2.198 -0.2667 -0.6861  0.4077
 9551SOL    HW140286   2.002   0.953   2.118 -1.8843 -0.8803  0.7530
 9551SOL    HW240287   2.104   1.031   2.191  0.2319 -2.4938 -0.1637
 9552SOL     OW40288   3.866   2.512   3.614 -0.1985  0.2122 -0.5452
 9552SOL    HW140289   3.929   2.525   3.543  0.4991  0.6738  0.1518
 9552SOL    HW240290   3.846   2.419   3.606 -2.1600  0.6458 -0.6421
 9553SOL     OW40291   4.672   3.288  16.913  0.6648 -0.6729  0.0666
 9553SOL    HW140292   4.724   3.211  16.891 -0.1758 -1.9816  2.6288
 9553SOL    HW240293   4.669   3.272  17.007  0.1833  1.2663  0.3951
 9554SOL     OW40294   2.437   1.346   2.447  0.7382 -0.4846 -0.4900
 9554SOL    HW140295   2.408   1.397   2.523  1.1416  0.1180 -0.7365
 9554SOL    HW240296   2.410   1.408   2.379  0.2565  0.1496  0.2677
 9555SOL     OW40297   0.096   2.132   4.469 -0.4970 -0.1826 -0.2815
 9555SOL    HW140298   0.143   2.063   4.516  0.0494  1.1204  1.0392
 9555SOL    HW240299   0.156   2.205   4.474 -1.1555  0.3093  0.4394
 9556SOL     OW40300   3.978   0.163   3.114 -0.1446 -0.1624 -0.1123
 9556SOL    HW140301   4.070   0.153   3.136 -0.3096  0.4151  0.8750
 9556SOL    HW240302   3.982   0.235   3.052 -0.2739  1.7349  2.0472
 9557SOL     OW40303   2.721   0.796   8.941 -0.1357  0.9120 -0.4066
 9557SOL    HW140304   2.712   0.836   8.855  0.3115 -0.3165 -1.0354
 9557SOL    HW240305   2.665   0.718   8.940  0.5569  0.3943  1.2692
 9558SOL     OW40306   0.331   1.684   9.997  0.5868  0.3092  0.2183
 9558SOL    HW140307   0.294   1.711  10.081 -0.8831 -2.7896  0.5387
 9558SOL    HW240308   0.418   1.657  10.027  0.2417 -1.8088 -0.6914
 9559SOL     OW40309   0.410   1.369   5.235 -0.0704  0.4112  0.0388
 9559SOL    HW140310   0.412   1.376   5.331  0.1504 -0.4718  0.1034
 9559SOL    HW240311   0.468   1.443   5.217  0.3859  0.2911  1.0051
 9560SOL     OW40312   0.578   3.754   4.208 -0.1757 -0.3366 -0.3528
 9560SOL    HW140313   0.505   3.794   4.255  1.5163  1.0622  1.0714
 9560SOL    HW240314   0.635   3.828   4.188  0.0617 -0.8849 -1.7507
 9561SOL     OW40315   4.456   1.658   1.891 -0.6360 -0.0241  0.0295
 9561SOL    HW140316   4.467   1.689   1.801 -4.1895  1.2866  0.0626
 9561SOL    HW240317   4.547   1.655   1.921 -1.0718 -1.0259  1.2458
 9562SOL     OW40318   1.684   1.253   5.286  0.1595 -0.1967  0.0300
 9562SOL    HW140319   1.754   1.192   5.260  0.0794 -0.2814  0.0128
 9562SOL    HW240320   1.719   1.337   5.257  1.9213 -0.9936 -0.1999
 9563SOL     OW40321   4.513   1.283   7.801  0.0518 -0.2522  0.2681
 9563SOL    HW140322   4.577   1.297   7.870  0.2390  0.4537 -0.0465
 9563SOL    HW240323   4.538   1.354   7.741 -0.9478 -0.3308 -0.2535
 9564SOL     OW40324   3.697   1.258  15.402 -0.3423 -0.0470 -0.1092
 9564SOL    HW140325   3.644   1.200  15.348 -1.4539  0.9768 -0.1151
 9564SOL    HW240326   3.680   1.337  15.351 -1.5338 -0.4395 -0.3145
 9565SOL     OW40327   1.612   0.835   3.396 -0.1122  0.2477  0.4958
 9565SOL    HW140328   1.537   0.876   3.352  0.2725  0.8662  0.4145
 9565SOL    HW240329   1.626   0.893   3.471 -1.7225  0.5270  0.5938
 9566SOL     OW40330   4.409   3.739   8.288 -0.1898  0.8798 -0.0147
 9566SOL    HW140331   4.401   3.715   8.380  1.6492 -1.5137 -0.4778
 9566SOL    HW240332   4.409   3.653   8.245 -2.5592 -0.8311  3.4004
 9567SOL     OW40333   1.767   4.279   4.930  0.0221 -0.5125  0.0857
 9567SOL    HW140334   1.809   4.364   4.913 -0.7013 -0.4304 -1.2552
 9567SOL    HW240335   1.705   4.303   4.999 -2.3895 -1.8179 -1.6004
 9568SOL     OW40336   1.268   2.301   8.526 -0.8626  0.3136 -0.0313
 9568SOL    HW140337   1.292   2.220   8.571  0.1667  2.0554  2.5607
 9568SOL    HW240338   1.323   2.366   8.571 -0.5464 -0.4910  0.7418
 9569SOL     OW40339   0.819   2.555   6.944  0.0776 -0.0858 -0.0826
 9569SOL    HW140340   0.766   2.601   7.009  2.9892  3.0661  0.0399
 9569SOL    HW240341   0.773   2.476   6.914  0.7967 -0.3376 -0.5399
 9570SOL     OW40342   2.635   1.361   9.134  0.1246 -0.1664 -0.6024
 9570SOL    HW140343   2.695   1.425   9.097  0.0933  0.1035 -0.1855
 9570SOL    HW240344   2.553   1.407   9.150 -0.9093 -1.3749 -2.4230
 9571SOL     OW40345   0.977   2.859   3.629 -0.1074  0.1547  1.0801
 9571SOL    HW140346   1.023   2.927   3.580 -0.3741 -0.7959 -0.4712
 9571SOL    HW240347   1.006   2.880   3.718 -1.3249  0.4026  1.4297
   4.73255   4.73255  17.72971
