Membrane in water
40347
    1TMC1    C1    1   0.473   1.952  11.546 -0.0664 -0.0533 -0.2506
    1TMC1    C2    2   0.591   1.998  11.500  0.0251  0.0681 -0.6202
    1TMC1    C3    3   0.592   2.107  11.416 -0.2028  0.1047 -0.4230
    1TMC1    C4    4   0.359   2.005  11.490  0.0140  0.6129 -0.7733
    1TMC1    C5    5   0.360   2.103  11.393 -0.0586  0.1958 -0.2388
    1TMC1    C6    6   0.480   2.161  11.358 -0.8644 -0.3427  0.2527
    1TMC1     C    7   0.452   1.825  11.617  0.2529  0.4685  0.2771
    1TMC1     O    8   0.341   1.779  11.625 -0.2610  0.3903 -0.2725
    1TMC1     H    9   0.690   1.972  11.536 -0.8687 -1.0757  1.0506
    1TMC1    H1   10   0.261   1.964  11.509  0.5169 -0.3158 -0.1916
    1TMC1    H2   11   0.487   2.260  11.312  3.1205 -1.8411 -2.3932
    1TMC1    C7   12   0.231   2.144  11.331 -0.1916 -0.0439 -0.2144
    1TMC1    C8   13   0.723   2.146  11.363 -0.1975  0.1592  0.0481
    1TMC1    O1   14   0.122   2.130  11.388 -0.1112  0.2094 -0.1887
    1TMC1    O2   15   0.832   2.119  11.409 -0.3734  0.1267 -0.4884
    1TMC1    O3   16   0.253   2.214  11.217  0.4757 -0.4018 -0.8013
    1TMC1    H3   17   0.346   2.200  11.187  0.9431 -0.4301  0.6578
    1TMC1    O5   18   0.691   2.170  11.233 -0.2938  0.3953  1.2349
    1TMC1    H5   19   0.596   2.157  11.213  0.3257 -0.4318 -1.1876
    2MPD2     C   20   0.573   1.453  11.951  0.5370 -0.1046 -0.1140
    2MPD2    C1   21   0.468   1.469  11.860 -0.1727 -0.1421  0.3246
    2MPD2    C2   22   0.470   1.568  11.758 -0.0382  0.3880 -0.1415
    2MPD2    C3   23   0.574   1.652  11.750 -0.2034 -0.0503  0.3856
    2MPD2    C4   24   0.678   1.636  11.843  0.1060  0.3635 -0.1626
    2MPD2    C5   25   0.681   1.539  11.940 -0.2695  0.3935  0.4002
    2MPD2     H   26   0.389   1.564  11.685  0.2967  1.6757 -0.5832
    2MPD2    H1   27   0.763   1.702  11.830  1.5387 -1.1655  1.6701
    2MPD2    H2   28   0.571   1.375  12.026  2.0299 -0.6720 -0.6705
    2MPD2    H3   29   0.763   1.528  12.010 -0.5714  0.3756  0.7553
    2MPD2     N   30   0.571   1.768  11.672  0.2740  0.0342 -0.0947
    2MPD2    H5   31   0.654   1.826  11.663 -0.5226  1.1406 -0.3399
    2MPD2    N1   32   0.352   1.387  11.862 -0.5662 -0.3150  0.0672
    2MPD2    H7   33   0.288   1.394  11.784 -1.3536 -1.1822  0.6281
    3TMC1    C1   34   3.474   1.681  10.931  0.1766 -0.0238  0.2257
    3TMC1    C2   35   3.444   1.544  10.936  0.5257 -0.7896  0.3545
    3TMC1    C3   36   3.552   1.465  10.914  0.1930  0.2947 -0.2994
    3TMC1    C4   37   3.584   1.732  10.868 -0.3083  0.1775  0.0645
    3TMC1    C5   38   3.683   1.641  10.836 -0.8025  0.8873 -0.1494
    3TMC1    C6   39   3.668   1.508  10.862  0.1084  0.5403 -0.3027
    3TMC1     C   40   3.350   1.755  10.934  0.4419 -0.1137  0.0518
    3TMC1     O   41   3.254   1.693  10.889 -0.0708 -0.0009 -0.1281
    3TMC1     H   42   3.354   1.511  10.985  0.4129  1.2167  1.4868
    3TMC1    H1   43   3.593   1.839  10.849 -2.2187  0.3389  0.0856
    3TMC1    H2   44   3.746   1.443  10.824  1.7948  1.3247  1.8041
    3TMC1    C7   45   3.818   1.676  10.795 -0.4539  0.1559 -0.1436
    3TMC1    C8   46   3.522   1.318  10.914  0.1042  0.2764  0.1578
    3TMC1    O1   47   3.911   1.596  10.798 -0.0949 -0.2366  0.3655
    3TMC1    O2   48   3.604   1.236  10.948 -0.0334 -0.7607 -0.1514
    3TMC1    O3   49   3.815   1.800  10.733 -0.1973 -0.5041  0.1431
    3TMC1    H3   50   3.726   1.838  10.717 -0.8272 -1.4368  1.3902
    3TMC1    O5   51   3.434   1.304  10.813 -0.2526  0.7495 -0.2122
    3TMC1    H5   52   3.400   1.387  10.774 -3.2370 -0.3567 -0.0296
    4MPD2     C   53   3.038   2.082  11.181  0.3507 -0.1713  0.4913
    4MPD2    C1   54   3.168   2.124  11.205  0.2650  0.4092  0.6629
    4MPD2    C2   55   3.271   2.039  11.159  0.6298 -0.0118 -0.3734
    4MPD2    C3   56   3.249   1.933  11.082 -0.4815  0.3133 -0.7033
    4MPD2    C4   57   3.114   1.892  11.059  0.3684  0.2690  0.4775
    4MPD2    C5   58   3.014   1.969  11.112 -0.4053  0.0205  0.4162
    4MPD2     H   59   3.372   2.061  11.194  0.5620  1.4922 -1.1540
    4MPD2    H1   60   3.076   1.808  11.003  0.3050  1.0656 -0.6676
    4MPD2    H2   61   2.954   2.128  11.231 -0.0115 -2.4244  1.9294
    4MPD2    H3   62   2.911   1.942  11.091  0.1285 -2.0445  0.3680
    4MPD2     N   63   3.358   1.863  11.020 -0.3817  0.0162 -0.1046
    4MPD2    H5   64   3.450   1.902  11.039 -0.3380  0.1637 -0.6399
    4MPD2    N1   65   3.206   2.237  11.277 -0.2403  0.1279  0.8609
    4MPD2    H7   66   3.305   2.256  11.283 -0.0970 -0.2828 -0.1296
    5TCq1    O1   67   4.370   3.436  11.789 -0.1222  0.5018 -0.2165
    5TCq1    C1   68   4.368   3.403  11.662  0.0110 -0.2507 -0.2123
    5TCq1    O2   69   4.441   3.321  11.604  0.4454 -0.6363 -0.6785
    5TCq1    C2   70   4.306   3.523  11.599  0.0096  0.3476  0.1695
    5TCq1    C3   71   4.218   3.609  11.658 -0.0054 -0.1138  0.4573
    5TCq1    C4   72   4.190   3.726  11.595  0.1994 -0.1714  0.7469
    5TCq1    C5   73   4.237   3.755  11.467 -0.1428 -0.2646  0.4826
    5TCq1    C6   74   4.308   3.659  11.405 -0.5105 -1.4429  0.0631
    5TCq1    C7   75   4.343   3.538  11.467 -0.9004 -0.5664 -0.1609
    5TCq1    C8   76   4.341   3.668  11.269 -0.6293 -0.1020 -0.0136
    5TCq1    O4   77   4.422   3.585  11.222  0.3653  0.1681  0.6341
    5TCq1    C9   78   4.090   3.815  11.659  0.1882  0.5679  0.5525
    5TCq1    O5   79   4.029   3.898  11.585 -0.0052 -0.1614 -0.1225
    5TCq1    O6   80   4.042   3.780  11.767  0.1616 -0.0992  0.0984
    5TCq1    H1   81   4.322   3.522  11.788  1.0143  1.1420 -0.9240
    5TCq1    H2   82   4.196   3.597  11.763  0.3795 -2.2624  0.2986
    5TCq1    H3   83   4.219   3.854  11.428 -1.1972  0.4812  2.8562
    5TCq1    H4   84   4.415   3.466  11.429 -1.6301 -0.9468 -0.8062
    6MPD2     C   85   4.144   3.843  11.020 -0.6645 -0.0716 -0.4282
    6MPD2    C1   86   4.238   3.753  11.061  0.4355 -1.1860 -0.2644
    6MPD2    C2   87   4.301   3.674  10.969 -0.3408 -0.2899  0.7542
    6MPD2    C3   88   4.254   3.677  10.839  0.4087 -0.0706  0.0188
    6MPD2    C4   89   4.158   3.763  10.796  0.0071  0.0680  0.1674
    6MPD2    C5   90   4.099   3.846  10.895  0.0328 -0.1434 -0.2227
    6MPD2     H   91   4.378   3.603  10.997 -0.6621 -1.1898 -0.6299
    6MPD2    H1   92   4.102   3.761  10.704 -0.2395  1.9265  0.2785
    6MPD2    H2   93   4.099   3.912  11.090 -1.5370 -0.3953 -0.6660
    6MPD2    H3   94   4.005   3.893  10.869 -0.4546 -0.4190  1.0572
    6MPD2     N   95   4.328   3.608  10.737 -0.1032 -0.1303  0.8707
    6MPD2    H5   96   4.412   3.555  10.757  0.2829 -0.3961 -1.5545
    6MPD2    N1   97   4.259   3.751  11.200  0.0339  0.4024  0.4620
    6MPD2    H7   98   4.196   3.807  11.257 -3.0587 -1.0474 -1.5150
    7TCq1    O1   99   1.667   3.929  12.925  0.3802 -1.0123 -0.8463
    7TCq1    C1  100   1.777   3.942  12.848 -0.0200  0.2430  0.0249
    7TCq1    O2  101   1.830   4.046  12.809  0.0475 -0.0356  0.0237
    7TCq1    C2  102   1.864   3.837  12.906 -0.1319 -0.0198 -0.0736
    7TCq1    C3  103   1.980   3.880  12.968  0.0972  0.1527  0.0717
    7TCq1    C4  104   2.068   3.788  13.012  0.7432  0.3600  0.0891
    7TCq1    C5  105   2.042   3.658  12.995  0.9434 -0.3634  0.0425
    7TCq1    C6  106   1.928   3.612  12.933  0.2477  0.4772  0.0473
    7TCq1    C7  107   1.839   3.704  12.888 -0.1889  0.1374 -0.1863
    7TCq1    C8  108   1.885   3.474  12.951  0.2597 -0.2989  0.5427
    7TCq1    O4  109   1.953   3.412  13.030  0.4844  0.1293  0.0420
    7TCq1    C9  110   2.186   3.827  13.082  0.6995  0.1455  0.5136
    7TCq1    O5  111   2.206   3.949  13.103  0.0713  0.3683  0.3450
    7TCq1    O6  112   2.267   3.739  13.110 -0.1045 -0.1065  0.2113
    7TCq1    H1  113   1.644   3.836  12.945 -0.7023 -1.0932 -2.5078
    7TCq1    H2  114   1.991   3.987  12.982 -1.8678  0.2279  0.9871
    7TCq1    H3  115   2.103   3.587  13.049  0.0989 -1.1603 -0.0497
    7TCq1    H4  116   1.749   3.683  12.832  0.1674 -0.2324 -0.6197
    8MPD2     C  117   1.590   3.045  12.860 -0.2638  1.0187 -0.1106
    8MPD2    C1  118   1.703   3.065  12.934 -0.1194  0.3391  1.1098
    8MPD2    C2  119   1.763   3.191  12.954  0.2299 -0.2304  0.8380
    8MPD2    C3  120   1.718   3.302  12.876  0.5264 -0.5569  0.6313
    8MPD2    C4  121   1.609   3.275  12.797  0.3198 -0.2361 -0.3187
    8MPD2    C5  122   1.550   3.150  12.785 -0.8894 -0.0367 -0.1163
    8MPD2     H  123   1.849   3.209  13.018  0.5511  0.7437  0.1366
    8MPD2    H1  124   1.573   3.348  12.726  0.3304  0.0525 -0.0241
    8MPD2    H2  125   1.549   2.945  12.867  0.4606  0.6150 -1.6444
    8MPD2    H3  126   1.466   3.137  12.719 -0.6332  1.9476 -0.8248
    8MPD2     N  127   1.781   3.431  12.873  0.0069 -0.8871 -0.6789
    8MPD2    H5  128   1.738   3.497  12.809  1.1243  0.0851 -0.4190
    8MPD2    N1  129   1.766   2.952  12.988 -0.3811 -0.4124  0.3480
    8MPD2    H7  130   1.703   2.872  12.984  0.2286 -0.9947  2.1346
    9TMC1    C1  131   0.076   1.822  10.529 -0.3468  0.2497  0.4055
    9TMC1    C2  132   4.726   1.721  10.574 -0.4604 -0.5311 -0.3166
    9TMC1    C3  133   4.707   1.612  10.491  0.4032  0.4167  0.4269
    9TMC1    C4  134   0.160   1.807  10.413  0.1907 -0.6118 -0.2284
    9TMC1    C5  135   0.134   1.695  10.335  0.8506 -0.8196 -1.0584
    9TMC1    C6  136   0.035   1.606  10.368  0.1891 -0.2158  0.0935
    9TMC1     C  137   0.114   1.930  10.618 -0.1977  0.5219 -0.6455
    9TMC1     O  138   0.206   2.004  10.576  0.1000 -0.4559 -0.0371
    9TMC1     H  139   4.674   1.724  10.669 -0.6833 -1.6468 -0.3985
    9TMC1    H1  140   0.256   1.855  10.400 -0.2827  0.2504 -0.4942
    9TMC1    H2  141   0.015   1.530  10.293  2.3984 -0.5033 -0.1972
    9TMC1    C7  142   0.186   1.690  10.200  0.8842 -0.2689  0.5904
    9TMC1    C8  143   4.568   1.564  10.488  0.0277 -0.1367 -0.0361
    9TMC1    O1  144   0.169   1.585  10.144  0.1690  1.0629 -0.2931
    9TMC1    O2  145   4.475   1.627  10.540 -0.3668  0.3810 -0.7358
    9TMC1    O3  146   0.198   1.812  10.147 -0.5538  0.2586 -0.2440
    9TMC1    H3  147   0.187   1.882  10.215  0.5020  0.3769 -0.1901
    9TMC1    O5  148   4.556   1.433  10.447  0.0369 -0.3355  0.4604
    9TMC1    H5  149   4.643   1.388  10.439  0.0547 -0.3842  0.9016
   10MPD2     C  150   0.117   2.132  10.833  0.4540 -0.3244 -0.2650
   10MPD2    C1  151   0.033   2.018  10.832  0.0020  0.9330 -0.2992
   10MPD2    C2  152   4.677   1.994  10.933  0.4952 -0.2915 -0.0146
   10MPD2    C3  153   4.663   2.085  11.036 -0.5574 -0.6202  0.4904
   10MPD2    C4  154   0.002   2.204  11.032  0.0055 -0.1524 -0.3013
   10MPD2    C5  155   0.100   2.220  10.940 -0.0363 -0.1166 -0.7485
   10MPD2     H  156   4.605   1.913  10.926 -1.5291  1.4621  0.3438
   10MPD2    H1  157   4.721   2.276  11.111 -1.6566 -0.6335 -0.1974
   10MPD2    H2  158   0.193   2.155  10.759  0.5814  1.0410  0.2952
   10MPD2    H3  159   0.165   2.307  10.945 -0.3715 -0.0112  1.8173
   10MPD2     N  160   4.573   2.073  11.144 -0.3891  0.2742 -0.1360
   10MPD2    H5  161   4.574   2.150  11.210 -1.1333  1.3175 -1.3507
   10MPD2    N1  162   0.037   1.927  10.729  0.2151  0.2148 -0.0905
   10MPD2    H7  163   4.702   1.853  10.729  0.1140  0.3178 -0.8567
   11TCq1    O1  164   1.351   1.683  14.180  0.0691 -0.3961 -0.1387
   11TCq1    C1  165   1.248   1.599  14.158 -0.2409  0.3509 -0.4711
   11TCq1    O2  166   1.245   1.502  14.079  0.0712  0.4491  0.1458
   11TCq1    C2  167   1.127   1.672  14.201 -0.4882 -0.3540  0.1347
   11TCq1    C3  168   1.126   1.742  14.320 -0.9468 -0.0000  0.5800
   11TCq1    C4  169   1.007   1.791  14.361  0.0430  0.7712  0.1435
   11TCq1    C5  170   0.889   1.773  14.291  0.1762 -0.7544  0.3906
   11TCq1    C6  171   0.895   1.691  14.187 -0.1152  0.6004 -0.1949
   11TCq1    C7  172   1.010   1.639  14.138 -0.6429 -0.0325 -0.1023
   11TCq1    C8  173   0.762   1.647  14.138  0.1459  0.2981 -0.5742
   11TCq1    O4  174   0.668   1.709  14.184  0.7446 -0.1468  0.0325
   11TCq1    C9  175   1.003   1.859  14.484 -0.1407 -0.3237 -0.4003
   11TCq1    O5  176   1.112   1.856  14.553 -0.1082  0.1234 -0.2188
   11TCq1    O6  177   0.894   1.893  14.532  0.1288  0.1826  0.1771
   11TCq1    H1  178   1.330   1.775  14.207  1.1182 -0.1387 -0.1888
   11TCq1    H2  179   1.224   1.759  14.365 -1.6866 -0.0629  2.2134
   11TCq1    H3  180   0.796   1.805  14.336 -0.9581  1.0422 -3.2443
   11TCq1    H4  181   1.015   1.593  14.040  0.9552  1.4263 -0.7143
   12MPD2     C  182   0.564   1.543  13.957 -0.2093 -1.0584 -1.1316
   12MPD2    C1  183   0.677   1.467  13.989  0.1720  0.2659  0.4479
   12MPD2    C2  184   0.693   1.336  13.951  0.2732  0.6548 -0.2112
   12MPD2    C3  185   0.592   1.273  13.875  0.7195  0.1766 -0.4560
   12MPD2    C4  186   0.476   1.346  13.850 -0.3806  0.2796  0.0812
   12MPD2    C5  187   0.470   1.473  13.890  0.0944  0.4804 -0.2922
   12MPD2     H  188   0.783   1.281  13.974  0.6260  1.8041  1.1968
   12MPD2    H1  189   0.398   1.309  13.784  0.7253 -0.4987 -0.8059
   12MPD2    H2  190   0.545   1.649  13.974  1.1214 -0.9263 -0.4935
   12MPD2    H3  191   0.378   1.523  13.862 -0.1154 -1.2289 -2.6606
   12MPD2     N  192   0.591   1.147  13.821 -0.1921 -0.2930  0.6544
   12MPD2    H5  193   0.501   1.108  13.793 -0.1039 -1.2782  1.7530
   12MPD2    N1  194   0.777   1.533  14.064  0.2778  0.9050  0.1804
   12MPD2    H7  195   0.865   1.483  14.077  0.5328  0.5458 -2.8985
   13TCq1    O1  196   0.607   1.890  10.564 -0.1249  0.2343 -0.0877
   13TCq1    C1  197   0.534   1.796  10.624  0.2832 -0.1917  0.3759
   13TCq1    O2  198   0.449   1.729  10.570  0.5773  0.0650 -0.1947
   13TCq1    C2  199   0.506   1.840  10.758 -0.0235 -0.4641 -0.4719
   13TCq1    C3  200   0.532   1.969  10.803 -0.4957 -0.4238 -0.1679
   13TCq1    C4  201   0.466   2.018  10.916  0.0182 -0.2861 -0.7007
   13TCq1    C5  202   0.383   1.933  10.985 -0.0522  0.1954  0.7237
   13TCq1    C6  203   0.353   1.809  10.939 -0.4110 -0.3090 -0.0539
   13TCq1    C7  204   0.412   1.770  10.819 -0.2636 -0.6696  0.0829
   13TCq1    C8  205   0.227   1.744  10.978  0.0971 -0.1465 -0.4633
   13TCq1    O4  206   0.162   1.807  11.058 -0.2389 -0.0666 -0.0405
   13TCq1    C9  207   0.491   2.148  10.968 -0.0024 -1.1675 -0.3783
   13TCq1    O5  208   0.475   2.165  11.092 -0.3465  0.0322 -0.9788
   13TCq1    O6  209   0.547   2.229  10.890  0.6069 -0.0688 -0.0495
   13TCq1    H1  210   0.653   1.945  10.631  0.0123 -0.5706  0.4961
   13TCq1    H2  211   0.586   2.043  10.746 -0.0698 -0.2316  0.4747
   13TCq1    H3  212   0.322   1.975  11.064 -1.3856  0.6982 -0.5953
   13TCq1    H4  213   0.406   1.667  10.786 -0.5081 -1.3341  2.1631
   14MPD2     C  214   0.062   1.456  10.818  0.6596  0.6005 -1.1270
   14MPD2    C1  215   0.068   1.572  10.893 -0.8188  0.0424 -0.4431
   14MPD2    C2  216   4.688   1.626  10.959 -0.2826 -0.4964 -0.0961
   14MPD2    C3  217   4.564   1.563  10.941 -0.0240  0.9699  0.0644
   14MPD2    C4  218   4.571   1.450  10.859  0.3654 -0.0058 -0.0972
   14MPD2    C5  219   4.679   1.404  10.792 -0.0435 -0.0657 -0.1023
   14MPD2     H  220   4.700   1.711  11.025 -2.2971  1.4339 -2.1641
   14MPD2    H1  221   4.478   1.405  10.827 -0.4013  1.6230 -0.1937
   14MPD2    H2  222   0.146   1.416  10.763  1.6460  1.0743  0.0166
   14MPD2    H3  223   4.672   1.319  10.726 -1.2821 -0.0845  0.0477
   14MPD2     N  224   4.445   1.607  11.003  0.5931 -0.0291  0.4092
   14MPD2    H5  225   4.448   1.696  11.051  0.3086  0.7820 -1.0874
   14MPD2    N1  226   0.200   1.627  10.909  0.3615 -0.1656 -0.0252
   14MPD2    H7  227   0.267   1.578  10.851 -0.9892  0.4365 -2.0641
   15TCq1    O1  228   0.603   1.054   1.431  0.5753 -0.4196 -0.1192
   15TCq1    C1  229   0.736   1.030   1.421 -0.0416  0.0117 -0.4485
   15TCq1    O2  230   0.821   1.041   1.508  0.4531 -0.3173  0.4785
   15TCq1    C2  231   0.754   0.999   1.278 -0.2224 -0.1703  0.3032
   15TCq1    C3  232   0.691   1.054   1.174  0.0875  0.2269  0.5654
   15TCq1    C4  233   0.746   1.032   1.049 -1.0473  0.0405  0.2317
   15TCq1    C5  234   0.853   0.953   1.030 -0.1065  0.7928  0.8894
   15TCq1    C6  235   0.919   0.907   1.136  0.1104 -0.1667 -0.0369
   15TCq1    C7  236   0.873   0.934   1.260  0.1768 -0.1958 -0.3664
   15TCq1    C8  237   1.054   0.858   1.112  0.1394 -0.0566 -0.0816
   15TCq1    O4  238   1.121   0.828   1.209  0.4018  0.1412 -0.0143
   15TCq1    C9  239   0.679   1.103   0.938 -0.1273 -0.2090  0.0989
   15TCq1    O5  240   0.733   1.101   0.823 -0.0389 -0.4422 -0.0440
   15TCq1    O6  241   0.563   1.155   0.958 -0.5124 -0.0473 -0.7374
   15TCq1    H1  242   0.546   1.039   1.352  0.8960 -0.2171 -0.3895
   15TCq1    H2  243   0.621   1.134   1.196 -0.3583  0.6577 -2.3948
   15TCq1    H3  244   0.889   0.942   0.929 -0.6035 -1.2110  0.9218
   15TCq1    H4  245   0.929   0.895   1.344 -2.1764  0.8165  1.6660
   16MPD2     C  246   1.202   0.766   0.789  0.1073  0.6689 -0.1250
   16MPD2    C1  247   1.201   0.779   0.931 -0.0242  0.7307 -0.0112
   16MPD2    C2  248   1.300   0.720   1.013 -0.7473  0.2781  0.0837
   16MPD2    C3  249   1.400   0.649   0.953 -0.2093  0.6690 -0.3781
   16MPD2    C4  250   1.408   0.644   0.814 -0.3842 -0.0608  0.2549
   16MPD2    C5  251   1.304   0.690   0.738 -0.2247  0.6147  0.5294
   16MPD2     H  252   1.293   0.702   1.120  2.0866 -2.7800 -0.2202
   16MPD2    H1  253   1.486   0.583   0.769  1.2927  0.9607  1.8019
   16MPD2    H2  254   1.122   0.792   0.721 -2.5806 -1.4189  2.2644
   16MPD2    H3  255   1.306   0.670   0.632 -0.8568  0.0086  0.6310
   16MPD2     N  256   1.514   0.615   1.032  0.6045  0.1187 -0.5512
   16MPD2    H5  257   1.524   0.651   1.126  0.4145 -0.7735 -0.1869
   16MPD2    N1  258   1.083   0.847   0.978  0.4227  1.0747  0.0355
   16MPD2    H7  259   1.020   0.891   0.912 -1.5154  0.0983  1.2335
   17TMC1    C1  260   0.266   1.329  11.238  1.1133 -0.6977  1.2237
   17TMC1    C2  261   0.220   1.263  11.352 -0.2737  0.0127 -0.1393
   17TMC1    C3  262   0.125   1.168  11.333  0.1229  0.0250  0.2453
   17TMC1    C4  263   0.226   1.303  11.109  0.2079 -1.0587  0.3017
   17TMC1    C5  264   0.123   1.216  11.100  0.4943 -0.4020  0.6616
   17TMC1    C6  265   0.072   1.147  11.207 -0.4323  0.1568  0.7153
   17TMC1     C  266   0.364   1.437  11.262  0.2250  0.0617 -0.6032
   17TMC1     O  267   0.344   1.502  11.362  0.5901 -0.1298  0.2515
   17TMC1     H  268   0.278   1.291  11.440  1.4881  0.1618 -1.3600
   17TMC1    H1  269   0.273   1.348  11.022  1.7963  0.7999  2.1303
   17TMC1    H2  270   4.720   1.082  11.206  0.5319 -1.0654 -1.1844
   17TMC1    C7  271   0.101   1.156  10.966 -0.4685 -0.2720  0.3597
   17TMC1    C8  272   0.046   1.121  11.441  0.5510 -0.4513 -0.6346
   17TMC1    O1  273   0.176   1.181  10.869 -0.2501  0.5446  0.1278
   17TMC1    O2  274   4.718   1.019  11.430  0.1080  0.1767  0.0452
   17TMC1    O3  275   4.710   1.111  10.961 -0.2413 -0.2566 -0.2530
   17TMC1    H3  276   4.654   1.144  11.035  0.4698 -0.4320  0.3675
   17TMC1    O5  277   0.107   1.161  11.551 -0.2302 -0.3098 -0.0886
   17TMC1    H5  278   0.140   1.252  11.532 -0.3488 -0.2214  0.1201
   18MPD2     C  279   0.584   1.641  11.249  0.0979 -0.3797  0.3023
   18MPD2    C1  280   0.565   1.536  11.159 -0.9854 -1.0546 -0.0675
   18MPD2    C2  281   0.643   1.528  11.050 -0.4890 -0.6347  0.2605
   18MPD2    C3  282   0.735   1.633  11.015  0.0690 -0.3294  0.3305
   18MPD2    C4  283   0.743   1.744  11.099  0.4696 -0.0200  1.2675
   18MPD2    C5  284   0.669   1.738  11.214  0.1511 -0.7119  0.4292
   18MPD2     H  285   0.618   1.457  10.972 -0.9690  0.0175 -0.1817
   18MPD2    H1  286   0.808   1.828  11.077 -0.9643  0.6580 -0.3925
   18MPD2    H2  287   0.520   1.658  11.335 -1.6915  1.6720 -1.4493
   18MPD2    H3  288   0.678   1.824  11.279  0.8969  0.3775 -1.1331
   18MPD2     N  289   0.807   1.638  10.894 -0.1154  0.2375  0.1799
   18MPD2    H5  290   0.884   1.704  10.901  1.7691 -1.7254 -1.8989
   18MPD2    N1  291   0.463   1.435  11.167 -0.0483 -0.5126  0.3841
   18MPD2    H7  292   0.469   1.358  11.102 -0.0372  0.8356 -1.2157
   19TMC2    C1  293   1.672   1.307  13.355  0.6420 -0.1060  0.7750
   19TMC2    C2  294   1.685   1.319  13.221  0.4922 -0.3059 -0.5851
   19TMC2    C3  295   1.675   1.207  13.149  0.0690  0.2847  0.4546
   19TMC2    C4  296   1.671   1.181  13.413  0.0804  0.3768 -0.0846
   19TMC2    C5  297   1.660   1.071  13.334  0.3677  0.6877  0.0460
   19TMC2    C6  298   1.674   1.080  13.193 -0.1262 -0.1213 -1.2015
   19TMC2     C  299   1.709   1.426  13.432 -0.6753  0.6032  0.3639
   19TMC2     O  300   1.671   1.534  13.391  0.3187 -0.1259 -0.7215
   19TMC2     H  301   1.707   1.415  13.175  4.1750 -1.8247 -1.9851
   19TMC2    H1  302   1.654   1.168  13.519 -0.1114  3.3481  0.2482
   19TMC2    H2  303   1.657   0.996  13.127  0.5136 -1.0546 -0.1826
   19TMC2    C7  304   1.603   0.951  13.398  0.1532 -0.3754  0.6228
   19TMC2    C8  305   1.688   1.227  13.008 -0.2799 -0.5632 -0.6360
   19TMC2    O1  306   1.614   0.939  13.520 -0.5001 -0.0899  0.1957
   19TMC2    O2  307   1.737   1.145  12.927  0.3367 -0.3368  0.1678
   19TMC2    O5  308   1.588   1.315  12.975  0.2640 -0.2362 -0.7507
   19TMC2    H5  309   1.548   1.371  13.045 -1.1748 -0.2153 -1.6083
   20MPD2     C  310   1.862   1.620  13.575  0.1752  0.5266  0.2491
   20MPD2    C1  311   1.831   1.498  13.630 -0.7546 -0.1281 -0.3686
   20MPD2    C2  312   1.864   1.466  13.756 -0.4144 -0.0280 -0.1399
   20MPD2    C3  313   1.932   1.552  13.840 -1.0887  0.3171  0.0021
   20MPD2    C4  314   1.978   1.668  13.780 -0.3646 -0.5765  0.4864
   20MPD2    C5  315   1.940   1.706  13.654  0.0115  0.2271 -0.7849
   20MPD2     H  316   1.840   1.366  13.790 -1.5710  0.6766  1.1126
   20MPD2    H1  317   2.042   1.732  13.840  0.2130  1.6256 -2.4769
   20MPD2    H2  318   1.841   1.662  13.478 -0.2446 -1.1582 -0.3949
   20MPD2    H3  319   1.969   1.806  13.625 -0.2053  0.4014 -0.3949
   20MPD2     N  320   1.971   1.528  13.975  0.3923  0.4591 -0.0279
   20MPD2    H5  321   2.043   1.582  14.021 -1.7045  2.0140  1.4314
   20MPD2    N1  322   1.773   1.403  13.552 -0.5996  0.4617 -0.0028
   20MPD2    H7  323   1.785   1.306  13.578 -2.1305  0.1023 -0.6364
   21TMC2    C1  324   3.423   2.055  14.339 -0.3202  0.2174  0.0461
   21TMC2    C2  325   3.420   1.929  14.378 -0.4938  0.3666 -0.0021
   21TMC2    C3  326   3.417   1.905  14.512 -0.3109 -0.9402 -0.4575
   21TMC2    C4  327   3.421   2.160  14.431 -0.1040 -0.3913 -0.6809
   21TMC2    C5  328   3.417   2.131  14.565  0.2396 -0.5399 -0.4329
   21TMC2    C6  329   3.417   2.005  14.605  0.1440  0.2080 -0.7234
   21TMC2     C  330   3.400   2.079  14.197  0.2077  0.0114 -0.2106
   21TMC2     O  331   3.328   1.992  14.150  0.0639 -0.4222 -0.4611
   21TMC2     H  332   3.420   1.848  14.306 -3.1847 -0.3184  0.7635
   21TMC2    H1  333   3.423   2.260  14.390  1.1274  1.1389  3.0844
   21TMC2    H2  334   3.416   1.979  14.710 -1.3339 -1.8291 -1.2390
   21TMC2    C7  335   3.397   2.242  14.655  0.4608 -0.7930  0.1391
   21TMC2    C8  336   3.354   1.779  14.544  0.4583  0.0863 -0.0428
   21TMC2    O1  337   3.415   2.220  14.775  0.0142  0.1367 -0.5216
   21TMC2    O2  338   3.235   1.766  14.532 -0.3985 -0.2591  0.0180
   21TMC2    O5  339   3.437   1.707  14.622  0.2006  0.0017  0.6168
   21TMC2    H5  340   3.528   1.732  14.594  0.3172 -1.3032 -0.1234
   22MPD2     C  341   3.759   2.442  14.227  0.1941 -0.2647  0.3654
   22MPD2    C1  342   3.750   2.314  14.267  0.1778 -0.1644 -0.1659
   22MPD2    C2  343   3.645   2.236  14.241 -0.0376  0.4570  0.4333
   22MPD2    C3  344   3.535   2.282  14.173  0.0277  0.1754  0.2826
   22MPD2    C4  345   3.542   2.418  14.132  0.3392 -0.3611 -1.0753
   22MPD2    C5  346   3.653   2.490  14.152 -0.1590 -0.1679  0.1743
   22MPD2     H  347   3.648   2.131  14.266  1.0219  0.5551  0.7317
   22MPD2    H1  348   3.456   2.465  14.085  0.6447 -0.4585 -1.7315
   22MPD2    H2  349   3.840   2.510  14.249  0.4031 -1.1473  2.2827
   22MPD2    H3  350   3.654   2.596  14.133  0.0876 -0.4510 -1.4544
   22MPD2     N  351   3.422   2.204  14.141 -0.2121 -0.2869  0.0899
   22MPD2    H5  352   3.357   2.251  14.079  1.0314  0.4052 -0.6810
   22MPD2    N1  353   3.845   2.243  14.342  0.4377  0.6183 -0.5183
   22MPD2    H7  354   3.827   2.146  14.363  0.3027  0.0647 -3.1491
   23TMC2    C1  355   4.384   3.351  14.688  0.0994  0.0706  0.4340
   23TMC2    C2  356   4.383   3.473  14.743 -0.0442  0.6952  0.0140
   23TMC2    C3  357   4.292   3.558  14.692 -0.9541 -0.2478  0.2125
   23TMC2    C4  358   4.293   3.304  14.594  0.6188 -0.3023 -0.3595
   23TMC2    C5  359   4.196   3.398  14.552 -0.2639 -0.4249  0.3362
   23TMC2    C6  360   4.192   3.522  14.608  0.4355 -1.1487 -0.0448
   23TMC2     C  361   4.498   3.269  14.700 -0.4414 -0.0692 -0.4130
   23TMC2     O  362   4.586   3.325  14.768  0.0368 -0.1677 -0.2159
   23TMC2     H  363   4.456   3.492  14.820  0.0643 -0.3465  0.1731
   23TMC2    H1  364   4.296   3.208  14.543 -1.6195 -0.7573  0.3824
   23TMC2    H2  365   4.124   3.603  14.586  0.5063 -1.1414 -0.2357
   23TMC2    C7  366   4.093   3.367  14.458 -0.1165 -0.3661 -0.3566
   23TMC2    C8  367   4.280   3.689  14.739  0.9632  0.0806 -0.7739
   23TMC2    O1  368   4.032   3.462  14.411 -0.2548 -0.1905 -0.2536
   23TMC2    O2  369   4.176   3.752  14.753  0.4943 -0.3298 -0.1193
   23TMC2    O5  370   4.398   3.762  14.732 -0.0633  0.0555  0.2939
   23TMC2    H5  371   4.483   3.713  14.731  0.1978  0.5131 -0.0587
   24MPD2     C  372   0.011   2.826  14.762 -0.4504 -0.3591 -0.1298
   24MPD2    C1  373   0.038   2.955  14.802 -0.3359  0.6029  0.4404
   24MPD2    C2  374   4.691   3.055  14.758  0.5760 -0.1133  0.2612
   24MPD2    C3  375   4.568   3.031  14.702 -0.3498 -0.8511  0.3216
   24MPD2    C4  376   4.549   2.903  14.659  0.2204 -0.4428 -0.3256
   24MPD2    C5  377   4.635   2.801  14.692  0.7136 -0.7129 -0.3537
   24MPD2     H  378   4.723   3.154  14.790 -2.1375  1.1287 -0.8753
   24MPD2    H1  379   4.464   2.883  14.595  2.3515 -0.7033 -3.0704
   24MPD2    H2  380   0.077   2.741  14.772  0.9200  0.6602 -0.4055
   24MPD2    H3  381   4.602   2.703  14.661 -0.5069 -0.1708 -0.7958
   24MPD2     N  382   4.478   3.135  14.671  0.4267  0.2975 -0.1070
   24MPD2    H5  383   4.382   3.120  14.642  0.8027 -2.1106 -0.1333
   24MPD2    N1  384   0.159   2.984  14.875 -0.2531  0.1946  0.5702
   24MPD2    H7  385   0.167   3.074  14.920 -0.7052 -0.1838  1.4073
   25TMC2    C1  386   2.866   0.916  12.147  0.0557  0.3122 -0.1359
   25TMC2    C2  387   2.764   0.971  12.208  0.0884  0.2627  0.0489
   25TMC2    C3  388   2.754   0.966  12.337 -0.0497 -0.2131 -0.2104
   25TMC2    C4  389   2.977   0.878  12.212  0.2054 -0.1443 -0.1187
   25TMC2    C5  390   2.978   0.882  12.347  0.2712 -0.0885  0.5835
   25TMC2    C6  391   2.861   0.931  12.418 -0.0900  0.2765 -0.1435
   25TMC2     C  392   2.900   0.961  12.015 -0.1359  0.5695  0.7292
   25TMC2     O  393   2.855   1.073  11.982  0.3292  0.2515  0.5783
   25TMC2     H  394   2.678   0.998  12.147  0.1604 -1.9359 -1.0342
   25TMC2    H1  395   3.068   0.857  12.158 -0.0280  0.9112 -0.9121
   25TMC2    H2  396   2.853   0.940  12.526 -1.5790 -1.0447 -0.1496
   25TMC2    C7  397   3.103   0.829  12.410  0.6637  0.5283  0.3894
   25TMC2    C8  398   2.627   0.998  12.401  0.5738 -0.0609 -0.2756
   25TMC2    O1  399   3.211   0.819  12.347 -0.3115 -0.6215 -0.2671
   25TMC2    O2  400   2.535   1.040  12.334  0.3620  0.0913 -0.7806
   25TMC2    O5  401   2.616   0.915  12.505 -0.2856 -0.5038  0.1549
   25TMC2    H5  402   2.698   0.865  12.526  0.5941  1.1359  0.6506
   26MPD2     C  403   3.078   0.880  11.531 -0.0539  0.0108 -0.4937
   26MPD2    C1  404   3.077   0.762  11.602 -1.0157 -0.6406  0.0037
   26MPD2    C2  405   3.025   0.762  11.733 -0.2275 -0.7194 -0.2649
   26MPD2    C3  406   2.975   0.869  11.797  0.2543  0.4703 -0.8778
   26MPD2    C4  407   2.981   0.985  11.725 -0.3755  0.1191  0.0807
   26MPD2    C5  408   3.030   0.992  11.597 -0.0141  0.0237 -0.0960
   26MPD2     H  409   3.029   0.670  11.789  0.8599 -1.1796 -1.0858
   26MPD2    H1  410   2.941   1.075  11.771 -0.1555 -0.7559  1.9441
   26MPD2    H2  411   3.118   0.878  11.430  2.7217 -0.3238  0.6069
   26MPD2    H3  412   3.033   1.091  11.552 -0.3229  0.4888  0.9027
   26MPD2     N  413   2.940   0.860  11.935 -0.5226  0.0492  0.4833
   26MPD2    H5  414   2.932   0.770  11.981 -2.4625  0.4943  1.0261
   26MPD2    N1  415   3.128   0.651  11.528  0.0547 -0.3130 -0.3085
   26MPD2    H7  416   3.158   0.674  11.434  1.6385  0.4662  0.3787
   27TMC2    C1  417   2.676   2.669  11.888 -0.0925  0.1992  0.6776
   27TMC2    C2  418   2.799   2.683  11.829  0.1904 -0.8189 -0.6768
   27TMC2    C3  419   2.903   2.620  11.887  0.5703 -0.8599  0.4262
   27TMC2    C4  420   2.655   2.591  11.999 -0.2046  0.2687  0.3731
   27TMC2    C5  421   2.762   2.514  12.044  0.9837  0.1006  0.3423
   27TMC2    C6  422   2.886   2.533  11.990 -1.0635  0.4290 -0.7613
   27TMC2     C  423   2.573   2.765  11.861  0.3491 -0.1725 -0.4620
   27TMC2     O  424   2.573   2.807  11.747  0.1335  0.6612  0.3594
   27TMC2     H  425   2.807   2.746  11.741 -0.3260  1.3872  0.8477
   27TMC2    H1  426   2.561   2.569  12.048  0.0206  2.2525  1.7057
   27TMC2    H2  427   2.964   2.482  12.045 -2.0941  1.0022  1.2198
   27TMC2    C7  428   2.746   2.408  12.133  0.7343 -0.0608 -0.1729
   27TMC2    C8  429   3.038   2.654  11.853 -0.6350  0.0204 -0.2535
   27TMC2    O1  430   2.836   2.389  12.214 -0.1158  0.4943 -0.3793
   27TMC2    O2  431   3.134   2.633  11.927 -0.3634  0.3659 -0.1188
   27TMC2    O5  432   3.051   2.680  11.723 -0.3632 -0.2053 -0.2482
   27TMC2    H5  433   2.978   2.656  11.661  0.6350 -0.7225 -1.2215
   28MPD2     C  434   2.182   3.064  12.016  0.2602  0.2370 -0.2906
   28MPD2    C1  435   2.213   2.975  12.123  0.2020  0.0182 -0.3419
   28MPD2    C2  436   2.315   2.882  12.105 -0.5153  0.1351 -0.2386
   28MPD2    C3  437   2.380   2.878  11.985  0.3648 -0.4819 -0.3368
   28MPD2    C4  438   2.336   2.952  11.878 -0.7899  0.2437 -0.3401
   28MPD2    C5  439   2.240   3.043  11.895 -0.4790  0.8035  0.2880
   28MPD2     H  440   2.345   2.820  12.189  1.3811 -0.7001 -1.5179
   28MPD2    H1  441   2.385   2.952  11.781 -1.6567 -2.0474 -0.7853
   28MPD2    H2  442   2.113   3.146  12.027 -0.3075 -0.4689  1.4478
   28MPD2    H3  443   2.227   3.110  11.811  1.7835  1.7819  0.7434
   28MPD2     N  444   2.496   2.791  11.973 -0.9517 -0.1726  1.2307
   28MPD2    H5  445   2.514   2.749  12.064 -0.2596  0.7467  1.5163
   28MPD2    N1  446   2.138   2.990  12.238 -0.9910 -0.5471 -0.1640
   28MPD2    H7  447   2.077   3.072  12.240  1.1790  0.9478  2.9019
   29TMC2    C1  448   2.459   0.547  14.673  0.1185  0.2127 -0.2108
   29TMC2    C2  449   2.411   0.538  14.802 -0.0180 -0.2709  0.3683
   29TMC2    C3  450   2.448   0.639  14.890  0.7112  0.2373  0.3637
   29TMC2    C4  451   2.529   0.657  14.626  0.0557 -0.4046 -0.1148
   29TMC2    C5  452   2.566   0.754  14.720 -0.6305  0.6036  0.1411
   29TMC2    C6  453   2.529   0.747  14.850 -0.3779  0.2894 -0.4483
   29TMC2     C  454   2.408   0.447  14.583  0.0343 -0.2507  0.6912
   29TMC2     O  455   2.398   0.336  14.635  0.0019  0.2472  0.6393
   29TMC2     H  456   2.367   0.444  14.832  0.2969 -1.1731 -2.0617
   29TMC2    H1  457   2.553   0.661  14.520  0.1755 -1.8159 -0.1478
   29TMC2    H2  458   2.552   0.827  14.919 -1.0685  1.6885 -1.8428
   29TMC2    C7  459   2.589   0.881  14.651  0.1892 -0.2953 -0.4879
   29TMC2    C8  460   2.363   0.661  14.999 -0.2496  0.4659  0.1968
   29TMC2    O1  461   2.541   0.887  14.539  0.4327  0.1863 -0.2108
   29TMC2    O2  462   2.324   0.564  15.070 -0.3272 -0.3987  0.2627
   29TMC2    O5  463   2.302   0.780  14.970  0.3289 -0.1978  0.1501
   29TMC2    H5  464   2.348   0.844  14.910  0.9189 -0.3582  0.4324
   30MPD2     C  465   2.198   0.262  14.150  0.3436  0.2828  0.1408
   30MPD2    C1  466   2.285   0.203  14.243 -0.3225  0.5265  0.2173
   30MPD2    C2  467   2.341   0.276  14.349 -0.7677 -0.0511  0.2308
   30MPD2    C3  468   2.298   0.406  14.363  0.0824 -0.5117  0.8269
   30MPD2    C4  469   2.209   0.462  14.277 -0.1740 -0.8491  0.4699
   30MPD2    C5  470   2.153   0.386  14.179 -0.1223  0.7832 -0.8219
   30MPD2     H  471   2.410   0.226  14.415 -1.4231 -0.2057  0.7957
   30MPD2    H1  472   2.172   0.564  14.278  0.3798 -0.6189 -1.7218
   30MPD2    H2  473   2.160   0.221  14.057  0.3536  0.1597  0.1910
   30MPD2    H3  474   2.075   0.426  14.114 -1.1220 -0.4184 -0.3556
   30MPD2     N  475   2.343   0.495  14.467 -0.2395  0.5938  0.2489
   30MPD2    H5  476   2.311   0.591  14.461  0.4040  0.7872 -0.0365
   30MPD2    N1  477   2.323   0.066  14.226  0.1489 -0.3047  0.2236
   30MPD2    H7  478   2.393   0.038  14.294 -0.2342 -0.9740  0.3478
   31TMC2    C1  479   4.734   3.989  15.559 -0.3893 -0.6380 -0.0615
   31TMC2    C2  480   4.611   4.030  15.587  0.6623  0.2588  0.8737
   31TMC2    C3  481   4.572   4.069  15.712 -0.4939  0.0939 -0.3020
   31TMC2    C4  482   0.093   3.973  15.657 -0.8047 -0.5806 -0.2755
   31TMC2    C5  483   0.053   4.007  15.788 -0.2105 -0.9177 -1.1208
   31TMC2    C6  484   4.659   4.045  15.814 -0.6024 -0.1521 -0.4319
   31TMC2     C  485   0.028   3.959  15.418  0.7501 -0.3325 -0.1840
   31TMC2     O  486   4.698   4.014  15.325 -0.1242 -0.4061  0.2285
   31TMC2     H  487   4.540   4.016  15.506 -1.7058  1.3176  2.7671
   31TMC2    H1  488   0.194   3.940  15.632 -0.0929  0.4843  1.1425
   31TMC2    H2  489   4.625   4.056  15.917  0.2828  0.3693 -0.2001
   31TMC2    C7  490   0.152   3.992  15.898 -0.1474  0.4428 -0.4625
   31TMC2    C8  491   4.440   4.037  15.745  0.3506  0.0503  0.1024
   31TMC2    O1  492   0.230   3.897  15.905 -0.5005  0.0562 -0.8518
   31TMC2    O2  493   4.409   3.988  15.850  0.2506 -0.1506 -0.6430
   31TMC2    O5  494   4.364   4.120  15.674 -0.2362  0.1516 -0.4413
   31TMC2    H5  495   4.418   4.186  15.626 -0.2299  1.5772  1.5059
   32MPD2     C  496   0.404   3.836  15.081 -0.4529  1.0939 -0.6920
   32MPD2    C1  497   0.288   3.905  15.055  0.1438  0.5546 -0.0317
   32MPD2    C2  498   0.196   3.917  15.160 -0.2128  0.1837  0.4916
   32MPD2    C3  499   0.229   3.874  15.287  0.4262 -0.2099  0.3517
   32MPD2    C4  500   0.350   3.806  15.304  0.3504  0.0373 -0.2687
   32MPD2    C5  501   0.446   3.791  15.206  0.5288  0.3053 -0.2624
   32MPD2     H  502   0.100   3.965  15.145 -0.9619 -1.3128  0.5386
   32MPD2    H1  503   0.373   3.784  15.407  0.9412  1.1162 -0.1691
   32MPD2    H2  504   0.472   3.812  15.000  2.1497 -1.2319  2.1874
   32MPD2    H3  505   0.541   3.740  15.220 -0.1006 -0.7870  0.0692
   32MPD2     N  506   0.146   3.880  15.399 -0.6961  0.6364 -1.0248
   32MPD2    H5  507   0.175   3.830  15.482 -1.0611  0.7907 -0.8004
   32MPD2    N1  508   0.274   3.938  14.919 -0.6632 -0.3935  0.0349
   32MPD2    H7  509   0.347   3.908  14.855 -0.8555  1.2711 -0.9556
   33TMC2    C1  510   0.420   1.742   9.830 -0.1890  0.6082  0.8179
   33TMC2    C2  511   0.294   1.685   9.857 -0.4861 -0.7895 -0.1672
   33TMC2    C3  512   0.192   1.716   9.766 -0.6587 -1.0530 -0.0991
   33TMC2    C4  513   0.436   1.827   9.722 -0.4027 -0.0175  0.3529
   33TMC2    C5  514   0.330   1.857   9.640 -0.5440 -0.1145  0.7192
   33TMC2    C6  515   0.206   1.798   9.657 -0.1692 -0.0856 -0.0281
   33TMC2     C  516   0.528   1.688   9.919 -0.1200 -0.1935  0.3852
   33TMC2     O  517   0.487   1.642  10.026 -0.9152 -0.5750 -0.0945
   33TMC2     H  518   0.283   1.604   9.929  1.0129 -1.1742 -0.3741
   33TMC2    H1  519   0.537   1.866   9.716  0.4277 -2.4842 -1.4109
   33TMC2    H2  520   0.125   1.805   9.585 -0.2903  0.1764  0.1357
   33TMC2    C7  521   0.358   1.952   9.542  0.0087 -0.1169 -0.7780
   33TMC2    C8  522   0.056   1.650   9.780 -0.0085  0.3015  0.5172
   33TMC2    O1  523   0.474   1.970   9.526 -0.4473 -0.1812 -0.4789
   33TMC2    O2  524   4.705   1.646   9.693 -0.3997 -0.0705 -0.4571
   33TMC2    O5  525   0.025   1.654   9.910  0.3757  0.4728 -0.1050
   33TMC2    H5  526   0.103   1.690   9.956  1.3860 -0.3096 -1.2154
   34MPD2     C  527   0.996   1.523   9.987 -0.1343 -0.2009 -0.5371
   34MPD2    C1  528   0.901   1.566  10.077  0.8461  0.2389  0.6298
   34MPD2    C2  529   0.782   1.604  10.028  0.3485  0.6105 -0.1902
   34MPD2    C3  530   0.767   1.631   9.894  0.2775  0.5466  0.1936
   34MPD2    C4  531   0.874   1.608   9.797  0.1854 -0.4734  0.1819
   34MPD2    C5  532   0.988   1.547   9.849 -0.2930 -0.2181  0.0199
   34MPD2     H  533   0.700   1.615  10.098 -1.2513  0.7432 -2.0903
   34MPD2    H1  534   0.872   1.634   9.691  0.2579  0.9037  0.5277
   34MPD2    H2  535   1.083   1.464  10.015  0.7841  1.4446  0.1179
   34MPD2    H3  536   1.075   1.506   9.800 -0.7911 -0.8383 -0.3358
   34MPD2     N  537   0.643   1.676   9.845  0.0877  0.0285  0.2511
   34MPD2    H5  538   0.641   1.694   9.745 -1.6858 -2.2518 -0.1298
   34MPD2    N1  539   0.932   1.556  10.217 -0.1144 -0.4724 -0.1556
   34MPD2    H7  540   1.023   1.516  10.239 -0.8380 -1.7761  0.4908
   35TMC2    C1  541   1.157   2.805  11.055  0.3093 -0.3447  0.2656
   35TMC2    C2  542   1.089   2.797  10.937  0.5218  0.1343  0.1954
   35TMC2    C3  543   0.958   2.749  10.945  0.4797  0.9430  0.4923
   35TMC2    C4  544   1.108   2.764  11.173 -0.3084 -0.4077 -0.5258
   35TMC2    C5  545   0.973   2.732  11.182 -0.4402 -0.1809  0.6787
   35TMC2    C6  546   0.895   2.730  11.067 -0.4132 -0.3896 -0.4302
   35TMC2     C  547   1.288   2.859  11.042 -0.5098  0.5357  0.8023
   35TMC2     O  548   1.313   2.922  10.941 -0.2561  0.2677  0.0035
   35TMC2     H  549   1.125   2.840  10.845  0.9080  1.4581  0.9749
   35TMC2    H1  550   1.163   2.776  11.266  1.1255 -3.2043 -1.0117
   35TMC2    H2  551   0.789   2.705  11.066 -0.6943  0.8454 -1.2594
   35TMC2    C7  552   0.932   2.660  11.290  0.7991  0.1980 -0.4290
   35TMC2    C8  553   0.873   2.760  10.822 -0.6808 -0.1167  0.4382
   35TMC2    O1  554   1.025   2.606  11.350  0.0171 -0.3138  0.0758
   35TMC2    O2  555   0.920   2.830  10.732  0.0135  0.0724 -0.1585
   35TMC2    O5  556   0.808   2.646  10.800 -0.4262 -0.3492  0.6713
   35TMC2    H5  557   0.810   2.583  10.875  1.4629 -1.6383 -0.4566
   36MPD2     C  558   1.598   3.155  11.334  0.0774 -0.2509  0.1867
   36MPD2    C1  559   1.584   3.034  11.394 -0.0016 -0.0369 -0.3116
   36MPD2    C2  560   1.508   2.938  11.332  0.0734  0.2076  0.2142
   36MPD2    C3  561   1.448   2.955  11.208  0.4478  0.3060  0.4403
   36MPD2    C4  562   1.471   3.077  11.149 -0.1709  0.0665 -0.2714
   36MPD2    C5  563   1.534   3.173  11.214  0.1888  0.0024 -0.1526
   36MPD2     H  564   1.489   2.845  11.384 -0.7862  0.9318  1.2113
   36MPD2    H1  565   1.426   3.099  11.052  2.9308  0.3045 -1.6518
   36MPD2    H2  566   1.664   3.229  11.378 -1.5070  0.6005  1.1538
   36MPD2    H3  567   1.550   3.263  11.156 -0.7176  0.4474  0.2947
   36MPD2     N  568   1.363   2.857  11.153  0.6020 -0.2193 -0.2207
   36MPD2    H5  569   1.351   2.778  11.216  0.0362 -0.6646 -0.8800
   36MPD2    N1  570   1.629   3.024  11.528 -0.0378  0.2495  0.2882
   36MPD2    H7  571   1.678   3.104  11.567  1.6644 -1.0541  0.8415
   37TMC2    C1  572   3.031   3.690  11.367 -0.1876 -0.1015 -0.1578
   37TMC2    C2  573   2.918   3.701  11.287  0.1640  0.2827 -0.0082
   37TMC2    C3  574   2.932   3.729  11.155  0.3543 -0.0442  0.4331
   37TMC2    C4  575   3.158   3.720  11.321  0.2918  0.6612  0.1534
   37TMC2    C5  576   3.167   3.745  11.184  0.3673  0.1767 -0.3985
   37TMC2    C6  577   3.061   3.741  11.102 -0.3870  0.7563 -0.3050
   37TMC2     C  578   3.011   3.612  11.485  0.1509  0.7593 -0.3348
   37TMC2     O  579   2.892   3.594  11.511  0.3214  0.0133  0.3062
   37TMC2     H  580   2.818   3.688  11.326  1.3466 -2.0823  2.1884
   37TMC2    H1  581   3.242   3.714  11.389 -0.1587  1.0185  0.7456
   37TMC2    H2  582   3.082   3.746  10.996  1.3834  0.0001  0.0174
   37TMC2    C7  583   3.301   3.735  11.141  0.4391  0.7515 -0.3090
   37TMC2    C8  584   2.823   3.698  11.067 -0.1113  0.4105 -0.4977
   37TMC2    O1  585   3.388   3.685  11.216  0.3992 -0.7530  0.3280
   37TMC2    O2  586   2.826   3.593  11.006  0.4044 -0.1684 -0.1404
   37TMC2    O5  587   2.709   3.750  11.122  0.3464  0.0506 -0.3226
   37TMC2    H5  588   2.727   3.820  11.188 -0.2810 -0.0002 -0.0969
   38MPD2     C  589   3.155   3.348  11.901 -0.2617  0.1808 -1.2763
   38MPD2    C1  590   3.261   3.366  11.822 -0.6030  0.3535  0.4648
   38MPD2    C2  591   3.248   3.442  11.704 -0.6315 -0.1719  0.0292
   38MPD2    C3  592   3.127   3.486  11.660  0.1443  0.3954 -0.6214
   38MPD2    C4  593   3.020   3.455  11.743  0.0834 -0.9039 -0.1232
   38MPD2    C5  594   3.034   3.401  11.862 -0.2361 -0.2720 -0.5082
   38MPD2     H  595   3.335   3.450  11.640 -1.0817  2.3913 -0.2753
   38MPD2    H1  596   2.922   3.494  11.718  0.6640  0.5808 -0.1013
   38MPD2    H2  597   3.153   3.302  11.998  0.6485  2.1153 -0.3374
   38MPD2    H3  598   2.954   3.398  11.934  2.1017  0.6085  2.1268
   38MPD2     N  599   3.121   3.563  11.544 -0.2660 -0.1761 -0.2876
   38MPD2    H5  600   3.213   3.586  11.508 -0.9258 -0.6289 -2.2512
   38MPD2    N1  601   3.386   3.309  11.855  0.2960 -0.0832  0.0099
   38MPD2    H7  602   3.455   3.316  11.780  0.4174  2.1620  0.3485
   39TMC2    C1  603   2.245   0.546   1.656 -0.2684 -0.0688 -0.2145
   39TMC2    C2  604   2.381   0.549   1.621 -0.2484  1.5588  0.2601
   39TMC2    C3  605   2.448   0.659   1.641 -0.0417  0.6086  0.3438
   39TMC2    C4  606   2.185   0.652   1.724 -0.3014 -1.1189  0.0619
   39TMC2    C5  607   2.265   0.765   1.730 -0.3262 -0.1898  0.1765
   39TMC2    C6  608   2.397   0.766   1.696  0.0775 -0.0883  0.0930
   39TMC2     C  609   2.160   0.435   1.617  0.1585 -0.5901 -0.2647
   39TMC2     O  610   2.042   0.464   1.619 -0.2002  0.4176 -0.0300
   39TMC2     H  611   2.431   0.475   1.559 -0.3367  0.8425  1.0356
   39TMC2    H1  612   2.081   0.647   1.753 -0.1836 -2.0146  0.3311
   39TMC2    H2  613   2.451   0.860   1.700 -1.8218  0.9557  1.0444
   39TMC2    C7  614   2.196   0.883   1.767 -0.5172  0.1379  1.0036
   39TMC2    C8  615   2.577   0.668   1.577 -0.8362 -0.6960  0.3851
   39TMC2    O1  616   2.072   0.886   1.750 -0.1720 -0.2910 -0.0669
   39TMC2    O2  617   2.580   0.704   1.459  0.5969  0.0811  0.1409
   39TMC2    O5  618   2.645   0.717   1.674  0.0580  0.0976  0.6874
   39TMC2    H5  619   2.600   0.687   1.755 -0.3308 -1.5110 -0.1297
   40MPD2     C  620   2.231   0.083   1.521 -0.3605 -0.0244  0.4741
   40MPD2    C1  621   2.158   0.203   1.528  0.0436 -0.7291 -0.5853
   40MPD2    C2  622   2.028   0.205   1.490 -0.3365  0.5253  0.5615
   40MPD2    C3  623   1.964   0.092   1.442 -0.1899  0.2526  0.0684
   40MPD2    C4  624   2.037   4.706   1.439 -0.0386 -0.0948 -0.5695
   40MPD2    C5  625   2.171   4.705   1.475  0.0577 -0.2297 -0.2218
   40MPD2     H  626   1.973   0.298   1.478 -1.4287 -0.2183 -0.1961
   40MPD2    H1  627   2.006   4.616   1.388 -0.0919 -0.1211 -0.4910
   40MPD2    H2  628   2.331   0.071   1.561  0.3001 -0.5202 -1.3184
   40MPD2    H3  629   2.232   4.616   1.470  0.4890  0.3195 -4.5267
   40MPD2     N  630   1.836   0.094   1.388 -0.4267  0.1832 -0.2066
   40MPD2    H5  631   1.793   0.007   1.357 -0.5214 -0.0871  0.6980
   40MPD2    N1  632   2.224   0.318   1.590  0.2492 -0.1920  0.0531
   40MPD2    H7  633   2.321   0.299   1.614  0.3341 -1.0797 -0.9378
   41TMC2    C1  634   0.447   3.494  13.337  0.3120 -0.7412 -0.2613
   41TMC2    C2  635   0.449   3.627  13.345 -0.1787 -0.4297  0.0599
   41TMC2    C3  636   0.409   3.703  13.239  0.1451  0.2613  0.5484
   41TMC2    C4  637   0.407   3.428  13.219 -0.5731 -0.2094 -0.3348
   41TMC2    C5  638   0.383   3.508  13.110 -0.5389 -0.4856  0.8203
   41TMC2    C6  639   0.382   3.646  13.117 -0.1581  0.7582 -0.0694
   41TMC2     C  640   0.510   3.412  13.443  0.5186  0.7815 -0.4946
   41TMC2     O  641   0.482   3.294  13.436 -0.5358  0.1676  0.0505
   41TMC2     H  642   0.470   3.666  13.444 -0.9036 -1.0642  0.4617
   41TMC2    H1  643   0.402   3.320  13.219  0.3805 -0.2504 -1.2935
   41TMC2    H2  644   0.326   3.697  13.039  0.6010 -0.5966 -1.4853
   41TMC2    C7  645   0.374   3.452  12.976 -0.2875 -0.3396  0.4500
   41TMC2    C8  646   0.391   3.842  13.254  0.3941 -0.2237 -0.6130
   41TMC2    O1  647   0.332   3.514  12.880 -0.2308  0.1408 -0.1470
   41TMC2    O2  648   0.337   3.915  13.171  0.2136  1.0490  0.4244
   41TMC2    O5  649   0.476   3.887  13.348 -0.1935 -0.0355 -0.2506
   41TMC2    H5  650   0.522   3.806  13.377 -0.1825 -0.5715 -1.7348
   42MPD2     C  651   0.610   3.307  13.702 -0.1834 -0.5147 -0.1834
   42MPD2    C1  652   0.661   3.419  13.634 -0.3914 -0.0943  0.0330
   42MPD2    C2  653   0.784   3.467  13.679  0.6696 -0.4895  0.0590
   42MPD2    C3  654   0.852   3.413  13.785 -0.6157 -1.2927  1.1163
   42MPD2    C4  655   0.801   3.311  13.860  0.1161  0.5558 -0.1248
   42MPD2    C5  656   0.671   3.270  13.823 -0.1595 -0.2692 -0.3705
   42MPD2     H  657   0.827   3.559  13.642  1.7564 -0.7781  0.5961
   42MPD2    H1  658   0.850   3.270  13.947 -0.5507  2.3572  1.0985
   42MPD2    H2  659   0.514   3.268  13.671 -1.3476  1.7915  0.5018
   42MPD2    H3  660   0.620   3.194  13.880  0.7176 -0.5025  0.0962
   42MPD2     N  661   0.987   3.464  13.816 -0.6147  0.3898 -0.0738
   42MPD2    H5  662   1.021   3.441  13.909  1.3219  1.7455 -0.4418
   42MPD2    N1  663   0.602   3.479  13.521 -0.1380  1.0433 -0.3504
   42MPD2    H7  664   0.631   3.574  13.499  0.3470  1.0018  0.1074
   43TMC2    C1  665   2.370   1.314   0.769  0.4860 -0.6832  0.0651
   43TMC2    C2  666   2.259   1.358   0.830 -0.0798 -0.3594 -0.1722
   43TMC2    C3  667   2.255   1.483   0.885 -0.0695 -0.0212 -0.2061
   43TMC2    C4  668   2.480   1.399   0.756  0.4156  0.7502 -0.4163
   43TMC2    C5  669   2.465   1.524   0.805 -0.7747 -0.1271 -0.8587
   43TMC2    C6  670   2.357   1.577   0.874  0.0658 -0.3849 -0.0120
   43TMC2     C  671   2.381   1.177   0.736 -0.5252 -0.2213  0.3058
   43TMC2     O  672   2.499   1.139   0.726  0.0221  0.8500 -0.2460
   43TMC2     H  673   2.182   1.289   0.862 -0.1074 -0.4750 -0.4915
   43TMC2    H1  674   2.552   1.378   0.678 -1.2740 -0.8512 -1.5258
   43TMC2    H2  675   2.340   1.681   0.896  0.8340 -0.0017 -1.2604
   43TMC2    C7  676   2.571   1.616   0.768  0.2375  0.4054  0.0606
   43TMC2    C8  677   2.130   1.542   0.934 -0.9804 -0.0810 -0.4268
   43TMC2    O1  678   2.646   1.588   0.675 -0.4052 -0.0068 -0.5968
   43TMC2    O2  679   2.135   1.647   0.995 -0.4549 -0.2673  0.2810
   43TMC2    O5  680   2.042   1.518   0.829  0.0102  0.2630 -0.7321
   43TMC2    H5  681   2.052   1.433   0.780 -0.1482 -0.7334  0.9622
   44MPD2     C  682   2.206   0.761   0.514 -0.6978 -0.8392  0.0637
   44MPD2    C1  683   2.328   0.786   0.567 -0.3255  0.3931  0.1686
   44MPD2    C2  684   2.348   0.907   0.630  0.0332  0.0300  0.7121
   44MPD2    C3  685   2.243   0.997   0.631  0.1179 -0.0434  0.3029
   44MPD2    C4  686   2.119   0.970   0.591 -0.5092 -0.2869 -0.8829
   44MPD2    C5  687   2.101   0.851   0.530  0.4786  0.0441 -0.0082
   44MPD2     H  688   2.447   0.933   0.667 -0.2858 -0.1151  1.6712
   44MPD2    H1  689   2.040   1.044   0.595  0.7775  0.9548  1.1808
   44MPD2    H2  690   2.189   0.666   0.465  0.2108 -1.5427  1.1269
   44MPD2    H3  691   2.002   0.827   0.494  0.1081  1.6636 -0.0705
   44MPD2     N  692   2.260   1.120   0.688  0.1595 -0.0666 -0.6330
   44MPD2    H5  693   2.180   1.183   0.688 -2.1889 -3.0609 -0.1455
   44MPD2    N1  694   2.439   0.699   0.552 -0.5790 -0.1619  0.3484
   44MPD2    H7  695   2.513   0.718   0.619 -0.2478 -2.5597  0.6570
   45TMC2    C1  696   2.731   3.992   9.409  0.0892  0.9800  0.1685
   45TMC2    C2  697   2.695   4.068   9.307 -0.0010  0.3138  0.1028
   45TMC2    C3  698   2.728   4.196   9.314  0.2296  0.2471 -0.0857
   45TMC2    C4  699   2.815   4.029   9.511  0.8057 -0.4899  0.6780
   45TMC2    C5  700   2.845   4.167   9.518 -0.7499 -0.4033 -0.0980
   45TMC2    C6  701   2.802   4.245   9.419 -0.1494  0.3225  0.6134
   45TMC2     C  702   2.721   3.854   9.380 -0.3615  0.4980 -1.4447
   45TMC2     O  703   2.807   3.780   9.424 -0.6499 -0.5588 -0.4887
   45TMC2     H  704   2.644   4.031   9.219 -0.8590 -0.4612  0.9263
   45TMC2    H1  705   2.853   3.956   9.582  0.5612 -1.2047  0.0824
   45TMC2    H2  706   2.814   4.352   9.432 -0.0713  0.3260  0.5144
   45TMC2    C7  707   2.926   4.227   9.625  0.8595 -1.1574 -0.6769
   45TMC2    C8  708   2.681   4.284   9.210  0.2764 -0.4996  0.4112
   45TMC2    O1  709   2.903   4.179   9.737  0.2784 -0.1072  0.6582
   45TMC2    O2  710   2.596   4.255   9.123 -0.4293  0.2107  0.4840
   45TMC2    O5  711   2.774   4.370   9.196  0.2189 -0.0344  0.5360
   45TMC2    H5  712   2.852   4.371   9.256  1.3535 -0.7590 -0.9192
   46MPD2     C  713   2.637   3.579   9.306 -0.4109 -0.2647  0.2818
   46MPD2    C1  714   2.557   3.689   9.320 -0.2493  0.3392 -0.3776
   46MPD2    C2  715   2.423   3.657   9.307  0.3917 -0.2420 -1.2600
   46MPD2    C3  716   2.373   3.527   9.299 -0.7563 -0.5271 -0.7100
   46MPD2    C4  717   2.459   3.419   9.292 -0.1555 -0.0806  0.3355
   46MPD2    C5  718   2.593   3.451   9.305  0.3530 -0.5867  0.4130
   46MPD2     H  719   2.347   3.733   9.322  3.1299  2.2543  0.0406
   46MPD2    H1  720   2.426   3.316   9.276  2.0055 -0.6989 -0.0780
   46MPD2    H2  721   2.744   3.586   9.289 -0.6885 -1.5538 -2.0726
   46MPD2    H3  722   2.675   3.381   9.290 -0.5343 -1.6658  0.6438
   46MPD2     N  723   2.238   3.516   9.290 -0.2600  0.0545  0.1952
   46MPD2    H5  724   2.185   3.602   9.277 -0.7966 -0.2747  0.2200
   46MPD2    N1  725   2.595   3.825   9.331  0.8674  0.8099  0.5253
   46MPD2    H7  726   2.523   3.896   9.341  0.5589  0.5152  0.3792
   47TMC2    C1  727   4.549   4.210   9.275 -0.7475  0.1885  0.0855
   47TMC2    C2  728   4.429   4.279   9.281 -0.5197 -0.3735 -0.5163
   47TMC2    C3  729   4.320   4.221   9.332 -0.2670 -0.2892  0.2972
   47TMC2    C4  730   4.556   4.080   9.322 -0.5691 -0.0249 -0.7705
   47TMC2    C5  731   4.450   4.033   9.399 -0.4317  1.1745  0.1840
   47TMC2    C6  732   4.333   4.108   9.406 -0.3235 -0.5259 -0.4394
   47TMC2     C  733   4.673   4.280   9.254  0.2450  0.4270  0.2869
   47TMC2     O  734   4.662   4.405   9.259 -0.5096  0.0013  0.4776
   47TMC2     H  735   4.429   4.384   9.256 -0.1139 -0.3661 -0.4935
   47TMC2    H1  736   4.642   4.015   9.312  0.5374  1.7128 -2.5569
   47TMC2    H2  737   4.257   4.070   9.473 -0.1950  0.4781  0.2749
   47TMC2    C7  738   4.452   3.904   9.462  0.3592  0.9298 -0.0873
   47TMC2    C8  739   4.219   4.306   9.380 -0.1855  0.9925  0.0653
   47TMC2    O1  740   4.346   3.845   9.462 -0.0099  0.5833  0.5292
   47TMC2    O2  741   4.232   4.421   9.418  0.2643  0.3061  0.6213
   47TMC2    O5  742   4.107   4.228   9.393 -0.0047  0.1076 -0.1653
   47TMC2    H5  743   4.109   4.149   9.335 -0.8024  1.4525 -2.0093
   48MPD2     C  744   0.229   4.365   9.256  0.3713 -0.4138  0.9303
   48MPD2    C1  745   0.185   4.234   9.234  0.6220 -0.3869 -0.3801
   48MPD2    C2  746   0.277   4.142   9.205  0.3969 -0.2875 -0.3187
   48MPD2    C3  747   0.413   4.159   9.213 -0.0083 -0.0091  0.3706
   48MPD2    C4  748   0.456   4.282   9.250 -0.4977  0.3545 -0.7424
   48MPD2    C5  749   0.367   4.381   9.273 -0.3028  0.5766 -0.5117
   48MPD2     H  750   0.236   4.043   9.187 -1.3150  0.4544 -0.5714
   48MPD2    H1  751   0.559   4.313   9.238 -1.0464  1.6400 -2.2163
   48MPD2    H2  752   0.166   4.452   9.274  0.2587 -0.3719  0.3259
   48MPD2    H3  753   0.403   4.483   9.282  0.4908  0.2673 -0.1774
   48MPD2     N  754   0.494   4.046   9.192 -0.0741  0.0368  0.2776
   48MPD2    H5  755   0.448   3.958   9.170  0.6888  0.1398 -1.6954
   48MPD2    N1  756   0.051   4.198   9.244 -0.5109  0.4332  0.7278
   48MPD2    H7  757   0.032   4.099   9.252 -0.1895  0.5695  3.1422
   49TMC2    C1  758   2.356   1.452   9.512 -1.3427  0.1300 -0.2387
   49TMC2    C2  759   2.316   1.541   9.412 -0.5530 -0.0079 -0.8192
   49TMC2    C3  760   2.187   1.538   9.366  0.2099 -0.3775 -0.2607
   49TMC2    C4  761   2.272   1.349   9.555  0.4345 -0.0645 -0.4681
   49TMC2    C5  762   2.143   1.348   9.502  0.1566 -1.0452  0.6549
   49TMC2    C6  763   2.096   1.440   9.409  0.2042  0.8247 -0.4087
   49TMC2     C  764   2.488   1.472   9.574  0.1085  0.0631  0.0694
   49TMC2     O  765   2.563   1.555   9.532  0.6194  0.1858 -0.2944
   49TMC2     H  766   2.385   1.619   9.381  0.7456 -0.7013  0.3502
   49TMC2    H1  767   2.290   1.285   9.641 -0.6913 -2.9495 -2.3710
   49TMC2    H2  768   1.994   1.435   9.373 -0.3002  0.7033  1.0536
   49TMC2    C7  769   2.057   1.241   9.547 -0.4984 -0.2632  0.1540
   49TMC2    C8  770   2.152   1.595   9.238 -0.3201 -0.0465  0.1854
   49TMC2    O1  771   2.115   1.143   9.591  0.1172 -0.2246 -0.0720
   49TMC2    O2  772   2.056   1.553   9.175 -0.5091  0.0590 -0.1227
   49TMC2    O5  773   2.234   1.696   9.198 -0.5197  0.4413  0.0300
   49TMC2    H5  774   2.281   1.731   9.277  2.9366  0.0013 -1.8554
   50MPD2     C  775   2.750   1.446   9.724 -0.3566 -0.3337 -0.2908
   50MPD2    C1  776   2.639   1.369   9.748  0.7289 -0.9613  0.3563
   50MPD2    C2  777   2.641   1.274   9.846 -0.5829  0.1081  0.0954
   50MPD2    C3  778   2.755   1.254   9.920  0.4492 -0.2920  0.1495
   50MPD2    C4  779   2.858   1.342   9.901 -0.4900  0.0870 -0.3213
   50MPD2    C5  780   2.860   1.435   9.796 -0.0876  0.8122  0.0619
   50MPD2     H  781   2.549   1.220   9.867 -0.6824 -1.1648 -3.6438
   50MPD2    H1  782   2.949   1.329   9.958  0.3808  1.0361 -1.5246
   50MPD2    H2  783   2.755   1.520   9.645 -2.4189  1.2561  1.0734
   50MPD2    H3  784   2.945   1.497   9.769  1.5794  0.1125  3.7054
   50MPD2     N  785   2.757   1.161  10.027 -0.3392 -0.9152  0.4376
   50MPD2    H5  786   2.835   1.175  10.091 -0.4689 -0.0035  0.3835
   50MPD2    N1  787   2.518   1.384   9.672  0.8989  0.3151 -0.2977
   50MPD2    H7  788   2.440   1.328   9.703  1.9262 -0.4733  0.8771
   51TMC2    C1  789   3.757   0.401   1.331  0.5267  0.1715  0.2476
   51TMC2    C2  790   3.637   0.408   1.402  0.4073  0.3584  0.2950
   51TMC2    C3  791   3.568   0.521   1.413 -0.1680  0.3272  0.5824
   51TMC2    C4  792   3.809   0.514   1.276 -0.1845 -0.3864  0.2600
   51TMC2    C5  793   3.732   0.629   1.287 -0.1324  0.3356 -0.0955
   51TMC2    C6  794   3.617   0.632   1.361 -0.2260 -0.5529  0.3858
   51TMC2     C  795   3.844   0.292   1.344  0.0366 -0.2497 -0.2376
   51TMC2     O  796   3.923   0.273   1.250 -0.2025 -0.6044  0.1171
   51TMC2     H  797   3.608   0.327   1.468 -1.8090 -0.3707 -1.5689
   51TMC2    H1  798   3.897   0.513   1.212 -1.2282  3.1975 -1.2263
   51TMC2    H2  799   3.569   0.727   1.380 -1.7094 -1.1012 -0.5826
   51TMC2    C7  800   3.800   0.754   1.248  0.3414 -0.0295 -0.1926
   51TMC2    C8  801   3.445   0.518   1.475  0.1677 -0.3067 -0.0297
   51TMC2    O1  802   3.924   0.763   1.270 -0.2083 -0.0245 -0.4324
   51TMC2    O2  803   3.407   0.440   1.564  0.2779  0.2271 -0.3085
   51TMC2    O5  804   3.368   0.611   1.414 -0.7447 -0.3517  0.3054
   51TMC2    H5  805   3.404   0.654   1.333 -1.2362  1.1853  0.9065
   52MPD2     C  806   3.944   4.565   1.539  0.2361  0.4948 -0.1612
   52MPD2    C1  807   3.994   4.622   1.421 -0.0563  0.6541 -0.2089
   52MPD2    C2  808   3.960   0.020   1.393 -0.2684  0.0791  0.2255
   52MPD2    C3  809   3.869   0.086   1.474 -0.1191 -0.2006  0.5210
   52MPD2    C4  810   3.816   0.022   1.587  0.0512 -0.3654  0.7349
   52MPD2    C5  811   3.853   4.629   1.617 -0.0282 -0.6048  1.0432
   52MPD2     H  812   4.009   0.067   1.308  0.8038 -0.4601  0.5314
   52MPD2    H1  813   3.744   0.065   1.655  0.4565 -1.2222  1.6932
   52MPD2    H2  814   3.980   4.470   1.577  2.0473 -0.0458 -3.2238
   52MPD2    H3  815   3.818   4.581   1.708 -1.7347 -0.2181  0.5921
   52MPD2     N  816   3.821   0.216   1.451  1.0946  0.0204  0.3520
   52MPD2    H5  817   3.767   0.256   1.528  0.4352  1.5677 -0.9193
   52MPD2    N1  818   4.080   4.557   1.324  0.0687 -0.2049 -0.4908
   52MPD2    H7  819   4.105   4.605   1.238 -1.0236  0.9892 -0.1409
   53TMC2    C1  820   3.975   3.501  10.946 -0.4475  0.0954  0.2167
   53TMC2    C2  821   4.055   3.412  10.888  0.4347  0.2144 -0.0460
   53TMC2    C3  822   4.141   3.345  10.970 -0.1440  0.7545 -0.7875
   53TMC2    C4  823   3.973   3.526  11.083 -0.4236  0.7379 -0.4477
   53TMC2    C5  824   4.054   3.456  11.164  0.4080  0.7006 -0.1519
   53TMC2    C6  825   4.141   3.362  11.113  0.0457  0.6411 -0.1790
   53TMC2     C  826   3.882   3.579  10.857  0.2492 -0.3895  0.8087
   53TMC2     O  827   3.895   3.577  10.731 -0.3830  0.0577 -0.1062
   53TMC2     H  828   4.058   3.409  10.780  1.3423  0.2545 -0.0165
   53TMC2    H1  829   3.896   3.587  11.130 -1.7756 -0.5363 -1.0063
   53TMC2    H2  830   4.223   3.327  11.175 -0.9060  1.8301  1.7659
   53TMC2    C7  831   4.014   3.429  11.304  0.6177  0.1988 -0.3841
   53TMC2    C8  832   4.248   3.270  10.906 -0.1016  0.2321  0.1170
   53TMC2    O1  833   3.947   3.515  11.364  0.1277 -0.4600 -0.0010
   53TMC2    O2  834   4.308   3.304  10.810 -0.3392 -0.7538 -0.7198
   53TMC2    O5  835   4.289   3.173  10.986  0.4859 -0.6929  0.1973
   53TMC2    H5  836   4.221   3.159  11.055 -0.4676 -0.8805 -0.7731
   54MPD2     C  837   3.659   3.753  10.761 -0.3049 -0.3086  0.3951
   54MPD2    C1  838   3.664   3.699  10.887  0.2506 -0.4144 -0.3906
   54MPD2    C2  839   3.552   3.712  10.975  0.0369  0.5407 -0.1471
   54MPD2    C3  840   3.442   3.785  10.942  0.2593 -0.0561  0.3117
   54MPD2    C4  841   3.437   3.837  10.811  0.0955  0.5536 -0.0235
   54MPD2    C5  842   3.548   3.822  10.725  0.0136  0.4555 -0.2533
   54MPD2     H  843   3.557   3.673  11.076 -0.0989 -1.7786 -1.0320
   54MPD2    H1  844   3.352   3.901  10.789 -0.4036  0.2749  1.0955
   54MPD2    H2  845   3.737   3.746  10.685  0.4217  1.2637  0.9862
   54MPD2    H3  846   3.547   3.860  10.624 -2.0331 -0.6359 -0.6414
   54MPD2     N  847   3.328   3.795  11.018 -1.0873 -0.0543 -0.0497
   54MPD2    H5  848   3.260   3.868  10.998 -2.8172 -0.6744  3.4945
   54MPD2    N1  849   3.777   3.625  10.927  0.9658  0.8367  0.0208
   54MPD2    H7  850   3.758   3.597  11.023  1.8254 -1.0701 -0.3695
   55TMC2    C1  851   0.215   1.473  17.420 -0.1748 -0.1695  0.2510
   55TMC2    C2  852   0.203   1.447  17.288 -0.2876  0.4880  0.0017
   55TMC2    C3  853   0.239   1.324  17.237 -0.1135 -0.3224 -0.0594
   55TMC2    C4  854   0.285   1.388  17.503  0.8058 -0.3460  0.1183
   55TMC2    C5  855   0.334   1.273  17.450 -0.3204 -0.1072 -0.0913
   55TMC2    C6  856   0.317   1.241  17.323  0.0066  0.5108  0.2112
   55TMC2     C  857   0.137   1.581  17.491 -0.3128 -0.6650 -0.2001
   55TMC2     O  858   0.132   1.584  17.614  0.3635  0.2870  0.2320
   55TMC2     H  859   0.146   1.517  17.227 -0.7445  1.2644  1.3156
   55TMC2    H1  860   0.330   1.429  17.594 -1.6510  0.5566  0.9194
   55TMC2    H2  861   0.361   1.152  17.279  0.4531  0.9911 -0.3313
   55TMC2    C7  862   0.383   1.169  17.546 -0.3904 -0.1436  0.7704
   55TMC2    C8  863   0.266   1.316  17.098 -0.2519  0.1285  0.0718
   55TMC2    O1  864   0.436   1.069  17.501  0.6147  0.4595  0.4042
   55TMC2    O2  865   0.325   1.403  17.037  0.1020 -0.2297 -0.5007
   55TMC2    O5  866   0.251   1.185  17.057  0.5109 -0.0943  0.0382
   55TMC2    H5  867   0.207   1.136  17.130  2.1877 -0.1539  1.0057
   56MPD2     C  868   4.634   1.814  17.339 -0.2275 -0.0394  0.0456
   56MPD2    C1  869   4.689   1.733  17.431  0.3182 -0.5820 -0.3183
   56MPD2    C2  870   4.621   1.719  17.548 -0.2387  0.0702 -0.2494
   56MPD2    C3  871   4.498   1.777  17.571  0.2999 -0.3703  0.0716
   56MPD2    C4  872   4.448   1.878  17.482 -0.7496  0.5292  0.4121
   56MPD2    C5  873   4.519   1.881  17.363  0.5838 -0.0991 -0.7084
   56MPD2     H  874   4.650   1.647  17.623  1.4792 -0.5180 -1.4912
   56MPD2    H1  875   4.355   1.932  17.492 -0.7440  0.6647 -0.3013
   56MPD2    H2  876   4.679   1.823  17.241  1.1216  2.3702  0.8869
   56MPD2    H3  877   4.475   1.937  17.282  2.0920 -0.1158 -1.5218
   56MPD2     N  878   4.422   1.734  17.685  0.1414  0.4872 -0.5034
   56MPD2    H5  879   4.461   1.650  17.727  0.2007  1.4113  1.2906
   56MPD2    N1  880   0.069   1.659  17.399  0.2540 -0.5136  0.1751
   56MPD2    H7  881   0.112   1.663  17.307  0.3220  2.4086  0.3345
   57TMC2    C1  882   4.622   1.786  13.847  0.3405  0.0122 -0.0733
   57TMC2    C2  883   4.684   1.705  13.935 -0.1718  0.1188  0.2721
   57TMC2    C3  884   0.031   1.614  13.879  0.5568  0.1617  0.3602
   57TMC2    C4  885   4.639   1.792  13.711  0.3505  0.7782  0.2164
   57TMC2    C5  886   4.712   1.695  13.653  1.0540 -0.0167 -0.4079
   57TMC2    C6  887   0.037   1.603  13.741  0.6922 -0.2419  0.3261
   57TMC2     C  888   4.494   1.843  13.883 -0.2182 -0.0824 -0.2428
   57TMC2     O  889   4.447   1.931  13.815  0.1349  0.0668  0.3692
   57TMC2     H  890   4.671   1.712  14.042  0.7561 -2.2020  0.5345
   57TMC2    H1  891   4.576   1.858  13.651 -2.1999 -1.3048  0.6123
   57TMC2    H2  892   0.109   1.535  13.695  1.3196 -0.9580  2.3844
   57TMC2    C7  893   4.664   1.650  13.525 -0.2177  0.3945  0.0433
   57TMC2    C8  894   0.134   1.561  13.972 -0.3798  0.1213 -0.0733
   57TMC2    O1  895   4.564   1.710  13.485  0.2883 -0.5386 -0.0482
   57TMC2    O2  896   0.118   1.447  14.022  0.2286  0.6511  0.2906
   57TMC2    O5  897   0.179   1.672  14.034  0.1120 -0.0437 -0.0631
   57TMC2    H5  898   0.184   1.757  13.986 -1.9556 -0.6615 -1.3544
   58MPD2     C  899   4.074   1.836  14.165  0.2187 -0.4000  0.6441
   58MPD2    C1  900   4.135   1.944  14.105 -0.4324 -0.2324 -0.3280
   58MPD2    C2  901   4.255   1.927  14.046 -0.6002 -0.3885  0.4245
   58MPD2    C3  902   4.312   1.798  14.044  0.6729  0.2560  0.6448
   58MPD2    C4  903   4.245   1.695  14.108 -0.2820  0.1294  0.2187
   58MPD2    C5  904   4.133   1.715  14.179 -0.1531  0.1337  0.1762
   58MPD2     H  905   4.312   2.005  13.995 -1.0041  0.0252  0.6083
   58MPD2    H1  906   4.288   1.596  14.113  0.8266  0.6109  0.1964
   58MPD2    H2  907   3.974   1.840  14.208  0.3747 -0.2141  0.9903
   58MPD2    H3  908   4.081   1.626  14.211 -1.4207  0.4215 -1.1042
   58MPD2     N  909   4.433   1.765  13.979 -0.4942 -0.1623 -0.5187
   58MPD2    H5  910   4.479   1.676  13.993 -1.6930 -0.5565  0.9470
   58MPD2    N1  911   4.060   2.060  14.085  0.2955 -0.4761  1.0502
   58MPD2    H7  912   3.964   2.065  14.117 -0.1185 -2.9505  0.1650
   59TMC2    C1  913   1.991   2.447  12.678 -0.0229  0.1596  0.0192
   59TMC2    C2  914   2.066   2.335  12.696  0.1184  1.0263 -0.0950
   59TMC2    C3  915   2.003   2.216  12.688  0.3337 -0.1904  0.6850
   59TMC2    C4  916   1.867   2.446  12.620  0.5406  0.3958  0.3311
   59TMC2    C5  917   1.804   2.323  12.605 -0.0991 -0.5310  0.2900
   59TMC2    C6  918   1.872   2.208  12.642 -0.2539 -0.6153  0.1547
   59TMC2     C  919   2.011   2.565  12.764  0.4628  0.2038 -0.4429
   59TMC2     O  920   1.933   2.658  12.747  0.0648  0.3089 -0.4163
   59TMC2     H  921   2.171   2.330  12.723 -0.0825  0.2769  0.5669
   59TMC2    H1  922   1.811   2.538  12.606 -0.5328 -0.3069  0.0054
   59TMC2    H2  923   1.842   2.112  12.602  0.6359 -0.6700 -0.3967
   59TMC2    C7  924   1.687   2.301  12.518 -0.1750  0.4291 -0.3380
   59TMC2    C8  925   2.087   2.103  12.664  0.7250  0.5387  0.1190
   59TMC2    O1  926   1.617   2.204  12.545  0.2208 -0.3061  0.6518
   59TMC2    O2  927   2.080   2.022  12.578 -0.4049  0.1679  0.0398
   59TMC2    O5  928   2.144   2.091  12.786  0.7058 -0.2659  0.0536
   59TMC2    H5  929   2.132   2.163  12.852 -1.6911  0.0886 -0.7867
   60MPD2     C  930   2.151   2.787  12.930  0.2898  0.1344  0.0114
   60MPD2    C1  931   2.171   2.645  12.938  0.1973 -0.0440  0.2260
   60MPD2    C2  932   2.256   2.589  13.036 -0.2649  0.2039 -0.0316
   60MPD2    C3  933   2.322   2.672  13.123  0.4792 -0.4544 -0.2905
   60MPD2    C4  934   2.303   2.809  13.110 -0.1749 -0.2330  0.1280
   60MPD2    C5  935   2.212   2.864  13.024  0.8711 -0.1661 -0.5438
   60MPD2     H  936   2.276   2.483  13.038 -2.5049 -0.2356 -0.1158
   60MPD2    H1  937   2.352   2.876  13.180 -1.7680  1.9145 -0.8126
   60MPD2    H2  938   2.089   2.837  12.856  0.1418  0.8843  0.6399
   60MPD2    H3  939   2.203   2.972  13.020  0.2955 -0.1986 -0.0370
   60MPD2     N  940   2.418   2.621  13.216 -0.0664 -0.0561 -0.3704
   60MPD2    H5  941   2.473   2.692  13.264 -0.0595  1.6682 -2.9664
   60MPD2    N1  942   2.111   2.550  12.853 -0.0458 -0.0056 -0.3316
   60MPD2    H7  943   2.133   2.453  12.873 -1.8370  0.1091  2.2138
   61TMC2    C1  944   1.695   3.241  15.215  1.1294  0.0023 -0.1666
   61TMC2    C2  945   1.610   3.145  15.249 -0.2111 -0.0939  0.3401
   61TMC2    C3  946   1.535   3.172  15.360 -0.3762 -0.6956  0.3261
   61TMC2    C4  947   1.708   3.363  15.274 -0.4956  0.4788 -0.4941
   61TMC2    C5  948   1.641   3.384  15.388  0.2867  0.0223  0.1747
   61TMC2    C6  949   1.557   3.287  15.433  0.3967 -0.3816 -0.4598
   61TMC2     C  950   1.785   3.212  15.104  0.0439  0.3225  0.1136
   61TMC2     O  951   1.824   3.100  15.096 -0.0852  0.5479  0.4582
   61TMC2     H  952   1.627   3.049  15.202  2.8445  0.6211 -0.0248
   61TMC2    H1  953   1.756   3.447  15.225  0.3311 -0.4063 -1.2019
   61TMC2    H2  954   1.487   3.312  15.513  1.4523 -2.4790  1.1351
   61TMC2    C7  955   1.633   3.521  15.423  0.4888 -0.4056 -0.4333
   61TMC2    C8  956   1.467   3.057  15.415  0.2334 -0.5356 -0.6918
   61TMC2    O1  957   1.653   3.612  15.341 -0.3143 -0.0387  0.3203
   61TMC2    O2  958   1.421   3.070  15.528  0.1588 -0.3184 -0.5487
   61TMC2    O5  959   1.399   3.020  15.308  0.0902 -0.9543  0.2363
   61TMC2    H5  960   1.436   3.047  15.222  0.5768 -0.7903  0.4956
   62MPD2     C  961   1.990   3.210  14.887 -0.2813  0.3599 -0.1564
   62MPD2    C1  962   1.914   3.317  14.930 -0.2297 -0.0471 -0.2445
   62MPD2    C2  963   1.935   3.432  14.864 -0.4281  0.1375 -0.2477
   62MPD2    C3  964   2.019   3.447  14.756 -0.7884 -1.1661  0.9170
   62MPD2    C4  965   2.098   3.344  14.720  0.0428 -0.2551 -0.1994
   62MPD2    C5  966   2.082   3.226  14.785  0.7488  0.6768 -0.1110
   62MPD2     H  967   1.873   3.516  14.894  0.1686  0.6952 -0.5878
   62MPD2    H1  968   2.170   3.344  14.640  0.2176 -1.1308 -0.0382
   62MPD2    H2  969   1.983   3.110  14.927 -1.5333 -0.7671 -3.1917
   62MPD2    H3  970   2.139   3.142  14.745  0.0770  0.7700 -1.2582
   62MPD2     N  971   2.023   3.575  14.699  0.2906 -0.7039  0.1399
   62MPD2    H5  972   1.961   3.645  14.739  1.0681 -1.4833  2.7295
   62MPD2    N1  973   1.813   3.316  15.026  0.0818  0.3079  0.1443
   62MPD2    H7  974   1.754   3.397  15.042 -1.7612 -0.5681 -2.0572
   63TMC2    C1  975   0.316   3.616  10.055  0.1083  0.7093  0.0233
   63TMC2    C2  976   0.298   3.624  10.189  0.5094 -0.4512 -0.1943
   63TMC2    C3  977   0.390   3.701  10.255  0.4882 -0.3442  0.2100
   63TMC2    C4  978   0.413   3.680   9.989 -0.2529 -0.1605 -0.4419
   63TMC2    C5  979   0.509   3.746  10.054  0.1471 -0.0969 -0.3699
   63TMC2    C6  980   0.504   3.759  10.196  0.2635  0.1634 -0.0818
   63TMC2     C  981   0.262   3.498   9.992  0.0735 -0.6915 -0.8065
   63TMC2     O  982   0.145   3.466  10.017  0.1842 -0.0337  0.0995
   63TMC2     H  983   0.226   3.563  10.244  0.8238  0.1957  0.9342
   63TMC2    H1  984   0.434   3.684   9.883  0.7287 -0.2708 -0.2540
   63TMC2    H2  985   0.554   3.833  10.257 -0.0564 -0.1515  0.5629
   63TMC2    C7  986   0.548   3.871   9.987 -0.0464 -0.4262  0.6933
   63TMC2    C8  987   0.358   3.744  10.391 -0.1273  0.0726 -0.1383
   63TMC2    O1  988   0.469   3.924   9.912  0.2793  0.0640 -0.8195
   63TMC2    O2  989   0.441   3.750  10.481 -0.5186  0.4485 -0.1665
   63TMC2    O5  990   0.225   3.758  10.407 -0.1395 -0.1303  0.2758
   63TMC2    H5  991   0.166   3.728  10.334 -0.4035 -0.4583  0.6267
   64MPD2     C  992   0.286   3.057   9.725  0.0510 -0.2122 -0.6481
   64MPD2    C1  993   0.407   3.083   9.788 -0.3172 -1.2378 -0.4215
   64MPD2    C2  994   0.433   3.207   9.843  0.5634  0.7696 -0.1023
   64MPD2    C3  995   0.335   3.296   9.863 -0.6338 -0.6753 -0.4381
   64MPD2    C4  996   0.210   3.269   9.808 -0.3431 -0.2289 -0.2253
   64MPD2    C5  997   0.188   3.153   9.735  0.1220 -0.1764  0.2813
   64MPD2     H  998   0.534   3.223   9.879  0.6160  2.6258 -1.0617
   64MPD2    H1  999   0.123   3.332   9.822  0.8371  1.4114 -0.3428
   64MPD2    H2 1000   0.266   2.971   9.662  2.6981 -0.2428 -1.4731
   64MPD2    H3 1001   0.099   3.145   9.674 -0.0463 -0.4562  0.5639
   64MPD2     N 1002   0.360   3.420   9.937  0.3094 -0.0015 -0.0188
   64MPD2    H5 1003   0.452   3.441   9.972 -0.1222 -0.1926  1.2344
   64MPD2    N1 1004   0.518   2.997   9.787  0.4552 -0.1337  0.4216
   64MPD2    H7 1005   0.605   3.023   9.833  0.1333 -0.9080  1.4896
   65TMC2    C1 1006   2.080   3.406  15.308 -0.8625  0.0996 -0.3789
   65TMC2    C2 1007   2.186   3.376  15.226  0.0597 -0.4057  0.3589
   65TMC2    C3 1008   2.207   3.460  15.121  0.4548  0.4853  0.2403
   65TMC2    C4 1009   2.001   3.520  15.292 -0.0139  0.2032 -0.1543
   65TMC2    C5 1010   2.035   3.606  15.190  0.4012  0.1185  0.0546
   65TMC2    C6 1011   2.138   3.578  15.109  0.5333  0.3044 -0.1635
   65TMC2     C 1012   2.049   3.329  15.428 -0.1813  0.0799  0.4633
   65TMC2     O 1013   1.979   3.382  15.514 -0.3582  0.0620 -0.2343
   65TMC2     H 1014   2.259   3.298  15.250 -1.1928 -1.5798  0.3441
   65TMC2    H1 1015   1.918   3.537  15.360  0.9975 -0.1021  1.1529
   65TMC2    H2 1016   2.158   3.647  15.027 -2.0244  1.3229  0.0684
   65TMC2    C7 1017   2.026   3.750  15.211  0.1673 -0.1240  0.1532
   65TMC2    C8 1018   2.306   3.421  15.019  0.4547 -0.5824  0.2887
   65TMC2    O1 1019   2.076   3.824  15.130 -0.3052 -0.6803  0.1824
   65TMC2    O2 1020   2.374   3.318  15.028 -0.2380  0.9154 -0.0703
   65TMC2    O5 1021   2.343   3.526  14.949  0.2478 -0.3647  0.1868
   65TMC2    H5 1022   2.305   3.613  14.974 -1.4218 -0.3491 -2.4058
   66MPD2     C 1023   2.091   3.156  15.673  0.2016 -0.5597  0.0826
   66MPD2    C1 1024   2.094   3.113  15.540 -0.0342 -0.1013 -0.0225
   66MPD2    C2 1025   2.084   2.983  15.511  0.8143 -0.4184 -0.0001
   66MPD2    C3 1026   2.067   2.887  15.611  0.1567 -0.0246  0.5014
   66MPD2    C4 1027   2.075   2.926  15.744  0.2507 -0.4480 -0.1090
   66MPD2    C5 1028   2.083   3.063  15.773  0.1066  1.1961  0.4068
   66MPD2     H 1029   2.074   2.957  15.406  1.8940  3.3756 -1.0208
   66MPD2    H1 1030   2.060   2.850  15.819  0.5148 -0.3735  0.0159
   66MPD2    H2 1031   2.105   3.262  15.690  1.7473 -0.9226  1.1587
   66MPD2    H3 1032   2.090   3.108  15.871 -0.0318 -0.3571  1.1210
   66MPD2     N 1033   2.031   2.751  15.591  0.8386 -0.4693 -0.5436
   66MPD2    H5 1034   2.012   2.707  15.680 -2.2760  1.6440 -0.1761
   66MPD2    N1 1035   2.100   3.202  15.431  0.0159 -0.2461  0.2595
   66MPD2    H7 1036   2.126   3.164  15.341  3.9892  0.4177  1.1387
   67TMC2    C1 1037   2.639   2.548  14.159  0.1809  0.0566 -0.4383
   67TMC2    C2 1038   2.568   2.655  14.121  0.5295 -0.8095 -0.0011
   67TMC2    C3 1039   2.544   2.752  14.212  0.3290 -0.2687 -0.4625
   67TMC2    C4 1040   2.652   2.509  14.290 -0.0876 -0.2474 -0.2615
   67TMC2    C5 1041   2.618   2.598  14.380  0.5281  1.1990  0.4034
   67TMC2    C6 1042   2.566   2.725  14.344 -0.0445  0.0710 -0.4304
   67TMC2     C 1043   2.638   2.427  14.073  0.3093  0.0317  0.3346
   67TMC2     O 1044   2.622   2.318  14.129  0.5715  0.4325 -0.7170
   67TMC2     H 1045   2.550   2.672  14.015 -0.1258 -0.2846  0.1951
   67TMC2    H1 1046   2.683   2.414  14.333  0.6684 -0.3518 -1.0239
   67TMC2    H2 1047   2.570   2.798  14.425 -0.3169 -3.3440  2.6879
   67TMC2    C7 1048   2.706   2.610  14.488  0.1362  0.7678  0.2742
   67TMC2    C8 1049   2.492   2.879  14.166  0.0383  0.0681 -0.5746
   67TMC2    O1 1050   2.811   2.546  14.472 -0.9915 -0.6554 -0.3187
   67TMC2    O2 1051   2.498   2.925  14.057 -0.0166  0.1747  0.2220
   67TMC2    O5 1052   2.427   2.939  14.266  0.4776  1.4328  0.4007
   67TMC2    H5 1053   2.434   2.883  14.347 -0.6725  0.2961 -0.2830
   68MPD2     C 1054   2.652   2.364  13.734  0.4702  0.1071 -0.4065
   68MPD2    C1 1055   2.587   2.369  13.851  0.0886 -0.0482  0.2333
   68MPD2    C2 1056   2.473   2.296  13.885  0.1018 -0.0320 -0.6888
   68MPD2    C3 1057   2.421   2.213  13.784  0.2342 -0.2736 -0.3973
   68MPD2    C4 1058   2.499   2.196  13.670  0.1866 -0.5998 -0.6780
   68MPD2    C5 1059   2.607   2.274  13.642  0.6552 -0.1686 -0.2264
   68MPD2     H 1060   2.419   2.321  13.975  1.2855 -1.7105  0.4850
   68MPD2    H1 1061   2.467   2.141  13.582  2.5012 -1.8972 -0.7060
   68MPD2    H2 1062   2.741   2.423  13.717  1.3087 -0.6200  1.4922
   68MPD2    H3 1063   2.655   2.288  13.545 -0.3635 -0.0283 -0.7058
   68MPD2     N 1064   2.297   2.151  13.790  0.1966 -0.2279  0.1517
   68MPD2    H5 1065   2.269   2.092  13.714 -1.4422 -0.4842  0.9641
   68MPD2    N1 1066   2.645   2.456  13.940  0.1315 -0.2614 -0.1456
   68MPD2    H7 1067   2.716   2.522  13.911  0.5429 -0.8763 -0.5424
   69TMC2    C1 1068   4.361   3.736  12.388  0.2669  0.3532 -0.6064
   69TMC2    C2 1069   4.267   3.831  12.408  0.5681 -0.3637 -0.9602
   69TMC2    C3 1070   4.213   3.896  12.299 -0.4324 -1.1043  1.0199
   69TMC2    C4 1071   4.405   3.707  12.264  0.4596  0.3364  0.4169
   69TMC2    C5 1072   4.348   3.779  12.161 -0.4639 -0.3159 -0.1048
   69TMC2    C6 1073   4.251   3.869  12.177 -0.0344 -0.2773  0.2298
   69TMC2     C 1074   4.390   3.629  12.484  0.1765  0.0631 -0.3170
   69TMC2     O 1075   4.399   3.508  12.454  0.0023 -0.5614  0.1898
   69TMC2     H 1076   4.223   3.844  12.506  0.0689 -0.6591 -1.1453
   69TMC2    H1 1077   4.483   3.632  12.252  0.6804  0.9865 -2.3352
   69TMC2    H2 1078   4.180   3.884  12.096 -0.2145  0.7035  0.5688
   69TMC2    C7 1079   4.400   3.757  12.029 -0.6032  0.2755 -0.0799
   69TMC2    C8 1080   4.082   3.963  12.324  0.3166  0.1674  0.4132
   69TMC2    O1 1081   4.443   3.645  12.013 -0.1450  0.3597 -0.4841
   69TMC2    O2 1082   4.004   3.908  12.394 -0.1640 -0.0316 -0.2467
   69TMC2    O5 1083   4.057   4.056  12.230  0.0219  0.0813  0.4702
   69TMC2    H5 1084   4.137   4.086  12.182  0.5211  0.6228  1.6400
   70MPD2     C 1085   4.420   3.697  12.841  0.1827  0.1140 -0.5452
   70MPD2    C1 1086   4.396   3.614  12.733  0.1486 -0.3292  0.2697
   70MPD2    C2 1087   4.379   3.485  12.752 -0.7657 -0.3484 -0.3816
   70MPD2    C3 1088   4.392   3.428  12.879 -0.0492  0.6526  0.1524
   70MPD2    C4 1089   4.441   3.506  12.983 -0.1580 -0.2165 -0.1434
   70MPD2    C5 1090   4.449   3.642  12.964  0.4003  0.8954  0.1771
   70MPD2     H 1091   4.360   3.426  12.663  2.2271  0.9675 -1.8927
   70MPD2    H1 1092   4.452   3.468  13.084  0.7129 -0.7591 -0.4381
   70MPD2    H2 1093   4.417   3.805  12.834 -0.7159  0.1773  0.8033
   70MPD2    H3 1094   4.478   3.708  13.045  0.6470  0.8344  0.1385
   70MPD2     N 1095   4.374   3.294  12.908  0.4148 -0.2297 -0.3889
   70MPD2    H5 1096   4.402   3.258  12.999 -3.6413 -1.3115  0.4188
   70MPD2    N1 1097   4.397   3.680  12.610  0.6421  0.0315  0.5274
   70MPD2    H7 1098   4.393   3.781  12.617  0.2811  0.2082 -2.0657
   71TMC2    C1 1099   1.779   3.499   1.746 -0.0629  0.9497 -0.2025
   71TMC2    C2 1100   1.859   3.420   1.820 -0.2614 -0.7155  0.1873
   71TMC2    C3 1101   1.796   3.301   1.858 -0.9360 -0.3817 -0.1834
   71TMC2    C4 1102   1.649   3.479   1.711 -0.1890 -0.2941 -0.1310
   71TMC2    C5 1103   1.592   3.373   1.766 -0.0627  0.6232  0.4093
   71TMC2    C6 1104   1.662   3.287   1.844  0.5263  0.8871 -0.5081
   71TMC2     C 1105   1.828   3.626   1.695 -0.1910 -0.3685  0.2473
   71TMC2     O 1106   1.763   3.678   1.607 -0.2041 -0.3005 -0.2474
   71TMC2     H 1107   1.964   3.446   1.827 -0.2942 -0.5511  0.0438
   71TMC2    H1 1108   1.594   3.549   1.650  0.3485 -0.9505 -1.3660
   71TMC2    H2 1109   1.613   3.194   1.868  2.9261 -0.0679  0.7784
   71TMC2    C7 1110   1.447   3.362   1.756  0.3718  0.5417  0.3862
   71TMC2    C8 1111   1.856   3.211   1.950  0.3727 -0.4431 -0.0540
   71TMC2    O1 1112   1.404   3.251   1.785  0.6837 -0.2519 -0.2857
   71TMC2    O2 1113   1.787   3.138   2.022 -0.0810  0.4931  0.2264
   71TMC2    O5 1114   1.971   3.265   1.993  0.5377 -0.1709 -0.1123
   71TMC2    H5 1115   2.035   3.280   1.921  0.3105 -2.6055 -0.8420
   72MPD2     C 1116   2.123   4.044   1.714  1.0946 -0.7840 -0.5505
   72MPD2    C1 1117   2.049   3.996   1.611  0.0016 -0.2516 -0.3367
   72MPD2    C2 1118   1.980   3.876   1.634 -0.9508  0.4421  0.5587
   72MPD2    C3 1119   1.988   3.802   1.749  0.8097  0.5373 -0.5345
   72MPD2    C4 1120   2.066   3.856   1.847  0.0699 -0.4534 -0.0474
   72MPD2    C5 1121   2.126   3.973   1.832  0.2965  0.2828  0.3237
   72MPD2     H 1122   1.920   3.834   1.554  1.7728 -1.5794 -0.4303
   72MPD2    H1 1123   2.080   3.789   1.932  0.0877  0.2043  0.4675
   72MPD2    H2 1124   2.183   4.134   1.714  0.2720 -0.2234  0.5488
   72MPD2    H3 1125   2.179   4.013   1.918 -0.0889 -1.1228  1.2307
   72MPD2     N 1126   1.924   3.677   1.769 -0.3825 -0.5472 -0.4095
   72MPD2    H5 1127   1.952   3.632   1.855  1.4230 -1.1176 -1.3056
   72MPD2    N1 1128   2.025   4.065   1.495 -0.8460  0.3012 -0.0052
   72MPD2    H7 1129   1.965   4.016   1.429  0.7613  0.8668 -1.8780
   73TMC2    C1 1130   1.919   0.738  13.852 -0.1892  0.8184  0.2628
   73TMC2    C2 1131   1.797   0.717  13.921 -1.1050  0.2682 -0.1452
   73TMC2    C3 1132   1.797   0.736  14.057 -0.9718 -0.4329  0.6272
   73TMC2    C4 1133   2.028   0.790  13.920 -0.8545  0.0856  0.2990
   73TMC2    C5 1134   2.016   0.819  14.055  0.9388  0.4697 -0.0498
   73TMC2    C6 1135   1.905   0.791  14.124 -0.4394  0.4646  0.3198
   73TMC2     C 1136   1.925   0.803  13.719 -0.1647 -0.1500 -0.1249
   73TMC2     O 1137   1.978   0.913  13.724 -0.2399 -0.0215  0.7850
   73TMC2     H 1138   1.703   0.686  13.876 -0.3237 -1.7812 -0.3893
   73TMC2    H1 1139   2.126   0.790  13.875  0.1672  1.4201  2.5306
   73TMC2    H2 1140   1.892   0.843  14.218  3.8432  1.1268  0.5527
   73TMC2    C7 1141   2.083   0.941  14.084  0.1879 -0.5468 -0.1937
   73TMC2    C8 1142   1.669   0.721  14.128 -0.0666 -0.0511  0.7383
   73TMC2    O1 1143   2.083   0.977  14.203 -0.0502  0.5969  0.3272
   73TMC2    O2 1144   1.556   0.698  14.082 -0.3108 -0.3288 -0.2303
   73TMC2    O5 1145   1.700   0.656  14.241 -0.3776 -0.1282  0.6909
   73TMC2    H5 1146   1.788   0.679  14.278 -1.1139  1.7859  1.2535
   74MPD2     C 1147   1.936   0.869  13.209 -0.1960 -0.4688 -0.1050
   74MPD2    C1 1148   1.976   0.950  13.314 -0.6421 -0.1774 -0.5664
   74MPD2    C2 1149   1.954   0.903  13.445 -0.8051  0.1512 -0.4400
   74MPD2    C3 1150   1.889   0.788  13.473 -0.1094 -0.1049 -0.2529
   74MPD2    C4 1151   1.847   0.705  13.370  0.6311 -0.0636  0.6327
   74MPD2    C5 1152   1.877   0.748  13.242 -0.2615  0.7892 -0.0277
   74MPD2     H 1153   2.005   0.957  13.524  0.5016 -0.0397 -1.1423
   74MPD2    H1 1154   1.800   0.607  13.378  2.3572 -1.0030 -0.7154
   74MPD2    H2 1155   1.955   0.885  13.103 -1.0123  2.0290  0.1266
   74MPD2    H3 1156   1.842   0.682  13.163  1.1275 -1.6584  1.3838
   74MPD2     N 1157   1.865   0.746  13.605  0.5170 -0.3673  0.7305
   74MPD2    H5 1158   1.817   0.659  13.625  1.0124 -0.2199  2.5615
   74MPD2    N1 1159   2.031   1.072  13.286  0.5297 -0.5938 -0.3766
   74MPD2    H7 1160   2.076   1.091  13.197 -0.6707  0.3740 -0.7839
   75TMC2    C1 1161   2.107   2.056  13.886  0.8135  0.3600  0.2273
   75TMC2    C2 1162   2.045   2.023  14.002 -0.8195  0.3700  0.0400
   75TMC2    C3 1163   1.910   1.983  13.996  0.1701 -0.5342  0.1688
   75TMC2    C4 1164   2.040   2.065  13.766 -0.4437 -0.1729 -0.1155
   75TMC2    C5 1165   1.904   2.044  13.772 -0.4531 -0.0988 -0.2045
   75TMC2    C6 1166   1.836   2.005  13.881 -0.4627 -0.6495  1.1100
   75TMC2     C 1167   2.220   2.141  13.906  0.0370  0.0294 -0.5415
   75TMC2     O 1168   2.258   2.166  14.019 -0.2564 -0.0050 -0.6510
   75TMC2     H 1169   2.099   2.000  14.093  0.4727 -2.0336 -1.3036
   75TMC2    H1 1170   2.090   2.100  13.676  2.4513  0.0293  1.5641
   75TMC2    H2 1171   1.730   1.987  13.870 -0.6977  0.8571  0.8859
   75TMC2    C7 1172   1.827   2.089  13.663  0.3286  1.0998  0.1784
   75TMC2    C8 1173   1.845   1.953  14.127 -0.1660  0.5702  0.3254
   75TMC2    O1 1174   1.847   2.058  13.546 -0.0574 -0.2391 -0.9458
   75TMC2    O2 1175   1.894   1.865  14.194  0.3955 -0.9417 -0.7511
   75TMC2    O5 1176   1.820   2.080  14.161 -0.1589  0.3539 -0.2089
   75TMC2    H5 1177   1.817   2.130  14.077 -1.1109 -1.7987 -1.4393
   76TMC2    C1 1178   0.164   2.660  11.904  0.6407  0.1929  0.1091
   76TMC2    C2 1179   0.058   2.579  11.869  0.2834 -0.0915 -0.1083
   76TMC2    C3 1180   0.043   2.454  11.929 -0.4607  0.1644  0.3782
   76TMC2    C4 1181   0.261   2.618  11.986 -0.3491 -0.4575 -0.0360
   76TMC2    C5 1182   0.247   2.484  12.033  0.5134 -0.1762 -0.4007
   76TMC2    C6 1183   0.140   2.402  12.010  0.7639  0.4758  0.5332
   76TMC2     C 1184   0.192   2.783  11.839  0.4732 -0.2326  0.8742
   76TMC2     O 1185   0.094   2.850  11.805 -0.3219 -0.4009 -0.4745
   76TMC2     H 1186   4.715   2.613  11.801 -1.3846 -1.1021  1.2958
   76TMC2    H1 1187   0.341   2.682  12.020 -1.1508 -0.0755  1.1131
   76TMC2    H2 1188   0.138   2.303  12.053  0.6137  0.0563 -0.4348
   76TMC2    C7 1189   0.372   2.417  12.066  0.0504 -0.0191  0.1932
   76TMC2    C8 1190   4.715   2.356  11.854  0.5036  0.4434  0.3279
   76TMC2    O1 1191   0.388   2.303  12.025 -1.6049  0.3958  0.2898
   76TMC2    O2 1192   0.053   2.269  11.810  0.0912 -0.6119  0.8518
   76TMC2    O5 1193   4.619   2.421  11.781 -0.3947 -0.0647 -0.6308
   76TMC2    H5 1194   4.569   2.490  11.830  0.1375 -0.3835  0.3584
   77MPD2     C 1195   0.523   3.136  11.664 -0.2781 -0.2025 -0.0044
   77MPD2    C1 1196   0.392   3.133  11.652 -0.0949 -0.0664 -0.0811
   77MPD2    C2 1197   0.319   3.029  11.713  0.4192 -0.7753  0.3515
   77MPD2    C3 1198   0.389   2.921  11.762 -0.4705  0.2177 -0.0039
   77MPD2    C4 1199   0.530   2.920  11.757 -0.3865  0.6814  0.4278
   77MPD2    C5 1200   0.587   3.035  11.728 -0.3452 -0.4299 -0.1308
   77MPD2     H 1201   0.211   3.037  11.715  0.5487  1.0431 -0.0506
   77MPD2    H1 1202   0.582   2.827  11.777  0.3111  1.0582  0.3455
   77MPD2    H2 1203   0.580   3.226  11.642  2.7780 -2.0164  0.4309
   77MPD2    H3 1204   0.695   3.045  11.723 -0.3067 -0.6557  0.2535
   77MPD2     N 1205   0.330   2.809  11.819 -0.0782  0.0848 -0.1906
   77MPD2    H5 1206   0.394   2.733  11.839  1.8941  2.1115  1.1579
   77MPD2    N1 1207   0.314   3.240  11.602 -0.0200 -0.6513 -0.4063
   77MPD2    H7 1208   0.213   3.247  11.607 -0.1164 -1.3369 -1.3503
   78TMC2    C1 1209   1.881   3.449   1.378 -0.3052  0.7276  0.4029
   78TMC2    C2 1210   1.777   3.461   1.284 -0.1560 -0.5521 -0.6062
   78TMC2    C3 1211   1.771   3.570   1.208 -0.3470  0.1963 -0.4103
   78TMC2    C4 1212   1.985   3.537   1.381  0.9344  0.3180 -0.3672
   78TMC2    C5 1213   1.978   3.636   1.287 -0.0889 -0.1036 -0.6041
   78TMC2    C6 1214   1.874   3.658   1.200  0.0214 -0.3516  0.2329
   78TMC2     C 1215   1.906   3.333   1.455  0.8799 -0.2017 -0.6208
   78TMC2     O 1216   2.015   3.322   1.507  0.2983 -0.0160  0.5698
   78TMC2     H 1217   1.699   3.386   1.279 -0.2334 -0.4102 -1.6815
   78TMC2    H1 1218   2.062   3.537   1.457 -0.9454  1.1429  1.5314
   78TMC2    H2 1219   1.878   3.736   1.125  1.8411 -0.2291  0.4507
   78TMC2    C7 1220   2.087   3.728   1.300 -0.3767  0.1254  0.2397
   78TMC2    C8 1221   1.667   3.604   1.111 -0.8505  0.1725 -0.0818
   78TMC2    O1 1222   2.142   3.753   1.405  0.3518  0.2012 -0.2551
   78TMC2    O2 1223   1.693   3.626   0.992  0.1495 -0.3871  0.0070
   78TMC2    O5 1224   1.562   3.543   1.155 -0.3296  0.1730  0.6610
   78TMC2    H5 1225   1.546   3.545   1.252 -2.3263  1.8680  0.2960
   79MPD1     C 1226   1.741   2.915   1.694  0.3819 -0.4292  0.2424
   79MPD1    C1 1227   1.860   2.983   1.700  0.1801 -0.6504  0.0741
   79MPD1    C2 1228   1.875   3.090   1.615 -0.0434 -0.1468  0.3712
   79MPD1    C3 1229   1.771   3.150   1.544 -0.7235  0.1579  0.1356
   79MPD1    C4 1230   1.648   3.087   1.553 -0.9897 -0.2196  0.1642
   79MPD1    C5 1231   1.637   2.974   1.634  0.4565 -0.9394  1.2538
   79MPD1     H 1232   1.970   3.140   1.631  1.0904 -2.1418 -0.1378
   79MPD1    H1 1233   1.558   3.122   1.503 -1.6464 -0.4859  1.1800
   79MPD1    H2 1234   1.723   2.831   1.760 -2.5078 -1.1759 -1.4757
   79MPD1    H3 1235   1.543   2.922   1.644  0.4268 -0.7856  1.7584
   79MPD1     N 1236   1.786   3.269   1.468 -0.5197  0.0436 -0.7241
   79MPD1    H5 1237   1.704   3.314   1.430 -2.3825 -1.8961  0.9737
   79MPD1    N1 1238   1.966   2.930   1.774  0.6904 -0.7073 -0.1183
   79MPD1    H6 1239   2.025   3.004   1.812 -0.5627  0.7923 -1.1486
   79MPD1    H7 1240   1.934   2.856   1.836 -2.0704  1.1362  0.6528
   80TMC2    C1 1241   3.901   2.338  11.182 -0.3425 -0.1449 -0.5299
   80TMC2    C2 1242   3.830   2.289  11.079  0.1297  0.3859  0.4289
   80TMC2    C3 1243   3.740   2.183  11.105  0.9795 -0.2586  0.4249
   80TMC2    C4 1244   3.899   2.281  11.307  0.4979 -0.4507  0.3815
   80TMC2    C5 1245   3.824   2.166  11.325  0.1641 -0.8175  0.3186
   80TMC2    C6 1246   3.749   2.113  11.225  0.0711 -0.3239 -0.1159
   80TMC2     C 1247   3.907   2.484  11.176  0.6673 -0.1285  0.5169
   80TMC2     O 1248   3.931   2.531  11.066  0.2087  0.8204  0.0071
   80TMC2     H 1249   3.849   2.316  10.975 -1.8765 -2.0065 -0.5580
   80TMC2    H1 1250   3.974   2.315  11.378  1.0766 -1.4343  0.2427
   80TMC2    H2 1251   3.688   2.025  11.241 -0.7919 -0.0558 -2.0000
   80TMC2    C7 1252   3.863   2.069  11.431 -0.4733 -0.1828 -0.1399
   80TMC2    C8 1253   3.670   2.102  11.008  0.1102 -0.2613 -0.0441
   80TMC2    O1 1254   3.859   1.953  11.391 -0.4597 -0.0090 -0.5131
   80TMC2    O2 1255   3.561   2.055  11.027 -0.2816 -0.6204  0.1137
   80TMC2    O5 1256   3.772   2.026  10.961  0.4342  0.1389 -0.0217
   80TMC2    H5 1257   3.861   2.065  10.974  0.3701 -0.5066  2.4333
   81MPD2     C 1258   3.857   2.783  11.203 -0.0245  0.0379 -0.5359
   81MPD2    C1 1259   3.837   2.693  11.304 -0.0692  0.2886  0.3777
   81MPD2    C2 1260   3.809   2.746  11.432 -0.0516  0.0318 -0.3207
   81MPD2    C3 1261   3.804   2.878  11.458  0.3819  0.3185  0.4429
   81MPD2    C4 1262   3.827   2.968  11.352 -0.5029 -0.1316 -0.0563
   81MPD2    C5 1263   3.853   2.919  11.230 -0.6869  0.5978 -0.0923
   81MPD2     H 1264   3.780   2.678  11.511  1.6046 -0.8689 -0.4999
   81MPD2    H1 1265   3.837   3.073  11.374  0.8196 -0.0232 -1.1805
   81MPD2    H2 1266   3.865   2.759  11.098  1.3670  2.1079 -0.9147
   81MPD2    H3 1267   3.869   2.987  11.147 -1.6558  2.0905  0.9492
   81MPD2     N 1268   3.781   2.918  11.593 -0.1636 -0.6806 -0.1022
   81MPD2    H5 1269   3.774   2.847  11.664  1.8261 -0.0264  0.7398
   81MPD2    N1 1270   3.862   2.553  11.287 -0.5284  0.0561 -0.4808
   81MPD2    H7 1271   3.853   2.493  11.369  1.7162  1.3017  0.6739
   82TMC2    C1 1272   2.141   2.266  11.194 -0.3780 -0.3436  0.1874
   82TMC2    C2 1273   2.202   2.381  11.246 -0.2494 -0.2824  0.0558
   82TMC2    C3 1274   2.255   2.365  11.373 -0.0785  0.1707  0.2308
   82TMC2    C4 1275   2.137   2.143  11.261 -0.0681  0.2104 -0.3273
   82TMC2    C5 1276   2.198   2.134  11.385 -0.3175 -0.5600 -0.1005
   82TMC2    C6 1277   2.262   2.243  11.438 -0.4618  0.5821 -0.2039
   82TMC2     C 1278   2.069   2.281  11.070 -0.3389 -0.4666  0.3420
   82TMC2     O 1279   2.066   2.193  10.988  0.3268 -0.1109 -0.0552
   82TMC2     H 1280   2.221   2.468  11.184  0.6122  1.1039  2.3007
   82TMC2    H1 1281   2.087   2.060  11.212  2.6658 -2.5979  1.6653
   82TMC2    H2 1282   2.303   2.245  11.538  0.0854 -3.6803 -0.3522
   82TMC2    C7 1283   2.192   2.005  11.460 -0.9585  1.1884  0.5818
   82TMC2    C8 1284   2.311   2.478  11.443  0.0716  0.3882  0.0934
   82TMC2    O1 1285   2.260   2.000  11.563 -0.1793  0.5523  0.1020
   82TMC2    O2 1286   2.419   2.472  11.502 -0.1995  0.4741 -0.0867
   82TMC2    O5 1287   2.207   2.560  11.481 -0.0836 -0.3048  0.6635
   82TMC2    H5 1288   2.121   2.543  11.437  0.8852 -0.9864 -0.9659
   83MPD2     C 1289   1.743   2.596  10.803  0.5617 -0.1988  0.6664
   83MPD2    C1 1290   1.795   2.470  10.778 -0.5967 -0.4102 -0.4335
   83MPD2    C2 1291   1.887   2.413  10.860  0.3662 -0.1026 -0.9860
   83MPD2    C3 1292   1.924   2.474  10.980 -0.2926  0.3929 -0.4027
   83MPD2    C4 1293   1.859   2.594  11.013 -0.7076 -0.4606  0.0344
   83MPD2    C5 1294   1.775   2.653  10.922 -0.4940 -0.0297  0.5229
   83MPD2     H 1295   1.939   2.323  10.830 -0.8682 -0.9120 -0.7072
   83MPD2    H1 1296   1.868   2.625  11.116 -0.1801 -0.3348 -0.0450
   83MPD2    H2 1297   1.678   2.644  10.731  0.7805  0.7034  1.0706
   83MPD2    H3 1298   1.730   2.748  10.948  1.3052  0.7899  0.6990
   83MPD2     N 1299   2.013   2.405  11.076 -0.4174 -0.1111  0.3816
   83MPD2    H5 1300   2.031   2.451  11.165 -0.3990  3.5508 -1.5330
   83MPD2    N1 1301   1.753   2.409  10.655  0.4555 -0.1125  0.2633
   83MPD2    H7 1302   1.672   2.455  10.612  0.6224 -1.3700 -1.3761
   84TMC2    C1 1303   2.791   0.932  10.370  0.5870 -0.4081 -0.0311
   84TMC2    C2 1304   2.757   0.804  10.364  0.1365  0.7240 -0.8672
   84TMC2    C3 1305   2.685   0.758  10.258  0.1871  0.2912  0.4489
   84TMC2    C4 1306   2.772   1.021  10.261  0.0605 -0.0473  0.6166
   84TMC2    C5 1307   2.702   0.974  10.155  0.1053  0.7208  0.1213
   84TMC2    C6 1308   2.651   0.845  10.154 -0.0687  0.4716  0.2635
   84TMC2     C 1309   2.860   0.983  10.488 -0.3896  0.6477 -0.3504
   84TMC2     O 1310   2.866   1.104  10.488 -0.3426  0.2065 -0.1665
   84TMC2     H 1311   2.769   0.734  10.446 -0.4856  2.0319  0.3397
   84TMC2    H1 1312   2.811   1.121  10.273 -0.2695 -0.1079  2.2281
   84TMC2    H2 1313   2.575   0.816  10.083  0.1428 -3.7450  1.7366
   84TMC2    C7 1314   2.660   1.064  10.051 -0.1483 -0.5216 -0.2068
   84TMC2    C8 1315   2.634   0.623  10.270  0.5711 -0.0439 -0.3959
   84TMC2    O1 1316   2.559   1.037   9.991 -0.9779  0.6636 -0.4120
   84TMC2    O2 1317   2.633   0.558  10.373 -0.3775 -0.3508  0.0440
   84TMC2    O5 1318   2.608   0.578  10.149  0.4800  0.2774 -0.0507
   84TMC2    H5 1319   2.641   0.631  10.074  0.1963 -0.7305 -0.8916
   85TMC2    C1 1320   4.627   4.531  15.846  0.2232 -0.0662 -0.3377
   85TMC2    C2 1321   4.530   4.618  15.885  0.1999 -0.0696 -0.2272
   85TMC2    C3 1322   4.537   0.007  15.837  0.6911  0.2325  0.4388
   85TMC2    C4 1323   4.726   4.582  15.763  0.1157  0.1879  0.3820
   85TMC2    C5 1324   4.730   4.706  15.717 -0.0006  0.0966  0.1498
   85TMC2    C6 1325   4.625   0.057  15.750  0.4888 -0.4580 -0.2924
   85TMC2     C 1326   4.638   4.402  15.902  0.2822  0.4095  0.0642
   85TMC2     O 1327   0.006   4.342  15.891  0.1327  0.1842  0.4054
   85TMC2     H 1328   4.462   4.588  15.964 -0.0628  1.3679  0.0984
   85TMC2    H1 1329   0.077   4.517  15.751  1.7193  2.1640  1.1882
   85TMC2    H2 1330   4.619   0.157  15.709 -0.8451 -0.0808  0.8087
   85TMC2    C7 1331   0.059   4.720  15.591 -0.9165 -0.5180  0.0381
   85TMC2    C8 1332   4.428   0.096  15.883 -0.1457 -0.4100 -0.3899
   85TMC2    O1 1333   0.141   4.636  15.561  0.7565 -0.0917 -0.2605
   85TMC2    O2 1334   4.396   0.200  15.826  0.0533 -0.2931 -0.2912
   85TMC2    O5 1335   4.404   0.068  16.012  0.6335 -0.5986  0.3090
   85TMC2    H5 1336   4.457   0.004  16.063  0.5181  2.1841  3.8592
   86MPD2     C 1337   4.499   4.096  16.291  0.3536  0.4064 -1.1290
   86MPD2    C1 1338   4.399   4.097  16.197  0.0790  0.4129 -0.7599
   86MPD2    C2 1339   4.401   4.187  16.087 -0.3209 -0.3838  0.6786
   86MPD2    C3 1340   4.519   4.254  16.062  0.3267  0.3702  0.2930
   86MPD2    C4 1341   4.625   4.230  16.144 -0.6913  0.1630  0.4967
   86MPD2    C5 1342   4.617   4.158  16.264  0.4511 -0.1282 -0.3326
   86MPD2     H 1343   4.319   4.191  16.015 -0.5224  1.6770  1.0089
   86MPD2    H1 1344   4.722   4.273  16.121 -0.5717  0.6552  1.9483
   86MPD2    H2 1345   4.485   4.045  16.385 -0.2266 -1.4900 -2.2415
   86MPD2    H3 1346   4.701   4.154  16.334 -0.6069 -3.1417  0.7594
   86MPD2     N 1347   4.522   4.355  15.958  0.3674 -0.4581  0.8404
   86MPD2    H5 1348   4.444   4.394  15.906  0.3163 -0.5716  0.8329
   86MPD2    N1 1349   4.290   4.012  16.208 -0.3307 -0.8051  0.3487
   86MPD2    H7 1350   4.235   4.007  16.123  0.4508 -0.4377 -0.1737
   87TMC2    C1 1351   1.727   1.933   0.870  0.4703 -0.0881  0.3159
   87TMC2    C2 1352   1.758   1.826   0.957 -0.1450 -0.1310 -0.2911
   87TMC2    C3 1353   1.727   1.839   1.089  1.1467  0.4380  0.3849
   87TMC2    C4 1354   1.673   2.048   0.914  0.1773 -0.1168 -0.0856
   87TMC2    C5 1355   1.648   2.055   1.052  0.5576 -0.4753  0.0911
   87TMC2    C6 1356   1.676   1.951   1.143  0.2071  0.0749 -0.1755
   87TMC2     C 1357   1.804   1.934   0.750 -0.5508  1.1287  0.2020
   87TMC2     O 1358   1.823   2.033   0.685  0.0339  0.4172 -0.0779
   87TMC2     H 1359   1.810   1.734   0.931 -0.9906 -0.9348  0.8216
   87TMC2    H1 1360   1.657   2.132   0.848 -0.6302 -1.1142 -1.1708
   87TMC2    H2 1361   1.656   1.956   1.249  1.2914 -0.6033  0.0663
   87TMC2    C7 1362   1.602   2.187   1.100  0.0082  0.3411  0.3545
   87TMC2    C8 1363   1.692   1.720   1.164  0.0765  0.3673 -0.1725
   87TMC2    O1 1364   1.565   2.262   1.009 -0.2358 -0.1033 -0.2337
   87TMC2    O2 1365   1.671   1.716   1.283  0.4216  0.1633  0.3302
   87TMC2    O5 1366   1.616   1.648   1.080 -0.3203  0.3828 -0.2691
   87TMC2    H5 1367   1.632   1.667   0.985 -0.6941 -3.6727 -1.1359
   88MPD2     C 1368   1.600   2.325   1.445  0.0614 -0.3544  0.2215
   88MPD2    C1 1369   1.576   2.324   1.308 -0.5134 -0.0230 -0.2443
   88MPD2    C2 1370   1.515   2.430   1.251  0.2350 -0.3848  0.1376
   88MPD2    C3 1371   1.498   2.551   1.327  0.0964  0.5588 -0.0198
   88MPD2    C4 1372   1.538   2.552   1.461  0.1233 -0.2880  0.6499
   88MPD2    C5 1373   1.586   2.435   1.526  0.2513  0.6580  0.9054
   88MPD2     H 1374   1.480   2.407   1.151 -2.6033  2.4310  0.4981
   88MPD2    H1 1375   1.524   2.637   1.528 -0.2732  0.4413 -0.3496
   88MPD2    H2 1376   1.647   2.245   1.500  2.2327  0.3179 -0.6831
   88MPD2    H3 1377   1.622   2.435   1.629 -1.2314 -0.2175  1.4210
   88MPD2     N 1378   1.434   2.658   1.259 -0.2797 -0.2302 -0.6334
   88MPD2    H5 1379   1.406   2.652   1.162  0.4230  2.5651 -1.0071
   88MPD2    N1 1380   1.612   2.210   1.236  0.0357 -0.4357 -0.3920
   88MPD2    H7 1381   1.654   2.132   1.285 -1.0162  0.3966  1.8412
   89TMC2    C1 1382   2.561   1.610   1.965  0.3541  0.5786  0.1648
   89TMC2    C2 1383   2.593   1.581   2.095 -0.3375 -0.4481  0.3618
   89TMC2    C3 1384   2.687   1.662   2.154  0.5128  0.2794  0.4981
   89TMC2    C4 1385   2.606   1.716   1.893  0.3573 -0.7516 -0.4013
   89TMC2    C5 1386   2.719   1.779   1.952 -0.0620 -0.5613  0.6340
   89TMC2    C6 1387   2.753   1.761   2.090 -0.0710  0.5362 -0.7293
   89TMC2     C 1388   2.436   1.554   1.915  0.2070 -0.5632 -0.0698
   89TMC2     O 1389   2.359   1.620   1.849 -0.2813  0.0660  0.4935
   89TMC2     H 1390   2.537   1.511   2.156  0.7734 -1.4797  0.1870
   89TMC2    H1 1391   2.585   1.725   1.788  2.2676  1.6641 -0.5864
   89TMC2    H2 1392   2.839   1.807   2.136  0.0486  1.1391 -1.5523
   89TMC2    C7 1393   2.782   1.888   1.886  0.1485 -0.3201 -0.2047
   89TMC2    C8 1394   2.745   1.650   2.289  0.1811  0.3342 -0.4578
   89TMC2    O1 1395   2.850   1.967   1.957 -0.1129  0.6773 -0.5651
   89TMC2    O2 1396   2.865   1.648   2.314  0.4618  0.2636  0.7511
   89TMC2    O5 1397   2.648   1.583   2.360  0.5854 -0.3171 -0.0396
   89TMC2    H5 1398   2.558   1.604   2.326  0.5505 -0.7080 -0.1892
   90MPD2     C 1399   2.136   1.166   1.788  0.6065 -0.1460  0.5958
   90MPD2    C1 1400   2.251   1.112   1.844  0.7307  0.0030  0.6746
   90MPD2    C2 1401   2.344   1.202   1.904  0.1073 -0.0629 -0.7114
   90MPD2    C3 1402   2.319   1.339   1.905 -0.1323  0.7080  0.1586
   90MPD2    C4 1403   2.197   1.387   1.853 -0.4776  0.6261  0.0866
   90MPD2    C5 1404   2.110   1.301   1.794  0.0737 -0.2320 -0.1337
   90MPD2     H 1405   2.443   1.163   1.926  0.0098  0.3397  0.4531
   90MPD2    H1 1406   2.157   1.487   1.856  0.2881  0.9298  0.2366
   90MPD2    H2 1407   2.065   1.101   1.738  1.4478 -1.1489  0.6943
   90MPD2    H3 1408   2.015   1.336   1.754  0.5765 -0.0101 -1.1110
   90MPD2     N 1409   2.427   1.418   1.940  0.2292 -0.4120 -0.2581
   90MPD2    H5 1410   2.504   1.368   1.983  0.1767 -0.9275 -0.7598
   90MPD2    N1 1411   2.285   0.974   1.817 -0.1967 -0.2622 -0.5500
   90MPD2    H7 1412   2.375   0.938   1.846 -1.2045 -3.0572 -0.8433
   91TMC2    C1 1413   4.163   0.655  15.989  0.8179  0.1614  0.5984
   91TMC2    C2 1414   4.200   0.735  16.089  0.0958 -0.2340 -0.0493
   91TMC2    C3 1415   4.115   0.733  16.199 -0.2830 -0.0316  0.4844
   91TMC2    C4 1416   4.061   0.567  15.979  0.1894 -0.2074 -0.2877
   91TMC2    C5 1417   3.987   0.553  16.099  0.0782 -0.3121  0.1303
   91TMC2    C6 1418   4.012   0.646  16.202 -0.1716  0.2070 -0.4404
   91TMC2     C 1419   4.271   0.633  15.890 -0.0758 -0.5239 -0.5433
   91TMC2     O 1420   4.242   0.580  15.782  0.1392 -0.7503  0.6392
   91TMC2     H 1421   4.277   0.811  16.079 -2.3288  2.3407  0.9277
   91TMC2    H1 1422   4.058   0.495  15.897 -2.0385 -1.4764  0.8955
   91TMC2    H2 1423   3.968   0.638  16.301  0.4669  0.4521 -0.1389
   91TMC2    C7 1424   3.912   0.430  16.124 -0.3286 -0.3650  0.2596
   91TMC2    C8 1425   4.141   0.806  16.324  0.5281 -0.2895  0.2246
   91TMC2    O1 1426   3.896   0.393  16.238  0.1669 -0.5341 -0.0756
   91TMC2    O2 1427   4.131   0.753  16.431 -0.1778 -0.2849  0.2314
   91TMC2    O5 1428   4.190   0.924  16.298 -0.6023  0.2272  0.1825
   91TMC2    H5 1429   4.154   0.957  16.213  0.5818  2.6190  0.6027
   92MPD2     C 1430   4.535   0.590  15.760 -0.4870 -0.1830 -0.4282
   92MPD2    C1 1431   4.521   0.644  15.888 -0.8707 -0.2545 -0.1641
   92MPD2    C2 1432   4.633   0.658  15.970  0.5390  0.3076  0.4345
   92MPD2    C3 1433   0.022   0.602  15.934  0.1139  0.2746 -0.8913
   92MPD2    C4 1434   0.034   0.551  15.807 -0.3699  0.1910  0.1046
   92MPD2    C5 1435   4.661   0.547  15.725 -0.3227  0.1262 -0.0427
   92MPD2     H 1436   4.628   0.689  16.074  3.1021 -2.9765  1.5194
   92MPD2    H1 1437   0.128   0.520  15.762 -0.3190  1.9709 -1.0103
   92MPD2    H2 1438   4.451   0.560  15.700 -1.4082 -0.6516  1.0879
   92MPD2    H3 1439   4.672   0.522  15.620  2.0374 -1.0056  0.4834
   92MPD2     N 1440   0.123   0.581  16.034  0.8131 -0.5898  0.5735
   92MPD2    H5 1441   0.104   0.616  16.128 -1.7639 -0.6651  0.0918
   92MPD2    N1 1442   4.394   0.663  15.945  0.0034 -0.8501 -0.4797
   92MPD2    H7 1443   4.395   0.709  16.036  0.1397  0.9169 -1.3615
   93TMC2    C1 1444   1.845   0.147  13.553  0.4874 -0.5094 -0.2373
   93TMC2    C2 1445   1.789   0.168  13.432 -0.0467 -0.4091 -0.3180
   93TMC2    C3 1446   1.835   0.269  13.355 -0.1701  0.2216  0.9148
   93TMC2    C4 1447   1.955   0.220  13.582  0.9195 -0.2398  0.0709
   93TMC2    C5 1448   1.999   0.320  13.499 -0.5633  0.8892 -0.3797
   93TMC2    C6 1449   1.933   0.355  13.388  0.0216 -0.1153  1.9529
   93TMC2     C 1450   1.783   0.062  13.657 -0.0740 -0.0825 -0.0237
   93TMC2     O 1451   1.846   0.046  13.764  0.3258 -0.4463 -0.0835
   93TMC2     H 1452   1.710   0.102  13.399 -2.0255  1.1283  1.3918
   93TMC2    H1 1453   2.000   0.196  13.678 -0.6571 -2.2919  0.3073
   93TMC2    H2 1454   1.973   0.427  13.317  1.0643 -2.4500  0.1760
   93TMC2    C7 1455   2.124   0.386  13.546  1.4720  0.0681  0.0708
   93TMC2    C8 1456   1.750   0.321  13.243  0.3755 -0.1967  0.1821
   93TMC2    O1 1457   2.188   0.330  13.635 -0.2310  0.1763  0.5432
   93TMC2    O2 1458   1.748   0.434  13.199  0.1321  0.3242  0.4710
   93TMC2    O5 1459   1.674   0.220  13.196  0.5799  0.4909 -0.0854
   93TMC2    H5 1460   1.701   0.126  13.202  0.2234  0.4775  1.4827
   94MPD2     C 1461   1.603   4.642  13.831 -0.1407 -0.0659  0.3485
   94MPD2    C1 1462   1.566   4.717  13.721  0.1923  0.0663 -0.8468
   94MPD2    C2 1463   1.432   0.008  13.708 -0.3591 -0.7557 -0.4580
   94MPD2    C3 1464   1.332   4.684  13.791  0.1002 -0.0815 -0.4945
   94MPD2    C4 1465   1.371   4.614  13.898  0.2529 -0.1759 -0.5949
   94MPD2    C5 1466   1.506   4.589  13.915 -0.1686  0.6523  0.4796
   94MPD2     H 1467   1.413   0.074  13.624 -0.0272 -0.2409 -0.1275
   94MPD2    H1 1468   1.302   4.578  13.973  1.2321  0.6612  0.7042
   94MPD2    H2 1469   1.707   4.621  13.856  0.6263  1.2001 -1.7688
   94MPD2    H3 1470   1.548   4.533  13.998  1.6385  1.7510  0.3036
   94MPD2     N 1471   1.199   4.707  13.771 -0.8967  0.1454  0.1445
   94MPD2    H5 1472   1.130   4.658  13.827 -2.1412 -0.4030 -1.8566
   94MPD2    N1 1473   1.651   0.041  13.634  0.1634 -0.0628 -1.0875
   94MPD2    H7 1474   1.618   0.089  13.550 -0.0045 -0.1769 -1.0867
   95TMC2    C1 1475   1.380   2.517  16.283  0.4159 -0.0477 -0.9135
   95TMC2    C2 1476   1.439   2.626  16.338 -0.4785  0.1344  0.3452
   95TMC2    C3 1477   1.437   2.633  16.473  1.1464  0.5216 -0.2546
   95TMC2    C4 1478   1.287   2.437  16.354 -0.4207  0.1478  0.6261
   95TMC2    C5 1479   1.286   2.448  16.493  0.0556  0.2285  0.0518
   95TMC2    C6 1480   1.366   2.544  16.551 -0.5532  0.2607 -0.1746
   95TMC2     C 1481   1.439   2.465  16.165  0.6107  0.1016 -0.2712
   95TMC2     O 1482   1.508   2.542  16.097  0.1962  0.2210 -0.1750
   95TMC2     H 1483   1.505   2.690  16.281 -1.3486  0.0086 -0.8133
   95TMC2    H1 1484   1.235   2.359  16.299  1.1417 -1.9254  2.1127
   95TMC2    H2 1485   1.372   2.554  16.658 -1.6549 -0.7528 -0.0183
   95TMC2    C7 1486   1.180   2.387  16.574 -0.0762 -0.8609  0.5137
   95TMC2    C8 1487   1.497   2.751  16.531  0.7473  0.0448 -0.3180
   95TMC2    O1 1488   1.193   2.404  16.693 -0.4592  0.5255 -0.0405
   95TMC2    O2 1489   1.504   2.859  16.476  0.3218  0.8858  0.1860
   95TMC2    O5 1490   1.543   2.715  16.650  0.2047  0.0426 -0.0704
   95TMC2    H5 1491   1.546   2.618  16.663  0.6779  0.1987  0.9165
   96MPD2     C 1492   1.485   2.113  15.795 -0.0460 -0.2999  0.4044
   96MPD2    C1 1493   1.549   2.232  15.806  0.2522 -0.6074 -0.1660
   96MPD2    C2 1494   1.522   2.301  15.924 -0.9482  0.5061  1.1554
   96MPD2    C3 1495   1.427   2.257  16.021 -0.2568  0.2649 -0.3367
   96MPD2    C4 1496   1.361   2.140  15.994 -0.4453 -0.7044  0.1541
   96MPD2    C5 1497   1.391   2.065  15.884 -0.4568 -0.6708 -0.0719
   96MPD2     H 1498   1.561   2.400  15.944  0.2262  0.3808 -0.4640
   96MPD2    H1 1499   1.272   2.116  16.051  0.5551 -0.1132  1.9826
   96MPD2    H2 1500   1.516   2.049  15.713  1.2999  0.4055  0.3638
   96MPD2    H3 1501   1.338   1.971  15.880  0.1805 -0.9912 -1.0957
   96MPD2     N 1502   1.393   2.337  16.130 -0.9369 -0.1668 -0.1593
   96MPD2    H5 1503   1.325   2.290  16.189 -1.9010 -0.0682 -1.1937
   96MPD2    N1 1504   1.642   2.269  15.710  0.2273  0.4465  0.5701
   96MPD2    H7 1505   1.670   2.200  15.640 -0.0428  1.1900 -0.2683
   97TMC2    C1 1506   3.628   4.689   1.273 -0.6564  0.2269 -0.5145
   97TMC2    C2 1507   3.678   4.562   1.258  0.1463  0.1569 -0.0632
   97TMC2    C3 1508   3.756   4.536   1.153 -1.1022 -0.2048  0.1044
   97TMC2    C4 1509   3.657   0.050   1.181 -0.3722 -0.0046 -0.3294
   97TMC2    C5 1510   3.732   0.024   1.068  0.4773 -0.1573  0.2542
   97TMC2    C6 1511   3.793   4.635   1.062  0.5060 -0.2708  0.1335
   97TMC2     C 1512   3.545   4.726   1.389 -0.2879 -0.1701 -0.0644
   97TMC2     O 1513   3.530   0.106   1.417 -0.3146 -0.3663  0.1601
   97TMC2     H 1514   3.663   4.484   1.332  1.2304  0.4884  0.4972
   97TMC2    H1 1515   3.615   0.150   1.190 -1.8640 -0.7823  1.5076
   97TMC2    H2 1516   3.847   4.605   0.972  0.4724  0.3091 -0.0806
   97TMC2    C7 1517   3.797   0.141   1.004  0.3322  0.2718  0.2540
   97TMC2    C8 1518   3.799   4.399   1.127 -0.1155 -0.3899  0.0256
   97TMC2    O1 1519   3.915   0.116   0.972  0.0475  0.2766 -0.1303
   97TMC2    O2 1520   3.902   4.370   1.074  0.0227 -0.2949 -0.4399
   97TMC2    O5 1521   3.695   4.310   1.147  0.4521  0.6824 -0.5692
   97TMC2    H5 1522   3.626   4.357   1.198  0.9856  1.3376 -0.4539
   98MPD2     C 1523   3.255   4.563   1.789  0.1002  0.7832 -0.1637
   98MPD2    C1 1524   3.334   4.674   1.780 -0.4078  0.3129  0.2515
   98MPD2    C2 1525   3.408   4.694   1.657 -0.6970  0.8632  0.3570
   98MPD2    C3 1526   3.403   4.608   1.551 -0.5224  0.2249  0.4863
   98MPD2    C4 1527   3.305   4.509   1.560 -0.2270 -0.1551  0.0357
   98MPD2    C5 1528   3.236   4.490   1.678 -0.8233  1.0160 -0.1884
   98MPD2     H 1529   3.479   0.041   1.647 -0.1780  0.3373 -0.2626
   98MPD2    H1 1530   3.272   4.447   1.477  1.3056 -2.2732  1.0073
   98MPD2    H2 1531   3.194   4.543   1.877  0.0066  2.9661  0.2626
   98MPD2    H3 1532   3.154   4.418   1.680  0.2634 -0.2082  0.2979
   98MPD2     N 1533   3.478   4.618   1.434 -0.1251 -0.2643 -0.4178
   98MPD2    H5 1534   3.491   4.534   1.377  1.1960 -0.5634  0.3157
   98MPD2    N1 1535   3.323   0.033   1.886 -0.2508  0.2248  0.4764
   98MPD2    H7 1536   3.254   0.022   1.959 -0.4643  1.1143  0.4041
   99TMC2    C1 1537   2.894   2.267   1.203  0.1723  0.3099  0.6976
   99TMC2    C2 1538   2.997   2.357   1.228  0.0753  0.4656  0.4207
   99TMC2    C3 1539   2.982   2.438   1.339  0.7711  0.4412 -0.2962
   99TMC2    C4 1540   2.785   2.247   1.294 -0.3179  0.5674  0.1196
   99TMC2    C5 1541   2.779   2.334   1.404 -0.6048  0.0008 -0.1019
   99TMC2    C6 1542   2.869   2.439   1.417 -0.2210  0.2147 -0.2466
   99TMC2     C 1543   2.896   2.197   1.072  0.4255  0.1574  0.1501
   99TMC2     O 1544   2.981   2.234   0.992  0.4480  0.2055  0.4316
   99TMC2     H 1545   3.070   2.388   1.153 -1.3785  0.0077 -1.1846
   99TMC2    H1 1546   2.719   2.162   1.278  0.7898  0.0096 -1.5205
   99TMC2    H2 1547   2.872   2.502   1.505 -1.3695 -3.0180  2.0719
   99TMC2    C7 1548   2.703   2.297   1.526  0.0427  0.2065 -0.1275
   99TMC2    C8 1549   3.068   2.561   1.333 -0.3422 -0.6423 -0.0036
   99TMC2    O1 1550   2.704   2.382   1.614 -0.2651  0.3299 -0.1834
   99TMC2    O2 1551   3.032   2.672   1.369  0.4842 -0.2225  0.4471
   99TMC2    O5 1552   3.203   2.523   1.318  0.1904  0.2188  0.1787
   99TMC2    H5 1553   3.218   2.426   1.318 -1.4775 -0.0401  1.6086
  100MPD2     C 1554   2.835   2.051   0.817  0.0184  0.7013 -0.1847
  100MPD2    C1 1555   2.781   2.014   0.937 -0.4771 -0.7883  0.4519
  100MPD2    C2 1556   2.695   1.913   0.935 -0.1801 -0.0172  0.2677
  100MPD2    C3 1557   2.669   1.831   0.831 -0.1355 -0.8934 -0.3609
  100MPD2    C4 1558   2.724   1.869   0.709  0.2853 -0.0080  0.3717
  100MPD2    C5 1559   2.809   1.974   0.704  0.4398 -0.4229 -0.4544
  100MPD2     H 1560   2.645   1.886   1.028 -0.0402 -0.8214  0.1035
  100MPD2    H1 1561   2.711   1.815   0.616 -0.2392  0.8006 -0.0302
  100MPD2    H2 1562   2.916   2.121   0.802  0.6216  0.4125  1.6847
  100MPD2    H3 1563   2.858   2.005   0.613  0.2464 -1.1289 -0.8034
  100MPD2     N 1564   2.577   1.728   0.853 -0.0912  0.0795 -0.4071
  100MPD2    H5 1565   2.536   1.717   0.944  1.3365  0.0095  0.2274
  100MPD2    N1 1566   2.802   2.092   1.061 -0.1795  0.0934 -0.1404
  100MPD2    H7 1567   2.738   2.058   1.133  2.2483 -0.1363  1.9225
  101TMC2    C1 1568   3.404   2.934  13.069 -0.0034  0.5491 -0.7009
  101TMC2    C2 1569   3.447   2.964  13.199  0.2567  1.1241 -0.4293
  101TMC2    C3 1570   3.572   3.015  13.221  0.0656  0.0615  0.8752
  101TMC2    C4 1571   3.487   2.953  12.959 -0.7781  0.0755 -0.6703
  101TMC2    C5 1572   3.618   2.994  12.984  0.3082 -0.2914  0.2991
  101TMC2    C6 1573   3.653   3.035  13.111  0.0156  0.0763 -0.3693
  101TMC2     C 1574   3.281   2.859  13.044 -0.0047 -0.1884 -0.0890
  101TMC2     O 1575   3.169   2.905  13.081 -0.3065  0.4381  0.0994
  101TMC2     H 1576   3.373   2.951  13.277  0.8772 -1.2280 -0.2289
  101TMC2    H1 1577   3.453   2.919  12.862  0.9123 -1.0035 -0.8947
  101TMC2    H2 1578   3.754   3.045  13.149  0.1877 -0.7011 -0.6206
  101TMC2    C7 1579   3.674   3.062  12.867  0.3923 -0.1347 -0.1365
  101TMC2    C8 1580   3.640   2.970  13.335 -0.5331 -0.2649  0.2446
  101TMC2    O1 1581   3.614   3.051  12.758 -0.1416  0.0449 -0.1112
  101TMC2    O2 1582   3.718   2.879  13.311  0.3022 -0.0153  0.5790
  101TMC2    O5 1583   3.543   2.960  13.425  0.1123  0.2303  0.2680
  101TMC2    H5 1584   3.503   3.048  13.437 -1.2720 -0.0174 -2.3830
  102MPD2     C 1585   3.232   2.532  12.879  0.0660  0.4226  0.4291
  102MPD2    C1 1586   3.207   2.631  12.971  0.0085  0.0692  0.1921
  102MPD2    C2 1587   3.119   2.615  13.076 -0.0266  0.1522  0.3402
  102MPD2    C3 1588   3.044   2.495  13.084 -0.0042 -0.5272 -0.6213
  102MPD2    C4 1589   3.068   2.394  12.989  0.8255  0.4631  1.0042
  102MPD2    C5 1590   3.161   2.416  12.887 -0.2778  0.9321 -0.1799
  102MPD2     H 1591   3.102   2.694  13.148 -1.5315 -0.7223  0.9627
  102MPD2    H1 1592   3.028   2.293  12.987 -0.7378  1.1051  0.2357
  102MPD2    H2 1593   3.287   2.550  12.788  0.5524  1.1852  0.8761
  102MPD2    H3 1594   3.182   2.334  12.819 -2.6617  1.0549 -1.0746
  102MPD2     N 1595   2.962   2.476  13.194  0.1027  0.2565 -0.0453
  102MPD2    H5 1596   2.960   2.555  13.259  0.2079 -1.2756  1.8297
  102MPD2    N1 1597   3.294   2.746  12.959 -0.1584 -0.3498 -0.6737
  102MPD2    H7 1598   3.382   2.720  12.915  1.2402  0.9270  1.3380
  103TMC2    C1 1599   0.889   2.665  12.660  0.2063 -0.3628 -0.0465
  103TMC2    C2 1600   0.972   2.627  12.762 -0.1699 -0.1641  0.5127
  103TMC2    C3 1601   0.951   2.668  12.889 -0.6145  0.4303 -0.1327
  103TMC2    C4 1602   0.785   2.746  12.690  0.2161  0.0869 -0.0192
  103TMC2    C5 1603   0.780   2.797  12.811  0.4722  0.0975 -0.1231
  103TMC2    C6 1604   0.863   2.765  12.910  0.0338  0.0587 -0.4115
  103TMC2     C 1605   0.899   2.588  12.540  0.0918  0.7859  0.5298
  103TMC2     O 1606   1.002   2.520  12.528 -0.5578 -0.4507 -0.5786
  103TMC2     H 1607   1.060   2.569  12.735 -0.1142 -0.1175  0.5942
  103TMC2    H1 1608   0.727   2.792  12.610 -3.1431 -1.6631  1.4227
  103TMC2    H2 1609   0.865   2.813  13.008 -1.0051 -1.5685  0.4128
  103TMC2    C7 1610   0.697   2.907  12.844  0.0866 -0.1036 -0.0615
  103TMC2    C8 1611   1.050   2.647  12.998  0.0422  0.5316 -0.1248
  103TMC2    O1 1612   0.714   2.962  12.951  0.3914  0.1114  0.1739
  103TMC2    O2 1613   1.166   2.614  12.974 -0.0693 -0.2644  0.5478
  103TMC2    O5 1614   0.984   2.629  13.117 -0.0014  0.2727  0.0229
  103TMC2    H5 1615   0.887   2.633  13.102 -0.1452  1.0848  1.1684
  104MPD2     C 1616   0.837   2.434  12.283  0.0161 -1.2645  0.6250
  104MPD2    C1 1617   0.756   2.534  12.340  0.8225  0.0505 -0.1084
  104MPD2    C2 1618   0.627   2.554  12.291 -0.7431 -0.1759 -0.3841
  104MPD2    C3 1619   0.575   2.473  12.195 -0.2103 -0.2371  0.7912
  104MPD2    C4 1620   0.654   2.387  12.132  0.2989 -0.3334  1.0303
  104MPD2    C5 1621   0.787   2.364  12.176 -0.1768  0.0512 -0.0399
  104MPD2     H 1622   0.561   2.619  12.347  1.7721  3.4812 -1.6871
  104MPD2    H1 1623   0.618   2.317  12.058 -0.1815  0.9705  0.0318
  104MPD2    H2 1624   0.937   2.411  12.319 -0.1361 -2.5152  0.2262
  104MPD2    H3 1625   0.846   2.283  12.134 -1.7097  0.0097 -2.1189
  104MPD2     N 1626   0.439   2.489  12.164 -0.3706  0.0162 -0.4408
  104MPD2    H5 1627   0.389   2.552  12.225 -0.3666 -0.8225  0.4205
  104MPD2    N1 1628   0.787   2.608  12.460 -0.6777 -0.6568 -0.1009
  104MPD2    H7 1629   0.711   2.658  12.504 -1.5050  0.0978 -2.4279
  105TMC2    C1 1630   2.506   2.029   0.123 -0.3459 -0.2381  0.4559
  105TMC2    C2 1631   2.499   2.158   0.159 -0.0245  0.5080  0.1831
  105TMC2    C3 1632   2.387   2.190   0.234 -0.7212 -0.1257  0.0950
  105TMC2    C4 1633   2.408   1.937   0.154  0.3338  0.7641  0.7021
  105TMC2    C5 1634   2.300   1.980   0.223 -0.1808 -0.3109 -0.2527
  105TMC2    C6 1635   2.288   2.109   0.271  0.0575 -0.0830 -0.6532
  105TMC2     C 1636   2.607   1.987   0.027  0.2320 -1.0237  0.0770
  105TMC2     O 1637   2.614   1.866   0.023 -1.0257  0.0935  0.3720
  105TMC2     H 1638   2.588   2.218   0.143 -0.1297  1.1590  2.0907
  105TMC2    H1 1639   2.422   1.834   0.123  0.1229  0.8967  0.1622
  105TMC2    H2 1640   2.203   2.147   0.326 -0.3850 -1.3528 -0.4485
  105TMC2    C7 1641   2.212   1.867   0.246  0.4411 -0.3451 -0.2555
  105TMC2    C8 1642   2.376   2.327   0.290 -0.2001  0.7292 -0.6623
  105TMC2    O1 1643   2.217   1.768   0.176 -0.1977  0.2983  0.2259
  105TMC2    O2 1644   2.304   2.363   0.381  0.3063 -0.1343  0.6882
  105TMC2    O5 1645   2.439   2.415   0.214  0.5248 -0.7330  0.0040
  105TMC2    H5 1646   2.471   2.363   0.137 -0.0919  1.3278 -1.6395
  106MPD2     C 1647   2.911   2.039  17.367  0.6941  0.2261  0.5597
  106MPD2    C1 1648   2.868   2.169  17.396  0.2324  0.8709 -0.1327
  106MPD2    C2 1649   2.780   2.176  17.496 -0.3958  0.1334  0.2684
  106MPD2    C3 1650   2.742   2.074  17.576  0.1861 -0.0565  0.3314
  106MPD2    C4 1651   2.816   1.961  17.573 -0.3915 -0.0070  0.4145
  106MPD2    C5 1652   2.889   1.943  17.458  0.3788  0.2978  0.9061
  106MPD2     H 1653   2.718   2.262  17.519 -1.9240 -0.8734 -0.0525
  106MPD2    H1 1654   2.813   1.883  17.649 -0.8575  1.4433  1.8845
  106MPD2    H2 1655   2.980   2.010  17.289 -0.2999  1.2333 -0.6834
  106MPD2    H3 1656   2.945   1.850  17.449  1.2192  0.8702  0.1420
  106MPD2     N 1657   2.652   2.091  17.684 -0.8169 -0.9450 -0.1790
  106MPD2    H5 1658   2.613   2.184  17.695 -1.9231 -1.1523 -2.5601
  106MPD2    N1 1659   2.907   2.284  17.322 -0.2931 -0.7173  0.1597
  106MPD2    H7 1660   2.862   2.367  17.360 -0.6296 -0.3432 -1.0603
  107TMC2    C1 1661   3.045   1.554  11.180 -0.2604 -0.2293  0.6775
  107TMC2    C2 1662   2.939   1.595  11.106  0.2275  0.0495 -0.0736
  107TMC2    C3 1663   2.903   1.534  10.992 -0.2775  0.1036  0.3075
  107TMC2    C4 1664   3.111   1.442  11.146 -0.0354  0.2282 -0.4864
  107TMC2    C5 1665   3.074   1.379  11.024  0.6747  0.2609  0.3996
  107TMC2    C6 1666   2.969   1.419  10.953  0.2873 -0.3531 -0.2407
  107TMC2     C 1667   3.063   1.606  11.317 -0.5493  0.3489 -0.3950
  107TMC2     O 1668   3.111   1.532  11.401 -0.5452 -0.3518  0.5010
  107TMC2     H 1669   2.874   1.670  11.149  0.7006  0.5033 -0.1600
  107TMC2    H1 1670   3.198   1.410  11.202 -0.1282  3.6139  1.5231
  107TMC2    H2 1671   2.944   1.379  10.855  0.3254 -0.6195 -0.1424
  107TMC2    C7 1672   3.147   1.262  10.985  0.2887  0.1768  0.5253
  107TMC2    C8 1673   2.785   1.581  10.929  0.5127  0.0283  0.4325
  107TMC2    O1 1674   3.228   1.222  11.065 -0.3286 -0.3479  0.0488
  107TMC2    O2 1675   2.698   1.639  10.987  0.1618  0.0952 -0.2261
  107TMC2    O5 1676   2.814   1.608  10.802 -0.1670 -0.0950 -0.4224
  107TMC2    H5 1677   2.904   1.582  10.773 -0.2999 -0.3825 -0.5765
  108MPD2     C 1678   2.876   1.892  11.449 -0.0346 -0.4815 -0.1248
  108MPD2    C1 1679   2.974   1.791  11.454  0.1413 -0.1510  0.6645
  108MPD2    C2 1680   3.035   1.762  11.575  0.0264  0.1784  0.1422
  108MPD2    C3 1681   2.991   1.821  11.688  0.8599 -0.2386 -0.3470
  108MPD2    C4 1682   2.882   1.912  11.686 -0.1290  0.0049 -0.4038
  108MPD2    C5 1683   2.831   1.948  11.563 -0.1839 -0.2322  0.3631
  108MPD2     H 1684   3.118   1.692  11.585 -1.5742 -2.1582 -2.8397
  108MPD2    H1 1685   2.843   1.965  11.773  0.2579 -2.0807  1.0397
  108MPD2    H2 1686   2.814   1.911  11.363 -0.3938 -1.3188 -0.0486
  108MPD2    H3 1687   2.758   2.028  11.568 -0.8829 -0.8681  0.3174
  108MPD2     N 1688   3.029   1.775  11.816 -0.0536 -0.5305  0.4191
  108MPD2    H5 1689   2.965   1.814  11.884  1.8565  0.6491  1.5464
  108MPD2    N1 1690   3.000   1.726  11.336 -0.1225  0.0784  0.6317
  108MPD2    H7 1691   2.954   1.765  11.254  0.8977 -3.2820 -1.5651
  109TMC2    C1 1692   2.435   4.323   2.455 -0.2728  0.2299 -0.2083
  109TMC2    C2 1693   2.406   4.281   2.584 -0.1483 -0.0522 -0.3281
  109TMC2    C3 1694   2.494   4.309   2.686  0.7161 -0.2417  0.5823
  109TMC2    C4 1695   2.543   4.406   2.429  0.6964  0.0255  0.5072
  109TMC2    C5 1696   2.628   4.434   2.530  0.3246  0.4761  0.1443
  109TMC2    C6 1697   2.606   4.386   2.664  0.1108  0.5118 -0.2794
  109TMC2     C 1698   2.334   4.304   2.359 -0.2204  0.3454 -0.1486
  109TMC2     O 1699   2.224   4.315   2.411 -0.0834 -0.3644 -0.2414
  109TMC2     H 1700   2.326   4.216   2.614  0.3166 -0.6421 -0.3656
  109TMC2    H1 1701   2.564   4.447   2.331  0.7707  0.3221  0.6461
  109TMC2    H2 1702   2.669   4.426   2.743 -0.5894 -1.2733  1.1884
  109TMC2    C7 1703   2.739   4.515   2.496 -0.9520 -0.5653  0.4369
  109TMC2    C8 1704   2.476   4.240   2.813 -0.1106 -0.3940  0.0275
  109TMC2    O1 1705   2.732   4.581   2.393 -0.1698  0.1035 -0.3554
  109TMC2    O2 1706   2.485   4.116   2.823  0.3460  1.1846  0.4692
  109TMC2    O5 1707   2.510   4.329   2.911  0.6568  0.0779  0.5721
  109TMC2    H5 1708   2.482   4.420   2.889 -0.5436 -0.8979 -1.9188
  110MPD2     C 1709   2.185   4.338   1.867  0.3622  0.1746 -0.5769
  110MPD2    C1 1710   2.319   4.339   1.871 -0.2420 -0.1051 -0.0465
  110MPD2    C2 1711   2.384   4.317   1.994  0.1175  0.9285 -0.0706
  110MPD2    C3 1712   2.310   4.313   2.108  0.2575 -0.9251 -0.0591
  110MPD2    C4 1713   2.171   4.312   2.101  0.0041 -0.4043 -0.6816
  110MPD2    C5 1714   2.110   4.318   1.980  0.1965 -0.1231  0.0998
  110MPD2     H 1715   2.490   4.294   2.001 -0.5390 -1.6369  1.4348
  110MPD2    H1 1716   2.106   4.316   2.188 -0.4107  3.3952 -1.1666
  110MPD2    H2 1717   2.129   4.334   1.774 -0.8388 -0.7625  0.1827
  110MPD2    H3 1718   2.004   4.298   1.968 -0.3071  2.2511  0.6428
  110MPD2     N 1719   2.384   4.307   2.228  0.0540  0.4029 -0.4155
  110MPD2    H5 1720   2.483   4.284   2.219  0.3574 -0.1861  4.5650
  110MPD2    N1 1721   2.383   4.333   1.742 -0.0191 -0.0236 -0.0135
  110MPD2    H7 1722   2.328   4.338   1.658 -0.1538  0.5556  0.1103
  111TMC2    C1 1723   2.716   3.783  11.825  0.8518 -0.1477  0.3774
  111TMC2    C2 1724   2.655   3.818  11.944  0.1994  0.5495 -0.6721
  111TMC2    C3 1725   2.731   3.825  12.052 -0.5196  0.3127 -0.2602
  111TMC2    C4 1726   2.848   3.770  11.809 -0.4599 -0.5930 -0.2551
  111TMC2    C5 1727   2.922   3.784  11.929  0.3591 -0.0991 -0.1110
  111TMC2    C6 1728   2.861   3.808  12.053  0.3383 -0.0452  0.0458
  111TMC2     C 1729   2.641   3.795  11.700 -0.3235 -0.4732 -0.2387
  111TMC2     O 1730   2.703   3.840  11.603  0.4561  0.0718 -0.0523
  111TMC2     H 1731   2.549   3.838  11.956  0.0534 -0.4293 -0.2610
  111TMC2    H1 1732   2.895   3.735  11.718 -0.0460  0.6365 -0.5162
  111TMC2    H2 1733   2.932   3.824  12.133  0.9539  2.3438 -0.9931
  111TMC2    C7 1734   3.065   3.782  11.931 -0.5832 -0.1824  0.3446
  111TMC2    C8 1735   2.667   3.897  12.166  0.1325 -0.3294 -0.4757
  111TMC2    O1 1736   3.120   3.748  12.035 -0.4967 -0.1207 -0.1938
  111TMC2    O2 1737   2.557   3.951  12.147  0.3004 -0.1732  0.1704
  111TMC2    O5 1738   2.755   3.937  12.258 -0.0680 -0.0771 -0.5579
  111TMC2    H5 1739   2.833   3.880  12.276 -0.4970 -0.8350 -1.0617
  112MPD2     C 1740   2.215   3.801  11.420  0.2123 -0.3163  0.8478
  112MPD2    C1 1741   2.343   3.820  11.382 -0.3023  0.9079 -0.5408
  112MPD2    C2 1742   2.442   3.806  11.483  0.6078 -0.3220  0.2601
  112MPD2    C3 1743   2.415   3.765  11.613  0.0217  0.3891 -0.2382
  112MPD2    C4 1744   2.289   3.740  11.647 -0.3905 -0.4295 -0.8455
  112MPD2    C5 1745   2.189   3.752  11.553 -0.7535 -0.5096 -1.4079
  112MPD2     H 1746   2.538   3.831  11.440  0.3706  0.4288  0.1647
  112MPD2    H1 1747   2.266   3.693  11.742  0.1383  2.2580  0.6022
  112MPD2    H2 1748   2.127   3.822  11.360  2.4158  0.7773 -1.9965
  112MPD2    H3 1749   2.087   3.730  11.580  0.1330 -3.2959 -0.2826
  112MPD2     N 1750   2.512   3.763  11.714 -0.3543 -0.4716 -0.5470
  112MPD2    H5 1751   2.486   3.716  11.800  0.1924 -0.8855 -0.6034
  112MPD2    N1 1752   2.389   3.850  11.250  0.1435 -0.2222  0.3862
  112MPD2    H7 1753   2.490   3.852  11.239  0.0623  0.9078 -0.1944
  113TMC2    C1 1754   1.190   1.153   0.490 -0.1326  0.0497 -0.3792
  113TMC2    C2 1755   1.088   1.237   0.455  0.3316  0.7993  0.5855
  113TMC2    C3 1756   0.967   1.183   0.430 -0.1710 -0.3197  0.1931
  113TMC2    C4 1757   1.181   1.020   0.468 -0.5002  0.1201 -0.9132
  113TMC2    C5 1758   1.060   0.970   0.430 -0.0749  0.4893  0.7156
  113TMC2    C6 1759   0.945   1.048   0.414  0.2793  0.0145 -0.0767
  113TMC2     C 1760   1.272   1.194   0.605 -0.5897  0.2322 -0.9573
  113TMC2     O 1761   1.265   1.311   0.635  0.6563 -0.2887 -0.0011
  113TMC2     H 1762   1.095   1.345   0.461 -0.6997  0.9898 -1.7043
  113TMC2    H1 1763   1.262   0.952   0.493 -0.4133  0.1366 -1.1502
  113TMC2    H2 1764   0.847   1.008   0.389  0.9554 -0.0187 -2.6608
  113TMC2    C7 1765   1.030   0.832   0.464 -0.3538  0.6955  0.6858
  113TMC2    C8 1766   0.869   1.279   0.387  0.3626 -0.4687 -0.1652
  113TMC2    O1 1767   1.126   0.758   0.468  0.5217  0.1045 -0.1433
  113TMC2    O2 1768   0.903   1.364   0.304 -0.5686  0.0822 -0.1414
  113TMC2    O5 1769   0.749   1.217   0.389 -0.6777 -0.3129 -0.7567
  113TMC2    H5 1770   0.746   1.140   0.451 -0.2898  1.1468  1.0682
  114MPD2     C 1771   1.525   1.106   1.053 -0.0613  0.0577  0.2065
  114MPD2    C1 1772   1.463   1.220   0.998 -0.3171 -0.9487 -0.6652
  114MPD2    C2 1773   1.393   1.218   0.883  0.3298 -0.2499  0.8138
  114MPD2    C3 1774   1.403   1.104   0.801 -0.5661  0.2355 -0.2449
  114MPD2    C4 1775   1.469   0.992   0.847  0.0338 -0.5478 -0.3268
  114MPD2    C5 1776   1.532   0.993   0.975 -0.6319  0.7521 -0.1021
  114MPD2     H 1777   1.327   1.299   0.855 -0.4525 -0.8661  0.8725
  114MPD2    H1 1778   1.465   0.899   0.792  0.1107 -1.6501  1.5565
  114MPD2    H2 1779   1.561   1.104   1.156 -0.6196  0.5091  0.4089
  114MPD2    H3 1780   1.580   0.907   1.019  0.5652 -0.0699 -3.0252
  114MPD2     N 1781   1.339   1.095   0.675  0.1083  0.3565 -0.6717
  114MPD2    H5 1782   1.323   1.003   0.635  0.5744 -0.0418  0.0498
  114MPD2    N1 1783   1.437   1.339   1.074 -0.6255 -0.4908 -0.6011
  114MPD2    H7 1784   1.387   1.411   1.023 -1.6372 -0.1573  0.8505
  115TMC2    C1 1785   2.068   0.167   0.065 -0.6645  0.3007 -0.0697
  115TMC2    C2 1786   2.200   0.176   0.107  0.0627  0.6558  0.1897
  115TMC2    C3 1787   2.269   0.281   0.055  0.1522  0.1354 -0.0336
  115TMC2    C4 1788   2.011   0.252  17.713 -0.2398 -0.2641 -0.3327
  115TMC2    C5 1789   2.092   0.352  17.660 -1.5177 -0.6229 -0.7232
  115TMC2    C6 1790   2.219   0.373  17.706  0.1342 -0.0026  0.2389
  115TMC2     C 1791   1.995   0.045   0.086  0.0433  0.0157 -0.3770
  115TMC2     O 1792   1.923   0.002  17.736  0.1999  0.4141 -0.6074
  115TMC2     H 1793   2.238   0.096   0.170 -1.6955 -3.0665 -3.4619
  115TMC2    H1 1794   1.915   0.232  17.666 -0.4788  1.0507 -0.4251
  115TMC2    H2 1795   2.287   0.448  17.668 -1.2978  0.3253 -1.6809
  115TMC2    C7 1796   2.026   0.421  17.552 -1.3133  1.0127  0.8306
  115TMC2    C8 1797   2.406   0.297   0.101 -1.3442 -0.2471  0.8786
  115TMC2    O1 1798   1.905   0.439  17.550 -0.3582 -0.4948 -0.4059
  115TMC2    O2 1799   2.479   0.197   0.116  0.7670  0.0797 -0.1244
  115TMC2    O5 1800   2.442   0.423   0.117 -0.1665  0.0000 -0.1124
  115TMC2    H5 1801   2.358   0.475   0.123 -0.4722 -0.6256  1.1552
  116MPD2     C 1802   1.956   4.312   0.301 -0.4241 -0.3857  0.4204
  116MPD2    C1 1803   1.943   4.347   0.171 -0.0673 -0.0503  0.8479
  116MPD2    C2 1804   1.964   4.480   0.137 -0.0990 -0.3763 -0.5450
  116MPD2    C3 1805   1.998   4.575   0.239  0.4697 -0.2154 -0.4119
  116MPD2    C4 1806   2.034   4.533   0.362  0.6564 -0.1262 -0.0763
  116MPD2    C5 1807   2.011   4.399   0.397  0.2159 -0.1059 -0.3050
  116MPD2     H 1808   1.942   4.510   0.036 -2.4253 -2.3631 -0.6183
  116MPD2    H1 1809   2.066   4.599   0.442 -0.2804 -0.4246  0.5573
  116MPD2    H2 1810   1.935   4.212   0.338 -1.4985  0.0228  0.9232
  116MPD2    H3 1811   2.027   4.373   0.501 -0.5846 -0.5986 -0.3069
  116MPD2     N 1812   2.013   4.711   0.207  0.0816  0.2616  0.7758
  116MPD2    H5 1813   2.055   0.035   0.278 -0.3034 -0.7240  1.8075
  116MPD2    N1 1814   1.902   4.251   0.074  0.0593  0.0922 -0.5048
  116MPD2    H7 1815   1.899   4.290  17.718 -0.2216 -0.0011 -0.5348
  117TMC2    C1 1816   1.486   0.266  13.913  0.3734 -0.8442 -0.4889
  117TMC2    C2 1817   1.599   0.254  13.990  0.1355  0.2430  1.0206
  117TMC2    C3 1818   1.719   0.291  13.931 -0.6701  0.8084 -0.6052
  117TMC2    C4 1819   1.481   0.324  13.790  0.5672 -0.3903  0.9661
  117TMC2    C5 1820   1.602   0.374  13.745  0.3167  0.1232 -0.2436
  117TMC2    C6 1821   1.722   0.350  13.812 -1.0814 -0.4314  0.5488
  117TMC2     C 1822   1.360   0.255  13.986  0.1991  0.9730 -0.1530
  117TMC2     O 1823   1.347   0.182  14.083 -0.2103  0.0221 -0.1247
  117TMC2     H 1824   1.594   0.216  14.091 -1.0648  0.0276  0.8847
  117TMC2    H1 1825   1.384   0.324  13.740  0.3930  0.8463  1.2971
  117TMC2    H2 1826   1.816   0.392  13.778 -0.5732 -3.3124 -1.6096
  117TMC2    C7 1827   1.601   0.457  13.624 -0.0812 -0.6296  0.5495
  117TMC2    C8 1828   1.827   0.314  14.016  0.4732 -0.1210  0.2138
  117TMC2    O1 1829   1.712   0.511  13.603 -0.1182 -0.8430 -1.0875
  117TMC2    O2 1830   1.942   0.309  13.973 -0.1583 -0.6560  0.2682
  117TMC2    O5 1831   1.792   0.382  14.125 -0.2615 -0.2284 -0.1146
  117TMC2    H5 1832   1.694   0.384  14.129 -0.3783 -1.3521 -2.1970
  118MPD2     C 1833   1.377   0.489  13.344 -0.1654  0.1150  0.2960
  118MPD2    C1 1834   1.464   0.535  13.440 -0.5650  0.5387 -0.6364
  118MPD2    C2 1835   1.518   0.663  13.431  0.8572  0.3607  0.5280
  118MPD2    C3 1836   1.495   0.737  13.320  0.1440  0.3440 -0.1956
  118MPD2    C4 1837   1.420   0.689  13.217  0.2767 -0.5025 -0.2999
  118MPD2    C5 1838   1.355   0.567  13.231  0.4715 -0.6501  0.0964
  118MPD2     H 1839   1.578   0.706  13.511 -0.3886 -0.4385  1.8825
  118MPD2    H1 1840   1.405   0.740  13.123 -2.5355 -0.0534  0.3741
  118MPD2    H2 1841   1.325   0.395  13.359 -0.6492  0.3014 -0.2048
  118MPD2    H3 1842   1.302   0.527  13.145 -0.6671  1.7242 -0.3082
  118MPD2     N 1843   1.544   0.870  13.309 -0.2901 -0.1970 -0.3264
  118MPD2    H5 1844   1.533   0.916  13.219 -1.6676 -2.3440 -1.2571
  118MPD2    N1 1845   1.483   0.452  13.552  0.0400  0.5337 -0.4122
  118MPD2    H7 1846   1.408   0.390  13.580 -1.3711  2.6160  0.3859
  119TMC2    C1 1847   3.948   2.048  13.543  0.1501  1.0523 -0.1674
  119TMC2    C2 1848   4.007   1.961  13.628  0.1058  0.0891  0.6598
  119TMC2    C3 1849   3.941   1.853  13.669  0.0464 -0.0148 -0.1036
  119TMC2    C4 1850   3.818   2.039  13.511  0.5877  0.1659  0.1307
  119TMC2    C5 1851   3.751   1.931  13.563  0.2664 -0.4404  0.0769
  119TMC2    C6 1852   3.807   1.834  13.642 -0.4676 -0.0422 -1.1414
  119TMC2     C 1853   3.993   2.183  13.570 -0.4549  0.7491  0.2650
  119TMC2     O 1854   4.057   2.192  13.675  0.4357 -0.6011  0.3566
  119TMC2     H 1855   4.112   1.977  13.649  0.1134  0.1403  0.5855
  119TMC2    H1 1856   3.764   2.115  13.454 -1.0043 -0.4406  0.8323
  119TMC2    H2 1857   3.746   1.754  13.682 -0.6709  1.2924  1.1848
  119TMC2    C7 1858   3.607   1.915  13.542 -0.7957  0.9710 -0.5319
  119TMC2    C8 1859   3.990   1.782  13.785  0.0276 -0.1114 -0.3374
  119TMC2    O1 1860   3.564   1.935  13.430 -0.6372  0.7725  0.3942
  119TMC2    O2 1861   4.090   1.715  13.785 -0.3675  0.3917  0.1216
  119TMC2    O5 1862   3.902   1.791  13.891 -0.4051  0.0515  0.2973
  119TMC2    H5 1863   3.825   1.850  13.873 -0.3371  0.0352 -0.0459
  120MPD2     C 1864   3.943   2.693  13.534  0.1051 -0.2904 -0.0360
  120MPD2    C1 1865   3.985   2.611  13.635 -0.5916 -0.1627 -0.0199
  120MPD2    C2 1866   4.001   2.478  13.612  0.0868  0.0361 -0.8542
  120MPD2    C3 1867   3.949   2.422  13.501 -0.6666  0.2602 -0.0804
  120MPD2    C4 1868   3.888   2.498  13.401 -0.3719 -0.2855  0.3572
  120MPD2    C5 1869   3.887   2.636  13.420  0.0377 -0.1921 -0.0200
  120MPD2     H 1870   4.062   2.417  13.678 -0.5747  1.3743  0.9621
  120MPD2    H1 1871   3.840   2.452  13.316 -0.6515  1.6429 -0.5147
  120MPD2    H2 1872   3.938   2.801  13.541  0.3474 -0.3425  0.8080
  120MPD2    H3 1873   3.855   2.702  13.340 -2.5828 -0.9271  0.4108
  120MPD2     N 1874   3.942   2.282  13.486 -0.1622 -0.0394 -0.0366
  120MPD2    H5 1875   3.917   2.243  13.396  1.0349 -0.8027 -0.0370
  120MPD2    N1 1876   4.025   2.684  13.752 -1.2022  0.2163 -0.2714
  120MPD2    H7 1877   4.057   2.780  13.738  1.6348 -0.9406 -1.6046
  121TMC2    C1 1878   0.444   3.732  14.103  0.1231 -0.1582 -0.3935
  121TMC2    C2 1879   0.402   3.672  14.223 -0.1034 -0.0768 -0.4305
  121TMC2    C3 1880   0.272   3.687  14.269 -0.6159 -0.8473  0.4021
  121TMC2    C4 1881   0.355   3.801  14.027 -0.0624  0.3433  0.3541
  121TMC2    C5 1882   0.226   3.791  14.067  0.1874  0.0504 -0.8939
  121TMC2    C6 1883   0.183   3.748  14.191  0.2486 -0.8257 -0.7312
  121TMC2     C 1884   0.581   3.718  14.067 -0.4162 -1.0998 -0.6695
  121TMC2     O 1885   0.668   3.697  14.151 -0.0367 -0.6674  0.0486
  121TMC2     H 1886   0.470   3.611  14.280  3.5469  2.1571 -2.3817
  121TMC2    H1 1887   0.389   3.845  13.934  1.2714  1.7558  1.4966
  121TMC2    H2 1888   0.088   3.765  14.239  0.0854 -2.5294 -0.4730
  121TMC2    C7 1889   0.149   3.897  13.993 -0.0236  0.1595 -0.1927
  121TMC2    C8 1890   0.236   3.685  14.407  1.3897  0.8333 -0.3920
  121TMC2    O1 1891   0.212   3.997  13.952  0.2109  0.5793  0.3829
  121TMC2    O2 1892   0.124   3.645  14.428  0.3913  0.5250 -0.4398
  121TMC2    O5 1893   0.335   3.690  14.499  0.3446 -0.1247 -0.1817
  121TMC2    H5 1894   0.419   3.722  14.460 -0.4409  1.0591 -0.9122
  122MPD2     C 1895   0.813   3.882  13.963  0.6759  0.6009 -0.3153
  122MPD2    C1 1896   0.717   3.812  13.887 -0.6146 -0.0864  0.1564
  122MPD2    C2 1897   0.738   3.810  13.747 -0.0271 -0.0483  0.3105
  122MPD2    C3 1898   0.857   3.856  13.689 -0.7662  0.6098 -0.0652
  122MPD2    C4 1899   0.960   3.899  13.770 -0.8973  0.7173 -0.8815
  122MPD2    C5 1900   0.927   3.916  13.898 -0.0056 -0.4031 -0.3413
  122MPD2     H 1901   0.662   3.760  13.688 -1.5681 -0.9214  3.0104
  122MPD2    H1 1902   1.055   3.933  13.731  0.2998 -1.9868 -0.3228
  122MPD2    H2 1903   0.801   3.890  14.070 -1.9674  1.1234 -0.6711
  122MPD2    H3 1904   1.003   3.968  13.955 -1.9526  3.9106 -1.7237
  122MPD2     N 1905   0.878   3.869  13.549  0.1987  0.3139  0.4357
  122MPD2    H5 1906   0.973   3.895  13.524 -0.3514 -0.9224 -2.9453
  122MPD2    N1 1907   0.605   3.757  13.941  0.6212 -0.0289  0.4983
  122MPD2    H7 1908   0.528   3.743  13.876  2.2714  1.4954 -1.7663
  123TMC2    C1 1909   3.503   2.511  10.651  0.4305  0.0037  0.3441
  123TMC2    C2 1910   3.519   2.616  10.737  0.1698 -0.5062  0.3275
  123TMC2    C3 1911   3.533   2.738  10.674 -0.3239 -0.4636 -0.2821
  123TMC2    C4 1912   3.525   2.511  10.517 -0.7949 -0.6416  0.3230
  123TMC2    C5 1913   3.543   2.631  10.457  0.1826  0.0961  0.6205
  123TMC2    C6 1914   3.541   2.746  10.530  0.1098 -0.6384 -1.1885
  123TMC2     C 1915   3.442   2.396  10.707  0.9238 -0.3211 -0.6055
  123TMC2     O 1916   3.486   2.359  10.814  0.0053  0.3322  0.2215
  123TMC2     H 1917   3.504   2.598  10.843  1.8802 -3.3667  0.0753
  123TMC2    H1 1918   3.522   2.418  10.462  3.0354  0.9456 -2.4927
  123TMC2    H2 1919   3.541   2.846  10.487 -1.0675  0.3761  1.1271
  123TMC2    C7 1920   3.533   2.631  10.306  0.0811  0.7188  0.1391
  123TMC2    C8 1921   3.540   2.863  10.744 -0.2911 -0.2292 -0.7544
  123TMC2    O1 1922   3.516   2.521  10.257 -0.0466  0.4687  0.5393
  123TMC2    O2 1923   3.474   2.964  10.712  0.3282  0.1324 -0.0971
  123TMC2    O5 1924   3.598   2.831  10.855  0.2220  0.1999  0.4688
  123TMC2    H5 1925   3.642   2.744  10.844 -0.7455 -0.4325  1.6547
  124MPD2     C 1926   3.127   1.997  10.634  0.1735 -0.8972 -0.0492
  124MPD2    C1 1927   3.103   2.090  10.533 -0.2856 -0.9083 -0.7196
  124MPD2    C2 1928   3.180   2.205  10.539 -0.0411  0.5675  0.3262
  124MPD2    C3 1929   3.277   2.231  10.630 -0.8123 -0.4309 -0.0902
  124MPD2    C4 1930   3.305   2.134  10.731  0.5074 -0.6817 -0.6613
  124MPD2    C5 1931   3.226   2.021  10.729  0.2645  1.1977 -0.7040
  124MPD2     H 1932   3.151   2.288  10.476 -2.5612 -0.8446 -0.3751
  124MPD2    H1 1933   3.385   2.152  10.803 -0.3810 -0.0607  0.1629
  124MPD2    H2 1934   3.072   1.905  10.652  0.1920 -0.7666  0.6680
  124MPD2    H3 1935   3.236   1.952  10.812  2.6655  1.3348 -0.8811
  124MPD2     N 1936   3.344   2.355  10.630 -0.3043  0.3495 -0.3984
  124MPD2    H5 1937   3.317   2.422  10.558 -0.7171  0.7871  0.1686
  124MPD2    N1 1938   3.012   2.064  10.422  1.2777 -0.5812 -0.0550
  124MPD2    H7 1939   2.949   1.986  10.433 -0.2464  0.6943  0.2009
  125TMC2    C1 1940   4.255   3.111   9.388  0.0827 -0.8101 -0.3116
  125TMC2    C2 1941   4.266   2.978   9.428  0.1298 -0.3054 -1.0154
  125TMC2    C3 1942   4.365   2.945   9.512 -1.0639  0.0801  0.3303
  125TMC2    C4 1943   4.350   3.202   9.430 -0.0386 -0.5155 -0.1043
  125TMC2    C5 1944   4.438   3.159   9.524  0.0239 -0.5685 -0.6448
  125TMC2    C6 1945   4.451   3.030   9.566  0.9642 -0.6403  0.0344
  125TMC2     C 1946   4.168   3.137   9.279 -0.5144  0.1986  0.0156
  125TMC2     O 1947   4.131   3.038   9.221  0.2907  0.7545 -0.2652
  125TMC2     H 1948   4.197   2.897   9.403  1.2314 -1.1254 -1.4083
  125TMC2    H1 1949   4.379   3.290   9.374 -0.2988 -0.9973 -0.9928
  125TMC2    H2 1950   4.529   3.004   9.636  0.8571  1.3689  0.8867
  125TMC2    C7 1951   4.534   3.259   9.585  0.5967  0.4126  0.0346
  125TMC2    C8 1952   4.343   2.821   9.570 -0.6049  0.0780 -0.0631
  125TMC2    O1 1953   4.623   3.210   9.655  0.6794  0.0553  0.6272
  125TMC2    O2 1954   4.329   2.818   9.692  0.0202 -0.1334 -0.6375
  125TMC2    O5 1955   4.431   2.744   9.500 -0.2128 -0.0245  0.5393
  125TMC2    H5 1956   4.441   2.779   9.409  1.1821  2.0465  1.5129
  126MPD1     C 1957   3.918   3.457   8.974 -0.2676  0.9906  0.5091
  126MPD1    C1 1958   3.982   3.536   9.070 -0.0427  0.0765  0.4133
  126MPD1    C2 1959   4.063   3.470   9.162 -0.2360  0.1434 -0.6883
  126MPD1    C3 1960   4.074   3.329   9.157  0.4077 -0.2636 -0.8740
  126MPD1    C4 1961   4.019   3.256   9.060  0.1589 -0.4261  0.1791
  126MPD1    C5 1962   3.940   3.319   8.971 -0.0908 -0.1751  0.2637
  126MPD1     H 1963   4.108   3.529   9.241 -0.6925  0.4732 -0.6773
  126MPD1    H1 1964   4.018   3.148   9.054 -0.1122 -0.4069 -0.1558
  126MPD1    H2 1965   3.842   3.500   8.910  1.5050  1.5997 -1.1889
  126MPD1    H3 1966   3.880   3.264   8.899  0.1557  0.1496 -0.1897
  126MPD1     N 1967   4.160   3.269   9.250 -0.0657  0.2588 -0.3544
  126MPD1    H5 1968   4.209   3.330   9.315 -0.3057  0.1444 -0.0654
  126MPD1    N1 1969   3.979   3.679   9.064  0.3239 -0.2209 -0.2948
  126MPD1    H6 1970   3.985   3.717   9.158 -0.1979 -1.5666  0.2703
  126MPD1    H7 1971   3.894   3.717   9.022  0.4355 -0.6669 -0.9357
  127TMC2    C1 1972   0.652   2.799   9.154  0.2571 -1.0378 -0.2878
  127TMC2    C2 1973   0.770   2.754   9.198 -0.2522 -0.2704  0.6671
  127TMC2    C3 1974   0.778   2.619   9.238  0.4473  0.0095  0.7091
  127TMC2    C4 1975   0.547   2.711   9.140  0.2399 -0.5657  0.1448
  127TMC2    C5 1976   0.555   2.583   9.183 -0.2503  0.1866  0.3627
  127TMC2    C6 1977   0.672   2.537   9.235  0.6370 -0.1589 -0.3698
  127TMC2     C 1978   0.630   2.942   9.138 -0.4248 -0.9633  0.0756
  127TMC2     O 1979   0.695   3.015   9.215 -0.3546  0.1823 -0.2475
  127TMC2     H 1980   0.860   2.812   9.218 -0.7180  0.4992  0.4962
  127TMC2    H1 1981   0.446   2.735   9.110 -0.3418 -1.0806  1.7348
  127TMC2    H2 1982   0.681   2.430   9.247  1.4397 -0.2377 -1.7296
  127TMC2    C7 1983   0.442   2.497   9.172 -0.2505 -0.4041 -0.3215
  127TMC2    C8 1984   0.900   2.578   9.303  0.5268 -0.0180  0.2267
  127TMC2    O1 1985   0.353   2.527   9.092  0.0342  0.1697 -0.2465
  127TMC2    O2 1986   0.996   2.656   9.300 -0.0244  0.3649 -0.4643
  127TMC2    O5 1987   0.861   2.515   9.418  0.0324 -0.5308 -0.0531
  127TMC2    H5 1988   0.766   2.493   9.414 -0.0208 -0.2769 -0.1899
  128MPD2     C 1989   0.346   3.111   8.999 -0.2514 -0.0139  0.4032
  128MPD2    C1 1990   0.468   3.102   9.049  0.1410 -0.2962  0.2928
  128MPD2    C2 1991   0.533   3.211   9.105 -0.7899 -0.3688 -0.0746
  128MPD2    C3 1992   0.477   3.339   9.095  1.0070  0.0809 -0.8866
  128MPD2    C4 1993   0.341   3.352   9.057  0.0495 -0.6466  0.3575
  128MPD2    C5 1994   0.287   3.237   9.006 -0.4599 -0.0582 -0.4045
  128MPD2     H 1995   0.637   3.207   9.135 -0.3898  1.4681 -1.1862
  128MPD2    H1 1996   0.283   3.441   9.037  0.8950 -0.0449  0.5885
  128MPD2    H2 1997   0.297   3.030   8.945 -0.3506  0.9659 -0.9811
  128MPD2    H3 1998   0.186   3.239   8.966 -0.1524 -0.6859 -1.2033
  128MPD2     N 1999   0.552   3.450   9.134 -0.2193  0.0273 -0.0498
  128MPD2    H5 2000   0.645   3.427   9.167 -0.8776 -2.0301  0.3880
  128MPD2    N1 2001   0.524   2.972   9.061  0.4760  0.5503 -0.7806
  128MPD2    H7 2002   0.476   2.886   9.037  1.9053 -0.6168  0.5173
  129TMC2    C1 2003   3.826   3.452   0.918 -1.1434  0.4439 -0.0025
  129TMC2    C2 2004   3.792   3.548   0.828 -0.5381 -0.2739 -0.9519
  129TMC2    C3 2005   3.667   3.531   0.778 -0.4087  0.3344 -0.1928
  129TMC2    C4 2006   3.759   3.342   0.944 -0.3868  0.4767  1.3288
  129TMC2    C5 2007   3.639   3.329   0.880  0.2799  0.6654  0.3513
  129TMC2    C6 2008   3.593   3.422   0.795 -0.1563 -0.5207  0.4918
  129TMC2     C 2009   3.951   3.469   0.994 -0.1254 -0.2956 -0.4836
  129TMC2     O 2010   4.010   3.369   1.034 -0.0315  0.2310 -0.1276
  129TMC2     H 2011   3.851   3.639   0.822 -0.0946 -0.6306 -2.1638
  129TMC2    H1 2012   3.788   3.262   1.012 -0.8776 -0.8079  0.0327
  129TMC2    H2 2013   3.494   3.410   0.752  0.5328 -0.7525 -1.0562
  129TMC2    C7 2014   3.550   3.227   0.921  0.4031 -0.5090  0.0920
  129TMC2    C8 2015   3.610   3.637   0.704 -0.2943 -0.3274  0.1361
  129TMC2    O1 2016   3.439   3.268   0.904 -0.0908  0.5238 -0.6042
  129TMC2    O2 2017   3.669   3.676   0.604 -0.8042 -0.3380 -0.2194
  129TMC2    O5 2018   3.531   3.712   0.788 -0.1923 -0.2104 -0.0109
  129TMC2    H5 2019   3.503   3.675   0.874  1.4944  0.4820  0.8530
  130MPD2     C 2020   4.190   3.574   1.146  0.4358 -0.0169  0.9075
  130MPD2    C1 2021   4.100   3.650   1.077 -0.5825 -0.2635  0.3575
  130MPD2    C2 2022   4.117   3.785   1.082  0.7405 -0.2233 -0.5474
  130MPD2    C3 2023   4.223   3.845   1.148  0.2023  0.0379 -0.5702
  130MPD2    C4 2024   4.314   3.764   1.217 -0.0568 -0.5732  0.1099
  130MPD2    C5 2025   4.295   3.629   1.218  0.2419 -0.5480  0.2572
  130MPD2     H 2026   4.046   3.849   1.031  2.8246  1.3533 -1.4760
  130MPD2    H1 2027   4.398   3.804   1.273  1.2832 -0.8444 -1.6967
  130MPD2    H2 2028   4.185   3.466   1.138 -0.9746  0.1510 -0.4038
  130MPD2    H3 2029   4.355   3.563   1.280 -0.2958 -0.0571  1.3102
  130MPD2     N 2030   4.230   3.983   1.141  0.3692 -0.3805 -0.0439
  130MPD2    H5 2031   4.153   4.031   1.095 -0.6365 -0.0561  1.9345
  130MPD2    N1 2032   3.982   3.602   1.013  0.0768 -0.1221  0.7011
  130MPD2    H7 2033   3.924   3.672   0.968  0.9404  1.3077  1.7721
  131TMC2    C1 2034   3.056   2.993   9.862  0.2220  0.5291  0.8260
  131TMC2    C2 2035   3.162   3.032   9.947  0.0758  0.3072  0.0619
  131TMC2    C3 2036   3.170   3.162   9.993 -0.1217 -0.2050  0.4430
  131TMC2    C4 2037   2.950   3.083   9.836  0.1508  0.7160 -0.3847
  131TMC2    C5 2038   2.971   3.213   9.882  0.8378  0.1288  0.3588
  131TMC2    C6 2039   3.072   3.253   9.965 -0.5423  0.0320 -1.2779
  131TMC2     C 2040   3.022   2.851   9.864 -0.3163 -1.2930  0.1837
  131TMC2     O 2041   3.070   2.778   9.947 -0.0008 -1.3126 -0.3977
  131TMC2     H 2042   3.243   2.965   9.973 -1.4510 -1.4216  0.3827
  131TMC2    H1 2043   2.857   3.055   9.789  0.0088 -1.5636  1.2772
  131TMC2    H2 2044   3.082   3.348  10.017 -2.2841 -0.4713 -0.0178
  131TMC2    C7 2045   2.869   3.321   9.851  0.3158  0.1171 -0.1002
  131TMC2    C8 2046   3.277   3.179  10.095 -0.1324  0.0464 -0.0599
  131TMC2    O1 2047   2.760   3.286   9.808 -0.7119 -0.3336 -0.0389
  131TMC2    O2 2048   3.343   3.086  10.144 -0.5934  0.2956  0.3838
  131TMC2    O5 2049   3.283   3.308  10.129 -0.8422 -0.1968  0.4417
  131TMC2    H5 2050   3.258   3.371  10.059 -0.2060  0.5149  0.8463
  132MPD2     C 2051   2.748   2.703   9.656 -0.6498  0.7867 -0.2176
  132MPD2    C1 2052   2.847   2.702   9.753  0.8779 -0.3060  0.5088
  132MPD2    C2 2053   2.860   2.598   9.832  0.7903  0.1272 -0.3925
  132MPD2    C3 2054   2.774   2.491   9.820 -0.4104 -0.1437  0.0651
  132MPD2    C4 2055   2.681   2.484   9.719 -0.2915 -0.1701 -0.1180
  132MPD2    C5 2056   2.661   2.596   9.642 -0.2111 -0.2841  0.7505
  132MPD2     H 2057   2.940   2.597   9.906  1.4942  0.6903 -1.1482
  132MPD2    H1 2058   2.602   2.409   9.714  2.3579 -2.9311 -0.5195
  132MPD2    H2 2059   2.744   2.784   9.585  0.6938  0.9856 -0.0600
  132MPD2    H3 2060   2.574   2.599   9.577  1.7665  4.7493 -1.6108
  132MPD2     N 2061   2.787   2.385   9.917  0.2732  0.2576 -0.3881
  132MPD2    H5 2062   2.855   2.406   9.989 -1.2275 -1.7095  1.6198
  132MPD2    N1 2063   2.930   2.821   9.764  0.0316 -0.1133 -0.0736
  132MPD2    H7 2064   2.908   2.901   9.705  0.4395  0.1745  0.1646
  133TMC2    C1 2065   1.989   4.244   9.822  0.1711 -0.1222 -0.1853
  133TMC2    C2 2066   2.111   4.231   9.885 -0.4216  0.2108  0.0782
  133TMC2    C3 2067   2.174   4.344   9.926  0.7282  1.0197  0.6358
  133TMC2    C4 2068   1.928   4.366   9.790 -0.1483 -0.7017 -0.6160
  133TMC2    C5 2069   2.008   4.481   9.817  0.4205  0.4666  0.7917
  133TMC2    C6 2070   2.124   4.468   9.900 -0.2712  0.2115  0.3151
  133TMC2     C 2071   1.937   4.123   9.761  0.4246 -0.5213 -0.9730
  133TMC2     O 2072   2.009   4.028   9.737 -0.1997 -0.1796  0.3525
  133TMC2     H 2073   2.148   4.129   9.892  1.7640  1.0040  0.1183
  133TMC2    H1 2074   1.833   4.377   9.739  0.8983 -0.2296 -2.4949
  133TMC2    H2 2075   2.153   4.564   9.941  0.7378  0.8556 -1.9464
  133TMC2    C7 2076   1.961   4.611   9.791 -0.0537  0.4648  0.3491
  133TMC2    C8 2077   2.297   4.327   9.999  0.0594  0.0638 -0.0402
  133TMC2    O1 2078   2.021   4.702   9.838  0.2325  0.2588 -0.2454
  133TMC2    O2 2079   2.319   4.235  10.078  0.0890  0.3353 -0.1602
  133TMC2    O5 2080   2.354   4.450  10.006  0.9918  0.4929  0.0027
  133TMC2    H5 2081   2.327   4.509   9.932 -0.6985  1.1938  1.1869
  134MPD2     C 2082   1.585   4.040   9.720 -0.4803  0.4017 -0.5427
  134MPD2    C1 2083   1.719   4.028   9.695  0.4779  0.3647  0.2780
  134MPD2    C2 2084   1.770   3.917   9.625 -0.4868  0.1081  0.8042
  134MPD2    C3 2085   1.681   3.819   9.583  0.4442 -0.8973  0.3468
  134MPD2    C4 2086   1.548   3.835   9.609 -0.1168 -0.4321  0.6044
  134MPD2    C5 2087   1.499   3.940   9.681  0.5385  0.2139  1.0094
  134MPD2     H 2088   1.876   3.911   9.603 -0.1396  1.0740  2.1933
  134MPD2    H1 2089   1.473   3.762   9.583 -1.6150  0.9700  1.0226
  134MPD2    H2 2090   1.551   4.120   9.785 -0.0066  0.4310 -0.3298
  134MPD2    H3 2091   1.400   3.939   9.725  1.7803  1.0935  3.8042
  134MPD2     N 2092   1.729   3.710   9.504  0.2616  0.2374 -0.2473
  134MPD2    H5 2093   1.660   3.643   9.471 -2.8871  3.6281 -0.4826
  134MPD2    N1 2094   1.802   4.135   9.751 -0.3154 -0.6318  0.8215
  134MPD2    H7 2095   1.752   4.214   9.792  0.1599 -0.8970  1.9015
  135TMC2    C1 2096   4.655   0.250  10.077  0.3328  0.5540  0.0515
  135TMC2    C2 2097   4.710   0.132  10.041  0.2704 -0.2752  0.5381
  135TMC2    C3 2098   4.670   0.023  10.111 -0.6016  0.6558 -0.4880
  135TMC2    C4 2099   4.551   0.259  10.169 -0.2087 -0.2333  0.7645
  135TMC2    C5 2100   4.512   0.146  10.231  0.1609  0.2377  0.4497
  135TMC2    C6 2101   4.584   0.029  10.217  0.3725 -0.0069  0.7232
  135TMC2     C 2102   4.640   0.360   9.978  0.0300  0.1244  0.5653
  135TMC2     O 2103   4.596   0.467  10.016 -0.5675  0.1622 -0.1917
  135TMC2     H 2104   0.046   0.127   9.960  0.0238 -0.1268  0.3148
  135TMC2    H1 2105   4.501   0.355  10.173 -2.1244 -1.0935 -2.8702
  135TMC2    H2 2106   4.568   4.673  10.275 -3.0746 -0.1544 -0.4794
  135TMC2    C7 2107   4.384   0.161  10.302 -0.2925  0.2250 -0.2918
  135TMC2    C8 2108   4.728   4.621  10.091 -0.0410 -0.4611 -0.2378
  135TMC2    O1 2109   4.327   0.271  10.310  0.5210 -0.7030 -0.0571
  135TMC2    O2 2110   0.016   4.555  10.189 -0.4286 -0.3082  0.0360
  135TMC2    O5 2111   0.066   4.634   9.974 -0.2700 -0.3091 -0.6262
  135TMC2    H5 2112   0.014   4.684   9.907 -1.4527 -2.1290 -1.0577
  136MPD2     C 2113   4.662   0.538   9.739  0.5317 -0.3694 -0.0475
  136MPD2    C1 2114   4.704   0.407   9.747  0.5223 -0.2293  1.0163
  136MPD2    C2 2115   0.033   0.350   9.629 -0.5221  0.0475 -0.1804
  136MPD2    C3 2116   0.063   0.428   9.520  0.8143 -0.6287 -0.3307
  136MPD2    C4 2117   0.025   0.559   9.516 -0.6847  0.1098  0.1513
  136MPD2    C5 2118   4.692   0.613   9.629 -0.2973  0.5242 -0.5983
  136MPD2     H 2119   0.067   0.247   9.635 -1.0562 -0.0222  1.6498
  136MPD2    H1 2120   0.036   0.630   9.435  1.0651  0.6018  0.8240
  136MPD2    H2 2121   4.613   0.593   9.818  1.2536  1.1179 -0.6319
  136MPD2    H3 2122   4.664   0.716   9.608  1.0925  0.8521 -0.8729
  136MPD2     N 2123   0.135   0.382   9.410 -0.1558 -0.2659  0.2936
  136MPD2    H5 2124   0.137   0.449   9.333 -1.1216 -2.2694 -1.4765
  136MPD2    N1 2125   4.680   0.318   9.855 -0.3747 -0.0756 -0.1408
  136MPD2    H7 2126   4.710   0.222   9.841  0.1594 -0.0303  0.6824
  137TMC2    C1 2127   3.806   3.431   9.416 -0.3010  0.5668  0.1749
  137TMC2    C2 2128   3.774   3.316   9.348  0.1275 -0.2953  0.0061
  137TMC2    C3 2129   3.689   3.325   9.250  0.7233  0.8080 -0.2119
  137TMC2    C4 2130   3.748   3.556   9.379  0.5474 -0.3959  0.2526
  137TMC2    C5 2131   3.674   3.554   9.262  0.2677 -0.1893 -0.2319
  137TMC2    C6 2132   3.639   3.440   9.195 -0.0095  0.0022  0.1684
  137TMC2     C 2133   3.898   3.438   9.531  1.0902 -0.5732  0.4616
  137TMC2     O 2134   3.908   3.545   9.591  0.8740  0.3269 -0.1017
  137TMC2     H 2135   3.807   3.220   9.386  1.2839 -0.4010 -1.2875
  137TMC2    H1 2136   3.775   3.647   9.431 -0.3833 -0.2647  0.5158
  137TMC2    H2 2137   3.574   3.443   9.108 -0.2153  3.3505  0.4447
  137TMC2    C7 2138   3.584   3.666   9.250  0.2413 -0.1461 -0.0821
  137TMC2    C8 2139   3.655   3.196   9.193 -0.3221 -0.2402 -0.5825
  137TMC2    O1 2140   3.502   3.654   9.160 -0.4338  0.1999  0.3836
  137TMC2    O2 2141   3.709   3.088   9.205 -0.0519  0.2779  0.0017
  137TMC2    O5 2142   3.537   3.199   9.119  0.0901  0.5927 -0.2519
  137TMC2    H5 2143   3.496   3.286   9.136  0.3711  0.2827  2.0162
  138MPD2     C 2144   4.066   3.147   9.681  0.2599  0.7150 -0.1164
  138MPD2    C1 2145   4.045   3.284   9.654 -0.4001 -0.3907 -0.6530
  138MPD2    C2 2146   4.126   3.375   9.709 -0.7011 -0.4752  0.0479
  138MPD2    C3 2147   4.229   3.345   9.794 -0.3297 -0.8477 -0.4421
  138MPD2    C4 2148   4.246   3.210   9.819  0.1416  0.1421 -0.4905
  138MPD2    C5 2149   4.169   3.114   9.766  0.9788  0.5314  0.4436
  138MPD2     H 2150   4.109   3.480   9.687 -0.6593 -0.8223 -1.7156
  138MPD2    H1 2151   4.330   3.179   9.879 -1.1433 -0.7337  0.8527
  138MPD2    H2 2152   4.015   3.062   9.637  0.3311  1.7922 -2.2393
  138MPD2    H3 2153   4.197   3.013   9.792  0.5174  1.0295  2.8784
  138MPD2     N 2154   4.299   3.452   9.853 -0.5833 -0.4562  0.2844
  138MPD2    H5 2155   4.270   3.546   9.826  0.0176  0.2939  2.2695
  138MPD2    N1 2156   3.941   3.314   9.567 -0.1747  0.3867  0.3260
  138MPD2    H7 2157   3.893   3.235   9.526 -2.6947  0.9444  2.1924
  139TMC2    C1 2158   0.367   1.593  13.109 -0.1476  0.0941  0.5198
  139TMC2    C2 2159   0.332   1.578  12.978  0.5997 -0.0252 -0.0935
  139TMC2    C3 2160   0.222   1.646  12.941 -0.2882  0.5141 -0.0146
  139TMC2    C4 2161   0.297   1.668  13.200  0.6203  0.0412  0.3183
  139TMC2    C5 2162   0.187   1.732  13.151 -0.5604  0.0558  0.0418
  139TMC2    C6 2163   0.144   1.722  13.026 -0.0410 -0.1904  0.3038
  139TMC2     C 2164   0.490   1.526  13.143 -0.2102  0.1631 -0.2561
  139TMC2     O 2165   0.548   1.467  13.057 -0.4707  0.5338 -0.5074
  139TMC2     H 2166   0.391   1.525  12.905  1.2513 -0.3467  0.6562
  139TMC2    H1 2167   0.326   1.690  13.302  0.8600  1.0934  0.0234
  139TMC2    H2 2168   0.053   1.772  12.994 -0.1875  0.3173  1.4848
  139TMC2    C7 2169   0.115   1.838  13.230  0.4980 -0.2113 -0.3551
  139TMC2    C8 2170   0.205   1.688  12.802 -0.7586  0.4553  0.9862
  139TMC2    O1 2171   0.020   1.886  13.168  0.2520 -0.3070 -0.5518
  139TMC2    O2 2172   0.142   1.795  12.785 -0.2597  0.0306 -0.1299
  139TMC2    O5 2173   0.179   1.575  12.732  0.4174 -0.1378  0.2013
  139TMC2    H5 2174   0.219   1.495  12.772  0.4366 -1.2796 -2.1007
  140MPD2     C 2175   0.618   1.507  13.490 -0.3180  0.0042  0.2708
  140MPD2    C1 2176   0.620   1.492  13.353 -0.1956  0.1948 -0.1603
  140MPD2    C2 2177   0.706   1.393  13.302  0.4634 -0.2930  0.1357
  140MPD2    C3 2178   0.763   1.304  13.388  0.3266  0.5367 -0.1800
  140MPD2    C4 2179   0.764   1.318  13.521  0.6629 -0.3657 -1.1464
  140MPD2    C5 2180   0.689   1.415  13.570  0.2045 -0.2247 -0.0094
  140MPD2     H 2181   0.729   1.388  13.196  1.1311  3.1362  0.1125
  140MPD2    H1 2182   0.818   1.249  13.584  1.7509  3.2298  1.8606
  140MPD2    H2 2183   0.557   1.570  13.553  0.1393 -0.5278  1.2372
  140MPD2    H3 2184   0.687   1.424  13.678  0.7609  2.2484 -0.1891
  140MPD2     N 2185   0.844   1.206  13.330  0.0790 -0.3190  0.1560
  140MPD2    H5 2186   0.859   1.219  13.231 -3.1986 -0.3971 -0.3465
  140MPD2    N1 2187   0.533   1.566  13.269  0.4180 -0.0907 -0.2830
  140MPD2    H7 2188   0.510   1.652  13.318  0.1740 -1.5188  2.0747
  141TMC2    C1 2189   1.166   3.624  13.809  0.2149 -1.0297  0.5967
  141TMC2    C2 2190   1.261   3.686  13.740  0.1279  0.2523  0.0745
  141TMC2    C3 2191   1.332   3.785  13.802  1.0406  0.4544 -0.6506
  141TMC2    C4 2192   1.140   3.647  13.938  0.3445  0.2994  0.4407
  141TMC2    C5 2193   1.217   3.743  13.997 -0.0325 -0.2034 -0.1427
  141TMC2    C6 2194   1.314   3.816  13.930 -0.0920  0.1449  0.7299
  141TMC2     C 2195   1.069   3.551  13.735 -0.0247 -0.0453  0.1776
  141TMC2     O 2196   1.065   3.591  13.620  0.3555 -0.6422  0.2106
  141TMC2     H 2197   1.259   3.676  13.632 -2.1361 -1.0612  0.2331
  141TMC2    H1 2198   1.049   3.609  13.983 -0.2514  1.9113  0.5963
  141TMC2    H2 2199   1.370   3.889  13.988  0.3202 -1.3423  2.2192
  141TMC2    C7 2200   1.200   3.756  14.144 -0.1632 -0.4284  0.6933
  141TMC2    C8 2201   1.426   3.855  13.720  0.2422 -0.2691 -0.3156
  141TMC2    O1 2202   1.088   3.738  14.188  0.0339  0.6400  0.1779
  141TMC2    O2 2203   1.421   3.844  13.599 -0.0427 -0.3075 -0.2814
  141TMC2    O5 2204   1.516   3.916  13.794 -0.5664 -0.2166 -0.1911
  141TMC2    H5 2205   1.511   3.909  13.892  1.6953 -0.4460 -0.0881
  142TMC2    C1 2206   3.087   2.226   9.754  0.4724  1.1662 -0.0258
  142TMC2    C2 2207   3.027   2.278   9.644 -1.1143  0.2192  0.4629
  142TMC2    C3 2208   3.051   2.407   9.612  0.3928  0.7002  0.4402
  142TMC2    C4 2209   3.155   2.299   9.839  0.4999 -0.8884 -0.2018
  142TMC2    C5 2210   3.173   2.432   9.816  0.7927  0.1387  0.1360
  142TMC2    C6 2211   3.125   2.485   9.705 -0.2256 -0.5479  0.4994
  142TMC2     C 2212   3.043   2.097   9.800  0.2184 -0.9787  0.7733
  142TMC2     O 2213   2.939   2.064   9.749  0.3710  0.1278  0.3109
  142TMC2     H 2214   2.965   2.212   9.585 -2.6568 -0.4102  2.7794
  142TMC2    H1 2215   3.186   2.257   9.933  0.8321  0.0111  0.0954
  142TMC2    H2 2216   3.139   2.592   9.699 -2.0409 -0.3518 -0.2090
  142TMC2    C7 2217   3.268   2.505   9.907  0.6319  0.1517  0.3963
  142TMC2    C8 2218   2.990   2.468   9.495  0.3440  0.2592  0.2534
  142TMC2    O1 2219   3.305   2.437  10.007 -0.6684 -0.3224 -0.2319
  142TMC2    O2 2220   2.884   2.439   9.444 -0.2173  0.2993 -0.3214
  142TMC2    O5 2221   3.093   2.525   9.427  0.0156 -0.4627 -0.4135
  142TMC2    H5 2222   3.181   2.542   9.467  0.2621 -0.3501 -1.0033
  143MPD2     C 2223   3.025   1.712  10.135  1.0414  0.7451  0.1294
  143MPD2    C1 2224   2.940   1.749  10.036 -0.6482 -0.1405 -0.0608
  143MPD2    C2 2225   2.970   1.860   9.957 -1.0111 -0.3095  0.1626
  143MPD2    C3 2226   3.088   1.931   9.976  0.4943  0.2158  0.7338
  143MPD2    C4 2227   3.187   1.879  10.066  0.3786  0.5927  0.4544
  143MPD2    C5 2228   3.145   1.780  10.153 -0.5634 -0.0848  0.1402
  143MPD2     H 2229   2.898   1.896   9.885 -0.9125  1.5201  0.9756
  143MPD2    H1 2230   3.278   1.935  10.085  0.9795 -0.2939  0.1803
  143MPD2    H2 2231   2.998   1.648  10.218  2.2867 -1.0712 -0.8634
  143MPD2    H3 2232   3.211   1.761  10.236 -0.6381  2.4429  0.8023
  143MPD2     N 2233   3.126   2.044   9.892  0.4825 -0.4483 -0.3628
  143MPD2    H5 2234   3.207   2.104   9.902  0.5426 -0.4963 -0.5692
  143MPD2    N1 2235   2.823   1.680  10.028  0.2672 -0.2910 -0.5015
  143MPD2    H7 2236   2.811   1.597  10.085  0.7334 -1.4723 -2.1221
  144TMC2    C1 2237   1.966   0.696   0.849 -0.0639  0.1624  0.3420
  144TMC2    C2 2238   2.044   0.584   0.849  0.2264  0.2668 -0.5117
  144TMC2    C3 2239   2.170   0.595   0.899 -0.1008  0.0684  0.1622
  144TMC2    C4 2240   2.015   0.814   0.894  0.4014 -0.1991  0.3914
  144TMC2    C5 2241   2.135   0.812   0.960 -0.1621  0.2131  0.0418
  144TMC2    C6 2242   2.218   0.706   0.954 -1.2630  0.0680 -0.1636
  144TMC2     C 2243   1.852   0.689   0.760  0.3016  0.0929 -0.5253
  144TMC2     O 2244   1.824   0.584   0.708 -0.2063 -0.5349  0.6010
  144TMC2     H 2245   2.012   0.491   0.802 -2.1014 -0.0979  1.7602
  144TMC2    H1 2246   1.949   0.900   0.899  1.3287  0.6023 -1.6388
  144TMC2    H2 2247   2.308   0.704   1.015 -1.5334  1.1575  0.2660
  144TMC2    C7 2248   2.171   0.935   1.028  0.0089  0.6898  0.3744
  144TMC2    C8 2249   2.252   0.478   0.885 -0.2207  0.3152 -0.2529
  144TMC2    O1 2250   2.083   1.018   1.024  0.3029 -0.2998 -0.7094
  144TMC2    O2 2251   2.207   0.371   0.852  0.0584 -0.0472  0.1668
  144TMC2    O5 2252   2.384   0.498   0.908  0.2921  0.0155  0.3789
  144TMC2    H5 2253   2.400   0.593   0.925 -0.7795  0.2457  0.1101
  145MPD2     C 2254   1.518   0.917   0.435 -0.0389  0.7990  0.1827
  145MPD2    C1 2255   1.535   0.786   0.464  0.6159 -0.2874  0.4652
  145MPD2    C2 2256   1.630   0.753   0.561 -0.0413  0.4644  0.5882
  145MPD2    C3 2257   1.709   0.847   0.623  0.5224  0.1892 -0.0240
  145MPD2    C4 2258   1.689   0.977   0.586  0.7058 -0.8254  0.0619
  145MPD2    C5 2259   1.589   1.014   0.499  0.6021 -0.8581 -0.1392
  145MPD2     H 2260   1.661   0.650   0.559 -0.3134  0.3738  1.1989
  145MPD2    H1 2261   1.754   1.051   0.631  2.1879 -0.1848 -3.1594
  145MPD2    H2 2262   1.456   0.952   0.353 -0.2980  0.3367  0.1781
  145MPD2    H3 2263   1.569   1.116   0.470  1.7886 -1.0468 -1.6133
  145MPD2     N 2264   1.818   0.818   0.713 -0.6262  0.6297  0.4083
  145MPD2    H5 2265   1.857   0.903   0.752 -1.1740  1.4578 -0.8604
  145MPD2    N1 2266   1.461   0.682   0.384 -0.3658 -0.0176  0.3700
  145MPD2    H7 2267   1.459   0.595   0.437 -0.9829 -0.2241  0.0150
  146TMC2    C1 2268   2.989   4.223  12.347 -0.3140  0.0713 -1.0044
  146TMC2    C2 2269   2.911   4.211  12.236 -0.7507 -0.2474  0.8032
  146TMC2    C3 2270   2.963   4.140  12.134  0.3866 -0.2231 -0.1793
  146TMC2    C4 2271   3.102   4.150  12.367  0.4968 -0.2243  0.7906
  146TMC2    C5 2272   3.148   4.065  12.261  0.3703 -0.1402  0.2646
  146TMC2    C6 2273   3.079   4.065  12.146 -0.1649  0.3924  0.4712
  146TMC2     C 2274   2.943   4.322  12.450 -0.3760 -0.2261 -0.1077
  146TMC2     O 2275   2.839   4.381  12.423 -0.0208  0.2280 -0.1884
  146TMC2     H 2276   2.823   4.273  12.223 -0.2778  0.0673 -0.8431
  146TMC2    H1 2277   3.171   4.166  12.449  0.9875 -2.0845  0.7382
  146TMC2    H2 2278   3.125   4.019  12.059 -1.1975  0.2911 -0.0221
  146TMC2    C7 2279   3.280   3.998  12.273  0.4008  0.6506  0.0670
  146TMC2    C8 2280   2.914   4.164  12.005  0.1185 -0.5990 -0.2138
  146TMC2    O1 2281   3.356   4.003  12.180  0.5007 -0.2464  0.7472
  146TMC2    O2 2282   2.910   4.075  11.921  0.2396 -0.3331  0.4349
  146TMC2    O5 2283   2.974   4.277  11.976 -0.4693  0.2959 -0.6067
  146TMC2    H5 2284   2.969   4.347  12.044  2.3823 -0.3629  0.3004
  147MPD2     C 2285   3.574   3.683  12.533  0.1076  0.2458 -0.0288
  147MPD2    C1 2286   3.467   3.708  12.604 -0.2042  0.1529 -0.2738
  147MPD2    C2 2287   3.373   3.794  12.556  0.0535  0.3056 -0.4698
  147MPD2    C3 2288   3.377   3.840  12.425 -0.4421 -0.2563  0.9187
  147MPD2    C4 2289   3.491   3.814  12.359  0.1146  0.2271 -0.2977
  147MPD2    C5 2290   3.594   3.743  12.413 -1.0312  0.1465  0.5986
  147MPD2     H 2291   3.282   3.819  12.610 -0.6444  0.0480 -1.5095
  147MPD2    H1 2292   3.501   3.852  12.257 -1.0004  0.7022 -0.2328
  147MPD2    H2 2293   3.647   3.615  12.575  0.0880 -1.2729 -2.4497
  147MPD2    H3 2294   3.681   3.720  12.353 -2.6060  0.7430 -1.9093
  147MPD2     N 2295   3.278   3.931  12.385  0.4868  0.5430  0.1601
  147MPD2    H5 2296   3.193   3.940  12.439 -1.1991 -1.9307 -2.0937
  147MPD2    N1 2297   3.442   3.620  12.710  0.0298  0.6058  0.1539
  147MPD2    H7 2298   3.524   3.562  12.724 -1.0562 -0.9866 -0.1466
  148TMC2    C1 2299   3.312   3.316  11.010  0.3439  0.2161 -1.3422
  148TMC2    C2 2300   3.441   3.355  11.012  0.0046  0.4143  0.0813
  148TMC2    C3 2301   3.536   3.265  11.053 -0.1188  0.7511 -0.5980
  148TMC2    C4 2302   3.277   3.190  11.030  0.3341 -0.3260 -0.9361
  148TMC2    C5 2303   3.371   3.102  11.081  0.8922 -0.0712  0.2949
  148TMC2    C6 2304   3.502   3.137  11.093 -0.2945 -0.2097  0.0637
  148TMC2     C 2305   3.209   3.388  10.932  0.0003  0.3898 -0.2736
  148TMC2     O 2306   3.194   3.507  10.949 -0.3835  0.4499  0.0780
  148TMC2     H 2307   3.463   3.459  10.991  0.0439  0.5941  1.0271
  148TMC2    H1 2308   3.173   3.163  11.037  0.4867 -0.5462  0.5300
  148TMC2    H2 2309   3.572   3.065  11.134  0.3129  0.1106 -0.4143
  148TMC2    C7 2310   3.331   2.959  11.060 -0.3124 -0.1571 -0.0844
  148TMC2    C8 2311   3.657   3.316  11.119 -0.3923  0.8894  0.4064
  148TMC2    O1 2312   3.236   2.942  10.986  0.4350 -0.1569  0.6001
  148TMC2    O2 2313   3.680   3.435  11.145  0.1477  0.2091 -0.5356
  148TMC2    O5 2314   3.759   3.226  11.091 -0.4723  0.2594  0.4226
  148TMC2    H5 2315   3.742   3.164  11.017  1.1152  0.0700  0.2097
  149MPD2     C 2316   2.977   3.458  10.741 -0.2468  0.4396 -0.1885
  149MPD2    C1 2317   3.024   3.332  10.774 -0.7698 -0.2174  0.1409
  149MPD2    C2 2318   2.968   3.218  10.724 -0.7386  1.0891  0.1438
  149MPD2    C3 2319   2.849   3.226  10.651 -0.2146  0.1868  1.1713
  149MPD2    C4 2320   2.802   3.351  10.615  0.1066 -0.9369  0.2947
  149MPD2    C5 2321   2.870   3.466  10.662  0.1685  0.0402 -0.0693
  149MPD2     H 2322   3.001   3.120  10.756  0.4887  1.4403 -0.0550
  149MPD2    H1 2323   2.725   3.363  10.540 -0.9754  0.5329  1.6380
  149MPD2    H2 2324   3.021   3.551  10.776 -0.3434  0.6072 -0.5075
  149MPD2    H3 2325   2.828   3.558  10.623 -1.7602 -1.8473 -2.5283
  149MPD2     N 2326   2.771   3.114  10.615 -0.2358  0.5303 -0.5779
  149MPD2    H5 2327   2.686   3.144  10.569 -0.6212  1.4709  0.7287
  149MPD2    N1 2328   3.137   3.305  10.847  0.1085  0.2492 -0.1552
  149MPD2    H7 2329   3.153   3.205  10.850 -0.1342  0.2156  0.1260
  150TMC2    C1 2330   4.568   2.118  12.263 -0.3291  0.4663  0.2610
  150TMC2    C2 2331   4.501   2.007  12.298  0.1308  0.1847 -0.2115
  150TMC2    C3 2332   4.586   1.904  12.333 -0.0450 -0.3844 -0.4621
  150TMC2    C4 2333   4.699   2.143  12.259  0.0367  0.3458  0.1939
  150TMC2    C5 2334   0.043   2.038  12.300 -0.0076 -0.6577  0.0451
  150TMC2    C6 2335   4.722   1.920  12.343  0.3822  0.1237  0.0501
  150TMC2     C 2336   4.491   2.220  12.197 -0.6144  0.4390 -0.2566
  150TMC2     O 2337   4.510   2.342  12.213  0.2457 -0.6551 -0.7821
  150TMC2     H 2338   4.394   1.991  12.291 -0.2579  2.2144  1.1301
  150TMC2    H1 2339   0.003   2.235  12.218  1.4162  0.7588  2.4120
  150TMC2    H2 2340   0.049   1.833  12.361  0.9535  0.5607  0.1980
  150TMC2    C7 2341   0.196   2.065  12.317 -0.2100  0.3051 -0.3517
  150TMC2    C8 2342   4.542   1.778  12.392 -0.0552 -0.0038 -0.3982
  150TMC2    O1 2343   0.229   2.183  12.299 -0.2163  0.0085 -0.0650
  150TMC2    O2 2344   4.610   1.708  12.467  0.7286 -0.1423 -0.1116
  150TMC2    O5 2345   4.413   1.754  12.360  0.0555 -0.0399  0.6171
  150TMC2    H5 2346   4.376   1.800  12.282  0.9496 -2.5390 -1.2847
  151MPD2     C 2347   4.264   2.338  11.755 -0.7113 -0.5236 -0.4225
  151MPD2    C1 2348   4.290   2.204  11.749 -0.1921 -0.4953 -0.4517
  151MPD2    C2 2349   4.347   2.150  11.864  0.5960 -0.4261  0.0500
  151MPD2    C3 2350   4.378   2.229  11.976  0.1185  0.5135 -0.3267
  151MPD2    C4 2351   4.334   2.359  11.984  0.5106  0.7426 -0.0433
  151MPD2    C5 2352   4.286   2.411  11.874 -0.3791 -0.3953 -0.5225
  151MPD2     H 2353   4.390   2.051  11.861  2.8876  0.5709 -0.2720
  151MPD2    H1 2354   4.339   2.419  12.074 -0.5294  1.1426 -0.2594
  151MPD2    H2 2355   4.220   2.395  11.673 -1.3201  2.0377  1.6965
  151MPD2    H3 2356   4.253   2.514  11.869  1.1857  0.0215 -2.2594
  151MPD2     N 2357   4.432   2.160  12.087 -0.1131  0.2552  0.1589
  151MPD2    H5 2358   4.459   2.063  12.076 -1.7245 -0.1890  0.0569
  151MPD2    N1 2359   4.270   2.122  11.635 -0.2933  0.2081  0.2842
  151MPD2    H7 2360   4.269   2.021  11.641  1.6642  0.1742  0.2242
  152TMC2    C1 2361   0.209   2.149  12.694 -0.0292 -0.3967  1.1229
  152TMC2    C2 2362   0.277   2.225  12.604 -0.6120  0.2670  0.4249
  152TMC2    C3 2363   0.416   2.208  12.601  0.5396 -0.3576  0.9607
  152TMC2    C4 2364   0.266   2.066  12.783 -0.0077 -0.0411 -0.1565
  152TMC2    C5 2365   0.401   2.039  12.767  0.0894 -0.5360  0.2270
  152TMC2    C6 2366   0.480   2.115  12.680 -0.0556 -0.3464  0.7062
  152TMC2     C 2367   0.060   2.152  12.688 -0.0483 -0.7910  0.1494
  152TMC2     O 2368   0.010   2.250  12.641  0.4669  0.1821 -0.1516
  152TMC2     H 2369   0.215   2.281  12.535 -1.7421  0.3502  1.5066
  152TMC2    H1 2370   0.210   2.028  12.867 -0.9410  1.8464  0.0736
  152TMC2    H2 2371   0.587   2.106  12.663 -0.0156  0.5995  0.4475
  152TMC2    C7 2372   0.466   1.975  12.881  0.9724 -0.4657  0.1847
  152TMC2    C8 2373   0.500   2.280  12.514  0.4943  0.3039  0.5444
  152TMC2    O1 2374   0.401   1.923  12.971  0.0850  0.4374  0.2159
  152TMC2    O2 2375   0.611   2.314  12.548  0.0800 -0.8838 -0.1220
  152TMC2    O5 2376   0.424   2.345  12.416  0.4543 -0.4679  0.3181
  152TMC2    H5 2377   0.346   2.293  12.384  0.9326 -0.6890 -0.4807
  153MPD2     C 2378   4.584   1.864  12.758  0.9195 -0.8490 -0.4327
  153MPD2    C1 2379   4.612   1.989  12.709 -0.3526 -0.3997  0.2454
  153MPD2    C2 2380   4.517   2.063  12.639 -0.7658 -0.2637 -0.2316
  153MPD2    C3 2381   4.389   2.011  12.618 -0.2089 -0.2500  0.5437
  153MPD2    C4 2382   4.364   1.885  12.660  0.1471  0.0590  0.0492
  153MPD2    C5 2383   4.452   1.824  12.747 -0.3746 -0.0050 -0.0790
  153MPD2     H 2384   4.536   2.159  12.593 -0.6143  1.2773  3.0402
  153MPD2    H1 2385   4.274   1.831  12.633  0.7829 -0.3025 -1.3448
  153MPD2    H2 2386   4.650   1.815  12.829  0.5147 -0.3936  0.2689
  153MPD2    H3 2387   4.426   1.726  12.783 -2.5209  0.7965  0.5648
  153MPD2     N 2388   4.299   2.096  12.547 -0.3340 -0.1278 -0.1258
  153MPD2    H5 2389   4.327   2.193  12.546 -1.8093  0.2690 -2.2550
  153MPD2    N1 2390   0.006   2.036  12.726 -0.3851  0.6153  0.4771
  153MPD2    H7 2391   0.072   1.967  12.762 -0.3035  0.5655  0.2310
  154TMC2    C1 2392   1.862   1.889   0.056 -0.2316  0.4054 -0.4863
  154TMC2    C2 2393   1.883   1.784  17.705  0.2902  0.2833 -0.3428
  154TMC2    C3 2394   2.001   1.788  17.636 -0.7309  0.2703 -0.2559
  154TMC2    C4 2395   1.942   2.001   0.045  0.2717  0.3106 -0.2054
  154TMC2    C5 2396   2.049   2.000  17.705  0.7317 -0.3424 -1.1288
  154TMC2    C6 2397   2.087   1.887  17.641  0.4513  0.1641  0.1922
  154TMC2     C 2398   1.720   1.910   0.097  0.1893 -0.4468 -0.7526
  154TMC2     O 2399   1.703   1.979   0.196  0.7580  0.6032  0.1927
  154TMC2     H 2400   1.822   1.694  17.703 -0.4886  0.8371 -1.7281
  154TMC2    H1 2401   1.902   2.094   0.084  1.1837  0.4071  0.4935
  154TMC2    H2 2402   2.185   1.884  17.594  0.8963  0.3267  1.1136
  154TMC2    C7 2403   2.126   2.121  17.679 -0.5775  0.0975  0.6796
  154TMC2    C8 2404   2.045   1.665  17.572  0.2873 -0.0838 -0.4314
  154TMC2    O1 2405   2.226   2.100  17.613 -0.2464 -0.2781  0.6647
  154TMC2    O2 2406   1.979   1.625  17.474 -0.3075  0.3875 -0.0547
  154TMC2    O5 2407   2.060   1.586  17.676 -0.3019 -0.1048  0.3051
  154TMC2    H5 2408   2.095   1.642   0.010 -1.3786 -0.3759  1.0366
  155MPD2     C 2409   1.433   1.820  17.629  0.0352  0.0050  0.2972
  155MPD2    C1 2410   1.494   1.872   0.003 -0.0262 -0.1595  0.0443
  155MPD2    C2 2411   1.411   1.932   0.096  0.8242  1.1692 -0.3817
  155MPD2    C3 2412   1.274   1.950   0.074 -0.1577 -0.4319  0.8968
  155MPD2    C4 2413   1.218   1.893  17.700 -0.5116 -0.4787 -0.9250
  155MPD2    C5 2414   1.298   1.822  17.609  0.2556  0.7546  0.0986
  155MPD2     H 2415   1.465   1.973   0.180 -1.3344  1.8060  0.6854
  155MPD2    H1 2416   1.112   1.895  17.678 -0.4601 -1.8214 -1.3011
  155MPD2    H2 2417   1.499   1.778  17.554  0.7501  0.0636  0.8859
  155MPD2    H3 2418   1.251   1.787  17.518 -1.4421 -0.8081  1.5816
  155MPD2     N 2419   1.201   2.013   0.175  0.3598  0.0820  0.4589
  155MPD2    H5 2420   1.258   2.040   0.254  0.2205 -1.7980  1.1979
  155MPD2    N1 2421   1.635   1.863   0.001  0.6005  0.1921 -0.3419
  155MPD2    H7 2422   1.670   1.830  17.650 -0.6493 -1.4526 -0.2260
  156TMC2    C1 2423   0.033   3.911  11.930  0.0080 -0.1176 -0.1557
  156TMC2    C2 2424   0.121   3.829  11.866 -0.2178  0.2642 -0.2402
  156TMC2    C3 2425   0.186   3.884  11.764  0.8320 -0.0950 -0.1093
  156TMC2    C4 2426   0.003   4.037  11.878 -0.4001 -1.0116  0.8864
  156TMC2    C5 2427   0.076   4.083  11.773  0.7537 -0.8862  0.0904
  156TMC2    C6 2428   0.169   4.009  11.709  0.4243 -0.4973  0.3191
  156TMC2     C 2429   0.053   3.929  12.061  0.1434  0.5042 -0.0273
  156TMC2     O 2430   0.050   4.040  12.104  0.2044  0.1911  0.5161
  156TMC2     H 2431   0.137   3.725  11.893 -2.0934 -0.2166 -0.9473
  156TMC2    H1 2432   4.658   4.097  11.922 -1.4880 -0.3999 -1.9145
  156TMC2    H2 2433   0.231   4.060  11.636  3.8054 -4.1255  0.6683
  156TMC2    C7 2434   0.112   4.224  11.782 -0.8395 -0.6778 -0.0184
  156TMC2    C8 2435   0.268   3.796  11.684  0.5932  0.1445 -0.2942
  156TMC2    O1 2436   0.187   4.282  11.704 -0.6370  0.0774  0.3537
  156TMC2    O2 2437   0.236   3.788  11.564 -0.0090 -0.3434 -0.3293
  156TMC2    O5 2438   0.394   3.808  11.738 -0.0735 -0.8038 -0.2498
  156TMC2    H5 2439   0.388   3.838  11.832 -0.4447  0.3491 -0.6366
  157MPD2     C 2440   0.052   3.669  12.329  0.1842  0.1118 -0.0591
  157MPD2    C1 2441   0.068   3.795  12.271 -0.1882  0.4385 -0.3398
  157MPD2    C2 2442   0.096   3.901  12.359 -0.8419 -0.3880 -0.2128
  157MPD2    C3 2443   0.120   3.880  12.494  0.4828  0.4319  0.1031
  157MPD2    C4 2444   0.114   3.747  12.546 -0.9220  0.0716 -0.3592
  157MPD2    C5 2445   0.069   3.647  12.465 -0.2940  0.5034  0.1094
  157MPD2     H 2446   0.093   4.004  12.325  3.2335 -0.2987 -0.2946
  157MPD2    H1 2447   0.135   3.719  12.648 -1.2264 -2.0071 -0.8612
  157MPD2    H2 2448   0.028   3.581  12.270 -1.7344  0.8227 -0.3176
  157MPD2    H3 2449   0.085   3.545  12.500 -0.0458 -0.1012 -1.7406
  157MPD2     N 2450   0.152   3.997  12.568  0.2334 -0.8945 -0.3084
  157MPD2    H5 2451   0.156   4.087  12.521  0.6746 -1.2296 -0.9051
  157MPD2    N1 2452   0.046   3.811  12.131  0.0865 -0.2960 -0.1022
  157MPD2    H7 2453   0.016   3.726  12.084  0.6178 -1.3640  1.4843
  158TMC2    C1 2454   0.065   3.406  13.516  0.3278  0.7879  0.8613
  158TMC2    C2 2455   0.086   3.497  13.420  0.2951  0.5272 -0.1700
  158TMC2    C3 2456   4.724   3.516  13.331 -0.1571  0.2269 -0.1479
  158TMC2    C4 2457   4.676   3.349  13.537 -0.2505  0.0041  0.0732
  158TMC2    C5 2458   4.582   3.368  13.439  0.3211 -0.0984  0.7531
  158TMC2    C6 2459   4.600   3.460  13.339  0.0601  0.4647 -0.6985
  158TMC2     C 2460   0.165   3.408  13.628  0.2751 -0.3990  0.0855
  158TMC2     O 2461   0.249   3.495  13.623 -0.1497  0.6041  0.0370
  158TMC2     H 2462   0.181   3.546  13.402  1.4245 -1.6906 -0.2526
  158TMC2    H1 2463   4.644   3.306  13.631 -0.1120 -2.7067 -1.1017
  158TMC2    H2 2464   4.519   3.480  13.270 -1.4464 -0.7582  0.7086
  158TMC2    C7 2465   4.454   3.309  13.440 -0.0736  0.4595  0.9176
  158TMC2    C8 2466   4.728   3.639  13.250  0.4509 -0.0209 -0.1248
  158TMC2    O1 2467   4.360   3.371  13.394 -0.0135  0.6670 -0.1932
  158TMC2    O2 2468   0.103   3.682  13.217 -0.7653 -0.1938 -0.0225
  158TMC2    O5 2469   4.624   3.713  13.281  0.3705 -0.1544  0.2951
  158TMC2    H5 2470   4.546   3.658  13.305  0.7238 -1.4584 -1.5316
  159MPD2     C 2471   0.399   3.245  14.065  0.1057  0.6279 -0.2422
  159MPD2    C1 2472   0.330   3.141  14.005 -0.7381 -0.1464  0.1682
  159MPD2    C2 2473   0.240   3.175  13.903  0.2832 -0.1183 -0.2216
  159MPD2    C3 2474   0.232   3.295  13.841  0.1240 -0.1845  0.4644
  159MPD2    C4 2475   0.305   3.399  13.899  0.4872 -0.2185  0.1103
  159MPD2    C5 2476   0.381   3.374  14.009 -0.5474  0.2200  0.0689
  159MPD2     H 2477   0.179   3.099  13.857 -0.6646  0.6406 -0.2075
  159MPD2    H1 2478   0.295   3.502  13.866  3.8715  0.0075 -0.2314
  159MPD2    H2 2479   0.458   3.229  14.154  3.0011  3.4564 -1.6711
  159MPD2    H3 2480   0.429   3.460  14.055 -0.4087 -0.1082  0.5392
  159MPD2     N 2481   0.155   3.309  13.723  0.2059 -0.5971 -0.0473
  159MPD2    H5 2482   0.099   3.228  13.698 -0.5632 -0.5036  1.3742
  159MPD2    N1 2483   0.355   3.009  14.055 -0.1026  0.2722 -0.1855
  159MPD2    H7 2484   0.418   2.995  14.133 -0.2269 -0.7596 -0.2782
  160TMC2    C1 2485   0.661   2.176   1.242 -0.4314  0.0165  0.1848
  160TMC2    C2 2486   0.667   2.250   1.124  0.5128 -0.2924  0.4251
  160TMC2    C3 2487   0.793   2.288   1.081  0.6799  0.0755 -0.1217
  160TMC2    C4 2488   0.778   2.140   1.304  0.0545 -0.4548 -0.3237
  160TMC2    C5 2489   0.900   2.178   1.249 -0.2142  0.4090  0.7651
  160TMC2    C6 2490   0.910   2.262   1.146 -0.6732  0.8050 -0.0404
  160TMC2     C 2491   0.550   2.090   1.255  1.3474 -0.1149 -0.1876
  160TMC2     O 2492   0.580   1.977   1.287  0.0984  0.3473 -0.1105
  160TMC2     H 2493   0.583   2.296   1.073  1.2090  1.5631  0.9540
  160TMC2    H1 2494   0.763   2.083   1.396  0.2968 -0.0120 -0.0103
  160TMC2    H2 2495   1.001   2.292   1.097  1.3807 -3.7574  0.9780
  160TMC2    C7 2496   1.022   2.167   1.334 -0.4009 -0.3404 -0.6079
  160TMC2    C8 2497   0.808   2.383   0.973  0.3032 -0.2185 -0.5690
  160TMC2    O1 2498   1.128   2.204   1.284  0.5428 -0.2839 -0.4503
  160TMC2    O2 2499   0.907   2.455   0.970 -0.6922 -0.3512 -0.1104
  160TMC2    O5 2500   0.734   2.337   0.866 -0.0576 -0.1296 -0.1582
  160TMC2    H5 2501   0.658   2.280   0.889  0.7451  0.0626  2.9030
  161MPD2     C 2502   0.279   1.964   1.267  0.5110  0.3406 -0.1327
  161MPD2    C1 2503   0.303   2.096   1.238  0.5745  0.1065 -0.8161
  161MPD2    C2 2504   0.197   2.186   1.234  0.2207  0.5794  0.6379
  161MPD2    C3 2505   0.069   2.145   1.259 -0.3914 -0.2232  0.2571
  161MPD2    C4 2506   0.050   2.011   1.295  0.5011  0.2946  0.1544
  161MPD2    C5 2507   0.154   1.926   1.290  0.0134  0.1990  0.4044
  161MPD2     H 2508   0.221   2.290   1.216 -1.7263  0.2590 -3.9561
  161MPD2    H1 2509   4.685   1.971   1.305 -0.4023  2.6379  0.2500
  161MPD2    H2 2510   0.354   1.892   1.239  0.6635 -0.4622  2.3060
  161MPD2    H3 2511   0.136   1.820   1.307  3.1464 -0.6919 -1.7882
  161MPD2     N 2512   4.692   2.233   1.259  0.1185 -0.2876 -0.1220
  161MPD2    H5 2513   4.606   2.197   1.299  1.0789  0.4641  2.6147
  161MPD2    N1 2514   0.433   2.147   1.219 -0.2573 -0.0997  0.6495
  161MPD2    H7 2515   0.447   2.245   1.197  0.2359  0.0831  1.7646
  162TMC2    C1 2516   2.516   3.752   0.973  0.5540  0.3431  0.2569
  162TMC2    C2 2517   2.561   3.857   1.044 -0.0400 -0.4679  0.6807
  162TMC2    C3 2518   2.537   3.849   1.178 -0.2737  0.3501 -0.2144
  162TMC2    C4 2519   2.446   3.647   1.030  0.1023  0.2275  0.1213
  162TMC2    C5 2520   2.428   3.641   1.172  0.2391 -0.3973 -0.1375
  162TMC2    C6 2521   2.468   3.750   1.244 -0.7629  0.3556  0.6267
  162TMC2     C 2522   2.540   3.744   0.830  0.5929 -0.1783 -1.1095
  162TMC2     O 2523   2.496   3.647   0.772  0.1360  0.0172 -0.0318
  162TMC2     H 2524   2.609   3.949   1.012  0.4107 -1.2401 -0.8713
  162TMC2    H1 2525   2.419   3.563   0.968  0.0501  0.6670 -0.4463
  162TMC2    H2 2526   2.445   3.769   1.348 -2.0320 -0.6743  0.5318
  162TMC2    C7 2527   2.412   3.523   1.245 -0.3270  0.1484  0.0371
  162TMC2    C8 2528   2.597   3.949   1.264 -0.0103  0.3588 -0.5528
  162TMC2    O1 2529   2.393   3.540   1.363 -0.1432  0.1989  0.0340
  162TMC2    O2 2530   2.656   4.041   1.216  0.3903  0.4160  0.0664
  162TMC2    O5 2531   2.657   3.880   1.360 -0.1511  0.1028 -0.2065
  162TMC2    H5 2532   2.660   3.782   1.359 -0.4306  0.1058 -1.1583
  163MPD2     C 2533   2.826   3.878   0.418  0.5717 -0.0573  0.0818
  163MPD2    C1 2534   2.742   3.774   0.432 -0.1000  0.9189 -0.3105
  163MPD2    C2 2535   2.668   3.756   0.552 -0.5900 -0.7608 -0.8039
  163MPD2    C3 2536   2.687   3.852   0.655 -0.2132  0.4943  0.4718
  163MPD2    C4 2537   2.778   3.960   0.642  0.4817  0.4481  0.2894
  163MPD2    C5 2538   2.851   3.961   0.524 -0.1463 -0.2854 -0.7205
  163MPD2     H 2539   2.602   3.673   0.573  0.2008 -1.0217  0.6626
  163MPD2    H1 2540   2.816   4.027   0.719  1.3123  0.2804  0.0275
  163MPD2    H2 2541   2.883   3.894   0.327 -2.0032  2.1377 -1.1299
  163MPD2    H3 2542   2.930   4.031   0.501  0.8545 -0.6883  1.4693
  163MPD2     N 2543   2.626   3.840   0.790 -0.5193 -0.1329  0.6802
  163MPD2    H5 2544   2.642   3.923   0.845  0.9842  0.7596 -1.1180
  163MPD2    N1 2545   2.734   3.679   0.324  0.5229  0.4091 -0.1135
  163MPD2    H7 2546   2.796   3.692   0.246  0.2885  1.3691 -0.1444
  164TMC2    C1 2547   3.174   2.479  11.330 -0.1427 -0.4413  0.4862
  164TMC2    C2 2548   3.289   2.485  11.400  0.4442  0.1644  0.3017
  164TMC2    C3 2549   3.328   2.607  11.452 -0.9065  0.2772 -1.3302
  164TMC2    C4 2550   3.098   2.587  11.306 -0.6268 -0.0249  0.3291
  164TMC2    C5 2551   3.146   2.706  11.349  0.2069 -0.5366 -0.7698
  164TMC2    C6 2552   3.263   2.719  11.418  0.2025  0.3730 -0.1180
  164TMC2     C 2553   3.117   2.350  11.283 -0.0812  0.3833  0.2086
  164TMC2     O 2554   3.004   2.360  11.236  0.4942  0.0279  0.0700
  164TMC2     H 2555   3.338   2.392  11.428 -0.1869 -0.3463 -0.3043
  164TMC2    H1 2556   2.995   2.587  11.271 -0.1614  0.5591 -1.0228
  164TMC2    H2 2557   3.288   2.803  11.480 -0.9320  0.7095 -0.1086
  164TMC2    C7 2558   3.080   2.831  11.303 -0.0761 -0.1483 -0.2466
  164TMC2    C8 2559   3.405   2.616  11.576  0.6635 -0.1142 -1.1396
  164TMC2    O1 2560   2.994   2.816  11.216  0.1477  0.7344  0.3141
  164TMC2    O2 2561   3.472   2.713  11.603  0.3430 -0.2373 -0.0508
  164TMC2    O5 2562   3.365   2.525  11.669 -0.7651 -0.1797 -0.1080
  164TMC2    H5 2563   3.282   2.476  11.650 -0.9710  0.0237  0.2618
  165TMC2    C1 2564   4.232   1.276   1.142 -1.0919 -0.2652  0.4388
  165TMC2    C2 2565   4.264   1.338   1.022 -0.2948 -0.0158 -0.5845
  165TMC2    C3 2566   4.397   1.375   0.989  0.1225 -0.8284 -0.5662
  165TMC2    C4 2567   4.338   1.239   1.226  0.6595  0.6943  0.5338
  165TMC2    C5 2568   4.473   1.263   1.191  0.0720  0.2270  0.2120
  165TMC2    C6 2569   4.500   1.335   1.073 -0.5505  0.5105 -0.3811
  165TMC2     C 2570   4.121   1.185   1.149 -0.2635  0.7416 -0.5691
  165TMC2     O 2571   4.151   1.084   1.205  0.5199  0.2262 -0.0732
  165TMC2     H 2572   4.184   1.356   0.951  0.6004  2.2894 -0.9928
  165TMC2    H1 2573   4.312   1.187   1.317  1.8166 -2.9940 -1.2096
  165TMC2    H2 2574   4.603   1.359   1.048 -0.4341 -0.1974 -0.5676
  165TMC2    C7 2575   4.569   1.161   1.216  0.8814  0.1430  0.1357
  165TMC2    C8 2576   4.419   1.445   0.860 -0.1324  0.2049 -0.5921
  165TMC2    O1 2577   4.680   1.182   1.177 -0.1552 -0.5558 -0.7396
  165TMC2    O2 2578   4.513   1.429   0.783  0.0748 -0.6829  0.3063
  165TMC2    O5 2579   4.335   1.543   0.874  0.1597 -0.1634 -0.2165
  165TMC2    H5 2580   4.301   1.552   0.965 -2.1154  0.8909 -1.1654
  166MPD2     C 2581   3.624   1.049   1.105  0.0922  0.2513  0.1883
  166MPD2    C1 2582   3.730   0.973   1.155  0.1336  0.2080 -0.1698
  166MPD2    C2 2583   3.856   1.030   1.143  0.2751 -0.4817 -0.1895
  166MPD2    C3 2584   3.877   1.162   1.099  0.1549  0.3854 -0.1173
  166MPD2    C4 2585   3.767   1.235   1.071  0.1258 -0.2935 -0.5373
  166MPD2    C5 2586   3.639   1.182   1.072 -0.4559  0.8789  0.7396
  166MPD2     H 2587   3.943   0.976   1.177 -0.1379 -0.6288  0.6337
  166MPD2    H1 2588   3.784   1.335   1.033 -1.2053  0.7638  1.7127
  166MPD2    H2 2589   3.519   1.021   1.097  0.7157 -1.5310 -1.7499
  166MPD2    H3 2590   3.557   1.242   1.034 -0.7206  1.1379  1.7073
  166MPD2     N 2591   4.005   1.227   1.092  0.0767  0.4593  0.2818
  166MPD2    H5 2592   4.003   1.318   1.047  1.9414  0.5004  0.2566
  166MPD2    N1 2593   3.708   0.843   1.194  0.0229 -0.2992 -0.2766
  166MPD2    H7 2594   3.614   0.806   1.199 -0.4232  0.8477 -0.1673
  167TMC2    C1 2595   2.778   1.882  12.655 -0.1151  0.1218 -0.0458
  167TMC2    C2 2596   2.756   1.874  12.790  0.5894  0.9034  0.2211
  167TMC2    C3 2597   2.862   1.840  12.869  0.4615 -0.3837  0.7876
  167TMC2    C4 2598   2.897   1.857  12.603 -0.0611  0.1930  0.1163
  167TMC2    C5 2599   2.993   1.811  12.682 -0.1273 -0.8072  0.3087
  167TMC2    C6 2600   2.988   1.812  12.821  0.1897  0.4539 -0.7124
  167TMC2     C 2601   2.671   1.920  12.566  0.0932  0.0339  0.1220
  167TMC2     O 2602   2.554   1.911  12.608  0.0218  0.7028 -0.2322
  167TMC2     H 2603   2.675   1.910  12.851 -0.3935  1.5617 -1.4717
  167TMC2    H1 2604   2.905   1.839  12.496  0.5332  1.7719 -0.1013
  167TMC2    H2 2605   3.068   1.778  12.886 -2.0683 -1.9775  0.8036
  167TMC2    C7 2606   3.128   1.793  12.624 -0.0996 -0.3252 -0.2057
  167TMC2    C8 2607   2.839   1.834  13.015  0.0034  0.0576  0.1254
  167TMC2    O1 2608   3.217   1.728  12.681 -0.2530  0.0629  1.1318
  167TMC2    O2 2609   2.778   1.921  13.071  0.0074 -0.1399  0.5081
  167TMC2    O5 2610   2.840   1.705  13.038 -0.0158 -0.1288  0.3718
  167TMC2    H5 2611   2.870   1.654  12.960  0.4153 -0.5572  0.8256
  168MPD2     C 2612   2.523   1.983  12.317 -0.1762  0.1326  0.7012
  168MPD2    C1 2613   2.633   2.054  12.365 -0.0883  0.7983  0.0777
  168MPD2    C2 2614   2.677   2.167  12.292  0.1370 -0.7254 -0.3146
  168MPD2    C3 2615   2.602   2.213  12.183  0.2104  0.4363 -1.0618
  168MPD2    C4 2616   2.491   2.134  12.137 -0.0299  0.0923 -0.2866
  168MPD2    C5 2617   2.460   2.019  12.200  0.0886  0.7316  0.4763
  168MPD2     H 2618   2.756   2.228  12.336  0.3389  0.2343 -2.0368
  168MPD2    H1 2619   2.428   2.168  12.055  1.0236  0.3671 -0.9805
  168MPD2    H2 2620   2.501   1.886  12.362  3.4981 -1.5619 -1.1422
  168MPD2    H3 2621   2.382   1.958  12.156  1.5531  0.6771 -2.0195
  168MPD2     N 2622   2.629   2.343  12.120  0.2409  0.3122  0.1758
  168MPD2    H5 2623   2.568   2.376  12.047  0.8680  0.8196 -0.1195
  168MPD2    N1 2624   2.716   1.995  12.462  0.0465  0.6273  0.2688
  168MPD2    H7 2625   2.815   2.018  12.460  0.1425  0.2462  0.6174
  169MPD1     C 2626   4.569   2.762   8.910  0.0522  1.2623 -0.0127
  169MPD1    C1 2627   4.690   2.764   8.963 -0.1931  0.1485 -0.7471
  169MPD1    C2 2628   0.033   2.651   8.969  0.0687 -0.0022 -0.2323
  169MPD1    C3 2629   4.720   2.526   8.921 -0.0284  0.1163 -0.1526
  169MPD1    C4 2630   4.586   2.520   8.881 -0.8257  0.4672 -0.3865
  169MPD1    C5 2631   4.513   2.641   8.876 -0.1129  0.2348 -0.0877
  169MPD1     H 2632   0.139   2.651   8.992 -0.0786  2.7835  0.4358
  169MPD1    H1 2633   4.547   2.422   8.858 -2.5909  0.4333  2.8334
  169MPD1    H2 2634   4.507   2.848   8.889 -1.0764  0.2462 -0.8247
  169MPD1    H3 2635   4.411   2.641   8.839  0.0555  3.5029 -0.4992
  169MPD1     N 2636   0.076   2.419   8.918 -0.8552 -0.3906  0.3120
  169MPD1    H5 2637   0.168   2.432   8.960 -0.2691 -0.9925 -0.7609
  169MPD1    N1 2638   0.002   2.896   8.970 -0.0488  0.5348 -0.5169
  169MPD1    H6 2639   0.090   2.898   9.021 -0.2704 -0.3396 -0.0979
  169MPD1    H7 2640   4.667   2.960   9.007 -0.9484  0.5398 -2.2582
  170MPD1     C 2641   4.547   0.178  13.021  0.2904 -1.2641  0.1813
  170MPD1    C1 2642   4.598   0.262  13.117 -0.2379 -0.0243 -0.5431
  170MPD1    C2 2643   4.515   0.346  13.190  0.5746 -0.1324 -0.0757
  170MPD1    C3 2644   4.384   0.355  13.163  0.1430 -0.0008  0.3689
  170MPD1    C4 2645   4.337   0.268  13.065  0.5199 -0.5760  0.5469
  170MPD1    C5 2646   4.418   0.179  13.007  0.5927 -0.3183 -0.2803
  170MPD1     H 2647   4.558   0.417  13.259 -0.8290  0.5790  0.0664
  170MPD1    H1 2648   4.233   0.269  13.037  1.0002  0.9518 -1.1541
  170MPD1    H2 2649   4.607   0.113  12.959 -2.0037 -1.8669 -1.4201
  170MPD1    H3 2650   4.380   0.113  12.929  1.9561  0.4322 -1.5780
  170MPD1     N 2651   4.298   0.445  13.234 -0.2183  0.3581 -0.1435
  170MPD1    H5 2652   4.337   0.504  13.307 -0.2470  2.8747 -2.1717
  170MPD1    N1 2653   0.002   0.280  13.113  1.2827  0.6248  0.3057
  170MPD1    H6 2654   0.046   0.198  13.072  0.2062  0.3736 -0.3395
  170MPD1    H7 2655   0.042   0.299  13.205 -0.0273  1.6353  0.6630
  171MPD1     C 2656   2.336   1.569  15.354  0.2810 -0.5364  0.3215
  171MPD1    C1 2657   2.346   1.436  15.321  0.3914 -0.4243 -0.3167
  171MPD1    C2 2658   2.417   1.357  15.405  0.3892 -0.0004 -0.0321
  171MPD1    C3 2659   2.486   1.414  15.511  0.3943 -0.2507  0.1609
  171MPD1    C4 2660   2.475   1.549  15.540  0.4162  0.2813 -0.6300
  171MPD1    C5 2661   2.391   1.626  15.468 -0.2155  0.2165 -0.5612
  171MPD1     H 2662   2.419   1.251  15.383 -1.5451 -0.5123  2.2909
  171MPD1    H1 2663   2.529   1.596  15.621  0.7498 -0.8821 -0.1810
  171MPD1    H2 2664   2.293   1.631  15.277  2.0693  0.1197 -0.1330
  171MPD1    H3 2665   2.379   1.732  15.483 -0.5397  0.3129 -1.4920
  171MPD1     N 2666   2.579   1.343  15.589 -0.2304 -0.4903  0.2177
  171MPD1    H5 2667   2.622   1.398  15.662 -2.3737  1.0597  0.3224
  171MPD1    N1 2668   2.282   1.384  15.205  0.1811  0.1335  0.1595
  171MPD1    H6 2669   2.338   1.315  15.156 -0.6235 -1.9231  2.1045
  171MPD1    H7 2670   2.268   1.460  15.138  0.6614 -0.6512 -0.8266
  172MPD1     C 2671   1.496   0.143  17.686 -0.0258 -0.1061 -0.0818
  172MPD1    C1 2672   1.516   0.165   0.081 -0.6413  0.4462  0.0620
  172MPD1    C2 2673   1.606   0.268   0.129  0.2621  0.5217 -0.1791
  172MPD1    C3 2674   1.661   0.350   0.033  0.1948 -0.1397 -0.5093
  172MPD1    C4 2675   1.640   0.325  17.638 -0.7148 -0.4125 -0.1668
  172MPD1    C5 2676   1.551   0.227  17.598  0.7543  0.3487 -0.1383
  172MPD1     H 2677   1.617   0.278   0.236  1.3726  1.2863 -0.3625
  172MPD1    H1 2678   1.676   0.381  17.553 -0.7574  0.3128  0.2982
  172MPD1    H2 2679   1.433   0.061  17.653  0.1482  0.6477 -2.2726
  172MPD1    H3 2680   1.525   0.222  17.493 -1.3186 -1.0587  0.4424
  172MPD1     N 2681   1.739   0.464   0.071  0.3036  0.4590  0.3886
  172MPD1    H5 2682   1.782   0.505  17.727 -0.6023 -2.1752 -1.4114
  172MPD1    N1 2683   1.460   0.075   0.172 -0.0570  0.2006  0.5858
  172MPD1    H6 2684   1.382   0.023   0.132  0.8344 -0.8630  0.2175
  172MPD1    H7 2685   1.425   0.131   0.249 -2.4951  0.2414 -0.5455
  173MPD1     C 2686   2.585   0.303  14.047  0.2246  0.5137  0.9644
  173MPD1    C1 2687   2.710   0.285  14.103 -0.2616  0.2382  0.3758
  173MPD1    C2 2688   2.773   0.391  14.158  0.1843 -0.1038  0.7033
  173MPD1    C3 2689   2.720   0.517  14.141  0.0102 -0.4068  0.2801
  173MPD1    C4 2690   2.592   0.537  14.091 -0.3946  0.2763  0.1257
  173MPD1    C5 2691   2.531   0.427  14.043  0.0424  0.1828  0.0039
  173MPD1     H 2692   2.867   0.367  14.207  0.3339  1.9389  1.4189
  173MPD1    H1 2693   2.548   0.636  14.100 -2.2309 -0.4010 -1.3259
  173MPD1    H2 2694   2.526   0.220  14.008  2.3209  0.0841 -1.2684
  173MPD1    H3 2695   2.427   0.431  14.013 -0.2022 -0.1360  0.8041
  173MPD1     N 2696   2.796   0.623  14.205 -0.8450 -1.0164 -0.3274
  173MPD1    H5 2697   2.858   0.602  14.282 -1.6873  0.8736  0.8652
  173MPD1    N1 2698   2.749   0.157  14.113 -0.0261  0.1282  0.2773
  173MPD1    H6 2699   2.836   0.136  14.162 -0.3049  1.6645  1.4444
  173MPD1    H7 2700   2.750   0.119  14.018  0.5674  1.2291 -0.1597
  174MPD1     C 2701   3.514   0.992  13.996 -0.3119 -0.5009 -0.0484
  174MPD1    C1 2702   3.495   1.083  14.098  0.5738  0.2385  1.0621
  174MPD1    C2 2703   3.369   1.102  14.149 -0.2208  0.4682 -0.4817
  174MPD1    C3 2704   3.265   1.025  14.118  0.1768 -0.2311  0.2115
  174MPD1    C4 2705   3.285   0.929  14.012  0.5430  0.1355  0.2307
  174MPD1    C5 2706   3.406   0.925  13.949 -0.1032  0.2826 -0.3921
  174MPD1     H 2707   3.358   1.166  14.236  2.2903 -0.6761  0.6925
  174MPD1    H1 2708   3.208   0.858  13.983 -0.9514  1.6636  0.4566
  174MPD1    H2 2709   3.612   0.985  13.950 -0.8602 -0.1166 -1.2749
  174MPD1    H3 2710   3.417   0.850  13.872 -1.7001  1.9211 -2.2151
  174MPD1     N 2711   3.138   1.028  14.173  0.5814 -0.0320 -0.6228
  174MPD1    H5 2712   3.079   0.956  14.133 -1.2494  0.6197  0.8561
  174MPD1    N1 2713   3.598   1.169  14.130  0.5772  0.3378 -0.5527
  174MPD1    H6 2714   3.593   1.188  14.230 -0.0960  1.4646 -0.7949
  174MPD1    H7 2715   3.691   1.148  14.094  0.9088  2.1086 -0.7744
  175MPD1     C 2716   1.046   2.088  15.246 -0.0778 -0.1391  0.4927
  175MPD1    C1 2717   1.160   2.019  15.223  0.1360  0.0196 -0.1425
  175MPD1    C2 2718   1.218   1.944  15.328  1.1316 -0.5159 -0.5554
  175MPD1    C3 2719   1.160   1.947  15.454 -0.0728  0.2553  0.4310
  175MPD1    C4 2720   1.053   2.033  15.475  0.1143  0.1384  0.3047
  175MPD1    C5 2721   0.997   2.102  15.370  0.3579 -0.9001  0.0397
  175MPD1     H 2722   1.306   1.884  15.307  2.1899  1.2696 -1.2365
  175MPD1    H1 2723   1.004   2.052  15.570  0.8212  0.6233  0.5761
  175MPD1    H2 2724   1.001   2.141  15.163 -1.1836 -1.0923  0.4760
  175MPD1    H3 2725   0.916   2.171  15.395  1.1114  0.1198 -0.3182
  175MPD1     N 2726   1.211   1.868  15.560 -0.1813 -0.1099 -0.4894
  175MPD1    H5 2727   1.164   1.873  15.650  0.7677  0.9414 -0.0561
  175MPD1    N1 2728   1.208   2.012  15.098 -0.2552 -0.3574 -0.2499
  175MPD1    H6 2729   1.307   1.992  15.097 -0.1663  0.1088 -0.8273
  175MPD1    H7 2730   1.185   2.096  15.046 -1.0211 -1.1607 -1.1953
  176MPD1     C 2731   2.319   3.761  17.727  0.5637 -0.4209  0.7241
  176MPD1    C1 2732   2.350   3.799  17.600 -0.6574  0.7070  0.0254
  176MPD1    C2 2733   2.477   3.853  17.587  0.0403 -0.5942 -0.6402
  176MPD1    C3 2734   2.570   3.853  17.687 -0.6293  0.2145  0.2804
  176MPD1    C4 2735   2.531   3.809   0.078  0.4239  1.0989  0.7268
  176MPD1    C5 2736   2.405   3.764   0.097 -0.0317  0.8293 -0.2066
  176MPD1     H 2737   2.504   3.887  17.487  1.4050  0.7879  0.2003
  176MPD1    H1 2738   2.602   3.824   0.158  1.7841 -0.3968 -0.2003
  176MPD1    H2 2739   2.217   3.736   0.013 -0.1278  0.5149 -1.2486
  176MPD1    H3 2740   2.370   3.741   0.197  1.4181 -1.2062 -0.1708
  176MPD1     N 2741   2.702   3.895  17.650  0.1321  0.7100  0.4382
  176MPD1    H5 2742   2.711   3.943  17.561 -1.4632  0.3958  0.1141
  176MPD1    N1 2743   2.268   3.772  17.489 -0.2404 -0.7373  0.5233
  176MPD1    H6 2744   2.179   3.725  17.504 -0.4989 -0.8436 -1.3500
  176MPD1    H7 2745   2.273   3.830  17.406  1.3118 -1.3051  0.2226
  177MPD1     C 2746   1.235   3.372   9.644 -0.2243 -0.1460  0.3164
  177MPD1    C1 2747   1.170   3.302   9.542  0.2824  0.0914  0.6575
  177MPD1    C2 2748   1.073   3.367   9.466 -0.0610  0.2120  0.5553
  177MPD1    C3 2749   1.049   3.504   9.483 -0.5689  0.0985 -0.3264
  177MPD1    C4 2750   1.113   3.567   9.584 -0.9931  0.0345  0.1247
  177MPD1    C5 2751   1.200   3.501   9.664 -0.0364 -0.3093 -0.1579
  177MPD1     H 2752   1.007   3.310   9.402  4.3845 -1.0753 -2.8477
  177MPD1    H1 2753   1.097   3.673   9.597 -0.3580  0.1010  0.3824
  177MPD1    H2 2754   1.301   3.325   9.716 -3.6967 -0.7583  3.1259
  177MPD1    H3 2755   1.244   3.559   9.745 -4.6887 -0.5257  2.5791
  177MPD1     N 2756   0.958   3.564   9.391  0.2543 -0.4836 -0.2434
  177MPD1    H5 2757   0.916   3.505   9.320  1.7573 -1.6712 -0.1493
  177MPD1    N1 2758   1.171   3.160   9.542  0.2062 -0.1186  0.0991
  177MPD1    H6 2759   1.254   3.112   9.575 -0.2796 -1.3305 -0.4474
  177MPD1    H7 2760   1.145   3.127   9.449 -1.2806  1.8388 -0.1768
  178MPD1     C 2761   4.139   0.023   0.199 -0.7542  0.1077 -0.2814
  178MPD1    C1 2762   4.042   4.683   0.135 -0.0112 -0.0509 -0.3275
  178MPD1    C2 2763   4.075   4.633   0.010 -0.0134 -0.1740 -0.6488
  178MPD1    C3 2764   4.185   4.681  17.677  0.1807 -0.3192  0.5203
  178MPD1    C4 2765   4.265   0.041   0.008 -0.6152 -0.5100  0.3786
  178MPD1    C5 2766   4.250   0.063   0.142  1.3521  0.7820 -1.2774
  178MPD1     H 2767   4.009   4.555  17.710 -0.1928 -0.0227 -0.6498
  178MPD1    H1 2768   4.357   0.072  17.698 -0.4669 -0.3892  0.7390
  178MPD1    H2 2769   4.124   0.060   0.300 -0.2689 -1.4634  0.3514
  178MPD1    H3 2770   4.314   0.129   0.200  1.5475  1.0330 -1.7728
  178MPD1     N 2771   4.224   4.643  17.543 -0.9533  0.2914  0.0415
  178MPD1    H5 2772   4.313   4.682  17.514 -1.5214 -0.8830 -3.2988
  178MPD1    N1 2773   3.935   4.624   0.202  0.2743 -0.4205  0.5780
  178MPD1    H6 2774   3.865   4.608   0.129  1.9293  0.5288 -1.2216
  178MPD1    H7 2775   3.892   4.676   0.278 -2.4600 -1.3415 -0.3374
  179MPD1     C 2776   3.760   2.937  15.997 -0.2456  0.6645  0.1200
  179MPD1    C1 2777   3.645   2.966  15.932 -0.0316 -0.3101  0.9435
  179MPD1    C2 2778   3.580   2.859  15.870 -0.0489  0.2058 -0.1671
  179MPD1    C3 2779   3.648   2.735  15.859 -0.1283 -0.1211 -0.0288
  179MPD1    C4 2780   3.773   2.718  15.914 -0.2830  0.2620  0.3250
  179MPD1    C5 2781   3.830   2.817  15.989 -0.2329  0.2092  0.5632
  179MPD1     H 2782   3.482   2.872  15.827 -0.2688  0.8783  0.5428
  179MPD1    H1 2783   3.829   2.626  15.926 -0.3301  0.0587 -1.0805
  179MPD1    H2 2784   3.802   3.021  16.051 -0.5123  1.1949 -0.5069
  179MPD1    H3 2785   3.923   2.799  16.043  0.2070 -0.0694 -0.2912
  179MPD1     N 2786   3.600   2.617  15.794 -0.3390 -0.0028  0.2105
  179MPD1    H5 2787   3.655   2.532  15.780 -0.7788 -0.1113 -0.8770
  179MPD1    N1 2788   3.571   3.085  15.961  0.2555 -0.3519 -0.0860
  179MPD1    H6 2789   3.487   3.093  15.905 -0.7426 -0.7851  1.3399
  179MPD1    H7 2790   3.614   3.176  15.975  0.4952 -0.0386 -2.8338
  180MPD1     C 2791   3.910   3.266  14.797  0.2403  0.0928 -1.2373
  180MPD1    C1 2792   3.954   3.394  14.818 -0.3494  0.0527  0.1636
  180MPD1    C2 2793   3.880   3.497  14.768  0.3830 -0.4794  0.0913
  180MPD1    C3 2794   3.748   3.476  14.730 -0.1859  0.3191 -0.0732
  180MPD1    C4 2795   3.698   3.347  14.726  0.7514 -0.3076 -0.0207
  180MPD1    C5 2796   3.787   3.243  14.753 -0.2334  0.3396 -0.8380
  180MPD1     H 2797   3.929   3.593  14.758 -0.6947 -0.1530 -2.0116
  180MPD1    H1 2798   3.594   3.325  14.708  1.0246  0.3838 -2.4290
  180MPD1    H2 2799   3.965   3.184  14.841 -0.9104  0.0487  0.1308
  180MPD1    H3 2800   3.758   3.139  14.745 -0.8815  0.3929  0.7646
  180MPD1     N 2801   3.674   3.597  14.688 -0.1228  0.0864  0.0285
  180MPD1    H5 2802   3.730   3.680  14.671  1.5741 -0.7690  1.4429
  180MPD1    N1 2803   4.083   3.411  14.883 -0.4125 -0.2256  0.0283
  180MPD1    H6 2804   4.122   3.338  14.943  1.6718  0.2056 -0.8025
  180MPD1    H7 2805   4.088   3.494  14.941  0.0288 -0.0249 -0.2970
  181MPD1     C 2806   4.478   1.277  10.003 -0.2661  0.0686  0.7609
  181MPD1    C1 2807   4.544   1.348   9.903 -1.1147  0.1930  0.4946
  181MPD1    C2 2808   4.682   1.331   9.888 -0.3577  0.0230 -0.4157
  181MPD1    C3 2809   0.022   1.264   9.985  0.2131  0.0864 -0.5304
  181MPD1    C4 2810   4.684   1.194  10.088  0.1776 -0.4577 -0.3227
  181MPD1    C5 2811   4.548   1.198  10.093  0.2056  0.9129  0.1900
  181MPD1     H 2812   4.724   1.378   9.799  2.0262  2.3923  1.9465
  181MPD1    H1 2813   4.732   1.140  10.169  1.1569 -0.3163 -0.8052
  181MPD1    H2 2814   4.371   1.273  10.014 -0.4596  0.6066 -0.9947
  181MPD1    H3 2815   4.489   1.140  10.162 -0.3467 -1.2558 -2.0771
  181MPD1     N 2816   0.159   1.255   9.985 -0.3516 -0.2753  0.4560
  181MPD1    H5 2817   0.204   1.203  10.060  0.9641 -0.0088 -0.1355
  181MPD1    N1 2818   4.466   1.398   9.796 -0.0210  0.0653  0.1416
  181MPD1    H6 2819   4.376   1.429   9.833  0.1603  0.0759  0.5697
  181MPD1    H7 2820   4.507   1.481   9.753 -1.2766 -0.7341 -2.6183
  182MPD1     C 2821   1.425   3.879   1.102  0.1172  0.1280  0.1563
  182MPD1    C1 2822   1.379   3.978   1.178 -0.0275  0.8615 -0.4215
  182MPD1    C2 2823   1.368   4.105   1.121 -0.3624  0.2157 -0.2687
  182MPD1    C3 2824   1.413   4.132   0.994  0.1664 -0.3793  0.5972
  182MPD1    C4 2825   1.483   4.029   0.930  0.4542 -0.7879  0.8871
  182MPD1    C5 2826   1.487   3.907   0.983 -1.2096 -0.0450 -0.7686
  182MPD1     H 2827   1.335   4.184   1.187 -0.4191 -1.2806  1.5198
  182MPD1    H1 2828   1.525   4.039   0.831 -3.6689  3.3515 -0.4996
  182MPD1    H2 2829   1.442   3.778   1.138 -3.7565 -0.5701  0.0775
  182MPD1    H3 2830   1.533   3.825   0.929  0.5029 -0.1116  0.7821
  182MPD1     N 2831   1.394   4.262   0.934 -0.0723 -0.0676  0.0574
  182MPD1    H5 2832   1.420   4.262   0.836 -0.6794  0.8208 -0.1028
  182MPD1    N1 2833   1.384   3.970   1.318  0.4197 -0.5525 -0.2768
  182MPD1    H6 2834   1.374   3.873   1.349 -4.2438  0.3000  0.8085
  182MPD1    H7 2835   1.323   4.031   1.371  1.6275  0.0736  0.3908
  183MPD1     C 2836   1.080   0.052   8.802  0.7220  0.2884  0.8107
  183MPD1    C1 2837   1.042   0.027   8.931 -0.0978 -0.0936 -0.3362
  183MPD1    C2 2838   0.996   0.138   9.016  0.5418  0.0234 -0.1043
  183MPD1    C3 2839   0.997   0.266   8.963  0.1372 -0.0999  0.0432
  183MPD1    C4 2840   1.020   0.288   8.825  0.5946  0.7669 -0.4272
  183MPD1    C5 2841   1.065   0.179   8.754  0.5702  0.1120 -0.3124
  183MPD1     H 2842   0.971   0.124   9.121  0.5046 -1.7262 -0.3476
  183MPD1    H1 2843   1.003   0.381   8.771  3.1035  1.1063 -0.6003
  183MPD1    H2 2844   1.126   4.706   8.748  2.5188  2.1011 -0.3685
  183MPD1    H3 2845   1.087   0.202   8.651 -1.4234 -0.0128 -0.7641
  183MPD1     N 2846   0.955   0.364   9.048  0.2340 -0.1539  0.0067
  183MPD1    H5 2847   0.934   0.341   9.144 -3.6034  1.2374 -0.5030
  183MPD1    N1 2848   1.071   4.642   8.999 -0.3459 -0.3189  0.4675
  183MPD1    H6 2849   1.068   4.567   8.930 -0.3417  0.8360 -0.8003
  183MPD1    H7 2850   1.000   4.610   9.064  1.5191 -3.5490  0.9414
  184MPD1     C 2851   0.231   2.841   9.351  0.3501  0.4153 -0.2593
  184MPD1    C1 2852   0.098   2.863   9.317  0.8966  0.2220 -0.3366
  184MPD1    C2 2853   0.050   2.995   9.326 -0.4563 -0.0190  0.0093
  184MPD1    C3 2854   0.141   3.099   9.340  0.2274 -0.0611  0.5100
  184MPD1    C4 2855   0.272   3.074   9.356 -0.1383  1.2922 -0.1959
  184MPD1    C5 2856   0.318   2.945   9.366  0.5038 -0.5259  0.0709
  184MPD1     H 2857   4.681   3.024   9.327 -0.5868 -0.5015  2.2577
  184MPD1    H1 2858   0.351   3.148   9.353 -0.2806  1.5499  2.5456
  184MPD1    H2 2859   0.274   2.742   9.360 -2.5904 -0.9944 -1.8001
  184MPD1    H3 2860   0.419   2.913   9.386  0.8463  0.0336 -0.7544
  184MPD1     N 2861   0.103   3.236   9.340 -0.3997  0.2116 -0.3294
  184MPD1    H5 2862   0.168   3.306   9.374 -1.4133  0.5310  0.9346
  184MPD1    N1 2863   0.010   2.754   9.306 -0.1272  0.6219 -0.3397
  184MPD1    H6 2864   4.653   2.775   9.267 -0.1415 -0.9837 -1.1555
  184MPD1    H7 2865   0.053   2.682   9.249  1.8686 -0.6741  2.8168
  185MPD1     C 2866   4.207   4.106   9.029 -0.6404 -0.3325 -0.5156
  185MPD1    C1 2867   4.167   4.011   9.116  0.0171  0.4636  0.2669
  185MPD1    C2 2868   4.243   3.903   9.134  0.1444  0.4352  0.7528
  185MPD1    C3 2869   4.375   3.891   9.082 -0.2759 -0.4350  0.0167
  185MPD1    C4 2870   4.413   3.984   8.994  0.2381  0.5654  0.6828
  185MPD1    C5 2871   4.331   4.091   8.970 -0.6173  0.2387  0.2394
  185MPD1     H 2872   4.207   3.826   9.202  3.2313 -1.0752  0.6478
  185MPD1    H1 2873   4.508   3.979   8.943  0.0093  2.5290  0.0713
  185MPD1    H2 2874   4.152   4.196   9.004 -0.3273 -0.6464 -2.2994
  185MPD1    H3 2875   4.364   4.165   8.899  1.2350 -1.3074 -0.5030
  185MPD1     N 2876   4.477   3.794   9.112  0.0817 -0.7788  0.3736
  185MPD1    H5 2877   4.573   3.810   9.083 -0.8843 -0.2511 -2.5504
  185MPD1    N1 2878   4.057   4.035   9.203  0.1303  0.2203  0.0382
  185MPD1    H6 2879   4.021   3.955   9.254  0.0744  0.3910  0.2676
  185MPD1    H7 2880   3.978   4.088   9.168  0.5099 -0.6529 -2.1475
  186MPD1     C 2881   3.783   2.262  16.098 -0.2024  0.4168 -0.0433
  186MPD1    C1 2882   3.884   2.340  16.048  0.6766 -0.9725  0.5212
  186MPD1    C2 2883   3.937   2.438  16.130  0.0581 -0.2627  0.5697
  186MPD1    C3 2884   3.870   2.479  16.245  0.7724 -0.0327  0.2094
  186MPD1    C4 2885   3.754   2.421  16.284  0.3088  0.1641 -0.0688
  186MPD1    C5 2886   3.718   2.306  16.211 -0.5144 -0.1056 -0.3319
  186MPD1     H 2887   4.023   2.486  16.087 -1.4725  2.3163  0.3960
  186MPD1    H1 2888   3.696   2.452  16.370  1.2190 -0.8672  0.9165
  186MPD1    H2 2889   3.738   2.182  16.040 -1.2993  0.4531  0.7600
  186MPD1    H3 2890   3.624   2.263  16.246 -0.7681  1.7857  1.3186
  186MPD1     N 2891   3.919   2.591  16.318 -0.4925  0.8746 -0.4304
  186MPD1    H5 2892   3.865   2.608  16.402  0.4241 -3.7220  1.1080
  186MPD1    N1 2893   3.963   2.282  15.941 -0.7391  0.8019 -0.1569
  186MPD1    H6 2894   3.915   2.214  15.883 -0.9772 -0.9381  2.0863
  186MPD1    H7 2895   4.008   2.355  15.885 -0.6118  3.2334  3.0975
  187MPD1     C 2896   3.742   4.523  17.228  0.6966  0.0813  0.0460
  187MPD1    C1 2897   3.699   4.623  17.305  0.3412  0.2070 -0.0946
  187MPD1    C2 2898   3.594   4.701  17.262 -0.2006 -0.3070 -0.7089
  187MPD1    C3 2899   3.529   4.668  17.148  0.3832  0.2913 -0.1634
  187MPD1    C4 2900   3.562   4.554  17.079 -0.4160 -0.1054 -0.0267
  187MPD1    C5 2901   3.666   4.477  17.123  0.4621  0.2120  0.0269
  187MPD1     H 2902   3.566   0.054  17.320  0.1763 -0.4949 -0.2356
  187MPD1    H1 2903   3.510   4.519  16.992 -2.4430 -0.5482  1.3743
  187MPD1    H2 2904   3.828   4.461  17.251  0.4997 -0.1748  0.0969
  187MPD1    H3 2905   3.702   4.397  17.059 -2.3153  0.5033 -1.9172
  187MPD1     N 2906   3.418   0.009  17.099 -0.0885 -0.0364 -0.5345
  187MPD1    H5 2907   3.390   0.089  17.154 -0.0229 -2.2537  2.7805
  187MPD1    N1 2908   3.788   4.666  17.406  0.1092  0.4210 -0.0354
  187MPD1    H6 2909   3.852   0.005  17.377  1.3187 -0.9305 -0.7690
  187MPD1    H7 2910   3.847   4.592  17.441 -0.5159 -0.0742 -0.0404
  188MPD1     C 2911   2.626   4.531   9.566  0.1876  0.6414  1.0798
  188MPD1    C1 2912   2.684   4.525   9.687  0.5808  0.5821 -0.3951
  188MPD1    C2 2913   2.682   4.404   9.758 -0.5734 -0.2799  1.1908
  188MPD1    C3 2914   2.586   4.311   9.730 -0.5893 -0.0853  0.2630
  188MPD1    C4 2915   2.511   4.323   9.617  0.3657  0.1140  0.4794
  188MPD1    C5 2916   2.539   4.428   9.529 -0.3663 -0.6495 -0.4141
  188MPD1     H 2917   2.756   4.393   9.837 -0.2246 -1.5055  0.6982
  188MPD1    H1 2918   2.439   4.251   9.582  2.1830 -1.2136 -0.5460
  188MPD1    H2 2919   2.613   4.618   9.503  0.5444 -0.2806 -0.2678
  188MPD1    H3 2920   2.481   4.452   9.441 -2.7511  1.1386  1.6076
  188MPD1     N 2921   2.572   4.186   9.794  0.7807  0.6449 -0.7843
  188MPD1    H5 2922   2.536   4.109   9.740  2.0945 -1.1225  0.8329
  188MPD1    N1 2923   2.763   4.632   9.731  0.4173 -0.1192 -0.1835
  188MPD1    H6 2924   2.757   4.642   9.832 -1.9526 -2.6484 -0.0911
  188MPD1    H7 2925   2.729   4.720   9.692 -1.2488  0.6981  3.1821
  189MPD1     C 2926   0.334   0.377   1.077 -0.7538  0.6110 -0.0255
  189MPD1    C1 2927   0.340   0.410   0.942 -0.2400  0.0769  0.1805
  189MPD1    C2 2928   0.231   0.467   0.892 -0.2021 -0.3922  0.0978
  189MPD1    C3 2929   0.116   0.494   0.960 -0.1089  0.6991 -0.0300
  189MPD1    C4 2930   0.122   0.464   1.100  0.1663  0.1029  0.8308
  189MPD1    C5 2931   0.235   0.410   1.159 -0.3934  0.0798 -0.0372
  189MPD1     H 2932   0.216   0.490   0.787  0.3057 -1.0032 -0.1066
  189MPD1    H1 2933   0.041   0.489   1.168  0.6301 -0.9818  1.7904
  189MPD1    H2 2934   0.422   0.333   1.123 -0.7565  0.7224  0.0831
  189MPD1    H3 2935   0.241   0.392   1.266 -0.9845  0.1842  0.0175
  189MPD1     N 2936   0.000   0.550   0.895 -0.4590  0.1207 -0.2192
  189MPD1    H5 2937   0.005   0.552   0.794  1.5053 -1.3015 -0.1503
  189MPD1    N1 2938   0.437   0.356   0.857 -0.6547 -0.3301 -0.4845
  189MPD1    H6 2939   0.527   0.358   0.905  0.3919 -0.1939 -2.4682
  189MPD1    H7 2940   0.448   0.424   0.783 -2.2749 -0.9186 -1.2643
  190MPD1     C 2941   3.149   3.815  15.707 -0.2189 -0.3564  0.2392
  190MPD1    C1 2942   3.210   3.786  15.827  0.0370 -0.3582 -0.2317
  190MPD1    C2 2943   3.344   3.797  15.835 -0.7769  0.0033  0.0824
  190MPD1    C3 2944   3.418   3.855  15.733 -0.4940  0.0686  0.2404
  190MPD1    C4 2945   3.349   3.885  15.618 -0.5523 -0.1309 -0.1377
  190MPD1    C5 2946   3.214   3.859  15.601  0.0415 -0.7016 -0.0495
  190MPD1     H 2947   3.377   3.761  15.932 -2.5708  1.8049  1.3849
  190MPD1    H1 2948   3.400   3.922  15.530  0.3149  3.0358  1.6977
  190MPD1    H2 2949   3.044   3.797  15.689 -0.0400 -0.7831 -0.3663
  190MPD1    H3 2950   3.165   3.887  15.508  0.2416  2.7756  0.8990
  190MPD1     N 2951   3.551   3.872  15.749 -0.1289  0.0098 -0.0209
  190MPD1    H5 2952   3.582   3.867  15.845 -1.7375  0.0477  0.4901
  190MPD1    N1 2953   3.144   3.751  15.949  0.1483 -0.3485 -0.3338
  190MPD1    H6 2954   3.043   3.740  15.940  0.0342 -1.6155  2.4688
  190MPD1    H7 2955   3.167   3.815  16.024  1.5653 -1.3890  0.1184
  191MPD1     C 2956   3.076   0.401  13.324  0.0146 -0.0996 -0.6111
  191MPD1    C1 2957   3.086   0.511  13.240 -0.7262 -0.8167  0.1174
  191MPD1    C2 2958   2.967   0.571  13.201 -0.1078 -0.6207  0.3219
  191MPD1    C3 2959   2.846   0.543  13.265  0.2360 -0.3929 -0.5433
  191MPD1    C4 2960   2.842   0.453  13.366 -0.5356  0.1069 -0.2228
  191MPD1    C5 2961   2.959   0.381  13.388  0.6358 -0.1067 -0.6557
  191MPD1     H 2962   2.972   0.655  13.133 -2.4307  0.7710  1.8798
  191MPD1    H1 2963   2.746   0.417  13.403 -1.0687 -0.0868 -1.7871
  191MPD1    H2 2964   3.163   0.342  13.352 -0.8723 -1.2572 -0.3047
  191MPD1    H3 2965   2.964   0.290  13.447  2.0117  0.4312  0.0551
  191MPD1     N 2966   2.731   0.611  13.221  0.2642 -0.0456  0.0300
  191MPD1    H5 2967   2.736   0.681  13.148  0.8000 -3.1785 -2.9314
  191MPD1    N1 2968   3.208   0.535  13.169  0.5334  0.1277  0.4703
  191MPD1    H6 2969   3.282   0.516  13.236  0.4687 -1.6949  0.0231
  191MPD1    H7 2970   3.216   0.634  13.148  0.0224 -0.2456 -1.5543
  192MPD1     C 2971   1.800   0.464  12.720  0.3822 -0.1861 -0.2530
  192MPD1    C1 2972   1.830   0.407  12.843  0.3016 -0.3089  0.6649
  192MPD1    C2 2973   1.930   0.461  12.921 -0.4086  0.5004 -0.0276
  192MPD1    C3 2974   1.999   0.576  12.879 -0.1049  0.0478  0.4491
  192MPD1    C4 2975   1.970   0.634  12.755  0.7391 -0.1297  0.0935
  192MPD1    C5 2976   1.878   0.572  12.676  0.0828 -0.3640  0.0293
  192MPD1     H 2977   1.950   0.428  13.022 -3.0847 -0.5989  0.1366
  192MPD1    H1 2978   2.019   0.726  12.725 -0.6643  1.3776  2.4270
  192MPD1    H2 2979   1.723   0.427  12.653 -0.5727  1.0960  0.1393
  192MPD1    H3 2980   1.858   0.628  12.585 -0.5338  0.3595  0.6099
  192MPD1     N 2981   2.094   0.642  12.963  0.1855 -0.0431 -0.2218
  192MPD1    H5 2982   2.146   0.714  12.913 -1.0450  0.8296 -0.2610
  192MPD1    N1 2983   1.763   0.283  12.871  0.5957 -0.3360  0.2372
  192MPD1    H6 2984   1.765   0.261  12.971 -1.0729 -2.9925 -0.2885
  192MPD1    H7 2985   1.678   0.266  12.817 -0.8957  0.2689  2.3730
  193MPD1     C 2986   2.328   1.219  15.791  0.2640 -0.4119 -0.1002
  193MPD1    C1 2987   2.351   1.333  15.867 -0.1060 -0.1685  0.5186
  193MPD1    C2 2988   2.394   1.318  15.994  0.8207 -1.0796 -0.2933
  193MPD1    C3 2989   2.427   1.195  16.040 -0.1745  0.0183  1.2900
  193MPD1    C4 2990   2.407   1.076  15.967  0.1647  0.1997  0.1297
  193MPD1    C5 2991   2.349   1.092  15.837 -0.1845 -0.0130 -0.4875
  193MPD1     H 2992   2.401   1.405  16.058  0.8372 -2.5884  1.7578
  193MPD1    H1 2993   2.421   0.974  16.001 -0.1513  0.4288  0.9245
  193MPD1    H2 2994   2.289   1.230  15.691  0.0767  0.3041  0.0514
  193MPD1    H3 2995   2.326   1.013  15.766 -0.8790  0.8945 -1.2575
  193MPD1     N 2996   2.465   1.167  16.167  0.1452  0.5172  0.8488
  193MPD1    H5 2997   2.517   1.080  16.172  1.6850  1.2481 -2.3068
  193MPD1    N1 2998   2.315   1.460  15.811  0.1580  0.3955 -0.1043
  193MPD1    H6 2999   2.367   1.527  15.867  0.4119  0.1695 -0.0671
  193MPD1    H7 3000   2.338   1.469  15.712  0.7457 -0.3589 -0.0391
  194MPD1     C 3001   4.563   2.276  17.328  0.7153  0.3242 -0.7460
  194MPD1    C1 3002   4.680   2.272  17.250 -0.0926  1.1643  0.5015
  194MPD1    C2 3003   0.055   2.208  17.306  0.0532  0.3322 -0.3787
  194MPD1    C3 3004   0.053   2.155  17.432  0.2041  0.3338  0.1075
  194MPD1    C4 3005   4.666   2.148  17.497 -0.0578  0.4669 -0.5993
  194MPD1    C5 3006   4.559   2.211  17.446 -0.4673  0.2185  0.8875
  194MPD1     H 3007   0.153   2.212  17.259 -0.1712  0.9577 -0.7947
  194MPD1    H1 3008   4.670   2.108  17.597 -0.2541  2.2535  0.1259
  194MPD1    H2 3009   4.473   2.329  17.298 -0.7079 -0.3613  2.3719
  194MPD1    H3 3010   4.469   2.231  17.503  0.3801  0.2364  2.2029
  194MPD1     N 3011   0.169   2.098  17.486 -0.3090 -0.6695 -0.0982
  194MPD1    H5 3012   0.247   2.098  17.420 -0.7044 -1.5945 -0.5665
  194MPD1    N1 3013   4.690   2.338  17.127 -0.4609 -0.0236 -0.5190
  194MPD1    H6 3014   4.605   2.334  17.070 -0.0251  1.9500 -1.3189
  194MPD1    H7 3015   0.032   2.307  17.067  0.7554 -1.6594  1.9083
  195MPD1     C 3016   2.904   0.329   1.377 -0.5858  0.6053  0.4677
  195MPD1    C1 3017   2.799   0.236   1.402  0.1619 -0.0469 -0.6107
  195MPD1    C2 3018   2.778   0.141   1.303 -0.1652 -0.8191  0.2715
  195MPD1    C3 3019   2.863   0.135   1.194  0.5528  0.8236 -0.0215
  195MPD1    C4 3020   2.964   0.223   1.176 -0.5500  0.2429  0.1135
  195MPD1    C5 3021   2.983   0.325   1.269 -0.3592  0.3111 -0.0815
  195MPD1     H 3022   2.690   0.077   1.303 -0.6444 -0.1464 -1.0834
  195MPD1    H1 3023   3.030   0.206   1.092 -1.5627 -1.5245 -0.3226
  195MPD1    H2 3024   2.912   0.421   1.434  2.1648 -0.0903  1.2100
  195MPD1    H3 3025   3.061   0.394   1.240 -0.5858  1.4079  1.9250
  195MPD1     N 3026   2.858   0.030   1.093  0.1984  0.0290 -0.3162
  195MPD1    H5 3027   2.917   0.049   1.013  0.0541  1.4259 -0.0965
  195MPD1    N1 3028   2.708   0.260   1.512  0.0727 -0.3591  0.0733
  195MPD1    H6 3029   2.672   0.171   1.546  2.8456 -1.6115 -0.2306
  195MPD1    H7 3030   2.759   0.315   1.581 -1.6483 -0.7077  1.6284
  196MPD1     C 3031   1.861   3.829   0.607 -0.1313 -0.3463  0.0279
  196MPD1    C1 3032   1.800   3.793   0.729 -0.5984  0.3416  0.6662
  196MPD1    C2 3033   1.815   3.879   0.833  0.0305 -0.0549 -0.1270
  196MPD1    C3 3034   1.898   3.991   0.824 -0.1783 -0.1916 -0.1605
  196MPD1    C4 3035   1.966   4.015   0.702 -0.0820 -0.3670 -0.3047
  196MPD1    C5 3036   1.939   3.937   0.593  0.4256 -0.1573 -0.0932
  196MPD1     H 3037   1.757   3.853   0.922 -1.1719 -0.2119 -0.9616
  196MPD1    H1 3038   2.029   4.102   0.688 -0.7744  0.2476  0.3899
  196MPD1    H2 3039   1.838   3.778   0.514 -3.0285 -1.0097  1.0888
  196MPD1    H3 3040   1.985   3.962   0.498 -0.2011  2.1648  0.1931
  196MPD1     N 3041   1.909   4.088   0.930 -0.3457  0.5043 -0.1828
  196MPD1    H5 3042   1.977   4.162   0.910  1.3228 -0.9365  0.1523
  196MPD1    N1 3043   1.709   3.690   0.737  0.0157  0.0248  0.3959
  196MPD1    H6 3044   1.684   3.660   0.831  1.6551 -0.3535  0.6998
  196MPD1    H7 3045   1.617   3.708   0.695 -0.3606  0.9788  1.6289
  197MPD1     C 3046   1.143   1.151  17.380  0.0030 -0.0048 -0.0550
  197MPD1    C1 3047   1.262   1.203  17.429  0.2391 -0.3575 -0.8311
  197MPD1    C2 3048   1.307   1.317  17.372 -0.3579 -0.0483  0.1223
  197MPD1    C3 3049   1.249   1.370  17.255 -1.1100 -0.2732  0.3224
  197MPD1    C4 3050   1.142   1.310  17.205 -0.6385 -0.5866 -0.1811
  197MPD1    C5 3051   1.081   1.210  17.273  0.7801 -0.2771 -0.8014
  197MPD1     H 3052   1.389   1.367  17.423 -0.2367 -1.3392  1.1959
  197MPD1    H1 3053   1.091   1.346  17.116 -0.4506 -0.9340 -0.4282
  197MPD1    H2 3054   1.112   1.053  17.414 -0.7427  0.1663 -0.2406
  197MPD1    H3 3055   0.997   1.157  17.230  1.1484 -1.0088 -0.6274
  197MPD1     N 3056   1.298   1.477  17.180  0.5544 -0.1640  0.3247
  197MPD1    H5 3057   1.256   1.499  17.090 -1.4078 -0.8900  1.0589
  197MPD1    N1 3058   1.329   1.141  17.535 -0.4045 -0.3584 -0.6555
  197MPD1    H6 3059   1.425   1.161  17.560 -0.2554  0.0818 -1.5881
  197MPD1    H7 3060   1.290   1.050  17.560  2.7330 -1.2511  0.9525
  198MPD1     C 3061   3.306   4.052  15.179 -0.1463 -0.2227 -0.0028
  198MPD1    C1 3062   3.406   4.069  15.277  0.1036 -0.1514 -0.7160
  198MPD1    C2 3063   3.414   4.195  15.341  0.3323 -0.0506 -0.2732
  198MPD1    C3 3064   3.317   4.286  15.321 -0.1949  0.3273 -0.6826
  198MPD1    C4 3065   3.213   4.267  15.236  0.0675 -0.2225 -0.1405
  198MPD1    C5 3066   3.211   4.153  15.163  0.0110 -0.0042  0.0840
  198MPD1     H 3067   3.479   4.223  15.423  2.1438 -2.6965 -0.8162
  198MPD1    H1 3068   3.138   4.345  15.228  1.0205  0.9560  2.3104
  198MPD1    H2 3069   3.302   3.966  15.112 -2.3701  1.0601 -1.5219
  198MPD1    H3 3070   3.136   4.139  15.086 -0.3651  2.1411  0.0464
  198MPD1     N 3071   3.331   4.411  15.391  0.1757  0.4014 -0.2412
  198MPD1    H5 3072   3.416   4.421  15.446 -0.5300  1.3855  0.6829
  198MPD1    N1 3073   3.510   3.975  15.292  0.6068 -0.1341 -0.4224
  198MPD1    H6 3074   3.552   3.980  15.384 -1.2996  0.3485  0.4185
  198MPD1    H7 3075   3.477   3.879  15.278  1.1194 -0.3363 -0.2397
  199MPD1     C 3076   1.296   0.860   9.285  1.1541  0.1344 -0.2036
  199MPD1    C1 3077   1.212   0.930   9.194  0.0655 -0.5319  0.1017
  199MPD1    C2 3078   1.094   0.987   9.229  0.3327  0.5442 -0.1177
  199MPD1    C3 3079   1.058   0.983   9.367 -0.0567  0.6640  0.1369
  199MPD1    C4 3080   1.134   0.915   9.453 -0.1171 -0.0056 -0.5359
  199MPD1    C5 3081   1.253   0.849   9.413 -0.7644 -0.2239 -0.2158
  199MPD1     H 3082   1.034   1.035   9.152 -1.8560 -1.1969  0.4781
  199MPD1    H1 3083   1.096   0.912   9.555  2.6492 -1.9353  0.4487
  199MPD1    H2 3084   1.393   0.826   9.253  0.1606 -0.4879 -2.5290
  199MPD1    H3 3085   1.303   0.788   9.488  0.1594 -0.2484 -0.8495
  199MPD1     N 3086   0.931   1.025   9.416 -0.2255 -0.2091  0.3710
  199MPD1    H5 3087   0.916   1.021   9.516 -1.3524 -1.4493  0.1436
  199MPD1    N1 3088   1.262   0.951   9.062 -0.0168 -0.0427  0.0867
  199MPD1    H6 3089   1.186   0.959   8.994  0.3892  0.5773 -0.2967
  199MPD1    H7 3090   1.344   0.895   9.039 -0.0456 -0.4340  0.9637
  200MPD1     C 3091   4.610   1.515  15.135  0.8077 -0.0108  0.3034
  200MPD1    C1 3092   4.538   1.404  15.086  0.5012  0.4005  0.1268
  200MPD1    C2 3093   4.557   1.357  14.956  0.0811 -0.1709  0.4971
  200MPD1    C3 3094   4.669   1.401  14.893  0.0578 -0.2246 -0.1043
  200MPD1    C4 3095   0.009   1.505  14.934 -0.3577 -1.1433 -0.0736
  200MPD1    C5 3096   4.708   1.563  15.054  0.3836  0.3105  0.3783
  200MPD1     H 3097   4.505   1.272  14.913 -0.6664  0.3756  0.3350
  200MPD1    H1 3098   0.090   1.547  14.876 -1.5962  1.4231  0.0686
  200MPD1    H2 3099   4.596   1.558  15.233  1.7193 -1.4021  1.0303
  200MPD1    H3 3100   0.033   1.650  15.081  2.2899 -0.7583 -0.4091
  200MPD1     N 3101   4.694   1.343  14.763 -0.3509 -0.2500 -0.7780
  200MPD1    H5 3102   4.628   1.276  14.724 -3.4462  1.5345  1.4638
  200MPD1    N1 3103   4.431   1.363  15.157 -0.1270  0.9648  0.0707
  200MPD1    H6 3104   4.446   1.263  15.163  0.7941  1.1615  1.0291
  200MPD1    H7 3105   4.438   1.388  15.255  2.8402  0.7501 -0.0806
  201MPD1     C 3106   1.900   3.863  13.807 -0.6543 -0.3879  0.2119
  201MPD1    C1 3107   1.889   3.968  13.723  0.0810  0.1686  0.4355
  201MPD1    C2 3108   1.998   4.042  13.686 -0.2787 -0.0357 -0.3970
  201MPD1    C3 3109   2.120   4.016  13.743 -1.2941 -0.8476 -0.6288
  201MPD1    C4 3110   2.140   3.904  13.809  0.3293  0.2400 -0.0787
  201MPD1    C5 3111   2.029   3.824  13.841  1.0406 -0.8218  0.0018
  201MPD1     H 3112   2.001   4.121  13.612 -1.5339  0.5519  0.1706
  201MPD1    H1 3113   2.231   3.869  13.856 -0.7565 -1.7416  0.5641
  201MPD1    H2 3114   1.815   3.800  13.828 -0.2146 -1.3434 -0.8817
  201MPD1    H3 3115   2.040   3.739  13.906 -0.7249 -1.5729 -0.6769
  201MPD1     N 3116   2.228   4.102  13.717  0.1093 -0.0534  0.2810
  201MPD1    H5 3117   2.222   4.182  13.654 -1.2507  0.4549  1.0382
  201MPD1    N1 3118   1.771   3.990  13.653  0.1851 -0.2924 -0.0825
  201MPD1    H6 3119   1.695   3.952  13.710 -1.9736  2.3605 -1.1663
  201MPD1    H7 3120   1.766   4.091  13.642  1.8063 -0.2314 -0.1728
  202MPD1     C 3121   1.608   4.131   9.138  0.0032 -0.0117 -0.1279
  202MPD1    C1 3122   1.609   4.270   9.136 -0.2130 -0.3142 -0.0964
  202MPD1    C2 3123   1.543   4.329   9.244 -1.1285 -0.4316  0.1787
  202MPD1    C3 3124   1.500   4.263   9.357 -0.3686 -0.0585 -0.3951
  202MPD1    C4 3125   1.530   4.128   9.360  0.3864  0.4798 -0.2148
  202MPD1    C5 3126   1.580   4.061   9.254  0.1311  0.3515  0.0619
  202MPD1     H 3127   1.535   4.437   9.242  0.9348 -0.2847 -0.5634
  202MPD1    H1 3128   1.512   4.068   9.449  0.7300 -1.0855 -1.2015
  202MPD1    H2 3129   1.642   4.075   9.051  2.9403 -0.4491  1.2893
  202MPD1    H3 3130   1.581   3.953   9.252 -1.8391  0.3449 -0.9167
  202MPD1     N 3131   1.455   4.323   9.474  0.1661 -0.4103 -0.5093
  202MPD1    H5 3132   1.422   4.261   9.548 -1.4775  0.4312 -0.5353
  202MPD1    N1 3133   1.612   4.339   9.015  1.0003  0.4452 -0.1199
  202MPD1    H6 3134   1.625   4.439   9.021  1.2508  0.5623 -2.5972
  202MPD1    H7 3135   1.682   4.293   8.957  1.3853  1.0913 -0.1582
  203MPD1     C 3136   0.580   0.594  12.203 -0.0710 -0.3316 -1.0857
  203MPD1    C1 3137   0.700   0.565  12.139  0.3512  0.6959  0.3850
  203MPD1    C2 3138   0.754   0.441  12.153  0.2975 -0.3426 -0.2028
  203MPD1    C3 3139   0.707   0.356  12.251 -0.0025 -0.1640  0.2177
  203MPD1    C4 3140   0.588   0.383  12.311  0.5498 -0.0430  0.1848
  203MPD1    C5 3141   0.518   0.499  12.282 -0.2875 -0.2355 -0.5291
  203MPD1     H 3142   0.842   0.407  12.099 -0.1398  0.8778 -1.6849
  203MPD1    H1 3143   0.539   0.316  12.381  1.1671  0.1538  0.8067
  203MPD1    H2 3144   0.536   0.690  12.179 -0.5801 -0.0026  1.2479
  203MPD1    H3 3145   0.424   0.525  12.330  0.3380  1.1388 -0.0409
  203MPD1     N 3146   0.785   0.240  12.277 -0.4340 -0.0759 -0.1211
  203MPD1    H5 3147   0.875   0.228  12.232  0.2747  0.5321  1.1272
  203MPD1    N1 3148   0.753   0.650  12.044  0.4135 -0.2167  0.2059
  203MPD1    H6 3149   0.853   0.635  12.036  0.2185 -0.0111 -2.6374
  203MPD1    H7 3150   0.738   0.748  12.066  0.1197 -0.2343  0.0937
  204MPD1     C 3151   4.250   2.309  17.055 -0.6336 -0.2593  0.1426
  204MPD1    C1 3152   4.369   2.308  16.983 -0.3545 -0.0318  0.0915
  204MPD1    C2 3153   4.429   2.186  16.961  0.0231 -0.9555  0.2376
  204MPD1    C3 3154   4.373   2.070  17.004  0.3722  0.2424  1.1254
  204MPD1    C4 3155   4.246   2.064  17.054  0.0390 -0.4413  0.3206
  204MPD1    C5 3156   4.189   2.184  17.085 -0.2847  0.0380  0.0171
  204MPD1     H 3157   4.523   2.180  16.908 -0.2202 -1.5453 -0.1292
  204MPD1    H1 3158   4.183   1.976  17.064 -0.9582 -0.0016 -2.0318
  204MPD1    H2 3159   4.210   2.398  17.103 -0.7479  0.4286 -1.2280
  204MPD1    H3 3160   4.101   2.188  17.148 -0.0463  0.5363  0.3272
  204MPD1     N 3161   4.446   1.953  16.984  0.1418 -0.2613 -0.2885
  204MPD1    H5 3162   4.545   1.971  16.971  0.3087 -0.3207  0.8671
  204MPD1    N1 3163   4.438   2.423  16.966  0.2473 -0.1877 -0.1220
  204MPD1    H6 3164   4.375   2.496  16.933  1.9073  0.8880 -0.8885
  204MPD1    H7 3165   4.509   2.418  16.894  0.4768  1.3185 -0.0012
  205MPD1     C 3166   0.548   0.207  16.946 -0.7776  0.3788 -0.3487
  205MPD1    C1 3167   0.469   0.301  16.886 -0.1952 -0.1372  0.1923
  205MPD1    C2 3168   0.388   0.381  16.968 -0.4496 -0.4518  0.3279
  205MPD1    C3 3169   0.373   0.358  17.104  0.4977  0.1782 -0.0593
  205MPD1    C4 3170   0.440   0.249  17.153  0.0121  0.3065 -0.0936
  205MPD1    C5 3171   0.529   0.185  17.079 -0.5852 -0.3041  0.1700
  205MPD1     H 3172   0.335   0.463  16.921 -3.0175 -1.1968  1.9343
  205MPD1    H1 3173   0.418   0.208  17.251  1.3012  0.7653  0.3817
  205MPD1    H2 3174   0.624   0.155  16.887  0.4363  1.7939 -0.0328
  205MPD1    H3 3175   0.578   0.103  17.130  1.0509 -0.5430 -1.8010
  205MPD1     N 3176   0.291   0.432  17.192  0.0289  0.2189  0.1984
  205MPD1    H5 3177   0.270   0.389  17.282 -2.3486  1.8042  0.4304
  205MPD1    N1 3178   0.504   0.354  16.758 -0.4496  0.0337 -0.3192
  205MPD1    H6 3179   0.531   0.270  16.706  0.0788 -0.1406  0.2334
  205MPD1    H7 3180   0.420   0.399  16.724  1.3978  1.9141 -2.3569
  206MPD1     C 3181   0.223   3.292  17.309  0.1036  0.0393 -0.2756
  206MPD1    C1 3182   0.165   3.416  17.279 -0.1571  0.0190  0.2790
  206MPD1    C2 3183   0.211   3.465  17.157  0.0661 -0.0979 -0.2429
  206MPD1    C3 3184   0.274   3.384  17.060  0.0902  0.3948  0.1346
  206MPD1    C4 3185   0.308   3.251  17.094  0.5819 -0.3546 -0.5040
  206MPD1    C5 3186   0.297   3.216  17.221  0.5457 -0.2926 -0.0326
  206MPD1     H 3187   0.190   3.570  17.139  0.4720 -0.1587 -1.0518
  206MPD1    H1 3188   0.359   3.183  17.026  0.8375 -2.1793  1.4867
  206MPD1    H2 3189   0.209   3.234  17.399  0.8320  0.9302  0.4082
  206MPD1    H3 3190   0.336   3.119  17.250  0.8893 -0.0968  0.1695
  206MPD1     N 3191   0.305   3.420  16.925 -0.2812 -0.4015  0.1204
  206MPD1    H5 3192   0.340   3.356  16.855  1.3430 -1.4845  1.9023
  206MPD1    N1 3193   0.093   3.490  17.369  0.2132 -0.0627  0.1408
  206MPD1    H6 3194   0.042   3.426  17.431 -1.2207 -1.2723 -2.3103
  206MPD1    H7 3195   0.026   3.553  17.325 -0.5702 -0.7543  0.3449
  207MPD1     C 3196   1.965   1.737   9.508  0.1403  0.1421  0.4008
  207MPD1    C1 3197   1.932   1.644   9.607 -0.2008  0.1051  0.0199
  207MPD1    C2 3198   2.026   1.634   9.711  0.2116  0.8688  0.5323
  207MPD1    C3 3199   2.147   1.710   9.711  0.5919  1.0515 -1.0651
  207MPD1    C4 3200   2.157   1.814   9.625 -0.2123  0.3444  0.1977
  207MPD1    C5 3201   2.063   1.824   9.530  0.2030 -0.2037 -0.3785
  207MPD1     H 3202   2.009   1.566   9.794  1.7354 -0.9748 -0.6522
  207MPD1    H1 3203   2.246   1.875   9.628 -0.9839  1.4606  0.2873
  207MPD1    H2 3204   1.897   1.745   9.424  0.3603  0.1657  0.2247
  207MPD1    H3 3205   2.074   1.898   9.452 -1.2993 -0.3798 -0.7581
  207MPD1     N 3206   2.248   1.693   9.814  0.0458 -0.2063  0.2014
  207MPD1    H5 3207   2.320   1.764   9.821 -0.6845  0.6499 -1.0314
  207MPD1    N1 3208   1.818   1.559   9.585 -0.3917 -1.0447 -0.0811
  207MPD1    H6 3209   1.777   1.521   9.670  2.6838 -2.3914  0.8034
  207MPD1    H7 3210   1.745   1.598   9.527  1.2675 -1.4208 -2.4418
  208MPD1     C 3211   1.255   0.532  17.045  0.0011  0.4579  0.2482
  208MPD1    C1 3212   1.136   0.468  17.015  0.2203  0.7103  0.0938
  208MPD1    C2 3213   1.084   0.390  17.119  0.1820  0.3108  0.4851
  208MPD1    C3 3214   1.163   0.366  17.233  0.1917  0.6821  0.3370
  208MPD1    C4 3215   1.285   0.428  17.247  1.2962  0.3387 -0.6024
  208MPD1    C5 3216   1.334   0.508  17.155  0.3826 -0.1588  0.2140
  208MPD1     H 3217   0.991   0.337  17.102  0.6588  0.1342 -1.5817
  208MPD1    H1 3218   1.353   0.388  17.322  0.6251 -1.5582 -1.0035
  208MPD1    H2 3219   1.301   0.602  16.977 -0.8959  1.9880  1.2342
  208MPD1    H3 3220   1.431   0.556  17.157  0.6765 -0.7547  0.2872
  208MPD1     N 3221   1.110   0.263  17.316  0.2654 -0.1200 -0.4798
  208MPD1    H5 3222   1.015   0.229  17.302  0.1618  0.8882 -2.1758
  208MPD1    N1 3223   1.050   0.525  16.919 -0.3743 -1.2208  0.2698
  208MPD1    H6 3224   1.113   0.549  16.843 -0.1208  1.0833  1.2028
  208MPD1    H7 3225   0.973   0.464  16.893 -1.3408 -0.4743  1.3635
  209MPD1     C 3226   2.922   0.372  10.660  0.0400  0.1325 -0.8083
  209MPD1    C1 3227   2.801   0.423  10.611 -0.4971  0.0970  0.0722
  209MPD1    C2 3228   2.746   0.535  10.676 -0.5821  0.3397 -0.1687
  209MPD1    C3 3229   2.816   0.602  10.775 -0.1628 -0.9314  0.7453
  209MPD1    C4 3230   2.942   0.556  10.807 -0.8917  0.7925 -0.1084
  209MPD1    C5 3231   2.994   0.442  10.753  0.2236 -0.0059 -0.1705
  209MPD1     H 3232   2.645   0.570  10.656 -0.3339  1.9740  1.4723
  209MPD1    H1 3233   3.005   0.601  10.883 -1.7511  3.0237 -0.6877
  209MPD1    H2 3234   2.974   0.286  10.619 -0.6920 -0.9088  0.4611
  209MPD1    H3 3235   3.089   0.408  10.795 -1.2815 -2.7374  1.0205
  209MPD1     N 3236   2.751   0.714  10.833  0.4870 -0.2487 -0.8918
  209MPD1    H5 3237   2.658   0.741  10.803  0.9420  1.3737 -0.8097
  209MPD1    N1 3238   2.724   0.341  10.525 -0.3052 -0.3589 -0.3929
  209MPD1    H6 3239   2.787   0.278  10.476 -1.3485 -0.6967 -1.3104
  209MPD1    H7 3240   2.681   0.402  10.456 -2.3228 -1.4571 -0.1118
  210MPD1     C 3241   2.759   1.284  11.661  0.0382 -0.2020  0.1738
  210MPD1    C1 3242   2.820   1.358  11.564  0.5830 -0.1826 -0.5552
  210MPD1    C2 3243   2.795   1.322  11.429  0.7230  0.1588 -0.8145
  210MPD1    C3 3244   2.740   1.201  11.399 -0.2116 -0.8512 -0.3216
  210MPD1    C4 3245   2.714   1.114  11.503 -0.4433  0.2607 -0.3831
  210MPD1    C5 3246   2.717   1.156  11.636  0.0959 -0.7461 -0.8073
  210MPD1     H 3247   2.837   1.386  11.352  3.1755 -0.4042  0.0355
  210MPD1    H1 3248   2.670   1.016  11.488 -0.6665  0.2984  0.0193
  210MPD1    H2 3249   2.777   1.303  11.766 -0.5269  2.9063 -0.3051
  210MPD1    H3 3250   2.689   1.092  11.719 -1.4154  1.7357  0.5894
  210MPD1     N 3251   2.731   1.145  11.265  0.2114  0.0893 -0.2366
  210MPD1    H5 3252   2.708   1.047  11.254 -1.4216  0.3806  0.6139
  210MPD1    N1 3253   2.871   1.484  11.596 -0.0692 -0.3092 -0.3409
  210MPD1    H6 3254   2.939   1.512  11.526  0.5050 -0.1648  0.2709
  210MPD1    H7 3255   2.919   1.467  11.685  1.1434  4.1034 -0.1631
  211MPD1     C 3256   0.935   0.003  16.067  0.5417  0.3154 -0.4058
  211MPD1    C1 3257   0.840   0.035  15.977 -0.4137  0.1515  0.0019
  211MPD1    C2 3258   0.732   0.105  16.018 -0.1823 -0.4853  0.3349
  211MPD1    C3 3259   0.729   0.161  16.148 -0.1393  0.6569  0.1977
  211MPD1    C4 3260   0.836   0.136  16.233 -0.8890 -0.3283  0.6110
  211MPD1    C5 3261   0.937   0.058  16.193 -1.0840 -0.5064  0.0317
  211MPD1     H 3262   0.643   0.125  15.961 -1.5792  2.0445  3.4136
  211MPD1    H1 3263   0.837   0.174  16.335  2.1274 -1.0663  0.8550
  211MPD1    H2 3264   1.025   4.686  16.037  1.4044  0.2585  2.2749
  211MPD1    H3 3265   1.026   0.041  16.253  1.6739  3.8013 -2.7981
  211MPD1     N 3266   0.619   0.244  16.170  0.0548 -0.1185  0.5440
  211MPD1    H5 3267   0.560   0.265  16.089 -0.6811 -0.4268  0.9975
  211MPD1    N1 3268   0.848   4.684  15.858  0.6822  0.5200  0.4589
  211MPD1    H6 3269   0.944   4.670  15.828 -0.3252  0.3041 -2.6727
  211MPD1    H7 3270   0.792   4.724  15.783  0.7690  1.8208  1.0862
  212MPD1     C 3271   4.731   3.826  16.429  0.2131 -0.0382 -1.0876
  212MPD1    C1 3272   0.043   3.697  16.426 -0.1085  0.1654  0.7418
  212MPD1    C2 3273   0.023   3.619  16.541  0.6118  0.0451 -0.4069
  212MPD1    C3 3274   4.685   3.653  16.646  0.1706  0.5913 -0.8046
  212MPD1    C4 3275   4.631   3.783  16.644  0.0720 -0.0219 -0.4563
  212MPD1    C5 3276   4.669   3.864  16.543  0.8354 -0.3615 -0.3543
  212MPD1     H 3277   0.080   3.528  16.553 -0.4601 -0.4931  0.6646
  212MPD1    H1 3278   4.563   3.823  16.719 -0.4761  1.8964 -2.0014
  212MPD1    H2 3279   0.024   3.899  16.354  0.4595  0.8594 -0.1280
  212MPD1    H3 3280   4.633   3.966  16.546  0.4603 -0.5107  0.1723
  212MPD1     N 3281   4.650   3.576  16.756  0.1330 -0.2386 -0.2781
  212MPD1    H5 3282   4.571   3.617  16.804 -2.3429 -3.3438 -1.7283
  212MPD1    N1 3283   0.122   3.654  16.318 -0.0238  0.0786 -0.1128
  212MPD1    H6 3284   0.085   3.685  16.228 -1.8710  2.1853  1.3629
  212MPD1    H7 3285   0.138   3.554  16.325 -1.2463 -0.0906  0.2494
  213MPD1     C 3286   2.810   4.145  15.975 -0.7073  0.0590  0.6604
  213MPD1    C1 3287   2.885   4.078  15.880 -0.1244  0.0647 -0.5270
  213MPD1    C2 3288   2.841   4.077  15.745 -0.8163 -0.1473  0.4161
  213MPD1    C3 3289   2.721   4.129  15.712 -0.6450 -0.0604  0.3102
  213MPD1    C4 3290   2.634   4.177  15.810  0.1645 -0.9908 -0.0732
  213MPD1    C5 3291   2.689   4.188  15.938 -0.0975  1.0283  0.0338
  213MPD1     H 3292   2.908   4.034  15.671 -0.2807 -1.5363  1.7068
  213MPD1    H1 3293   2.539   4.226  15.791  0.2925 -1.0213 -0.7845
  213MPD1    H2 3294   2.851   4.168  16.072 -0.3876  0.3976  0.4467
  213MPD1    H3 3295   2.627   4.229  16.017  1.4722 -0.7255  2.1925
  213MPD1     N 3296   2.690   4.146  15.576 -0.3163 -0.0579  0.0527
  213MPD1    H5 3297   2.761   4.120  15.508 -0.9161 -0.9816 -0.2268
  213MPD1    N1 3298   3.023   4.072  15.904 -0.0463 -0.0360  0.9198
  213MPD1    H6 3299   3.063   3.991  15.856 -1.0025 -0.6763  1.2191
  213MPD1    H7 3300   3.050   4.052  16.000  2.7980 -1.0370 -0.0719
  214MPD1     C 3301   1.922   4.237  14.871  0.3522  0.3336 -0.1773
  214MPD1    C1 3302   1.993   4.350  14.904  0.1954  0.2962 -0.0942
  214MPD1    C2 3303   2.112   4.334  14.973 -0.0442 -0.2318 -0.1179
  214MPD1    C3 3304   2.174   4.214  14.991  0.2021 -0.3573  0.1228
  214MPD1    C4 3305   2.105   4.104  14.960 -0.2605 -0.1344  0.0311
  214MPD1    C5 3306   1.981   4.109  14.892 -0.1814  0.1959 -0.6656
  214MPD1     H 3307   2.162   4.427  15.002  2.8202 -2.1588  1.1366
  214MPD1    H1 3308   2.142   4.003  14.973  1.7543  0.9502  2.9344
  214MPD1    H2 3309   1.833   4.234  14.809 -0.8092 -1.2240  1.5691
  214MPD1    H3 3310   1.929   4.021  14.856 -0.1241  0.4955 -1.4924
  214MPD1     N 3311   2.281   4.205  15.077 -0.2191  0.0003  0.6921
  214MPD1    H5 3312   2.314   4.111  15.096  2.8471  0.7004 -1.2855
  214MPD1    N1 3313   1.934   4.475  14.897  0.0805  0.4616  0.0117
  214MPD1    H6 3314   1.905   4.499  14.802 -0.8987 -3.3574 -0.6270
  214MPD1    H7 3315   2.006   4.547  14.908  0.5058  0.3542 -2.0429
  215MPD1     C 3316   2.788   4.722  10.766 -0.0696  0.7224 -0.7982
  215MPD1    C1 3317   2.686   0.078  10.775 -0.8044  0.5098  0.7808
  215MPD1    C2 3318   2.689   0.169  10.877 -0.0577  0.0418  0.1192
  215MPD1    C3 3319   2.805   0.193  10.953 -0.2439 -0.1304  0.3786
  215MPD1    C4 3320   2.916   0.118  10.925  0.2977  0.2989  0.1487
  215MPD1    C5 3321   2.904   0.009  10.847 -0.2579  0.6907 -0.2517
  215MPD1     H 3322   2.601   0.230  10.898 -0.7193 -0.5334 -1.0312
  215MPD1    H1 3323   3.010   0.133  10.978  0.6119  0.4152 -0.4401
  215MPD1    H2 3324   2.790   4.637  10.698 -0.6164  0.2836 -0.2724
  215MPD1    H3 3325   2.986   4.674  10.841 -0.2032  0.6755  0.5802
  215MPD1     N 3326   2.800   0.285  11.062 -0.5528 -0.4800  0.6104
  215MPD1    H5 3327   2.721   0.349  11.065  1.2002  1.6757  1.2305
  215MPD1    N1 3328   2.565   0.056  10.701 -0.1445  0.1767 -0.0798
  215MPD1    H6 3329   2.570   0.010  10.611  1.5920  0.4573 -0.1237
  215MPD1    H7 3330   2.501   0.135  10.698  0.4574  0.5675 -2.4588
  216MPD1     C 3331   4.419   2.936   0.750 -0.4000  0.8279 -1.1634
  216MPD1    C1 3332   4.312   2.858   0.706  0.4763 -0.8694 -0.1695
  216MPD1    C2 3333   4.318   2.720   0.710 -0.4788  0.9433  0.1859
  216MPD1    C3 3334   4.434   2.659   0.740 -0.8853 -0.5185 -0.3078
  216MPD1    C4 3335   4.549   2.732   0.767  0.0643  0.3777  0.7080
  216MPD1    C5 3336   4.534   2.868   0.780 -0.1652 -0.1022  0.2327
  216MPD1     H 3337   4.225   2.673   0.681  0.1335 -0.7537  0.9684
  216MPD1    H1 3338   4.649   2.694   0.783  1.3334  3.4347  0.0622
  216MPD1    H2 3339   4.414   3.043   0.767  0.0312  0.6927 -0.1798
  216MPD1    H3 3340   4.622   2.919   0.817  0.7861 -1.3965 -0.1955
  216MPD1     N 3341   4.424   2.510   0.735  0.2065  0.5754  0.7377
  216MPD1    H5 3342   4.340   2.465   0.699  2.1714  0.3866 -3.5682
  216MPD1    N1 3343   4.190   2.918   0.685 -0.2347  0.2667  0.2765
  216MPD1    H6 3344   4.143   2.860   0.616  0.5279  0.8806 -0.7512
  216MPD1    H7 3345   4.201   3.010   0.642  2.4951  0.6992  1.9452
  217MPD1     C 3346   4.622   0.612   8.635 -0.0678 -1.0824 -0.0022
  217MPD1    C1 3347   0.017   0.561   8.604 -0.5028 -0.4007 -0.3036
  217MPD1    C2 3348   0.087   0.493   8.704  0.6540 -0.0923 -0.5038
  217MPD1    C3 3349   0.037   0.478   8.835 -0.2238 -0.6576 -0.4381
  217MPD1    C4 3350   4.644   0.522   8.870 -0.7656 -1.2593 -0.2320
  217MPD1    C5 3351   4.581   0.593   8.765 -0.2983  0.3207 -0.4991
  217MPD1     H 3352   0.183   0.447   8.685  1.0450  0.2514  0.6931
  217MPD1    H1 3353   4.594   0.513   8.967 -0.3069  0.0024  0.1162
  217MPD1    H2 3354   4.558   0.656   8.560  0.2344  1.1181  1.0157
  217MPD1    H3 3355   4.479   0.627   8.783  0.1615  1.1600  0.5027
  217MPD1     N 3356   0.096   0.402   8.931  0.1941  0.2532  0.4732
  217MPD1    H5 3357   0.046   0.409   9.019 -0.8002  1.5838 -0.1975
  217MPD1    N1 3358   0.063   0.550   8.470  1.0519 -0.1702  0.1289
  217MPD1    H6 3359   0.162   0.529   8.469  0.9912 -0.5012  0.8085
  217MPD1    H7 3360   0.043   0.624   8.403 -1.6158  0.1134  1.2548
  218MPD1     C 3361   1.738   4.434  12.728  0.4585 -0.7297  0.5518
  218MPD1    C1 3362   1.834   4.375  12.647  0.0786  0.4587  0.0722
  218MPD1    C2 3363   1.937   4.457  12.596  0.1543  0.1843 -0.2333
  218MPD1    C3 3364   1.943   4.589  12.636  0.3559 -0.1316 -0.8343
  218MPD1    C4 3365   1.847   4.647  12.717 -0.0711 -0.4466 -0.3471
  218MPD1    C5 3366   1.742   4.565  12.753 -0.0347 -0.2179  0.1081
  218MPD1     H 3367   2.008   4.423  12.522 -0.3688  0.0585 -0.6700
  218MPD1    H1 3368   1.846   0.016  12.749  1.0810 -0.7610  0.7234
  218MPD1    H2 3369   1.656   4.370  12.759 -0.6317 -0.3491 -1.6099
  218MPD1    H3 3370   1.648   4.606  12.788 -0.8660 -0.4761 -1.8433
  218MPD1     N 3371   2.047   4.663  12.584 -0.3175 -0.4911  0.3505
  218MPD1    H5 3372   2.098   4.633  12.502  1.0608  2.4208  0.1544
  218MPD1    N1 3373   1.833   4.239  12.614  0.3467  0.2022 -0.4538
  218MPD1    H6 3374   1.826   4.181  12.698  1.2765  1.9271  0.8074
  218MPD1    H7 3375   1.916   4.199  12.571  0.6129  1.2622 -0.9207
  219MPD1     C 3376   2.361   0.183  11.793  0.7203 -0.1707 -0.8442
  219MPD1    C1 3377   2.418   0.284  11.861  0.3955  0.6484  0.2097
  219MPD1    C2 3378   2.411   0.275  12.001  0.1507 -0.5358 -0.0047
  219MPD1    C3 3379   2.354   0.170  12.071  0.6092  0.3381  0.1114
  219MPD1    C4 3380   2.304   0.060  11.997  0.0578  0.4580  0.2366
  219MPD1    C5 3381   2.314   0.068  11.861 -0.0052 -0.7493  0.0052
  219MPD1     H 3382   2.437   0.360  12.063 -0.3276  0.6742 -1.4664
  219MPD1    H1 3383   2.274   4.699  12.039 -1.3569  0.5040 -0.6736
  219MPD1    H2 3384   2.354   0.190  11.685  1.8062 -0.8494 -0.9567
  219MPD1    H3 3385   2.273   4.727  11.795  3.6604 -2.4995 -0.2515
  219MPD1     N 3386   2.343   0.163  12.209 -0.1854  0.5440  0.0022
  219MPD1    H5 3387   2.345   0.071  12.253 -0.0294  1.0874  1.1476
  219MPD1    N1 3388   2.456   0.400  11.792 -0.0748 -0.7447  0.3383
  219MPD1    H6 3389   2.524   0.453  11.846 -0.3735  2.2249 -2.1748
  219MPD1    H7 3390   2.491   0.390  11.697 -1.4562 -0.9906 -0.1440
  220MPD1     C 3391   2.243   0.013  10.300 -0.1811 -0.8286  0.1294
  220MPD1    C1 3392   2.145   0.098  10.247 -0.4891  0.5570 -0.3199
  220MPD1    C2 3393   2.070   0.174  10.332  0.6167 -0.2620  0.4536
  220MPD1    C3 3394   2.099   0.167  10.468 -0.4141 -0.4017  0.0720
  220MPD1    C4 3395   2.195   0.083  10.520 -1.3286  0.0395  0.7814
  220MPD1    C5 3396   2.272   0.010  10.432  0.9926  0.0225  0.2367
  220MPD1     H 3397   1.990   0.240  10.300  1.6457 -0.0009 -1.5801
  220MPD1    H1 3398   2.225   0.082  10.624 -0.5469 -1.5289  0.5295
  220MPD1    H2 3399   2.298   4.682  10.234  1.3280  0.2713  0.2742
  220MPD1    H3 3400   2.358   4.685  10.459 -0.9015 -3.0347 -0.5216
  220MPD1     N 3401   2.022   0.258  10.548 -0.7741  0.1438 -0.2301
  220MPD1    H5 3402   1.936   0.296  10.510 -0.3866  0.4212 -0.8297
  220MPD1    N1 3403   2.121   0.097  10.110 -0.2830  0.2836 -0.2089
  220MPD1    H6 3404   2.079   0.006  10.092 -3.3769  1.3697  1.3957
  220MPD1    H7 3405   2.034   0.145  10.088 -2.1851 -3.3360 -0.5834
  221MPD1     C 3406   4.560   0.365  16.144 -0.0003 -1.2020 -0.1039
  221MPD1    C1 3407   4.587   0.358  16.281 -0.0258  0.3738  0.2365
  221MPD1    C2 3408   4.684   0.267  16.323  0.5770 -0.5629  0.4158
  221MPD1    C3 3409   0.027   0.199  16.235 -0.5260 -0.5195 -0.7387
  221MPD1    C4 3410   0.009   0.217  16.099  0.1035  0.1202  0.5272
  221MPD1    C5 3411   4.633   0.286  16.058  0.6236 -0.1988  0.3752
  221MPD1     H 3412   4.696   0.254  16.430 -0.5862  0.7465  0.7037
  221MPD1    H1 3413   0.063   0.165  16.021 -2.0780  0.1958 -1.0356
  221MPD1    H2 3414   4.476   0.422  16.104  0.6859 -0.7203 -0.8718
  221MPD1    H3 3415   4.602   0.278  15.955  1.8535  4.6477 -0.3896
  221MPD1     N 3416   0.136   0.115  16.265  0.0573  0.7581  0.0932
  221MPD1    H5 3417   0.185   0.077  16.185 -0.2654 -1.3633  0.8949
  221MPD1    N1 3418   4.524   0.437  16.374 -0.4306 -0.2442 -0.2087
  221MPD1    H6 3419   4.542   0.536  16.358 -1.5911  0.1025  0.7090
  221MPD1    H7 3420   4.554   0.420  16.470  0.9921 -1.2075 -0.8119
  222MPD1     C 3421   4.201   3.317  17.685  0.3031 -0.2373  0.1899
  222MPD1    C1 3422   4.273   3.356  17.565 -0.1220  0.0675  0.0660
  222MPD1    C2 3423   4.297   3.487  17.540  0.1819  0.6624  0.2513
  222MPD1    C3 3424   4.231   3.586  17.616  0.7848  0.5650  0.6301
  222MPD1    C4 3425   4.151   3.547  17.728 -0.0922 -0.1456 -1.1006
  222MPD1    C5 3426   4.138   3.417   0.019 -0.0062  0.2892  0.5144
  222MPD1     H 3427   4.359   3.517  17.456  1.2365  0.6553  1.0267
  222MPD1    H1 3428   4.105   3.623   0.051  2.5265 -1.1085  2.0735
  222MPD1    H2 3429   4.183   3.213  17.708 -2.4326 -0.0176 -1.0037
  222MPD1    H3 3430   4.068   3.400   0.101  0.3213 -0.8480  0.5591
  222MPD1     N 3431   4.240   3.723  17.589  0.1328 -0.1817  0.7409
  222MPD1    H5 3432   4.175   3.787  17.632 -0.4092  0.9174 -1.7120
  222MPD1    N1 3433   4.345   3.254  17.493  0.5662  0.6425 -0.2102
  222MPD1    H6 3434   4.334   3.273  17.394  2.9825 -0.5219 -0.6817
  222MPD1    H7 3435   4.308   3.159  17.498  0.4916  0.6023 -1.5643
  223MPD1     C 3436   3.602   4.264  17.646 -0.0299  0.4158 -0.6928
  223MPD1    C1 3437   3.652   4.149  17.716  0.5406 -0.7043  0.3670
  223MPD1    C2 3438   3.782   4.103  17.692  0.1618 -0.3225  0.0652
  223MPD1    C3 3439   3.850   4.163  17.588  0.3752  0.3109 -0.6398
  223MPD1    C4 3440   3.797   4.273  17.525 -0.3713 -0.7764  0.3302
  223MPD1    C5 3441   3.675   4.324  17.554  0.4580  0.5610 -0.0942
  223MPD1     H 3442   3.813   4.013   0.008  0.4012 -1.2001 -1.5430
  223MPD1    H1 3443   3.851   4.331  17.451  1.7150 -1.7932  1.0493
  223MPD1    H2 3444   3.501   4.293  17.671 -0.2328  0.5221 -1.6212
  223MPD1    H3 3445   3.642   4.417  17.509 -1.5073 -0.9944 -1.8643
  223MPD1     N 3446   3.974   4.120  17.542 -0.4562  0.0768  0.7130
  223MPD1    H5 3447   4.021   4.046  17.593 -1.0047 -0.0571  1.0125
  223MPD1    N1 3448   3.580   4.102   0.089  0.5396 -0.5141 -0.5206
  223MPD1    H6 3449   3.580   4.000   0.085  0.4155 -0.4796 -1.4516
  223MPD1    H7 3450   3.482   4.121   0.068  0.7994 -0.3642 -1.5778
  224MPD1     C 3451   0.533   0.412   8.943 -0.1678  0.6858 -0.2183
  224MPD1    C1 3452   0.464   0.482   9.038  0.9022 -0.2077  0.1650
  224MPD1    C2 3453   0.513   0.468   9.163  0.0631  0.5858  0.1206
  224MPD1    C3 3454   0.607   0.373   9.200 -0.6482 -0.1305  0.5171
  224MPD1    C4 3455   0.667   0.297   9.106 -0.3114 -0.0686  0.4057
  224MPD1    C5 3456   0.629   0.323   8.974 -0.0026  0.3537  0.0939
  224MPD1     H 3457   0.475   0.539   9.235  3.8720  0.9371  1.7687
  224MPD1    H1 3458   0.752   0.231   9.120 -0.5516 -0.5166 -0.2139
  224MPD1    H2 3459   0.510   0.431   8.839 -0.4433 -0.3985 -0.3615
  224MPD1    H3 3460   0.673   0.269   8.890  1.7068 -0.2632  1.3822
  224MPD1     N 3461   0.646   0.354   9.331  0.5566  0.2255 -0.3550
  224MPD1    H5 3462   0.704   0.273   9.353 -0.6292 -1.0225 -1.8713
  224MPD1    N1 3463   0.387   0.588   8.994  0.3210  0.5151  0.4681
  224MPD1    H6 3464   0.341   0.550   8.912  1.8201  1.5740 -0.8531
  224MPD1    H7 3465   0.315   0.611   9.062  0.6307  0.6655  0.7501
  225MPD1     C 3466   2.526   1.621  12.905 -0.1258 -0.2078  0.5711
  225MPD1    C1 3467   2.514   1.483  12.908  0.5420  0.0929  0.4191
  225MPD1    C2 3468   2.391   1.423  12.873  0.1227  0.0096  0.2773
  225MPD1    C3 3469   2.297   1.507  12.813 -0.4189 -0.0484  0.1151
  225MPD1    C4 3470   2.317   1.641  12.804  0.6585  0.7759 -0.0027
  225MPD1    C5 3471   2.437   1.693  12.841  0.2616  0.4735  0.5159
  225MPD1     H 3472   2.374   1.316  12.872 -0.9868  0.1848  0.7946
  225MPD1    H1 3473   2.243   1.707  12.760 -0.7942 -1.7191 -1.3033
  225MPD1    H2 3474   2.611   1.676  12.943 -0.6581  1.2310 -0.3067
  225MPD1    H3 3475   2.448   1.800  12.845 -1.4145  0.6664 -0.1421
  225MPD1     N 3476   2.169   1.472  12.755  0.0748 -0.3286 -0.4110
  225MPD1    H5 3477   2.107   1.546  12.725  0.9423  0.4576 -0.2745
  225MPD1    N1 3478   2.620   1.404  12.960 -0.5662  0.0137 -0.3391
  225MPD1    H6 3479   2.711   1.429  12.923 -0.3932  1.3490  0.9851
  225MPD1    H7 3480   2.605   1.305  12.942 -0.2118 -0.0308 -0.3885
  226MPD1     C 3481   4.303   1.968   8.908 -0.6380  0.5362  1.0142
  226MPD1    C1 3482   4.439   1.993   8.870 -0.1092 -0.3101  0.1674
  226MPD1    C2 3483   4.525   1.889   8.878 -0.2961  0.1698 -1.2537
  226MPD1    C3 3484   4.490   1.769   8.942 -0.7351  0.4176  0.3370
  226MPD1    C4 3485   4.359   1.742   8.976 -0.2761 -0.5232 -0.5855
  226MPD1    C5 3486   4.266   1.845   8.958  0.2154  1.0519  0.2255
  226MPD1     H 3487   4.626   1.894   8.839 -0.2181  3.4915 -0.6459
  226MPD1    H1 3488   4.317   1.645   8.999  0.9657 -0.2989  2.6024
  226MPD1    H2 3489   4.222   2.039   8.893 -0.3187  0.4158 -1.3495
  226MPD1    H3 3490   4.163   1.814   8.961  1.5536 -3.7238 -2.7729
  226MPD1     N 3491   4.591   1.674   8.969 -0.3457 -0.1610 -0.0085
  226MPD1    H5 3492   4.685   1.710   8.965  0.2710 -1.6949  0.5048
  226MPD1    N1 3493   4.478   2.110   8.801 -0.1419 -0.2483 -0.2505
  226MPD1    H6 3494   4.434   2.195   8.836  1.1349 -0.8322  2.7650
  226MPD1    H7 3495   4.578   2.127   8.799 -0.0403 -0.4701  2.3048
  227MPD1     C 3496   0.611   1.915   8.796 -0.2363  0.2120  0.4684
  227MPD1    C1 3497   0.500   1.905   8.722  0.6173  0.6753  0.5910
  227MPD1    C2 3498   0.392   1.822   8.757 -0.4407  0.5048 -0.4424
  227MPD1    C3 3499   0.414   1.724   8.855  0.9453 -0.0199 -0.2680
  227MPD1    C4 3500   0.535   1.722   8.920 -0.0612 -0.1634  0.3978
  227MPD1    C5 3501   0.628   1.822   8.894  0.4127 -0.1397  0.7291
  227MPD1     H 3502   0.307   1.814   8.691 -2.1286 -0.5469  1.8686
  227MPD1    H1 3503   0.558   1.648   8.995 -1.8788 -0.2803  0.8284
  227MPD1    H2 3504   0.693   1.984   8.777 -1.0473  1.7140  2.4343
  227MPD1    H3 3505   0.724   1.819   8.944  1.0037 -5.1364 -0.7429
  227MPD1     N 3506   0.313   1.632   8.887 -0.4747 -0.4360  0.1914
  227MPD1    H5 3507   0.222   1.639   8.842 -0.9922 -0.4055  1.2591
  227MPD1    N1 3508   0.474   2.015   8.641 -0.7550  0.5105  0.3918
  227MPD1    H6 3509   0.559   2.066   8.614 -0.4797 -0.5343 -0.7253
  227MPD1    H7 3510   0.424   1.985   8.558 -0.9990  0.6857  0.4774
  228MPD1     C 3511   4.064   3.408  13.206  0.3849  0.4055  0.0731
  228MPD1    C1 3512   4.016   3.531  13.177 -0.1416  0.1746 -0.1419
  228MPD1    C2 3513   3.887   3.541  13.133 -0.0720  0.7341  0.0158
  228MPD1    C3 3514   3.799   3.435  13.149  0.3492 -0.1160  0.3519
  228MPD1    C4 3515   3.852   3.311  13.194  0.9308  0.1418  0.0565
  228MPD1    C5 3516   3.986   3.302  13.225 -0.3917  0.4592 -0.4446
  228MPD1     H 3517   3.851   3.635  13.094  1.9156  0.0285 -3.5389
  228MPD1    H1 3518   3.786   3.229  13.220  0.1960  1.5694  2.7186
  228MPD1    H2 3519   4.167   3.396  13.238  0.8124  1.7351 -0.8065
  228MPD1    H3 3520   4.023   3.211  13.271  1.9776  1.5088 -0.3066
  228MPD1     N 3521   3.667   3.454  13.109 -0.1462 -0.1242 -0.1887
  228MPD1    H5 3522   3.647   3.546  13.069  0.6466 -0.3140 -1.0356
  228MPD1    N1 3523   4.102   3.640  13.165  0.3318 -0.0113  0.3027
  228MPD1    H6 3524   4.189   3.642  13.217  0.5790  4.8720 -0.2616
  228MPD1    H7 3525   4.051   3.728  13.169 -0.4001 -0.3695 -1.2666
  229MPD1     C 3526   2.992   2.444  15.139 -1.0808  0.6345 -0.0474
  229MPD1    C1 3527   3.062   2.526  15.222 -0.0763 -0.3925  0.4924
  229MPD1    C2 3528   3.192   2.492  15.254 -0.4140  0.3507 -0.7645
  229MPD1    C3 3529   3.252   2.376  15.205  0.4507 -0.8216 -0.0751
  229MPD1    C4 3530   3.169   2.287  15.128  0.0542  0.0964  0.1214
  229MPD1    C5 3531   3.037   2.319  15.100  0.1275  0.6082  0.5444
  229MPD1     H 3532   3.253   2.563  15.308 -1.5781 -1.8865  3.4862
  229MPD1    H1 3533   3.210   2.198  15.083 -0.5640 -0.3041  0.3542
  229MPD1    H2 3534   2.892   2.468  15.107 -1.8150 -0.5731  1.3098
  229MPD1    H3 3535   2.974   2.243  15.054 -0.5843  0.8078  1.2009
  229MPD1     N 3536   3.391   2.344  15.209 -0.4535 -0.0231  0.6760
  229MPD1    H5 3537   3.414   2.257  15.161  2.7599  1.3808 -0.3712
  229MPD1    N1 3538   2.998   2.649  15.273 -0.3188 -0.4583 -0.0385
  229MPD1    H6 3539   3.029   2.677  15.366  2.7918  1.9064 -1.8302
  229MPD1    H7 3540   2.896   2.638  15.272 -0.4565  0.5489  2.1367
  230MPD1     C 3541   4.291   2.405  15.820 -0.0357  1.1651  0.2298
  230MPD1    C1 3542   4.308   2.284  15.745  0.0345  0.3981  0.0231
  230MPD1    C2 3543   4.209   2.258  15.653  0.7189 -0.1824 -0.4372
  230MPD1    C3 3544   4.096   2.340  15.641  0.1060  0.0381 -0.0451
  230MPD1    C4 3545   4.091   2.453  15.708  0.2042 -0.6100  0.7372
  230MPD1    C5 3546   4.193   2.494  15.792  0.1376 -0.8456 -0.0676
  230MPD1     H 3547   4.218   2.168  15.593 -0.7724 -0.5242 -0.1328
  230MPD1    H1 3548   4.023   2.533  15.679 -0.5231 -1.0908  1.1381
  230MPD1    H2 3549   4.367   2.432  15.892 -1.6890  2.1186  1.6392
  230MPD1    H3 3550   4.187   2.586  15.850  0.8940 -0.8682  0.0428
  230MPD1     N 3551   3.997   2.297  15.550  0.9397  0.2651  0.4914
  230MPD1    H5 3552   4.033   2.226  15.487  1.6765  1.9426 -0.9899
  230MPD1    N1 3553   4.397   2.190  15.794  0.1051 -0.0321  0.2166
  230MPD1    H6 3554   4.424   2.123  15.723  1.8133  1.5987 -0.6796
  230MPD1    H7 3555   4.484   2.237  15.819 -0.4856  0.6858  0.9238
  231MPD1     C 3556   2.111   4.456  15.454 -0.0544  0.6270  0.1632
  231MPD1    C1 3557   2.238   4.507  15.459 -0.6150  0.4656 -0.0955
  231MPD1    C2 3558   2.276   4.604  15.382 -0.3155 -0.0327  0.4515
  231MPD1    C3 3559   2.205   4.637  15.267  0.4024  0.2186 -0.2181
  231MPD1    C4 3560   2.081   4.581  15.256 -0.3825 -0.2740  0.0802
  231MPD1    C5 3561   2.035   4.495  15.344 -0.6588  0.1646  0.5680
  231MPD1     H 3562   2.359   4.663  15.419 -0.3333 -0.0198  0.4708
  231MPD1    H1 3563   2.029   4.593  15.161 -0.1153 -4.0613 -0.5287
  231MPD1    H2 3564   2.074   4.385  15.528 -0.0994  0.6135  0.1278
  231MPD1    H3 3565   1.938   4.450  15.326  0.8599 -2.6503 -0.4907
  231MPD1     N 3566   2.258   4.726  15.173 -0.1139  0.3525  0.1031
  231MPD1    H5 3567   2.354   0.019  15.186  0.5220 -1.2319 -1.3277
  231MPD1    N1 3568   2.328   4.470  15.559  0.0689 -0.3662  0.1233
  231MPD1    H6 3569   2.427   4.490  15.551 -0.1912  0.4642 -0.9454
  231MPD1    H7 3570   2.335   4.372  15.586 -0.6159 -0.3568  0.3215
  232MPD1     C 3571   4.253   2.987   0.347 -0.0196 -0.0495 -0.2191
  232MPD1    C1 3572   4.130   3.048   0.330  0.4126 -0.6034 -0.2307
  232MPD1    C2 3573   4.025   2.959   0.340 -0.1314  0.4265  0.0547
  232MPD1    C3 3574   4.030   2.825   0.364  0.4447  0.1166 -0.1991
  232MPD1    C4 3575   4.151   2.770   0.392  0.3839  0.1247  1.0247
  232MPD1    C5 3576   4.259   2.854   0.377 -0.1464  0.2751  0.1532
  232MPD1     H 3577   3.924   2.981   0.310 -0.7247 -0.7712  1.1947
  232MPD1    H1 3578   4.164   2.665   0.417  2.1207 -0.9654 -4.3745
  232MPD1    H2 3579   4.351   3.034   0.353 -1.2650  1.8874  4.3155
  232MPD1    H3 3580   4.351   2.801   0.402 -0.0373  1.6888  2.8221
  232MPD1     N 3581   3.904   2.761   0.349  0.0860 -0.7587  1.1645
  232MPD1    H5 3582   3.821   2.810   0.317  2.0988  0.8891 -1.5432
  232MPD1    N1 3583   4.107   3.184   0.296  0.1919 -0.1693 -0.2526
  232MPD1    H6 3584   4.187   3.246   0.309  0.2319  0.0409 -1.5108
  232MPD1    H7 3585   4.025   3.218   0.347 -0.0577 -1.7326  0.3997
  233MPD1     C 3586   4.490   0.279   0.801 -0.0424 -0.2271 -0.3946
  233MPD1    C1 3587   4.480   0.233   0.928 -0.5274  0.2449  0.1991
  233MPD1    C2 3588   4.585   0.155   0.976  0.2624 -0.6367 -0.3240
  233MPD1    C3 3589   4.711   0.173   0.920 -0.6262  0.0284  0.1942
  233MPD1    C4 3590   4.727   0.237   0.802  1.0829  0.1856 -0.0961
  233MPD1    C5 3591   4.616   0.287   0.742 -0.0724 -0.0193  0.7998
  233MPD1     H 3592   4.581   0.103   1.071 -2.6577  0.9179  0.3967
  233MPD1    H1 3593   0.086   0.241   0.748  2.9563  2.2247  3.3495
  233MPD1    H2 3594   4.402   0.315   0.750 -0.8708 -1.5003  0.1238
  233MPD1    H3 3595   4.633   0.347   0.654 -2.0641 -1.1063 -0.3194
  233MPD1     N 3596   0.093   0.111   0.974  0.0448 -0.4644 -0.4449
  233MPD1    H5 3597   0.176   0.099   0.918  0.4160  0.8863 -0.1903
  233MPD1    N1 3598   4.355   0.220   0.991  0.5358 -0.0241  0.0972
  233MPD1    H6 3599   4.367   0.215   1.092  1.5115 -1.2377 -0.0864
  233MPD1    H7 3600   4.299   0.299   0.959  0.9868 -0.0778 -0.8157
  234MPD1     C 3601   1.544   3.611   9.227  0.5149 -0.2529  0.4447
  234MPD1    C1 3602   1.458   3.602   9.334  0.3629 -0.0536  0.9631
  234MPD1    C2 3603   1.361   3.695   9.343 -0.0115  0.3666 -0.6538
  234MPD1    C3 3604   1.333   3.778   9.239  0.0758 -0.0975 -0.0310
  234MPD1    C4 3605   1.407   3.774   9.128  0.6276  0.4066 -0.2216
  234MPD1    C5 3606   1.517   3.696   9.123 -0.1167  1.0943  0.4585
  234MPD1     H 3607   1.304   3.692   9.435 -0.3429 -1.3304 -0.9271
  234MPD1    H1 3608   1.396   3.849   9.050 -1.2392  2.4543  2.0080
  234MPD1    H2 3609   1.634   3.554   9.212  0.1898 -0.2339 -1.5949
  234MPD1    H3 3610   1.580   3.694   9.035  0.3101  0.3340  0.7841
  234MPD1     N 3611   1.220   3.872   9.256  0.1508 -0.3747  0.3843
  234MPD1    H5 3612   1.155   3.859   9.333 -0.9360  2.6505 -0.0441
  234MPD1    N1 3613   1.485   3.528   9.452 -0.2223  0.2853 -0.8625
  234MPD1    H6 3614   1.410   3.523   9.520 -0.3587  0.5644 -0.9970
  234MPD1    H7 3615   1.521   3.433   9.439  0.0695  0.1745  0.7609
  235MPD1     C 3616   2.394   1.563  10.546 -0.7328  0.1329  0.3639
  235MPD1    C1 3617   2.500   1.633  10.607 -0.0002  0.5003  0.2830
  235MPD1    C2 3618   2.557   1.740  10.543  0.7805 -0.2194 -0.1238
  235MPD1    C3 3619   2.526   1.764  10.410  0.3352  1.2137  0.5161
  235MPD1    C4 3620   2.435   1.685  10.348  0.0372  0.5461 -0.5239
  235MPD1    C5 3621   2.369   1.585  10.414  0.6830  0.2304  0.0309
  235MPD1     H 3622   2.624   1.805  10.599  0.6535  1.1526 -1.5607
  235MPD1    H1 3623   2.411   1.694  10.243 -0.1413  0.2186 -0.5115
  235MPD1    H2 3624   2.341   1.483  10.595  1.2926 -0.3175  1.7748
  235MPD1    H3 3625   2.309   1.506  10.371  1.1669  0.4330 -0.9971
  235MPD1     N 3626   2.599   1.868  10.343 -0.7441 -0.5630  0.3544
  235MPD1    H5 3627   2.660   1.918  10.407 -0.7066  0.5321 -0.5466
  235MPD1    N1 3628   2.514   1.616  10.741  0.0672  0.4013 -0.5656
  235MPD1    H6 3629   2.602   1.651  10.776 -0.7508  1.4797  0.3960
  235MPD1    H7 3630   2.509   1.519  10.772 -1.7010 -0.1882 -2.6230
  236MPD1     C 3631   2.017   2.895  10.063 -0.0397 -0.9960  0.2012
  236MPD1    C1 3632   2.133   2.971  10.053 -0.9039 -0.1949  0.0576
  236MPD1    C2 3633   2.233   2.939  10.141 -0.1133  0.1034  0.7828
  236MPD1    C3 3634   2.236   2.822  10.217  0.5178  0.1724  0.3710
  236MPD1    C4 3635   2.122   2.744  10.212  0.0069 -1.2036  0.4791
  236MPD1    C5 3636   2.014   2.785  10.142 -0.3944 -0.5865  0.7998
  236MPD1     H 3637   2.322   3.001  10.149  1.2962 -1.7125 -0.9334
  236MPD1    H1 3638   2.100   2.653  10.267 -0.7593 -1.9271 -1.0554
  236MPD1    H2 3639   1.929   2.931  10.010 -0.0811 -2.5641 -0.7898
  236MPD1    H3 3640   1.920   2.733  10.156  0.0897 -1.6979 -0.0771
  236MPD1     N 3641   2.344   2.783  10.299 -0.5246 -0.7986  0.0357
  236MPD1    H5 3642   2.334   2.693  10.344  3.4766 -1.2011  0.1539
  236MPD1    N1 3643   2.134   3.088   9.978  0.0802 -0.1361 -0.4483
  236MPD1    H6 3644   2.225   3.121   9.947 -0.1075  2.0671  1.3651
  236MPD1    H7 3645   2.070   3.086   9.898 -1.6496  0.2984  0.9439
  237MPD1     C 3646   2.389   0.598  15.598  0.9009  0.5377 -0.0221
  237MPD1    C1 3647   2.399   0.733  15.571  0.0400 -0.0540 -0.0978
  237MPD1    C2 3648   2.290   0.793  15.505  0.9584 -0.0877 -0.4901
  237MPD1    C3 3649   2.169   0.729  15.494 -0.0188  0.3238  0.5001
  237MPD1    C4 3650   2.155   0.602  15.542 -0.6392  0.0724 -0.4145
  237MPD1    C5 3651   2.266   0.537  15.595  0.1183  0.0958  0.2924
  237MPD1     H 3652   2.301   0.889  15.456 -0.8518 -0.5187 -1.7527
  237MPD1    H1 3653   2.065   0.546  15.521 -0.5099  0.0665 -0.9739
  237MPD1    H2 3654   2.472   0.540  15.637  2.2701  1.7771 -1.0983
  237MPD1    H3 3655   2.252   0.438  15.637 -1.1373 -0.0294 -0.3945
  237MPD1     N 3656   2.060   0.780  15.418  0.1394  0.0771  0.2599
  237MPD1    H5 3657   1.979   0.723  15.396 -0.0990  0.9772 -1.1766
  237MPD1    N1 3658   2.524   0.803  15.583 -0.2057  0.2546  0.6730
  237MPD1    H6 3659   2.583   0.769  15.659 -1.6007  1.5901  2.3571
  237MPD1    H7 3660   2.508   0.903  15.584 -1.3338  0.0547  4.4089
  238MPD1     C 3661   4.267   4.281  15.328  0.3644 -0.0894 -0.3114
  238MPD1    C1 3662   4.181   4.170  15.325 -1.0302  0.0353  0.0250
  238MPD1    C2 3663   4.081   4.170  15.228 -0.2892  0.1839  1.0595
  238MPD1    C3 3664   4.048   4.280  15.159  0.2855 -0.0566 -0.9011
  238MPD1    C4 3665   4.134   4.389  15.165  0.7116 -0.5298  0.2930
  238MPD1    C5 3666   4.239   4.395  15.256  0.7204  0.3147  0.3601
  238MPD1     H 3667   4.022   4.079  15.227 -0.7584  0.5110 -0.1152
  238MPD1    H1 3668   4.105   4.474  15.104  1.7120  0.2678  0.9312
  238MPD1    H2 3669   4.354   4.267  15.391  0.4825 -1.3803 -0.7624
  238MPD1    H3 3670   4.292   4.489  15.257  0.7763  0.2992 -0.9354
  238MPD1     N 3671   3.957   4.267  15.053 -0.1387  0.3522  0.1807
  238MPD1    H5 3672   3.944   4.338  14.982  1.6154  0.1079 -0.3882
  238MPD1    N1 3673   4.212   4.053  15.395 -0.0265  0.0859  0.1881
  238MPD1    H6 3674   4.138   3.984  15.404 -1.5796  1.8804  1.0283
  238MPD1    H7 3675   4.243   4.079  15.489  0.7492  1.0305 -0.3272
  239MPD1     C 3676   3.819   0.182  14.999 -0.7646 -0.8582 -0.1669
  239MPD1    C1 3677   3.937   0.156  14.930  0.0299 -0.9162 -0.1455
  239MPD1    C2 3678   3.972   0.228  14.821 -0.1442 -0.5241 -0.7488
  239MPD1    C3 3679   3.882   0.315  14.765 -0.2390 -0.4186 -0.1329
  239MPD1    C4 3680   3.752   0.327  14.822 -0.2607  0.0641  0.3648
  239MPD1    C5 3681   3.726   0.266  14.941  0.9190  0.4319 -0.6801
  239MPD1     H 3682   4.067   0.212  14.771  0.7636 -0.3013  0.9106
  239MPD1    H1 3683   3.684   0.397  14.774 -0.4140  0.8248  1.6790
  239MPD1    H2 3684   3.792   0.140  15.096  0.0451  0.2757  0.5518
  239MPD1    H3 3685   3.624   0.279  14.977  0.5535  0.5839 -1.7561
  239MPD1     N 3686   3.919   0.399  14.652  0.2706  0.5695 -0.0922
  239MPD1    H5 3687   3.846   0.461  14.618  0.1724  0.5694  0.1121
  239MPD1    N1 3688   4.029   0.064  14.991 -0.3832 -0.4690 -0.2896
  239MPD1    H6 3689   4.096   0.024  14.925 -0.8116  0.6973 -1.4174
  239MPD1    H7 3690   3.974   4.728  15.039 -0.2123 -0.6604 -0.3744
  240MPD1     C 3691   3.202   0.658  14.228  0.1064  0.1883  0.4475
  240MPD1    C1 3692   3.152   0.561  14.146 -0.3714  0.0993  0.4186
  240MPD1    C2 3693   3.191   0.428  14.179  0.2646 -0.1670 -0.3997
  240MPD1    C3 3694   3.265   0.403  14.292  0.5799  0.1965  1.0818
  240MPD1    C4 3695   3.302   0.503  14.380  0.6508 -0.2353  0.9026
  240MPD1    C5 3696   3.254   0.627  14.349  0.5127  0.2877  0.8809
  240MPD1     H 3697   3.181   0.340  14.117 -3.7622  0.8187 -1.1589
  240MPD1    H1 3698   3.334   0.484  14.482  1.4229 -1.6561  0.4064
  240MPD1    H2 3699   3.185   0.763  14.207  0.4007  0.1708  0.1308
  240MPD1    H3 3700   3.298   0.709  14.405  1.3104  0.1207  0.5030
  240MPD1     N 3701   3.300   0.264  14.318  0.0199  0.1172 -0.2016
  240MPD1    H5 3702   3.262   0.205  14.245 -1.4297 -0.6025  1.1386
  240MPD1    N1 3703   3.095   0.586  14.020  0.1608  0.2253 -0.0261
  240MPD1    H6 3704   3.043   0.673  14.015 -2.3977 -1.2662  0.8183
  240MPD1    H7 3705   3.039   0.507  13.991  1.2888 -0.8624  0.7538
  241MPD1     C 3706   3.560   4.624  15.192  0.2150  0.3113  0.4521
  241MPD1    C1 3707   3.579   4.510  15.119 -0.5016 -0.5707  0.2099
  241MPD1    C2 3708   3.583   4.520  14.980 -0.0740 -0.1800  0.4501
  241MPD1    C3 3709   3.546   4.638  14.917  0.0091 -0.7310  0.2009
  241MPD1    C4 3710   3.528   0.016  14.994 -0.5241 -0.0005 -0.3927
  241MPD1    C5 3711   3.546   0.006  15.123 -0.5632 -0.1181 -0.2337
  241MPD1     H 3712   3.591   4.428  14.922  1.5404  0.3237 -0.1121
  241MPD1    H1 3713   3.492   0.109  14.950  0.7921 -0.3472 -2.1951
  241MPD1    H2 3714   3.563   4.631  15.300 -0.2786  0.1131  0.4737
  241MPD1    H3 3715   3.525   0.089  15.189 -0.4074  1.0500 -1.6738
  241MPD1     N 3716   3.532   4.661  14.781  0.0422  0.2392  0.2451
  241MPD1    H5 3717   3.502   0.019  14.752 -1.4246  0.0894  1.2584
  241MPD1    N1 3718   3.629   4.397  15.190  0.2126 -0.2277  0.0613
  241MPD1    H6 3719   3.607   4.305  15.151 -1.5059 -0.1432  0.8010
  241MPD1    H7 3720   3.593   4.389  15.285 -0.2234 -1.1444 -0.1758
  242MPD1     C 3721   2.607   3.741  15.670  0.5344  1.0417  0.3485
  242MPD1    C1 3722   2.663   3.625  15.718 -0.3059  0.3174  0.1303
  242MPD1    C2 3723   2.764   3.563  15.650 -0.3505  0.1388  0.0394
  242MPD1    C3 3724   2.811   3.622  15.536 -0.4457  0.4584  0.0815
  242MPD1    C4 3725   2.753   3.735  15.477  0.1298  0.6392 -0.3722
  242MPD1    C5 3726   2.651   3.794  15.550  0.0239  0.0334  0.0581
  242MPD1     H 3727   2.817   3.479  15.693  2.3796  1.9543  0.2527
  242MPD1    H1 3728   2.791   3.777  15.384 -0.2626 -2.4644 -1.9641
  242MPD1    H2 3729   2.520   3.790  15.713 -1.4670 -0.2711 -2.2782
  242MPD1    H3 3730   2.608   3.886  15.512  0.3164  0.4815  0.7880
  242MPD1     N 3731   2.910   3.564  15.451  0.3580  0.4106 -0.3749
  242MPD1    H5 3732   2.921   3.596  15.355 -1.2374 -1.5436 -1.1998
  242MPD1    N1 3733   2.627   3.581  15.842 -0.2764  0.1218 -0.5330
  242MPD1    H6 3734   2.537   3.622  15.865  0.2262  0.9137  0.0148
  242MPD1    H7 3735   2.603   3.482  15.845  3.6506 -0.8101  1.2289
  243MPD1     C 3736   3.941   1.482  17.709  0.5520 -0.2391 -0.5752
  243MPD1    C1 3737   3.997   1.540  17.601 -0.3535 -0.0357 -0.4499
  243MPD1    C2 3738   4.060   1.457  17.509 -0.4147  0.0452  0.1891
  243MPD1    C3 3739   4.072   1.323  17.531 -0.1195 -0.3016 -0.4743
  243MPD1    C4 3740   4.012   1.272  17.647  0.0479 -0.4449 -0.8662
  243MPD1    C5 3741   3.949   1.355  17.736 -0.5394 -0.3765 -0.3637
  243MPD1     H 3742   4.100   1.492  17.414  0.9991 -3.4131 -0.5094
  243MPD1    H1 3743   4.020   1.167  17.672  0.0701 -0.0751  0.6847
  243MPD1    H2 3744   3.896   1.538   0.052 -0.9406 -2.8169  0.3796
  243MPD1    H3 3745   3.911   1.311   0.090 -2.0193  1.0875 -0.2672
  243MPD1     N 3746   4.140   1.240  17.440 -0.1391  0.1651 -0.2081
  243MPD1    H5 3747   4.184   1.298  17.369  2.1464 -1.3032 -0.0145
  243MPD1    N1 3748   4.007   1.679  17.589 -0.1966 -0.3634 -0.2771
  243MPD1    H6 3749   3.926   1.731  17.622  0.0688  0.1706 -0.4570
  243MPD1    H7 3750   4.040   1.717  17.500 -1.8004  1.2074 -0.2019
  244MPD1     C 3751   4.694   0.323  17.210 -0.7364  0.5441 -0.7566
  244MPD1    C1 3752   4.653   0.390  17.094 -0.8709 -0.2026  0.3941
  244MPD1    C2 3753   4.590   0.511  17.107  0.0666  0.1418  0.4311
  244MPD1    C3 3754   4.577   0.572  17.227 -0.4069 -0.1674 -0.0289
  244MPD1    C4 3755   4.631   0.513  17.340  0.1281 -0.0619 -0.2484
  244MPD1    C5 3756   4.687   0.385  17.327  0.0807 -0.4989 -0.1136
  244MPD1     H 3757   4.560   0.564  17.017 -0.8058  1.7346  1.6506
  244MPD1    H1 3758   4.610   0.553  17.438  0.4101 -0.1321 -0.1584
  244MPD1    H2 3759   0.011   0.228  17.215 -0.4301  0.7156 -0.6683
  244MPD1    H3 3760   4.726   0.329  17.410 -1.5208  2.5705  2.7228
  244MPD1     N 3761   4.506   0.686  17.223  0.1303  0.1067 -0.3166
  244MPD1    H5 3762   4.465   0.714  17.135 -0.3427  0.2366 -0.0575
  244MPD1    N1 3763   4.678   0.331  16.967 -0.2478  0.5729 -0.0462
  244MPD1    H6 3764   0.013   0.258  16.963  1.2348  1.8681  1.9459
  244MPD1    H7 3765   4.703   0.396  16.892  0.7598 -0.6613 -0.7620
  245MPD1     C 3766   1.730   1.960  13.011  0.6553 -0.0340  0.7442
  245MPD1    C1 3767   1.773   1.990  13.138 -0.4498  0.2649 -0.1823
  245MPD1    C2 3768   1.797   2.124  13.167  0.0182 -0.0271  0.1185
  245MPD1    C3 3769   1.790   2.223  13.077 -0.3695  0.6709  0.4015
  245MPD1    C4 3770   1.752   2.193  12.949 -0.0285  0.0460  0.1630
  245MPD1    C5 3771   1.718   2.061  12.912 -0.0626  0.4332  0.2480
  245MPD1     H 3772   1.831   2.141  13.269 -2.5333 -0.9568  1.1363
  245MPD1    H1 3773   1.737   2.271  12.875 -1.2905 -0.5965 -0.2548
  245MPD1    H2 3774   1.696   1.859  12.991 -1.0012  0.3526  1.5667
  245MPD1    H3 3775   1.672   2.040  12.816 -0.9867  0.9670  0.5789
  245MPD1     N 3776   1.807   2.356  13.129  0.0615  0.7757 -0.4051
  245MPD1    H5 3777   1.845   2.353  13.223 -0.3957 -0.8450 -0.2661
  245MPD1    N1 3778   1.759   1.902  13.242 -0.7345  0.0486  0.0782
  245MPD1    H6 3779   1.828   1.930  13.312  0.5558 -1.7724 -0.4614
  245MPD1    H7 3780   1.758   1.806  13.208  0.0436 -0.2527  0.9201
  246MPD1     C 3781   1.631   0.203   9.594  0.3324  0.4272  0.3664
  246MPD1    C1 3782   1.627   0.090   9.512 -0.1540 -0.3769 -0.1093
  246MPD1    C2 3783   1.704   4.722   9.556 -0.3415  0.0073  0.1731
  246MPD1    C3 3784   1.788   4.730   9.667  1.0838 -0.6102  0.0216
  246MPD1    C4 3785   1.793   0.116   9.745  0.1665 -0.4201  0.1875
  246MPD1    C5 3786   1.717   0.218   9.697  0.6142 -0.2426  0.2230
  246MPD1     H 3787   1.689   4.633   9.496 -0.8748  1.0430 -1.1957
  246MPD1    H1 3788   1.823   0.116   9.849  1.7374 -0.3142 -0.2741
  246MPD1    H2 3789   1.571   0.289   9.567  1.0566  1.0812  0.8261
  246MPD1    H3 3790   1.709   0.303   9.762 -2.1269  0.3153 -0.8505
  246MPD1     N 3791   1.851   4.610   9.708  0.2678 -0.1144 -0.0410
  246MPD1    H5 3792   1.824   4.525   9.659 -0.5882  0.0575  0.1411
  246MPD1    N1 3793   1.520   0.068   9.419  0.3069 -0.3998 -0.9971
  246MPD1    H6 3794   1.477   0.146   9.369 -0.5186  0.6484  1.3299
  246MPD1    H7 3795   1.547   4.731   9.352 -0.7971 -0.4520 -1.3766
  247MPD1     C 3796   0.725   2.189  16.648  0.6677 -0.1685 -0.0627
  247MPD1    C1 3797   0.807   2.259  16.732 -0.0772  0.4351 -0.5516
  247MPD1    C2 3798   0.922   2.315  16.685  0.3639 -0.0029 -0.0496
  247MPD1    C3 3799   0.964   2.285  16.552 -0.0541  0.4594 -0.3933
  247MPD1    C4 3800   0.876   2.212  16.471 -0.9678 -0.2224  0.4070
  247MPD1    C5 3801   0.759   2.161  16.518 -0.1711  0.3747  0.0541
  247MPD1     H 3802   0.993   2.360  16.753 -0.8036  1.5010  0.1908
  247MPD1    H1 3803   0.903   2.191  16.368 -3.0941 -2.4960  0.3063
  247MPD1    H2 3804   0.634   2.141  16.682  0.6470 -0.4776 -0.5652
  247MPD1    H3 3805   0.693   2.098  16.459 -0.6519  0.9435 -0.0073
  247MPD1     N 3806   1.088   2.317  16.502  0.3492 -0.1545  0.0287
  247MPD1    H5 3807   1.120   2.301  16.407 -0.3173  2.9131 -0.7213
  247MPD1    N1 3808   0.771   2.264  16.871 -0.2486  0.2199 -0.2517
  247MPD1    H6 3809   0.670   2.254  16.882 -0.1284 -0.8802 -0.1113
  247MPD1    H7 3810   0.804   2.342  16.927 -1.3286 -1.0076  2.0862
  248MPD1     C 3811   2.215   2.625  17.735 -1.0607 -0.1326  1.2644
  248MPD1    C1 3812   2.094   2.595   0.055  0.0143 -0.8953  0.3984
  248MPD1    C2 3813   2.049   2.472   0.056  0.6952 -0.0268  0.0146
  248MPD1    C3 3814   2.120   2.369  17.725 -0.3195 -0.3052 -0.1528
  248MPD1    C4 3815   2.241   2.399  17.666  0.2146 -0.1129  0.6115
  248MPD1    C5 3816   2.284   2.529  17.674 -0.4545  0.0793 -0.5911
  248MPD1     H 3817   1.956   2.456   0.108 -0.1582  0.6625 -1.3032
  248MPD1    H1 3818   2.291   2.322  17.609  0.2413  1.4410 -1.4784
  248MPD1    H2 3819   2.254   2.725   0.007  1.7707 -1.0184 -1.0787
  248MPD1    H3 3820   2.385   2.553  17.642  0.6233 -1.7602  1.3418
  248MPD1     N 3821   2.076   2.235  17.727  0.8953  0.4965  0.1910
  248MPD1    H5 3822   1.997   2.224   0.052  0.6464  0.1131 -0.1892
  248MPD1    N1 3823   2.037   2.689   0.145 -0.1019  0.0401  0.1023
  248MPD1    H6 3824   2.055   2.785   0.116  1.9434 -1.2181 -2.7754
  248MPD1    H7 3825   1.936   2.679   0.150 -0.2086  2.2836  2.9051
  249MPD1     C 3826   1.625   0.965   9.531 -0.6779 -0.1783  0.2958
  249MPD1    C1 3827   1.600   1.091   9.488  0.0692  0.5007 -0.1030
  249MPD1    C2 3828   1.700   1.186   9.494  0.1609  0.0178  0.2457
  249MPD1    C3 3829   1.826   1.155   9.540  0.2297 -0.2172 -0.3982
  249MPD1    C4 3830   1.849   1.028   9.579 -0.7019  0.5340  0.0468
  249MPD1    C5 3831   1.750   0.933   9.575 -0.6485  0.8002 -1.1850
  249MPD1     H 3832   1.677   1.289   9.473  1.9476  1.1594  3.7680
  249MPD1    H1 3833   1.944   1.006   9.627  0.8860 -0.0831 -3.3596
  249MPD1    H2 3834   1.553   0.883   9.536 -1.9448  0.8646 -0.7837
  249MPD1    H3 3835   1.759   0.838   9.626  0.9125  1.5638 -0.0422
  249MPD1     N 3836   1.922   1.260   9.531  0.1689 -0.4442  0.6314
  249MPD1    H5 3837   1.892   1.355   9.511 -1.0275 -1.4953 -2.4729
  249MPD1    N1 3838   1.475   1.128   9.440 -0.3210  0.3062  0.0363
  249MPD1    H6 3839   1.421   1.047   9.408 -1.5340  1.2597 -0.3146
  249MPD1    H7 3840   1.477   1.205   9.374  0.2460 -0.3350 -0.6995
  250MPD2     C 3841   0.433   0.512  12.970  0.1382  0.6897  0.3966
  250MPD2    C1 3842   0.363   0.605  12.900 -0.1178  0.7718 -0.1097
  250MPD2    C2 3843   0.269   0.564  12.807  0.0584 -0.4302  0.7803
  250MPD2    C3 3844   0.232   0.434  12.798 -0.0394  0.3862  0.0744
  250MPD2    C4 3845   0.313   0.341  12.855 -0.2368  0.9655 -0.8337
  250MPD2    C5 3846   0.407   0.378  12.943  0.2570 -0.2307  0.1881
  250MPD2     H 3847   0.212   0.633  12.745 -0.5616 -0.6745  1.0762
  250MPD2    H1 3848   0.308   0.235  12.831  1.5896  0.7177 -0.0798
  250MPD2    H2 3849   0.512   0.539  13.039  0.1009  2.7201 -0.3794
  250MPD2    H3 3850   0.469   0.302  12.988 -0.4620 -0.8942  0.0680
  250MPD2     N 3851   0.127   0.386  12.720  0.4077 -0.0344 -0.1482
  250MPD2    H5 3852   0.113   0.285  12.730 -0.2186  0.0443 -0.2158
  250MPD2    N1 3853   0.398   0.740  12.921 -0.2341  0.1248 -0.6724
  250MPD2    H7 3854   0.480   0.757  12.979  1.1284 -0.5642 -2.3935
  251TMC3    C1 3855   0.390   0.966  12.937 -0.3748 -0.3795 -0.4806
  251TMC3    C2 3856   0.305   1.062  12.986  0.1410  0.1579 -0.1222
  251TMC3    C3 3857   0.365   1.164  13.067 -0.3292 -0.1148  0.4813
  251TMC3    C4 3858   0.527   0.975  12.944 -0.0908  0.4044  0.5467
  251TMC3    C5 3859   0.582   1.077  13.010  0.6426 -0.4584 -0.1225
  251TMC3    C6 3860   0.505   1.166  13.086  0.5280  0.4795  0.7046
  251TMC3     C 3861   0.325   0.847  12.886  0.3231 -0.3850 -0.4332
  251TMC3     O 3862   0.211   0.852  12.852  0.1091 -0.4943 -0.1417
  251TMC3     H 3863   0.201   1.031  12.993 -0.0385  1.0988  1.2523
  251TMC3    H1 3864   0.594   0.908  12.890 -1.5413 -3.4633  3.5616
  251TMC3    H2 3865   0.541   1.220  13.173  2.3384 -0.8297  0.7707
  251TMC3    C7 3866   0.727   1.108  12.987 -0.6838  0.8628  0.0942
  251TMC3    C8 3867   0.284   1.243  13.156  0.4632 -0.8692 -0.5376
  251TMC3    O1 3868   0.801   1.014  12.973 -0.4271 -0.6160  0.5475
  251TMC3    O2 3869   0.333   1.278  13.261 -0.8478 -0.4926  0.0258
  252TMC3    C1 3870   0.169   2.210   8.915 -0.2104  0.2561  0.5461
  252TMC3    C2 3871   0.300   2.243   8.919  0.2083  0.7376 -0.1936
  252TMC3    C3 3872   0.391   2.158   8.970  0.0954 -0.3593 -0.0643
  252TMC3    C4 3873   0.137   2.087   8.941  0.1155 -0.7606  0.0492
  252TMC3    C5 3874   0.227   1.996   9.006 -0.3728 -0.1560  0.2913
  252TMC3    C6 3875   0.361   2.024   9.008 -0.0687  0.2793 -0.8056
  252TMC3     C 3876   0.065   2.296   8.861 -0.7382 -0.2889 -0.4757
  252TMC3     O 3877   4.718   2.248   8.780  0.2829 -0.2737 -0.3996
  252TMC3     H 3878   0.337   2.338   8.883 -1.0095  1.1594 -0.3534
  252TMC3    H1 3879   0.033   2.057   8.936 -0.7251  2.3755 -1.0060
  252TMC3    H2 3880   0.438   1.953   9.035  1.5819  1.2456 -2.9767
  252TMC3    C7 3881   0.168   1.887   9.077 -0.9120 -0.0740  0.3415
  252TMC3    C8 3882   0.528   2.196   8.964 -0.0854  0.3953 -0.0357
  252TMC3    O1 3883   0.050   1.865   9.059  0.2225  0.1442 -0.5342
  252TMC3    O2 3884   0.561   2.296   8.903  0.0835 -0.2395  0.0218
  253MPD2     C 3885   1.347   1.090  14.710  0.3827 -0.1204 -0.0393
  253MPD2    C1 3886   1.239   1.097  14.798  0.1381 -0.0780 -0.3276
  253MPD2    C2 3887   1.257   1.139  14.922  0.3222 -0.0500 -0.8975
  253MPD2    C3 3888   1.382   1.173  14.964 -0.3255  0.1553 -1.1063
  253MPD2    C4 3889   1.492   1.169  14.884 -0.1310  0.1107 -0.6290
  253MPD2    C5 3890   1.473   1.128  14.756  0.1882 -0.1388  0.1989
  253MPD2     H 3891   1.168   1.135  14.983  0.2029 -2.4385 -1.2346
  253MPD2    H1 3892   1.595   1.185  14.916  0.1212 -0.9761 -0.8707
  253MPD2    H2 3893   1.342   1.061  14.605  0.4162  0.8503 -0.3164
  253MPD2    H3 3894   1.560   1.122  14.690 -0.4168  1.2533 -0.7305
  253MPD2     N 3895   1.408   1.212  15.099 -0.4697 -0.2072  0.4579
  253MPD2    H5 3896   1.500   1.250  15.120  0.6394 -2.2948 -0.6144
  253MPD2    N1 3897   1.109   1.054  14.764  0.7323  0.0885 -0.1614
  253MPD2    H7 3898   1.035   1.061  14.833  2.0556  1.4745  1.1145
  254TMC3    C1 3899   1.367   1.275  15.315 -0.1232 -0.6630 -0.3737
  254TMC3    C2 3900   1.267   1.343  15.382 -0.3103 -0.4730  0.5411
  254TMC3    C3 3901   1.289   1.373  15.512  0.0284  0.2256  0.1136
  254TMC3    C4 3902   1.484   1.236  15.373  0.2377  0.2419  0.7561
  254TMC3    C5 3903   1.492   1.263  15.507  0.2878  0.1716  0.1346
  254TMC3    C6 3904   1.400   1.334  15.583  0.1627 -0.5151 -0.2492
  254TMC3     C 3905   1.314   1.211  15.197  0.2956  0.6762 -0.2049
  254TMC3     O 3906   1.197   1.171  15.202  0.3790  0.0458 -0.6210
  254TMC3     H 3907   1.172   1.365  15.334 -0.6707 -1.3903  0.8267
  254TMC3    H1 3908   1.561   1.184  15.316  0.4571  0.2408  1.0511
  254TMC3    H2 3909   1.418   1.358  15.687  1.8594 -1.0244 -0.4306
  254TMC3    C7 3910   1.564   1.181  15.604 -0.2079 -0.4200  0.1484
  254TMC3    C8 3911   1.191   1.438  15.585  0.3762 -0.3288 -0.6728
  254TMC3    O1 3912   1.493   1.140  15.694 -0.1850  0.1497  0.1049
  254TMC3    O2 3913   1.207   1.437  15.707  0.0678 -0.0027 -0.1823
  255MPD2     C 3914   4.523   3.926  10.693  0.6094 -0.1451  0.1497
  255MPD2    C1 3915   4.419   3.947  10.608  1.0481  0.7360 -0.6482
  255MPD2    C2 3916   4.435   3.904  10.484  0.2349  0.0455  0.2053
  255MPD2    C3 3917   4.544   3.837  10.436  0.5738  0.3372 -0.4741
  255MPD2    C4 3918   4.651   3.820  10.523  0.5534 -0.0059 -0.9737
  255MPD2    C5 3919   4.635   3.855  10.649 -0.5636  0.0841  0.1834
  255MPD2     H 3920   4.352   3.920  10.416 -0.5221 -0.2821  1.0497
  255MPD2    H1 3921   0.006   3.766  10.495  0.1472 -1.8099  1.1930
  255MPD2    H2 3922   4.523   3.941  10.800  0.4549  0.7181  0.0318
  255MPD2    H3 3923   4.714   3.838  10.721  0.6617  2.6961 -0.5774
  255MPD2     N 3924   4.536   3.788  10.303  0.5973 -0.2622 -0.0642
  255MPD2    H5 3925   4.449   3.806  10.254  0.3703  0.3052  0.5404
  255MPD2    N1 3926   4.306   4.018  10.656 -1.3482 -0.6108 -0.6095
  255MPD2    H7 3927   4.319   4.059  10.748 -0.9373 -0.2179 -0.8433
  256TMC3    C1 3928   4.085   4.092  10.659  0.2763  0.2434  0.2623
  256TMC3    C2 3929   4.111   4.221  10.707 -0.0710  0.8105  0.2609
  256TMC3    C3 3930   4.004   4.300  10.742 -0.7688  0.3548 -0.0755
  256TMC3    C4 3931   3.956   4.039  10.671  0.5298 -0.1360 -0.0078
  256TMC3    C5 3932   3.853   4.117  10.714 -0.0177 -0.4522 -0.0989
  256TMC3    C6 3933   3.878   4.249  10.740  0.0994 -0.5858 -0.2329
  256TMC3     C 3934   4.189   4.019  10.595  0.5261 -0.2023  0.3201
  256TMC3     O 3935   4.147   3.930  10.522  0.5804  0.1602 -0.5042
  256TMC3     H 3936   4.211   4.264  10.706  0.2435  0.0816  0.9554
  256TMC3    H1 3937   3.941   3.932  10.664 -4.7526  0.6768 -0.8778
  256TMC3    H2 3938   3.794   4.311  10.766  0.8087 -0.2833  1.3237
  256TMC3    C7 3939   3.728   4.101  10.642 -0.1697  0.3269 -0.0310
  256TMC3    C8 3940   4.021   4.444  10.755 -0.1266 -0.1936 -0.6554
  256TMC3    O1 3941   3.749   4.053  10.531  1.4453 -0.1355 -0.1494
  256TMC3    O2 3942   3.932   4.509  10.807  0.1071  0.0136  0.3734
  257MPD2     C 3943   3.813   1.177  12.909 -0.5271  0.7212 -0.1960
  257MPD2    C1 3944   3.732   1.067  12.906 -0.6093  0.0664 -0.1065
  257MPD2    C2 3945   3.758   0.964  12.999  0.5606 -0.1138 -0.0219
  257MPD2    C3 3946   3.862   0.967  13.090  0.9459  1.0760 -0.0962
  257MPD2    C4 3947   3.929   1.086  13.093 -0.1071 -0.1348  0.4039
  257MPD2    C5 3948   3.911   1.183  13.001 -0.1857 -0.8874  0.3830
  257MPD2     H 3949   3.700   0.873  13.012  2.2447 -1.4744 -2.0014
  257MPD2    H1 3950   3.999   1.101  13.173  1.0873 -1.0537 -0.4683
  257MPD2    H2 3951   3.805   1.271  12.856  0.6945  1.8618  1.6247
  257MPD2    H3 3952   3.975   1.271  12.999  0.2316 -1.2406 -1.5858
  257MPD2     N 3953   3.890   0.862  13.186 -0.3564 -0.0196 -0.3521
  257MPD2    H5 3954   3.840   0.775  13.170  0.1774 -0.3251 -0.3546
  257MPD2    N1 3955   3.622   1.061  12.817  0.7464 -0.0427  0.7803
  257MPD2    H7 3956   3.625   1.133  12.745 -0.3919  0.1722  0.9548
  258TMC3    C1 3957   3.993   0.748  13.353 -0.3465 -0.8492  0.4658
  258TMC3    C2 3958   4.040   0.659  13.265 -0.1497 -0.3547 -0.3149
  258TMC3    C3 3959   4.110   0.555  13.319 -0.3820  0.2700  0.2347
  258TMC3    C4 3960   4.012   0.742  13.488 -0.4078  0.5837  0.0623
  258TMC3    C5 3961   4.089   0.639  13.534  0.6835 -0.4694  0.0100
  258TMC3    C6 3962   4.127   0.541  13.452 -0.7406  0.1545  0.2059
  258TMC3     C 3963   3.951   0.876  13.307 -0.3135  0.4342 -0.5633
  258TMC3     O 3964   3.969   0.972  13.376  0.8689  0.0230  0.4116
  258TMC3     H 3965   4.036   0.671  13.157  1.3409 -1.2758 -0.4807
  258TMC3    H1 3966   3.988   0.824  13.555 -0.7329  1.4650 -1.1203
  258TMC3    H2 3967   4.162   0.446  13.491 -2.3146  0.1652  1.6597
  258TMC3    C7 3968   4.084   0.607  13.670 -0.1951  0.4604 -0.1313
  258TMC3    C8 3969   4.162   0.460  13.225 -0.6946 -0.4578 -0.7798
  258TMC3    O1 3970   3.985   0.652  13.728  0.0252  0.2278 -0.5777
  258TMC3    O2 3971   4.093   0.432  13.131 -0.0818  0.0039  0.2484
  259MPD2     C 3972   2.167   2.824   1.190 -0.0790  0.8944  0.6890
  259MPD2    C1 3973   2.125   2.697   1.161  0.0370 -0.2923 -0.1074
  259MPD2    C2 3974   2.174   2.633   1.047 -0.2345  0.0109 -0.1118
  259MPD2    C3 3975   2.262   2.701   0.962 -0.3124  0.0434 -0.5386
  259MPD2    C4 3976   2.303   2.831   0.994  0.1517  0.5008  0.8851
  259MPD2    C5 3977   2.254   2.891   1.106 -0.1085 -0.5817  0.6765
  259MPD2     H 3978   2.154   2.528   1.034 -0.5649 -0.1925  2.0561
  259MPD2    H1 3979   2.370   2.894   0.936  0.1049 -1.3236 -1.1261
  259MPD2    H2 3980   2.135   2.871   1.282  0.8192 -0.7441  1.8264
  259MPD2    H3 3981   2.288   2.990   1.131 -1.0150  0.3342 -1.7134
  259MPD2     N 3982   2.326   2.622   0.862 -0.7560 -0.3387 -0.3980
  259MPD2    H5 3983   2.286   2.529   0.848 -1.0369 -0.2318 -0.3026
  259MPD2    N1 3984   2.035   2.639   1.256  0.1732 -0.0304 -0.0707
  259MPD2    H7 3985   2.027   2.693   1.342  0.7722 -0.6586  0.3916
  260TMC3    C1 3986   2.444   2.578   0.668  1.3507 -0.0436 -0.5192
  260TMC3    C2 3987   2.504   2.635   0.555  0.3383 -0.4846  0.2668
  260TMC3    C3 3988   2.602   2.564   0.483  0.0968  0.2203  0.9240
  260TMC3    C4 3989   2.464   2.445   0.694 -0.2859  0.3481  0.4131
  260TMC3    C5 3990   2.544   2.368   0.606  0.1105 -0.3067 -0.4209
  260TMC3    C6 3991   2.614   2.429   0.506 -0.4673 -1.1463  0.2349
  260TMC3     C 3992   2.409   2.678   0.768 -0.7166 -0.8708  0.0331
  260TMC3     O 3993   2.467   2.786   0.759 -0.0936 -0.0741  0.3115
  260TMC3     H 3994   2.503   2.742   0.539  0.9581 -0.5667 -0.3442
  260TMC3    H1 3995   2.421   2.397   0.781  3.5560  2.8515  3.6822
  260TMC3    H2 3996   2.679   2.380   0.433  0.7092 -1.0395  1.2057
  260TMC3    C7 3997   2.530   2.225   0.590 -0.4371  0.0112 -0.1539
  260TMC3    C8 3998   2.678   2.628   0.378  0.4181  0.2496  0.4160
  260TMC3    O1 3999   2.594   2.182   0.496 -0.2868 -0.3749  0.6870
  260TMC3    O2 4000   2.624   2.686   0.281 -0.2575  0.5860 -0.5827
  261MPD2     C 4001   4.403   0.554  12.019 -0.2658  0.3043  0.2267
  261MPD2    C1 4002   4.516   0.576  12.092  0.1907  0.0385 -0.0509
  261MPD2    C2 4003   4.612   0.662  12.043 -0.7757 -0.1980  0.8283
  261MPD2    C3 4004   4.574   0.747  11.937  0.3831  0.2063  0.7377
  261MPD2    C4 4005   4.456   0.722  11.869 -0.0135  0.5098  0.3953
  261MPD2    C5 4006   4.371   0.619  11.903 -0.5740 -0.1802  0.8249
  261MPD2     H 4007   4.703   0.674  12.102  0.2177  2.4103 -1.2307
  261MPD2    H1 4008   4.434   0.777  11.778  0.0684 -0.0485  0.0429
  261MPD2    H2 4009   4.331   0.482  12.057  1.8250 -1.4715  0.8051
  261MPD2    H3 4010   4.276   0.599  11.854 -0.0516 -1.3998  0.3086
  261MPD2     N 4011   4.651   0.859  11.890 -0.2969  0.4024 -0.0888
  261MPD2    H5 4012   4.616   0.910  11.809 -0.0524 -0.7110 -0.8915
  261MPD2    N1 4013   4.542   0.516  12.214 -0.7341  0.0004  0.3433
  261MPD2    H7 4014   4.635   0.528  12.253 -1.5208  0.1611  2.1932
  262TMC3    C1 4015   0.048   1.054  11.924  0.3194 -0.0240 -0.2570
  262TMC3    C2 4016   4.692   1.123  11.853 -0.2878  0.0665  0.0586
  262TMC3    C3 4017   4.724   1.251  11.825  0.4342  0.4652  0.2615
  262TMC3    C4 4018   0.161   1.115  11.976 -0.1713  0.4578 -0.9668
  262TMC3    C5 4019   0.184   1.246  11.953  0.7747 -0.3497  0.5506
  262TMC3    C6 4020   0.094   1.317  11.876 -0.2007  0.1775 -0.4374
  262TMC3     C 4021   0.027   0.914  11.955 -0.1996 -0.2768  0.1038
  262TMC3     O 4022   0.074   0.872  12.059  0.3964  0.2466 -0.2929
  262TMC3     H 4023   4.599   1.078  11.821  2.1896 -1.9982 -4.1538
  262TMC3    H1 4024   0.233   1.060  12.036 -0.6256  0.6773 -0.2199
  262TMC3    H2 4025   0.125   1.418  11.850 -0.1710  1.0861  3.0101
  262TMC3    C7 4026   0.320   1.292  11.961 -0.1459  0.0037  0.4793
  262TMC3    C8 4027   4.628   1.338  11.753 -0.3755  0.3473 -0.3072
  262TMC3    O1 4028   0.386   1.258  12.060  0.0214 -0.0330  0.1675
  262TMC3    O2 4029   4.659   1.454  11.754  0.1123  0.4436 -0.6112
  263MPD2     C 4030   0.590   4.723  11.572 -0.2767  0.6092 -0.4660
  263MPD2    C1 4031   0.660   0.010  11.452 -0.1616 -0.2320  0.5058
  263MPD2    C2 4032   0.630   0.120  11.372 -0.0808 -0.2717 -0.4709
  263MPD2    C3 4033   0.536   0.215  11.412 -0.6593 -0.3276  0.2944
  263MPD2    C4 4034   0.463   0.194  11.529 -0.1672 -0.0226 -0.5165
  263MPD2    C5 4035   0.490   0.077  11.603 -0.6954  0.2845 -0.5028
  263MPD2     H 4036   0.671   0.131  11.273  2.4038  0.8981  0.6783
  263MPD2    H1 4037   0.388   0.261  11.568 -1.1134 -0.0987 -2.2385
  263MPD2    H2 4038   0.617   4.646  11.643  0.3533  1.4898  0.2502
  263MPD2    H3 4039   0.439   0.065  11.698  1.1196 -0.9081  0.3139
  263MPD2     N 4040   0.526   0.337  11.332 -0.2221 -0.6450  0.4669
  263MPD2    H5 4041   0.582   0.344  11.247  0.6267 -2.4711  0.8786
  263MPD2    N1 4042   0.773   4.663  11.427 -0.4039  0.4194  0.2736
  263MPD2    H7 4043   0.790   4.589  11.494 -0.3388 -0.0446 -0.2627
  264TMC3    C1 4044   0.455   0.552  11.255  0.1220  0.2876  0.4044
  264TMC3    C2 4045   0.417   0.679  11.287  0.0360 -0.2831 -0.3186
  264TMC3    C3 4046   0.404   0.766  11.182 -0.4575 -0.5175 -0.4737
  264TMC3    C4 4047   0.464   0.497  11.128 -0.1962  0.2848 -0.0066
  264TMC3    C5 4048   0.432   0.589  11.031  0.0911 -0.2794 -0.5921
  264TMC3    C6 4049   0.395   0.720  11.055  0.0146  0.1971 -0.0384
  264TMC3     C 4050   0.452   0.450  11.362  0.1679  0.4900 -0.3030
  264TMC3     O 4051   0.413   0.480  11.475  0.7318 -0.0425  0.1831
  264TMC3     H 4052   0.422   0.700  11.393 -1.2818 -1.4003 -0.0446
  264TMC3    H1 4053   0.513   0.404  11.102  4.1191  2.0301  1.9082
  264TMC3    H2 4054   0.383   0.798  10.980  0.6087  2.0050  1.7638
  264TMC3    C7 4055   0.458   0.548  10.900 -0.4223 -0.5018  0.5147
  264TMC3    C8 4056   0.412   0.912  11.214 -0.0720  0.4509 -0.3658
  264TMC3    O1 4057   0.477   0.638  10.817  0.2045 -0.1748 -0.1408
  264TMC3    O2 4058   0.421   0.989  11.117 -0.0195 -0.3807  0.9704
  265MPD2     C 4059   3.008   0.600  15.706 -0.3039 -0.1698 -0.2152
  265MPD2    C1 4060   2.965   0.691  15.611 -0.3242 -0.0021 -0.0789
  265MPD2    C2 4061   2.996   0.659  15.482 -0.1536  0.2787 -0.5440
  265MPD2    C3 4062   3.074   0.548  15.450  0.0469 -0.2132 -0.1262
  265MPD2    C4 4063   3.117   0.466  15.547 -0.8988 -0.5811  0.2826
  265MPD2    C5 4064   3.079   0.491  15.680  1.1567 -0.3209 -0.5648
  265MPD2     H 4065   2.964   0.728  15.405 -1.2335  2.2820  1.6967
  265MPD2    H1 4066   3.169   0.375  15.520  0.0472  0.2140 -0.5989
  265MPD2    H2 4067   2.983   0.617  15.811 -0.8498  0.5789 -0.4684
  265MPD2    H3 4068   3.097   0.418  15.759  0.4545 -1.8411 -1.7922
  265MPD2     N 4069   3.112   0.514  15.317 -0.2269  0.0908 -0.6492
  265MPD2    H5 4070   3.172   0.433  15.312 -0.3755 -0.0332 -0.4580
  265MPD2    N1 4071   2.909   0.815  15.642 -0.4788 -1.0285  0.3031
  265MPD2    H7 4072   2.881   0.863  15.558  1.7030 -2.0685 -1.0219
  266TMC3    C1 4073   2.841   1.001  15.774 -0.2523  0.2828  0.3295
  266TMC3    C2 4074   2.866   1.069  15.890 -0.8399  0.4864  0.3934
  266TMC3    C3 4075   2.793   1.190  15.902  0.0325 -0.6500 -0.0504
  266TMC3    C4 4076   2.774   1.051  15.669 -0.3052  0.8288  0.4185
  266TMC3    C5 4077   2.700   1.168  15.679  0.2990 -0.3737 -0.2057
  266TMC3    C6 4078   2.700   1.237  15.805  0.0595  1.0214  0.0773
  266TMC3     C 4079   2.888   0.866  15.769  0.3681 -0.1678 -0.0134
  266TMC3     O 4080   2.912   0.819  15.880 -0.1837 -0.6854 -0.5534
  266TMC3     H 4081   2.910   1.014  15.972  0.9004  0.1091 -0.8081
  266TMC3    H1 4082   2.764   0.995  15.576 -1.3270  1.4476  0.1517
  266TMC3    H2 4083   2.622   1.311  15.822  0.4663  2.0659 -2.6071
  266TMC3    C7 4084   2.618   1.211  15.569  0.2126  0.8196 -0.2260
  266TMC3    C8 4085   2.813   1.265  16.027 -0.2620 -0.6615 -0.3172
  266TMC3    O1 4086   2.561   1.123  15.507  0.1390 -0.6811 -0.0572
  266TMC3    O2 4087   2.852   1.204  16.126  0.4456 -0.2318  0.0957
  267MPD2     C 4088   0.113   1.541   1.110  0.6188  0.4901 -0.2952
  267MPD2    C1 4089   0.178   1.629   1.024 -0.4577 -0.3824 -0.4708
  267MPD2    C2 4090   0.106   1.741   0.977 -0.0156  0.3842 -0.3282
  267MPD2    C3 4091   4.708   1.772   1.017 -0.2404  0.5793 -0.3917
  267MPD2    C4 4092   4.651   1.686   1.109 -0.1597 -0.4359  0.3719
  267MPD2    C5 4093   4.721   1.570   1.152 -0.2444 -0.2869 -0.7089
  267MPD2     H 4094   0.155   1.809   0.909 -0.0350 -0.4432 -1.1670
  267MPD2    H1 4095   4.549   1.703   1.142 -0.4378  1.8153 -1.6735
  267MPD2    H2 4096   0.156   1.446   1.141 -1.7752 -0.6119 -0.3770
  267MPD2    H3 4097   4.675   1.507   1.227  2.5007 -2.5951 -0.9678
  267MPD2     N 4098   4.627   1.876   0.974  0.2213  0.4446 -1.0951
  267MPD2    H5 4099   4.535   1.891   1.012  0.8065 -2.1263  1.2720
  267MPD2    N1 4100   0.311   1.592   0.993  0.1803  0.0906 -0.0637
  267MPD2    H7 4101   0.335   1.497   1.020  0.1982 -0.0749 -0.6526
  268TMC3    C1 4102   0.526   1.594   0.897 -0.2356 -0.2162 -0.2254
  268TMC3    C2 4103   0.606   1.620   0.786  0.5761  0.2781 -0.6997
  268TMC3    C3 4104   0.736   1.587   0.783  0.5410 -1.1394  0.6251
  268TMC3    C4 4105   0.581   1.549   1.011 -0.1009  0.6064  0.2510
  268TMC3    C5 4106   0.709   1.506   0.998  0.2214 -0.0355 -0.1505
  268TMC3    C6 4107   0.788   1.528   0.892 -0.0871 -0.7264  0.3720
  268TMC3     C 4108   0.393   1.652   0.903  0.6390  0.2232 -0.0054
  268TMC3     O 4109   0.376   1.758   0.845 -0.0371 -0.4425  0.4308
  268TMC3     H 4110   0.558   1.665   0.700 -1.2100 -0.3594 -0.0402
  268TMC3    H1 4111   0.520   1.520   1.096 -2.4728  0.5083 -1.4735
  268TMC3    H2 4112   0.893   1.501   0.881  0.7412  3.3546 -1.9424
  268TMC3    C7 4113   0.775   1.443   1.109 -0.0561 -0.4626 -0.1719
  268TMC3    C8 4114   0.813   1.585   0.657  0.2768 -0.5562 -0.0313
  268TMC3    O1 4115   0.700   1.436   1.206 -0.2040  0.4188 -0.3316
  268TMC3    O2 4116   0.913   1.515   0.654 -0.6767 -0.1436 -0.5982
  269MPD2     C 4117   0.657   1.267  15.688 -0.1483  0.4625 -0.3984
  269MPD2    C1 4118   0.537   1.309  15.736  0.0068 -0.4778  0.1409
  269MPD2    C2 4119   0.484   1.426  15.684  0.1769 -0.0187  0.3079
  269MPD2    C3 4120   0.547   1.500  15.584 -0.0209  0.4824 -0.5398
  269MPD2    C4 4121   0.673   1.454  15.542 -0.7536 -0.4050 -0.5398
  269MPD2    C5 4122   0.724   1.337  15.586  0.3083  0.5112  0.1227
  269MPD2     H 4123   0.391   1.463  15.725  0.3213  1.7788 -0.9701
  269MPD2    H1 4124   0.730   1.520  15.476 -0.4741 -1.0457 -0.9441
  269MPD2    H2 4125   0.690   1.166  15.707  1.2027  0.7657 -1.1218
  269MPD2    H3 4126   0.820   1.299  15.551  0.6791  1.4031  0.1863
  269MPD2     N 4127   0.482   1.619  15.557  0.0932 -0.1384  0.3996
  269MPD2    H5 4128   0.411   1.652  15.622 -1.5672 -0.7197 -1.1034
  269MPD2    N1 4129   0.462   1.216  15.812 -0.1037 -0.5624  0.1699
  269MPD2    H7 4130   0.505   1.124  15.817  1.4183  0.1168 -0.3321
  270TMC3    C1 4131   0.289   1.113  15.914 -0.3057  0.5607 -0.4787
  270TMC3    C2 4132   0.183   1.068  15.844  0.5145  0.9344  0.3858
  270TMC3    C3 4133   0.172   0.932  15.831 -0.5860 -0.1447  0.1782
  270TMC3    C4 4134   0.390   1.036  15.962  0.2893 -0.2936 -0.6834
  270TMC3    C5 4135   0.362   0.902  15.954  0.0059 -0.3414  0.1932
  270TMC3    C6 4136   0.260   0.846  15.887 -1.1117 -0.5997  0.2100
  270TMC3     C 4137   0.336   1.233  15.857 -0.6127 -0.8318  0.0564
  270TMC3     O 4138   0.267   1.336  15.856  0.1312 -0.8918  0.3504
  270TMC3     H 4139   0.132   1.144  15.786  1.9305  1.7122  0.1615
  270TMC3    H1 4140   0.480   1.068  16.014  0.2626 -0.5854 -0.4533
  270TMC3    H2 4141   0.258   0.738  15.891  0.1631 -0.6239  0.1823
  270TMC3    C7 4142   0.479   0.803  15.963  0.3338 -0.2841  0.1722
  270TMC3    C8 4143   0.120   0.886  15.704 -0.1712  0.2495  0.2539
  270TMC3    O1 4144   0.506   0.746  15.856 -0.0203 -0.5412 -0.2708
  270TMC3    O2 4145   0.017   0.933  15.658  0.5329 -0.2579  0.4461
  271MPD2     C 4146   4.728   1.177  13.916  0.0713 -0.8524  0.1208
  271MPD2    C1 4147   4.644   1.117  14.013  0.6625 -0.8955 -0.4354
  271MPD2    C2 4148   4.509   1.155  14.011  0.4132 -0.1826 -0.4172
  271MPD2    C3 4149   4.455   1.243  13.923 -0.6584 -0.3528  0.8110
  271MPD2    C4 4150   4.540   1.306  13.836  0.4500  0.1800  0.3011
  271MPD2    C5 4151   4.673   1.277  13.838  0.0688  0.2900  0.2959
  271MPD2     H 4152   4.452   1.114  14.093 -0.9516  1.1689 -0.6978
  271MPD2    H1 4153   4.510   1.381  13.764 -1.9090 -1.9131 -0.9061
  271MPD2    H2 4154   0.099   1.158  13.908  0.3212 -0.2126  1.8203
  271MPD2    H3 4155   4.731   1.321  13.758 -2.2606 -1.0129 -2.1080
  271MPD2     N 4156   4.327   1.292  13.936 -0.8692  0.0229  0.8113
  271MPD2    H5 4157   4.300   1.365  13.870 -1.6831  0.0612  1.1877
  271MPD2    N1 4158   4.690   1.022  14.103 -0.6306 -0.3997  0.3655
  271MPD2    H7 4159   4.635   0.987  14.180 -0.3893 -1.3841  0.0906
  272TMC3    C1 4160   0.111   0.875  14.199 -0.0967  0.4342  0.5033
  272TMC3    C2 4161   0.209   0.773  14.191 -0.9271 -0.2190  0.1830
  272TMC3    C3 4162   0.234   0.689  14.301  0.4350  0.5400  0.2018
  272TMC3    C4 4163   0.057   0.904  14.322 -0.3220  0.5184 -0.2782
  272TMC3    C5 4164   0.091   0.823  14.426  0.1720 -0.1764  0.2578
  272TMC3    C6 4165   0.173   0.714  14.417  0.4601  0.1465  0.3795
  272TMC3     C 4166   0.075   0.961  14.086 -0.0050 -0.2562 -0.2672
  272TMC3     O 4167   0.161   0.960  13.997  0.3853 -1.0661  0.0044
  272TMC3     H 4168   0.239   0.745  14.091 -1.5043 -1.0463  0.2469
  272TMC3    H1 4169   4.719   0.983  14.338  0.5779  1.1700  0.6287
  272TMC3    H2 4170   0.193   0.663  14.511 -0.4441 -1.8251 -0.4971
  272TMC3    C7 4171   4.714   0.819  14.521  0.1130 -0.2111 -0.4554
  272TMC3    C8 4172   0.331   0.584  14.293 -0.1796 -0.8955 -0.2244
  272TMC3    O1 4173   4.604   0.799  14.476  0.0215 -0.0420 -0.3839
  272TMC3    O2 4174   0.397   0.575  14.190  0.3603 -0.8182 -0.2979
  273MPD2     C 4175   0.598   3.308  11.142 -0.4542  0.2607 -0.2157
  273MPD2    C1 4176   0.716   3.357  11.180  0.0352 -0.7814  0.2003
  273MPD2    C2 4177   0.804   3.414  11.088  0.2947 -0.2969  0.0748
  273MPD2    C3 4178   0.772   3.415  10.954 -0.4340 -0.4604 -0.0345
  273MPD2    C4 4179   0.659   3.341  10.915  0.7163 -0.4925  0.1464
  273MPD2    C5 4180   0.572   3.285  11.009 -0.6510  0.5217 -0.3627
  273MPD2     H 4181   0.897   3.458  11.124 -0.5357 -1.8804  4.0902
  273MPD2    H1 4182   0.640   3.329  10.809  0.0292  1.0176  0.0946
  273MPD2    H2 4183   0.536   3.251  11.211 -0.0771  1.1650  0.8639
  273MPD2    H3 4184   0.485   3.229  10.977 -0.9496  1.8463 -1.8725
  273MPD2     N 4185   0.847   3.473  10.852  0.2906 -0.1159  0.4420
  273MPD2    H5 4186   0.812   3.460  10.758  0.5334 -2.0577  0.6296
  273MPD2    N1 4187   0.742   3.351  11.323  0.2628  0.3292  0.0045
  273MPD2    H7 4188   0.660   3.322  11.376 -0.2582  1.4984 -0.1609
  274TMC3    C1 4189   0.989   3.632  10.756  0.5228  0.3741 -0.1604
  274TMC3    C2 4190   0.887   3.677  10.679 -0.2293 -0.7564  0.0367
  274TMC3    C3 4191   0.886   3.807  10.629  0.2624 -0.8314 -0.3424
  274TMC3    C4 4192   1.087   3.728  10.784  0.3941 -0.5214  0.8729
  274TMC3    C5 4193   1.085   3.857  10.744  0.2872  0.9212  0.5423
  274TMC3    C6 4194   0.987   3.895  10.653 -0.3386 -0.4737 -0.0199
  274TMC3     C 4195   0.954   3.555  10.872 -0.1793  0.7112  0.1309
  274TMC3     O 4196   1.009   3.583  10.979  0.1736 -0.1838 -0.1317
  274TMC3     H 4197   0.802   3.613  10.658  0.3320 -0.4924 -3.1200
  274TMC3    H1 4198   1.177   3.690  10.831  1.3934  2.0729  1.1065
  274TMC3    H2 4199   0.966   3.999  10.629  1.7578  0.0733  0.5027
  274TMC3    C7 4200   1.112   3.947  10.858  0.4514  0.3867 -0.8664
  274TMC3    C8 4201   0.761   3.864  10.594 -0.6317  0.2062 -0.2400
  274TMC3    O1 4202   1.141   4.063  10.835 -0.1294  0.4217 -0.2860
  274TMC3    O2 4203   0.664   3.830  10.660  0.1482  0.4868 -0.0254
  275MPD2     C 4204   1.303   1.341  14.467 -0.6975 -0.5528 -0.3709
  275MPD2    C1 4205   1.215   1.421  14.528  0.0137  0.1424  0.3947
  275MPD2    C2 4206   1.084   1.421  14.485 -0.1369  0.2855  0.1095
  275MPD2    C3 4207   1.037   1.333  14.395 -0.4148  0.6252  0.0923
  275MPD2    C4 4208   1.118   1.234  14.348 -0.8834 -0.0783 -0.2998
  275MPD2    C5 4209   1.252   1.248  14.377  0.3287  0.1845  0.3955
  275MPD2     H 4210   1.020   1.499  14.526  0.0192  0.8753 -0.7762
  275MPD2    H1 4211   1.089   1.153  14.282 -1.3844  0.4583 -0.7422
  275MPD2    H2 4212   1.410   1.332  14.481 -0.7202  0.6134  0.5421
  275MPD2    H3 4213   1.318   1.172  14.338  2.4535  0.7117  2.9567
  275MPD2     N 4214   0.899   1.314  14.367 -0.6454 -0.2016 -0.2159
  275MPD2    H5 4215   0.870   1.234  14.311  1.0334  0.2093 -1.6541
  275MPD2    N1 4216   1.250   1.498  14.635 -0.2962 -0.1918  0.7903
  275MPD2    H7 4217   1.169   1.538  14.682  0.2147  1.8281 -0.0581
  276TMC3    C1 4218   1.356   1.546  14.843  0.1662 -0.7730  0.2601
  276TMC3    C2 4219   1.250   1.507  14.924 -0.3951 -0.2764 -0.1929
  276TMC3    C3 4220   1.243   1.563  15.053  0.2927 -0.3375  0.2714
  276TMC3    C4 4221   1.463   1.622  14.892  0.6776  0.6832 -0.1775
  276TMC3    C5 4222   1.455   1.673  15.021  0.6217 -0.0602  0.4329
  276TMC3    C6 4223   1.342   1.650  15.099  0.2422 -0.1073  0.4709
  276TMC3     C 4224   1.369   1.495  14.704 -0.1613 -0.0941 -0.4980
  276TMC3     O 4225   1.482   1.474  14.661 -0.0408  0.1355 -0.4182
  276TMC3     H 4226   1.187   1.429  14.883 -0.9588  0.1790 -0.1963
  276TMC3    H1 4227   1.544   1.657  14.829  1.6306 -1.5937 -0.2099
  276TMC3    H2 4228   1.332   1.693  15.198  0.1697 -0.0123  0.4229
  276TMC3    C7 4229   1.531   1.792  15.067  0.1822 -0.3245 -0.3529
  276TMC3    C8 4230   1.132   1.536  15.134  0.1716  0.1020  0.4836
  276TMC3    O1 4231   1.485   1.871  15.147 -0.2484 -0.0992  0.1270
  276TMC3    O2 4232   1.130   1.564  15.255 -0.4015 -0.4517 -0.5732
  277MPD2     C 4233   3.623   0.988  13.494  0.1098  0.3014  0.2425
  277MPD2    C1 4234   3.510   1.014  13.421 -0.0274  0.2171 -0.7954
  277MPD2    C2 4235   3.394   0.945  13.460 -0.0831 -0.2954 -0.8580
  277MPD2    C3 4236   3.397   0.848  13.555 -0.4929 -0.2091 -0.4728
  277MPD2    C4 4237   3.517   0.825  13.622 -0.1267  0.3065 -0.6907
  277MPD2    C5 4238   3.632   0.900  13.602  0.6752  0.9202  0.8592
  277MPD2     H 4239   3.293   0.960  13.421 -0.4618 -0.4455  0.0707
  277MPD2    H1 4240   3.523   0.753  13.703  2.3271  0.7382 -0.4889
  277MPD2    H2 4241   3.716   1.033  13.459  0.4312 -1.5364 -1.2516
  277MPD2    H3 4242   3.726   0.888  13.654 -0.6006 -0.3135  2.8497
  277MPD2     N 4243   3.286   0.766  13.595  0.0855 -0.7154 -0.1724
  277MPD2    H5 4244   3.308   0.713  13.679  3.1969 -2.0033 -1.8011
  277MPD2    N1 4245   3.516   1.114  13.322 -0.1153  1.0467 -0.0793
  277MPD2    H7 4246   3.599   1.172  13.323 -0.2838  1.2587  1.2689
  278TMC3    C1 4247   3.064   0.700  13.623 -0.6913 -0.2309 -0.4011
  278TMC3    C2 4248   3.086   0.584  13.687 -0.3824  0.9151  0.2500
  278TMC3    C3 4249   2.978   0.499  13.720 -0.1223  0.3857  0.3312
  278TMC3    C4 4250   2.941   0.748  13.618 -0.2682  0.0997 -0.8298
  278TMC3    C5 4251   2.832   0.675  13.670  0.0462 -0.4408  0.5877
  278TMC3    C6 4252   2.849   0.549  13.728 -0.9843 -0.0974 -0.5180
  278TMC3     C 4253   3.162   0.758  13.539 -0.5070  0.1469  0.3482
  278TMC3     O 4254   3.116   0.828  13.454  0.2459  0.3291 -0.0271
  278TMC3     H 4255   3.183   0.537  13.679 -0.8359  0.1358 -0.8354
  278TMC3    H1 4256   2.918   0.842  13.570  0.4905  0.5645 -0.2711
  278TMC3    H2 4257   2.773   0.490  13.776  1.2156 -1.1020  1.7425
  278TMC3    C7 4258   2.700   0.729  13.633  0.4635 -0.6950  0.0690
  278TMC3    C8 4259   3.014   0.364  13.772  0.7420 -0.0338 -0.2835
  278TMC3    O1 4260   2.695   0.851  13.614  0.4772 -0.1694 -0.3553
  278TMC3    O2 4261   3.127   0.343  13.809 -0.0356  0.0104 -0.5487
  279MPD2     C 4262   2.347   0.731  17.590 -0.2268 -0.4109 -0.4291
  279MPD2    C1 4263   2.215   0.774  17.603  0.1809  0.3800  0.6769
  279MPD2    C2 4264   2.167   0.851  17.492  0.4982 -0.3434 -0.7188
  279MPD2    C3 4265   2.250   0.874  17.384  0.4574  0.6387 -0.2504
  279MPD2    C4 4266   2.380   0.832  17.381  0.2772 -0.2375  0.2705
  279MPD2    C5 4267   2.426   0.768  17.487 -0.9001 -0.1414 -0.3412
  279MPD2     H 4268   2.064   0.884  17.501  0.1481 -2.0743  1.5274
  279MPD2    H1 4269   2.456   0.844  17.305  2.2235 -0.4519  2.1698
  279MPD2    H2 4270   2.396   0.673  17.667 -0.1361  0.7701  0.4084
  279MPD2    H3 4271   2.519   0.713  17.480 -1.1024 -0.1413 -3.0181
  279MPD2     N 4272   2.198   0.959  17.286  0.1139  0.1100 -0.0230
  279MPD2    H5 4273   2.259   1.000  17.217  0.8872 -0.8365  0.0939
  279MPD2    N1 4274   2.123   0.747  17.710  0.3913  0.2017  0.0939
  279MPD2    H7 4275   2.031   0.787  17.692  0.0497 -1.1765 -1.2708
  280TMC3    C1 4276   2.044   0.709   0.181  0.1055 -0.0319 -0.0957
  280TMC3    C2 4277   1.954   0.617   0.163 -0.6874  0.4182 -0.0576
  280TMC3    C3 4278   1.823   0.647   0.187  0.2743 -0.1746 -0.3912
  280TMC3    C4 4279   2.004   0.837   0.206 -0.2049  0.1049  0.6082
  280TMC3    C5 4280   1.873   0.868   0.231 -0.4163  0.1704 -0.1805
  280TMC3    C6 4281   1.781   0.769   0.225 -0.0407  0.7461 -0.5454
  280TMC3     C 4282   2.157   0.685   0.091  0.6665  0.1204  0.2357
  280TMC3     O 4283   2.249   0.609   0.113  0.1664  0.7775  0.0589
  280TMC3     H 4284   1.994   0.525   0.122 -1.8978  0.3059 -0.9930
  280TMC3    H1 4285   2.081   0.913   0.218  1.3514 -1.1648 -1.4356
  280TMC3    H2 4286   1.675   0.789   0.234 -0.1209 -0.0343  0.1866
  280TMC3    C7 4287   1.840   1.009   0.244  0.3662  0.2458  0.1562
  280TMC3    C8 4288   1.743   0.528   0.194 -0.4592  0.4115  0.9892
  280TMC3    O1 4289   1.929   1.076   0.296 -0.2333 -0.4805 -0.6844
  280TMC3    O2 4290   1.692   0.501   0.302 -0.1992 -0.5767 -0.6843
  281TMC3    C1 4291   0.979   1.025  13.290 -0.2245  0.4221  0.3459
  281TMC3    C2 4292   1.076   1.100  13.234 -0.3115 -0.0774 -1.0848
  281TMC3    C3 4293   1.150   1.029  13.149  0.2082  0.8193  0.0078
  281TMC3    C4 4294   0.958   0.894  13.276  0.1125 -1.0061 -0.6108
  281TMC3    C5 4295   1.039   0.827  13.192 -1.1421 -0.0345 -0.1971
  281TMC3    C6 4296   1.136   0.892  13.132 -0.1763 -0.5068  0.2760
  281TMC3     C 4297   0.893   1.088  13.384 -0.0145 -0.1672 -0.1559
  281TMC3     O 4298   0.863   1.028  13.487  0.3850 -0.2587 -0.0635
  281TMC3     H 4299   1.087   1.204  13.261  0.7720 -1.2246  2.8603
  281TMC3    H1 4300   0.873   0.845  13.322 -0.6828 -0.0985 -1.1286
  281TMC3    H2 4301   1.201   0.845  13.058 -0.8544  0.1401 -0.7267
  281TMC3    C7 4302   0.984   0.714  13.122  0.2043 -0.0098 -0.0095
  281TMC3    C8 4303   1.258   1.095  13.072 -0.6325 -0.3213  0.0112
  281TMC3    O1 4304   1.009   0.697  13.003 -0.1470 -0.2343  0.2349
  281TMC3    O2 4305   1.358   1.025  13.037 -0.1259  0.4725 -0.4925
  282MPD2     C 4306   2.795   2.693  14.975 -0.2853  0.4445  0.7934
  282MPD2    C1 4307   2.660   2.717  14.963  0.1051  0.3346  0.3563
  282MPD2    C2 4308   2.611   2.714  14.832  0.1684  0.7344 -1.0534
  282MPD2    C3 4309   2.706   2.678  14.734 -0.6900  0.5861 -0.2210
  282MPD2    C4 4310   2.838   2.661  14.751  0.5786  0.1322 -1.0051
  282MPD2    C5 4311   2.884   2.670  14.877 -0.1894 -0.3331  0.4745
  282MPD2     H 4312   2.505   2.719  14.808  0.3425 -1.0275 -2.1987
  282MPD2    H1 4313   2.909   2.630  14.675  0.7488 -1.8578 -0.0458
  282MPD2    H2 4314   2.840   2.699  15.073  1.6691 -0.4905 -0.0289
  282MPD2    H3 4315   2.992   2.665  14.888 -0.0124  1.6730 -0.2846
  282MPD2     N 4316   2.649   2.663  14.602 -0.4207  0.3933  0.0746
  282MPD2    H5 4317   2.554   2.698  14.591 -0.4680  0.3208  0.2571
  282MPD2    N1 4318   2.570   2.723  15.070  0.1415 -0.9406 -0.0927
  282MPD2    H7 4319   2.472   2.724  15.044  0.3239  1.2373 -0.8043
  283TMC3    C1 4320   2.487   2.764  15.282 -0.0525 -0.5033 -0.3784
  283TMC3    C2 4321   2.520   2.875  15.361 -0.0946 -0.3073  0.1431
  283TMC3    C3 4322   2.475   2.879  15.492 -0.4169  0.1761  0.0478
  283TMC3    C4 4323   2.410   2.658  15.334 -0.2655 -0.3420  0.6425
  283TMC3    C5 4324   2.379   2.663  15.469  0.0095  0.4335 -0.2774
  283TMC3    C6 4325   2.410   2.773  15.550  0.2974 -0.0626  0.1339
  283TMC3     C 4326   2.603   2.731  15.201  0.8234 -0.3740 -0.5574
  283TMC3     O 4327   2.710   2.748  15.257 -0.0230 -0.3684 -0.6837
  283TMC3     H 4328   2.605   2.936  15.334  0.9992 -1.7146  0.3826
  283TMC3    H1 4329   2.394   2.570  15.271  0.1195 -0.2377  0.3992
  283TMC3    H2 4330   2.369   2.793  15.648 -2.1460  0.1708 -0.9292
  283TMC3    C7 4331   2.319   2.546  15.548  0.3166 -1.1843 -0.3361
  283TMC3    C8 4332   2.450   3.013  15.546 -0.3410  0.1638 -0.3059
  283TMC3    O1 4333   2.281   2.566  15.661 -0.0402  0.0264  0.1998
  283TMC3    O2 4334   2.397   3.020  15.657 -0.0789  0.6266  0.6837
  284MPD2     C 4335   0.740   1.742  12.210 -0.3118 -0.3777 -0.2294
  284MPD2    C1 4336   0.867   1.790  12.188  0.3514  0.0282 -0.1704
  284MPD2    C2 4337   0.979   1.718  12.241 -0.0824 -1.1625 -0.3122
  284MPD2    C3 4338   0.953   1.600  12.304  0.6307  0.4297 -0.2827
  284MPD2    C4 4339   0.825   1.547  12.315  0.2885  0.2475  0.4510
  284MPD2    C5 4340   0.720   1.622  12.280 -0.0312  0.1212 -0.5564
  284MPD2     H 4341   1.078   1.751  12.210 -0.9145  1.7264  0.0910
  284MPD2    H1 4342   0.812   1.457  12.373 -0.3334 -0.1949 -0.3800
  284MPD2    H2 4343   0.650   1.786  12.169 -0.3481 -0.4360 -0.2128
  284MPD2    H3 4344   0.619   1.587  12.297  0.5029 -1.0099  0.3390
  284MPD2     N 4345   1.062   1.517  12.355  0.7152  0.4286 -0.2569
  284MPD2    H5 4346   1.050   1.417  12.365 -1.4794  0.6840 -0.2434
  284MPD2    N1 4347   0.890   1.907  12.111 -0.0172 -0.1599 -0.1701
  284MPD2    H7 4348   0.985   1.935  12.091 -0.6961  1.4865 -1.0792
  285TMC3    C1 4349   0.876   2.042  11.925 -0.6740 -0.4335  0.1407
  285TMC3    C2 4350   0.990   1.987  11.878  0.2479 -0.1389 -0.3646
  285TMC3    C3 4351   1.070   2.055  11.794  0.4672  0.2267  0.3158
  285TMC3    C4 4352   0.819   2.152  11.863  0.1284  0.1468 -0.3822
  285TMC3    C5 4353   0.898   2.217  11.776  0.5549 -0.8031 -0.0017
  285TMC3    C6 4354   1.027   2.174  11.739 -0.0296  0.1998  0.9220
  285TMC3     C 4355   0.805   1.975  12.032 -0.3685  0.1106 -0.6979
  285TMC3     O 4356   0.683   1.978  12.021 -0.0492 -0.0006 -0.3278
  285TMC3     H 4357   1.019   1.888  11.913  1.2881  0.9505  1.8175
  285TMC3    H1 4358   0.720   2.192  11.885  1.2740  1.6227  2.0808
  285TMC3    H2 4359   1.069   2.232  11.658  0.8988 -0.6142  0.8295
  285TMC3    C7 4360   0.882   2.352  11.726  0.2354 -0.4552  0.7283
  285TMC3    C8 4361   1.151   1.973  11.713  0.2659  0.1850 -0.4592
  285TMC3    O1 4362   0.978   2.422  11.712  0.1164 -0.2523 -0.1596
  285TMC3    O2 4363   1.134   1.855  11.726  0.1015 -0.1474 -0.0178
  286MPD2     C 4364   1.005   0.624   1.543  0.0362 -0.4017  0.5040
  286MPD2    C1 4365   0.982   0.573   1.414  0.7628  0.0528 -0.8619
  286MPD2    C2 4366   1.087   0.502   1.360  0.9009 -0.4349 -0.2451
  286MPD2    C3 4367   1.211   0.492   1.419  0.1534 -0.2451  0.2671
  286MPD2    C4 4368   1.230   0.543   1.547 -0.5383 -0.4355 -0.2385
  286MPD2    C5 4369   1.127   0.605   1.605 -0.5528 -0.8566  0.2787
  286MPD2     H 4370   1.072   0.471   1.257  4.1822  0.8086 -1.1043
  286MPD2    H1 4371   1.330   0.539   1.591 -0.2404 -1.9865 -1.0565
  286MPD2    H2 4372   0.930   0.672   1.604  2.1425  1.1814  1.8432
  286MPD2    H3 4373   1.146   0.653   1.700 -1.2974 -1.1980  0.6013
  286MPD2     N 4374   1.324   0.436   1.356  0.3327 -0.7411  0.3656
  286MPD2    H5 4375   1.406   0.429   1.416  0.4613  1.8050  0.4744
  286MPD2    N1 4376   0.863   0.591   1.342 -0.3723  0.2284 -0.0956
  286MPD2    H7 4377   0.861   0.561   1.245 -1.3252 -1.7847  0.5468
  287TMC3    C1 4378   1.451   0.302   1.210 -0.4528 -0.1976  0.1444
  287TMC3    C2 4379   1.462   0.230   1.092 -0.4706  0.6422  0.1775
  287TMC3    C3 4380   1.563   0.134   1.081  0.6815  0.2079 -0.5062
  287TMC3    C4 4381   1.533   0.274   1.311 -0.2903  0.2103  0.4082
  287TMC3    C5 4382   1.629   0.175   1.300  0.1721 -0.6122  0.1935
  287TMC3    C6 4383   1.648   0.106   1.184  0.4891  0.0241  1.3967
  287TMC3     C 4384   1.324   0.370   1.236 -0.4843 -0.4555  0.1781
  287TMC3     O 4385   1.232   0.355   1.155 -0.0777 -0.1382  0.3701
  287TMC3     H 4386   1.404   0.250   1.003 -1.1972  0.8453  0.6997
  287TMC3    H1 4387   1.522   0.307   1.414 -2.5605 -0.5998  0.4373
  287TMC3    H2 4388   1.739   0.050   1.165  1.7645  2.9706 -1.1450
  287TMC3    C7 4389   1.751   0.201   1.378 -0.5936 -0.5630 -0.0501
  287TMC3    C8 4390   1.594   0.074   0.952  0.6182 -0.0597  0.0987
  287TMC3    O1 4391   1.759   0.319   1.413  0.4028  0.4336  0.1732
  287TMC3    O2 4392   1.647   4.696   0.957 -0.0665 -0.6313  0.4243
  288TMC3    C1 4393   2.986   1.017  14.347 -0.1872 -0.7793  0.2496
  288TMC3    C2 4394   3.019   0.963  14.462 -0.1952 -0.2248 -0.2629
  288TMC3    C3 4395   2.957   0.847  14.502  0.2048  0.0723 -0.0979
  288TMC3    C4 4396   2.894   0.959  14.260  0.3055 -0.1405 -0.0465
  288TMC3    C5 4397   2.835   0.842  14.295  0.1851  0.0029 -0.6224
  288TMC3    C6 4398   2.861   0.787  14.415  0.4991 -0.1171  0.2227
  288TMC3     C 4399   3.094   1.096  14.288  0.2990  0.0289 -0.4208
  288TMC3     O 4400   3.157   1.176  14.358 -0.5850  0.0804 -0.9241
  288TMC3     H 4401   3.080   1.020  14.531 -2.2345  0.6147  0.8552
  288TMC3    H1 4402   2.867   1.001  14.163 -3.1815  1.3673  1.5821
  288TMC3    H2 4403   2.795   0.712  14.458  0.1893 -2.4266 -4.2337
  288TMC3    C7 4404   2.771   0.763  14.191 -0.0253  0.1260  0.8319
  288TMC3    C8 4405   2.982   0.796  14.634 -0.5288 -0.7746 -0.6394
  288TMC3    O1 4406   2.705   0.818  14.107 -0.0884 -0.1761 -0.6798
  288TMC3    O2 4407   3.049   0.861  14.713  0.7868 -0.3148 -0.4802
  289MPD2     C 4408   3.070   4.195  14.415  0.0996  0.4170  0.1719
  289MPD2    C1 4409   3.057   4.323  14.361  0.8905  0.6967  0.0730
  289MPD2    C2 4410   2.933   4.361  14.306  0.2196 -0.2841 -0.0781
  289MPD2    C3 4411   2.831   4.270  14.304  0.9034 -0.3428 -0.0734
  289MPD2    C4 4412   2.851   4.141  14.341 -0.0820  0.0245  0.1764
  289MPD2    C5 4413   2.969   4.111  14.404  0.7779 -0.1117  0.1495
  289MPD2     H 4414   2.922   4.465  14.278 -0.2866 -0.8945 -2.1197
  289MPD2    H1 4415   2.766   4.073  14.335 -0.1675  0.3562 -2.4835
  289MPD2    H2 4416   3.162   4.160  14.460  0.1161  0.0449 -0.1536
  289MPD2    H3 4417   2.977   4.024  14.468  0.8840 -0.3812 -0.2355
  289MPD2     N 4418   2.702   4.306  14.268  0.0938  0.3881  0.3170
  289MPD2    H5 4419   2.641   4.231  14.237 -1.4440  1.4364  0.7719
  289MPD2    N1 4420   3.172   4.398  14.363  0.7115 -0.3417  0.0636
  289MPD2    H7 4421   3.252   4.365  14.417  0.8781  3.7107  2.2287
  290TMC3    C1 4422   2.519   4.446  14.229  0.2656 -0.0107 -0.1653
  290TMC3    C2 4423   2.466   4.568  14.190 -0.3756 -0.2568  0.0097
  290TMC3    C3 4424   2.336   4.575  14.157 -0.2788 -0.6506  0.5898
  290TMC3    C4 4425   2.441   4.334  14.238  0.0949  0.0154 -0.4815
  290TMC3    C5 4426   2.313   4.349  14.207 -0.1518 -0.3003 -0.3720
  290TMC3    C6 4427   2.257   4.463  14.165 -1.2670  0.1068  0.3849
  290TMC3     C 4428   2.657   4.438  14.253 -0.3802 -0.9360  0.4746
  290TMC3     O 4429   2.712   4.544  14.268 -0.4536  0.0089 -0.1084
  290TMC3     H 4430   2.529   4.652  14.162 -0.5287  0.0805  0.6833
  290TMC3    H1 4431   2.488   4.242  14.271  2.3792  2.4908  3.2416
  290TMC3    H2 4432   2.152   4.468  14.137 -1.9676  1.8020  3.3318
  290TMC3    C7 4433   2.224   4.236  14.220 -1.0631  0.0033  0.6320
  290TMC3    C8 4434   2.265   4.706  14.146  1.1145 -0.5965 -0.1021
  290TMC3    O1 4435   2.109   4.268  14.257  0.4507  0.7813  0.1397
  290TMC3    O2 4436   2.156   4.699  14.083  0.2121  0.0782 -0.3969
  291MPD2     C 4437   2.292   4.144   0.498 -0.0051  1.1507 -0.5037
  291MPD2    C1 4438   2.349   4.056   0.589 -0.3570  0.2068  0.4372
  291MPD2    C2 4439   2.429   4.116   0.688  0.5409 -0.0266 -0.0205
  291MPD2    C3 4440   2.463   4.249   0.680 -0.1387 -0.6289 -0.3155
  291MPD2    C4 4441   2.398   4.331   0.591 -0.3372 -0.5722 -0.4660
  291MPD2    C5 4442   2.322   4.279   0.494 -0.4161  0.1263 -1.0800
  291MPD2     H 4443   2.469   4.050   0.763  1.1040  0.8303  0.4383
  291MPD2    H1 4444   2.420   4.437   0.594 -0.1096 -0.6713  1.4595
  291MPD2    H2 4445   2.214   4.118   0.426 -1.1508 -0.6873  1.3941
  291MPD2    H3 4446   2.273   4.347   0.426 -0.6267 -0.1485 -1.2038
  291MPD2     N 4447   2.560   4.323   0.759 -0.2002 -0.1135  0.4341
  291MPD2    H5 4448   2.572   4.421   0.737  2.7665 -0.0446  2.3131
  291MPD2    N1 4449   2.326   3.913   0.589 -0.3146  0.0101  0.2120
  291MPD2    H7 4450   2.358   3.857   0.667 -0.6711  0.0507  0.3874
  292TMC3    C1 4451   2.225   3.714   0.536  0.0484  0.4318 -0.3289
  292TMC3    C2 4452   2.181   3.696   0.665 -0.2692 -0.4717 -0.1299
  292TMC3    C3 4453   2.099   3.586   0.689  0.4829  0.5119 -0.5274
  292TMC3    C4 4454   2.188   3.633   0.437  0.0590 -0.0116 -0.5072
  292TMC3    C5 4455   2.117   3.519   0.460 -0.4327  0.2380  0.2227
  292TMC3    C6 4456   2.072   3.492   0.586  0.4273 -0.6749  0.4198
  292TMC3     C 4457   2.265   3.842   0.490 -0.0177 -0.2459 -0.1885
  292TMC3     O 4458   2.238   3.866   0.374  0.3935 -0.0913  0.4000
  292TMC3     H 4459   2.199   3.760   0.750 -1.3967  2.0602 -1.7984
  292TMC3    H1 4460   2.223   3.651   0.336  0.8168 -0.6959 -0.3719
  292TMC3    H2 4461   2.020   3.403   0.618 -0.7973  0.0202  0.3769
  292TMC3    C7 4462   2.054   3.454   0.347  0.6642  0.1344  0.6751
  292TMC3    C8 4463   2.067   3.558   0.829 -0.3811 -0.2552 -0.0746
  292TMC3    O1 4464   2.110   3.480   0.238  0.1981 -0.3865  0.5900
  292TMC3    O2 4465   2.134   3.614   0.912 -0.6428  0.4866 -0.3684
  293MPD2     C 4466   4.155   1.065  12.737  0.7277  0.2089 -0.4927
  293MPD2    C1 4467   4.129   0.950  12.807 -0.4382 -0.4470  0.6205
  293MPD2    C2 4468   4.164   0.945  12.942 -0.2957 -0.1208 -0.1206
  293MPD2    C3 4469   4.231   1.056  13.000  0.6678  0.0157  0.3154
  293MPD2    C4 4470   4.268   1.163  12.922 -0.1228 -0.0511 -0.3279
  293MPD2    C5 4471   4.224   1.166  12.792  0.7778 -0.4501 -0.5277
  293MPD2     H 4472   4.126   0.869  13.010  0.5451 -0.5005 -0.0689
  293MPD2    H1 4473   4.332   1.244  12.956  0.0515  0.2848 -1.4396
  293MPD2    H2 4474   4.128   1.097  12.637  0.9804  0.8290 -0.3634
  293MPD2    H3 4475   4.249   1.251  12.730 -2.2043 -0.8123 -2.1917
  293MPD2     N 4476   4.257   1.048  13.140 -0.0920  0.3771  0.6834
  293MPD2    H5 4477   4.252   0.957  13.185 -0.1038 -0.3362 -0.7733
  293MPD2    N1 4478   4.062   0.850  12.743  0.3547 -0.1216  0.1594
  293MPD2    H7 4479   4.038   0.875  12.648  1.5216  1.5703  0.3169
  294TMC3    C1 4480   3.921   0.666  12.713 -0.4028  0.1055 -0.4599
  294TMC3    C2 4481   3.940   0.688  12.577 -0.6683  0.5219 -0.1571
  294TMC3    C3 4482   3.851   0.629  12.497 -1.0845  0.0393  0.1886
  294TMC3    C4 4483   3.818   0.595  12.770  0.3162 -0.5764 -0.8514
  294TMC3    C5 4484   3.725   0.551  12.680  0.7116 -0.5036  0.6270
  294TMC3    C6 4485   3.733   0.579  12.543  0.2852 -0.1461  0.9222
  294TMC3     C 4486   4.005   0.740  12.803  0.8147  0.2507 -0.1772
  294TMC3     O 4487   4.034   0.685  12.908 -0.4916  0.1449  0.2743
  294TMC3     H 4488   4.026   0.736  12.531 -2.6371  0.9857 -3.3932
  294TMC3    H1 4489   3.824   0.568  12.874  2.1156  1.8818 -0.3022
  294TMC3    H2 4490   3.661   0.525  12.482  0.0752  0.7647  0.3759
  294TMC3    C7 4491   3.592   0.549  12.740  0.4279  0.0641  0.0889
  294TMC3    C8 4492   3.846   0.695  12.365 -0.4326 -0.4235  0.2263
  294TMC3    O1 4493   3.577   0.489  12.846 -0.5000  0.2181 -0.0611
  294TMC3    O2 4494   3.909   0.799  12.347 -0.3711  0.9856 -0.6982
  295MPD2     C 4495   0.215   4.521   0.791 -0.2288 -0.3351  0.2577
  295MPD2    C1 4496   0.087   4.571   0.762  0.0321 -0.0469  0.0967
  295MPD2    C2 4497   4.718   4.564   0.854  0.0116 -0.3125 -0.1209
  295MPD2    C3 4498   4.729   4.470   0.953 -0.1395 -0.0944  0.0183
  295MPD2    C4 4499   0.113   4.405   0.971  0.4782 -0.1179 -0.0887
  295MPD2    C5 4500   0.229   4.444   0.902  0.0820 -0.3402  0.4443
  295MPD2     H 4501   4.627   4.623   0.853  0.5681  0.5443  0.1226
  295MPD2    H1 4502   0.126   4.329   1.047 -0.4314  0.3159  0.4955
  295MPD2    H2 4503   0.300   4.542   0.727 -1.7380  2.0827 -0.9356
  295MPD2    H3 4504   0.321   4.393   0.928 -0.2766 -0.5038  1.3868
  295MPD2     N 4505   4.626   4.435   1.042 -0.3485  0.2350  0.4608
  295MPD2    H5 4506   4.644   4.356   1.102 -0.5119 -0.5140 -0.4753
  295MPD2    N1 4507   0.055   4.638   0.638  0.2980 -0.5066  0.9459
  295MPD2    H7 4508   4.694   4.672   0.638  0.8708  1.0865  3.0905
  296TMC3    C1 4509   4.404   4.415   1.124  0.9414  0.5486  0.2539
  296TMC3    C2 4510   4.294   4.475   1.174 -0.0276 -0.3411  0.8012
  296TMC3    C3 4511   4.195   4.388   1.216 -0.0261  0.2334  0.1382
  296TMC3    C4 4512   4.420   4.273   1.128  0.0488  0.0066  1.0916
  296TMC3    C5 4513   4.315   4.198   1.153 -0.8052  0.2602 -0.1483
  296TMC3    C6 4514   4.200   4.249   1.201  0.8584  1.1497 -0.7714
  296TMC3     C 4515   4.504   4.493   1.051 -0.1132  0.4191  0.2765
  296TMC3     O 4516   4.475   4.601   1.008  0.0141  0.5939  0.0965
  296TMC3     H 4517   4.289   4.583   1.187 -1.6381  0.0029 -2.5509
  296TMC3    H1 4518   4.507   4.219   1.093  0.0925  0.5437  0.3644
  296TMC3    H2 4519   4.121   4.181   1.230  0.2985  2.2090  0.1848
  296TMC3    C7 4520   4.344   4.059   1.154  0.1791 -0.8611  0.5806
  296TMC3    C8 4521   4.116   4.426   1.327 -0.9220 -0.7343  0.3713
  296TMC3    O1 4522   4.456   4.025   1.179 -0.1983 -0.1907  0.2584
  296TMC3    O2 4523   4.096   4.336   1.410  0.2620  0.1316  0.0907
  297MPD2     C 4524   1.814   1.332  15.934  0.8470  0.2949  0.2059
  297MPD2    C1 4525   1.796   1.456  15.994 -0.3245  0.0837  0.0811
  297MPD2    C2 4526   1.884   1.500  16.090  0.3573  0.5174  0.6012
  297MPD2    C3 4527   1.995   1.422  16.125  0.6423  0.2264  0.7003
  297MPD2    C4 4528   2.006   1.297  16.079 -0.1625  0.6232  0.6693
  297MPD2    C5 4529   1.915   1.250  15.987 -0.1925  0.1833  0.7772
  297MPD2     H 4530   1.860   1.586  16.151  2.6891  0.8945  1.0015
  297MPD2    H1 4531   2.076   1.228  16.127 -0.1151 -0.9773 -1.7180
  297MPD2    H2 4532   1.742   1.284  15.869 -0.6641 -1.3160  3.0575
  297MPD2    H3 4533   1.919   1.146  15.957  0.0947  0.3724  0.1567
  297MPD2     N 4534   2.096   1.457  16.213 -0.4605  0.5404 -0.1922
  297MPD2    H5 4535   2.183   1.405  16.213  0.1623  1.5651 -3.4566
  297MPD2    N1 4536   1.689   1.539  15.958  0.4951 -0.4325 -1.1566
  297MPD2    H7 4537   1.690   1.629  16.007  1.2285 -0.0802 -1.8184
  298TMC3    C1 4538   1.506   1.618  15.830  0.3724  0.8561  0.1550
  298TMC3    C2 4539   1.460   1.659  15.705 -0.3188  0.0408 -0.2605
  298TMC3    C3 4540   1.342   1.720  15.691 -0.4138 -0.6903  0.2180
  298TMC3    C4 4541   1.420   1.634  15.935  0.0391 -0.2368 -0.1059
  298TMC3    C5 4542   1.297   1.694  15.916  0.0852 -0.2932 -0.0016
  298TMC3    C6 4543   1.251   1.735  15.794 -0.1374  0.4940  0.6967
  298TMC3     C 4544   1.612   1.525  15.845 -0.1825  0.0200  0.2251
  298TMC3     O 4545   1.618   1.449  15.749 -0.4386  0.0551 -0.2382
  298TMC3     H 4546   1.511   1.625  15.616 -1.0426 -1.4431 -0.1017
  298TMC3    H1 4547   1.438   1.602  16.037  2.4970 -2.6239 -1.2957
  298TMC3    H2 4548   1.148   1.746  15.761  0.7700  0.3018 -2.1511
  298TMC3    C7 4549   1.218   1.714  16.041 -0.4937 -0.4124 -0.0840
  298TMC3    C8 4550   1.317   1.779  15.557 -0.4464 -0.4812  0.1116
  298TMC3    O1 4551   1.263   1.675  16.148 -0.2854 -0.0620  0.9154
  298TMC3    O2 4552   1.392   1.748  15.465 -0.2447 -0.3201 -0.1753
  299MPD2     C 4553   2.063   1.533  10.958 -0.7627  0.7164  0.2224
  299MPD2    C1 4554   2.149   1.430  10.964  0.1234  0.4502 -0.1296
  299MPD2    C2 4555   2.102   1.302  10.936 -0.0283 -0.3864 -0.3802
  299MPD2    C3 4556   1.970   1.283  10.882 -0.3973 -0.4078 -0.4642
  299MPD2    C4 4557   1.887   1.394  10.890 -0.5387  0.0594  0.1913
  299MPD2    C5 4558   1.933   1.519  10.922  0.1652  0.1754  0.1740
  299MPD2     H 4559   2.165   1.215  10.944 -1.4869 -1.4460 -0.3490
  299MPD2    H1 4560   1.782   1.380  10.866 -0.1845 -0.8968 -0.8048
  299MPD2    H2 4561   2.101   1.632  10.983  0.8818  1.0893 -3.8780
  299MPD2    H3 4562   1.870   1.604  10.905  1.0982  0.6296 -0.9752
  299MPD2     N 4563   1.922   1.155  10.840  0.0927  0.2896 -0.2109
  299MPD2    H5 4564   1.821   1.146  10.838  0.1968 -1.0035  0.4556
  299MPD2    N1 4565   2.276   1.459  11.009  0.2810 -0.4569 -0.0003
  299MPD2    H7 4566   2.289   1.553  11.045 -0.3354 -0.8846  1.3528
  300TMC3    C1 4567   1.922   0.956  10.716 -0.2804 -0.0397  0.7164
  300TMC3    C2 4568   1.995   0.917  10.599 -0.5533 -0.3007  0.1913
  300TMC3    C3 4569   1.928   0.888  10.485 -0.1676 -0.5024  0.5077
  300TMC3    C4 4570   1.787   0.973  10.715 -0.5733  0.5993 -0.5306
  300TMC3    C5 4571   1.726   0.943  10.592 -0.8401  0.0775 -0.5510
  300TMC3    C6 4572   1.793   0.904  10.482  0.0628 -0.1541 -0.3424
  300TMC3     C 4573   2.000   1.052  10.795  0.0634  0.5229 -0.1351
  300TMC3     O 4574   2.120   1.056  10.774 -0.9290  0.3657  0.0514
  300TMC3     H 4575   2.103   0.909  10.599 -0.5231  0.2242  3.1845
  300TMC3    H1 4576   1.735   0.969  10.810  1.3442  0.6472  0.5124
  300TMC3    H2 4577   1.749   0.895  10.384 -1.5613 -1.9801  0.5489
  300TMC3    C7 4578   1.581   0.947  10.583  0.2566  0.1939 -0.5910
  300TMC3    C8 4579   1.974   0.953  10.364  0.3823 -0.2100  0.3662
  300TMC3    O1 4580   1.545   0.908  10.473  0.7602 -0.4604 -0.5746
  300TMC3    O2 4581   1.930   0.910  10.255  0.0969 -0.2676 -0.1207
  301MPD2     C 4582   4.569   3.230   1.125  0.5322 -0.1391 -0.1046
  301MPD2    C1 4583   4.454   3.168   1.064 -0.1321 -0.2199 -0.2091
  301MPD2    C2 4584   4.430   3.033   1.088  0.5730  0.6718  1.1266
  301MPD2    C3 4585   4.531   2.959   1.143 -0.8488  0.1289 -0.4396
  301MPD2    C4 4586   4.642   3.020   1.193 -0.4300 -0.2217  0.4732
  301MPD2    C5 4587   4.666   3.156   1.182 -0.5226  0.1631  0.2228
  301MPD2     H 4588   4.338   2.991   1.049 -0.0267  1.9115  1.1755
  301MPD2    H1 4589   4.711   2.953   1.242 -0.9080 -0.0146  1.4264
  301MPD2    H2 4590   4.591   3.336   1.115  0.9398 -0.1149  1.0007
  301MPD2    H3 4591   0.027   3.196   1.214  0.0829  0.1892 -1.6123
  301MPD2     N 4592   4.521   2.821   1.162 -0.0130 -0.6173 -0.0089
  301MPD2    H5 4593   4.603   2.776   1.202  1.0986  1.5735  0.1472
  301MPD2    N1 4594   4.369   3.241   0.982 -0.0998  0.2999  0.2914
  301MPD2    H7 4595   4.285   3.199   0.942  1.0214 -0.2839 -1.4347
  302TMC3    C1 4596   4.432   2.605   1.153  0.5942 -0.0379 -0.7024
  302TMC3    C2 4597   4.550   2.549   1.191  0.2694  0.6364  0.7136
  302TMC3    C3 4598   4.564   2.412   1.200 -0.4506  0.3661 -0.3404
  302TMC3    C4 4599   4.323   2.522   1.134 -0.2177 -0.2483 -0.5004
  302TMC3    C5 4600   4.340   2.389   1.139 -0.8311  0.1597  0.5284
  302TMC3    C6 4601   4.461   2.328   1.183  0.4537  0.1052 -0.3000
  302TMC3     C 4602   4.412   2.744   1.128  0.1091 -0.6897  0.6311
  302TMC3     O 4603   4.303   2.769   1.080  0.5077 -0.5930 -0.4257
  302TMC3     H 4604   4.636   2.615   1.194  0.8752 -0.1486  0.5403
  302TMC3    H1 4605   4.227   2.567   1.111 -1.0985 -1.0779  1.5649
  302TMC3    H2 4606   4.463   2.221   1.203  0.3771  0.0450 -0.6100
  302TMC3    C7 4607   4.238   2.301   1.087  0.4474  0.8679 -0.5216
  302TMC3    C8 4608   4.698   2.361   1.214 -0.1693 -0.0853  0.1724
  302TMC3    O1 4609   4.256   2.181   1.100 -0.0026  0.0335  0.6592
  302TMC3    O2 4610   0.056   2.430   1.183 -0.5086  0.3718  0.0453
  303MPD2     C 4611   3.899   0.521  10.407  0.4357  0.2536  0.1907
  303MPD2    C1 4612   3.858   0.642  10.367 -0.0701 -0.7288  0.1066
  303MPD2    C2 4613   3.929   0.704  10.269  0.9529 -0.1339 -0.3272
  303MPD2    C3 4614   4.038   0.637  10.202  0.7987 -0.1191  0.0769
  303MPD2    C4 4615   4.076   0.512  10.243  0.2636 -0.7577  0.9758
  303MPD2    C5 4616   4.008   0.460  10.355  0.3366 -0.0902  0.8111
  303MPD2     H 4617   3.900   0.807  10.249  0.9777  0.0106  0.3636
  303MPD2    H1 4618   4.148   0.455  10.186 -0.1435 -0.3430  0.0412
  303MPD2    H2 4619   3.841   0.460  10.475  3.1534 -3.0279 -0.4646
  303MPD2    H3 4620   4.040   0.363  10.392 -0.8549 -0.8150 -0.0641
  303MPD2     N 4621   4.116   0.701  10.101  0.3085 -0.4835  0.0780
  303MPD2    H5 4622   4.201   0.652  10.074 -0.0443 -1.5618  0.9337
  303MPD2    N1 4623   3.756   0.708  10.446 -0.3972  0.6046 -0.0849
  303MPD2    H7 4624   3.702   0.660  10.517 -1.2763  1.7038 -0.0188
  304TMC3    C1 4625   3.611   0.876  10.522 -0.1900 -0.2221  0.2960
  304TMC3    C2 4626   3.611   1.011  10.551  0.2479 -0.2526 -0.0888
  304TMC3    C3 4627   3.487   1.079  10.561  0.4183  0.0250  0.3558
  304TMC3    C4 4628   3.492   0.807  10.509  0.2728  0.0728 -0.0862
  304TMC3    C5 4629   3.373   0.876  10.520  0.3889  0.7665  0.3743
  304TMC3    C6 4630   3.371   1.009  10.554  0.5071 -0.4035 -0.5345
  304TMC3     C 4631   3.720   0.842  10.437 -0.0552 -0.0102  0.4358
  304TMC3     O 4632   3.787   0.939  10.398 -0.5586  0.1930  0.1904
  304TMC3     H 4633   3.700   1.073  10.546 -0.6818  0.9545 -1.7115
  304TMC3    H1 4634   3.489   0.702  10.482  1.0232  0.2059 -0.6676
  304TMC3    H2 4635   3.276   1.061  10.556  0.0705 -1.1849 -1.0288
  304TMC3    C7 4636   3.282   0.857  10.407  0.4198  0.0127  0.4607
  304TMC3    C8 4637   3.475   1.202  10.491  0.4148  1.0006 -0.7188
  304TMC3    O1 4638   3.249   0.741  10.379 -0.0225 -0.5400  0.3785
  304TMC3    O2 4639   3.387   1.214  10.408  0.8927  0.3598 -0.1652
  305MPD2     C 4640   2.754   3.150  13.769 -0.3891 -0.6370 -0.4927
  305MPD2    C1 4641   2.797   3.027  13.823 -0.6862 -0.8035 -0.1512
  305MPD2    C2 4642   2.795   2.914  13.740 -0.2040 -0.1302 -0.6092
  305MPD2    C3 4643   2.747   2.926  13.612  0.5039 -0.0158 -0.0430
  305MPD2    C4 4644   2.711   3.051  13.565  0.1209 -0.3557  0.9142
  305MPD2    C5 4645   2.717   3.163  13.642 -0.1383  0.6093 -0.0243
  305MPD2     H 4646   2.817   2.814  13.778 -0.3047 -0.4131 -1.2919
  305MPD2    H1 4647   2.670   3.062  13.465 -0.8865  0.4022  1.4097
  305MPD2    H2 4648   2.738   3.243  13.822 -2.1862 -1.9070  1.1855
  305MPD2    H3 4649   2.702   3.264  13.606  0.0532  1.8711  3.4325
  305MPD2     N 4650   2.727   2.812  13.530  0.4368  0.0700 -0.9701
  305MPD2    H5 4651   2.668   2.830  13.449 -0.6729 -3.9182 -1.0442
  305MPD2    N1 4652   2.813   3.022  13.967  0.3041 -0.3122  0.1030
  305MPD2    H7 4653   2.785   3.110  14.009  0.1201  0.2279 -1.1501
  306TMC3    C1 4654   2.887   2.935  14.168 -0.0656 -0.3314 -0.2686
  306TMC3    C2 4655   2.986   2.861  14.214  0.1532 -0.7177  1.0722
  306TMC3    C3 4656   3.002   2.842  14.351 -0.4903 -0.1754  0.6999
  306TMC3    C4 4657   2.804   3.002  14.252  0.4867 -0.9573 -0.3827
  306TMC3    C5 4658   2.816   2.976  14.388  0.1192  0.1950 -0.2522
  306TMC3    C6 4659   2.909   2.895  14.438  0.7047 -0.4381 -0.3737
  306TMC3     C 4660   2.852   2.910  14.036 -0.4418 -0.3771  0.0617
  306TMC3     O 4661   2.887   2.797  13.995  0.3161 -0.2023  0.0072
  306TMC3     H 4662   3.050   2.806  14.145  1.3885  0.8225  0.9959
  306TMC3    H1 4663   2.726   3.066  14.212 -0.7854 -2.7714 -0.8367
  306TMC3    H2 4664   2.913   2.861  14.541 -1.5591 -2.1106 -0.8365
  306TMC3    C7 4665   2.740   3.039  14.486 -0.1469  0.6611 -0.0310
  306TMC3    C8 4666   3.093   2.743  14.393  0.5123  1.4808 -0.0312
  306TMC3    O1 4667   2.621   3.048  14.455  0.0486 -0.0731 -0.6427
  306TMC3    O2 4668   3.127   2.667  14.308  0.7629 -0.2292  0.2693
  307MPD2     C 4669   0.423   0.997   0.064 -0.9645 -0.3927 -0.1746
  307MPD2    C1 4670   0.387   1.131   0.056 -0.2950  0.8475  1.5997
  307MPD2    C2 4671   0.366   1.198   0.179 -0.2307 -0.4966  0.0194
  307MPD2    C3 4672   0.370   1.125   0.298 -0.2880 -1.1584  0.3690
  307MPD2    C4 4673   0.405   0.988   0.298 -0.3114  0.0134 -0.5568
  307MPD2    C5 4674   0.435   0.928   0.179 -0.3801  0.4304 -0.0181
  307MPD2     H 4675   0.344   1.304   0.174 -1.3325 -0.6235  2.1667
  307MPD2    H1 4676   0.409   0.924   0.385 -0.5857 -1.6472 -1.7556
  307MPD2    H2 4677   0.447   0.933  17.718  0.1330 -0.8704  0.5101
  307MPD2    H3 4678   0.458   0.822   0.181  0.2633  0.5913  0.9990
  307MPD2     N 4679   0.331   1.192   0.413 -0.9045 -0.2583  0.5543
  307MPD2    H5 4680   0.274   1.275   0.405 -3.3047 -1.8389  1.1770
  307MPD2    N1 4681   0.363   1.207  17.674 -0.0124  0.3866  0.1250
  307MPD2    H7 4682   0.309   1.292  17.688 -1.5054 -0.5847  0.2381
  308TMC3    C1 4683   0.091   1.196   0.797 -0.7634 -0.1153 -0.5859
  308TMC3    C2 4684   0.067   1.325   0.780 -0.2622 -0.5018  0.5682
  308TMC3    C3 4685   0.155   1.403   0.705  0.0112  0.5788  0.3176
  308TMC3    C4 4686   0.188   1.130   0.725 -0.0768  0.6829 -0.4187
  308TMC3    C5 4687   0.264   1.206   0.642  1.0100 -0.4295  0.0441
  308TMC3    C6 4688   0.255   1.342   0.628  0.6925  0.0488  0.3399
  308TMC3     C 4689   4.724   1.103   0.832 -0.4986 -0.1296 -0.5941
  308TMC3     O 4690   0.030   0.996   0.876 -0.2892  0.1896 -0.4007
  308TMC3     H 4691   4.732   1.372   0.848 -1.9109  0.7276 -1.9662
  308TMC3    H1 4692   0.219   1.027   0.736 -0.2730  0.7504  0.7449
  308TMC3    H2 4693   0.333   1.394   0.574 -1.5207  1.4154 -1.5308
  308TMC3    C7 4694   0.332   1.134   0.536  0.0306 -0.4471  0.5688
  308TMC3    C8 4695   0.117   1.540   0.669  0.3244 -0.4322 -0.1530
  308TMC3    O1 4696   0.399   1.038   0.572  0.0132 -0.4446  0.6460
  308TMC3    O2 4697   0.215   1.596   0.621  0.2087 -0.2906  0.2083
  309MPD2     C 4698   3.970   0.957  17.134 -0.0039 -0.5422  0.0555
  309MPD2    C1 4699   3.980   1.071  17.061 -0.1772  0.1145 -0.1763
  309MPD2    C2 4700   3.924   1.191  17.111 -0.2899 -0.8878  0.3025
  309MPD2    C3 4701   3.876   1.202  17.241  0.1253  0.2393 -0.0375
  309MPD2    C4 4702   3.868   1.083  17.310 -0.1346  0.2765  0.0275
  309MPD2    C5 4703   3.907   0.962  17.258 -0.1213  0.1773 -0.0592
  309MPD2     H 4704   3.917   1.276  17.043 -0.1696 -1.4916 -0.4584
  309MPD2    H1 4705   3.852   1.081  17.417 -1.7082  1.0685 -0.2007
  309MPD2    H2 4706   4.003   0.861  17.096 -1.4987 -1.2887  0.6651
  309MPD2    H3 4707   3.902   0.873  17.320  0.2509  0.8184  0.8890
  309MPD2     N 4708   3.818   1.315  17.299 -0.5336  0.3059 -0.5245
  309MPD2    H5 4709   3.747   1.297  17.369  0.5781  0.3156  0.5881
  309MPD2    N1 4710   4.035   1.071  16.926 -0.0895 -0.5084 -0.6251
  309MPD2    H7 4711   4.040   1.163  16.885  0.6658 -0.3825 -0.2429
  310TMC3    C1 4712   4.162   1.014  16.746 -0.2239  0.6859  0.0140
  310TMC3    C2 4713   4.116   1.125  16.682  0.1334 -0.3834  0.0067
  310TMC3    C3 4714   4.183   1.165  16.565 -0.3594 -0.0301 -0.7633
  310TMC3    C4 4715   4.263   0.937  16.700 -0.0163  0.5408  0.4090
  310TMC3    C5 4716   4.320   0.976  16.584  0.8817 -0.0470  0.0432
  310TMC3    C6 4717   4.287   1.087  16.522  0.0024  0.4705 -0.3866
  310TMC3     C 4718   4.107   0.973  16.872 -0.2846  0.0563 -0.4433
  310TMC3     O 4719   4.154   0.865  16.914 -0.0863 -0.2434  0.2832
  310TMC3     H 4720   4.016   1.155  16.712 -0.4388 -1.9947 -0.3160
  310TMC3    H1 4721   4.272   0.831  16.725 -1.3241 -0.2234 -2.3895
  310TMC3    H2 4722   4.340   1.112  16.431 -0.5118  0.6883 -0.6266
  310TMC3    C7 4723   4.450   0.920  16.564  0.3049 -0.6477  1.1998
  310TMC3    C8 4724   4.140   1.270  16.477 -0.0893  0.3566 -0.0055
  310TMC3    O1 4725   4.509   0.948  16.460  0.4953 -0.2467 -0.0529
  310TMC3    O2 4726   4.205   1.292  16.374  0.5084  1.1370  0.1810
  311MPD2     C 4727   1.497   2.789  12.529 -0.0324  0.1186 -0.2863
  311MPD2    C1 4728   1.601   2.753  12.612 -0.6228 -1.1332  0.4125
  311MPD2    C2 4729   1.589   2.644  12.694  0.1634 -0.1158 -0.6945
  311MPD2    C3 4730   1.479   2.567  12.687 -0.3295  0.4134  0.5526
  311MPD2    C4 4731   1.375   2.599  12.601 -1.0507 -0.2294 -0.1271
  311MPD2    C5 4732   1.390   2.701  12.514  0.2546 -0.1599 -0.1336
  311MPD2     H 4733   1.673   2.612  12.755  2.0631  2.4373 -2.0005
  311MPD2    H1 4734   1.282   2.542  12.598 -0.8965 -0.5456  0.9389
  311MPD2    H2 4735   1.505   2.873  12.461 -2.1221  0.0612 -0.5861
  311MPD2    H3 4736   1.318   2.737  12.441 -0.7777 -1.9944 -0.0002
  311MPD2     N 4737   1.471   2.451  12.775  0.1862 -0.4310 -0.6241
  311MPD2    H5 4738   1.531   2.450  12.857 -1.5167  2.9325  0.6508
  311MPD2    N1 4739   1.725   2.822  12.614 -0.2143 -0.0959  0.0199
  311MPD2    H7 4740   1.806   2.778  12.658  0.3618  0.4643 -0.4925
  312TMC3    C1 4741   1.383   2.253  12.878 -0.0453  0.1157  0.8727
  312TMC3    C2 4742   1.297   2.146  12.866 -0.1348 -0.3276 -0.2656
  312TMC3    C3 4743   1.248   2.096  12.981 -0.7194 -0.2009 -0.5127
  312TMC3    C4 4744   1.435   2.301  12.994 -0.2316 -0.4287  0.8297
  312TMC3    C5 4745   1.386   2.241  13.109  0.1905  0.5789 -0.5339
  312TMC3    C6 4746   1.291   2.140  13.103  0.1581  0.8691 -0.6464
  312TMC3     C 4747   1.373   2.348  12.770  0.2669  0.3348 -0.9159
  312TMC3     O 4748   1.298   2.325  12.679  0.3181  0.4721 -0.1395
  312TMC3     H 4749   1.253   2.122  12.770 -0.5517  1.8492 -0.6191
  312TMC3    H1 4750   1.513   2.376  12.998 -0.2433 -0.3293 -1.1869
  312TMC3    H2 4751   1.233   2.117  13.192  0.6508  1.1720 -0.2472
  312TMC3    C7 4752   1.400   2.310  13.230 -0.5030 -0.3948  0.3965
  312TMC3    C8 4753   1.113   2.069  12.972  0.8715 -0.3958 -0.2072
  312TMC3    O1 4754   1.400   2.434  13.217  0.3417  0.1032 -0.1584
  312TMC3    O2 4755   1.063   2.138  12.884 -0.3911 -0.3153 -0.4130
  313MPD2     C 4756   1.720   1.812  10.171 -0.6001 -0.1159  0.1925
  313MPD2    C1 4757   1.647   1.720  10.240 -0.8240 -0.7799 -0.3271
  313MPD2    C2 4758   1.630   1.586  10.192  0.4258 -1.2892  0.3267
  313MPD2    C3 4759   1.675   1.557  10.065 -1.3979  0.1451 -0.7324
  313MPD2    C4 4760   1.760   1.649  10.004 -0.0844  0.2207  0.6793
  313MPD2    C5 4761   1.787   1.771  10.055 -0.3098  0.4568 -0.3165
  313MPD2     H 4762   1.573   1.514  10.249  1.4054 -0.7433  1.9978
  313MPD2    H1 4763   1.794   1.618   9.906  0.2751  1.5446  0.3847
  313MPD2    H2 4764   1.739   1.911  10.210 -0.5450 -0.5445  1.2407
  313MPD2    H3 4765   1.860   1.840  10.014 -0.0268 -1.0799 -2.4075
  313MPD2     N 4766   1.652   1.422  10.019  0.4113 -0.0002 -0.2131
  313MPD2    H5 4767   1.577   1.370  10.064 -0.2318  1.0753 -0.0588
  313MPD2    N1 4768   1.583   1.745  10.364 -0.1284 -0.8645 -0.4794
  313MPD2    H7 4769   1.528   1.672  10.409 -1.3956  1.0883  1.1350
  314TMC3    C1 4770   1.502   1.866  10.548  0.0794 -0.1486  0.3464
  314TMC3    C2 4771   1.525   1.971  10.642 -0.3079  0.2428  0.4040
  314TMC3    C3 4772   1.425   2.004  10.730 -0.0959 -0.2920 -0.4441
  314TMC3    C4 4773   1.380   1.802  10.534  0.0568 -0.2622  0.5727
  314TMC3    C5 4774   1.278   1.840  10.617 -0.5728  0.4777  0.0042
  314TMC3    C6 4775   1.307   1.939  10.714  0.2680 -0.4065  0.2191
  314TMC3     C 4776   1.596   1.861  10.438  0.7618  0.1005  0.2745
  314TMC3     O 4777   1.682   1.942  10.427 -0.1167 -0.4964 -0.3215
  314TMC3     H 4778   1.617   2.027  10.645 -0.9165  1.1393  1.9693
  314TMC3    H1 4779   1.359   1.719  10.467 -1.3755  0.2300  0.4090
  314TMC3    H2 4780   1.231   1.950  10.790  1.5378 -4.3162  1.9892
  314TMC3    C7 4781   1.145   1.863  10.554 -0.6514 -0.4223  0.0109
  314TMC3    C8 4782   1.400   2.147  10.732  1.1307  0.9017  0.0615
  314TMC3    O1 4783   1.070   1.930  10.620 -0.2825 -0.0592 -0.6607
  314TMC3    O2 4784   1.494   2.226  10.747 -0.2928 -0.2263 -0.5190
  315MPD2     C 4785   0.817   0.661   0.071  0.3437  0.9590  0.3883
  315MPD2    C1 4786   0.942   0.697   0.120 -0.6690  0.4804 -0.0051
  315MPD2    C2 4787   0.996   0.822   0.101  0.1456  0.1651 -0.3563
  315MPD2    C3 4788   0.923   0.917   0.027 -0.1583  0.5821 -0.2385
  315MPD2    C4 4789   0.790   0.888  17.732  0.2729 -0.4206 -0.4355
  315MPD2    C5 4790   0.742   0.754   0.009  0.4182 -0.0749 -0.0710
  315MPD2     H 4791   1.096   0.845   0.137  0.5847 -0.5661 -1.1128
  315MPD2    H1 4792   0.719   0.959  17.690  2.7972  0.4934 -3.1185
  315MPD2    H2 4793   0.783   0.558   0.075  0.7726  0.7439 -1.2610
  315MPD2    H3 4794   0.640   0.732  17.718  0.5409 -0.2921 -0.3419
  315MPD2     N 4795   0.987   1.044   0.005  0.0323 -0.4109  0.0232
  315MPD2    H5 4796   1.083   1.047   0.038  0.6592  1.2661 -1.9755
  315MPD2    N1 4797   1.036   0.608   0.184 -0.1618  0.2999  0.2628
  315MPD2    H7 4798   1.119   0.647   0.227  0.5276  2.2661 -2.8664
  316TMC3    C1 4799   1.007   1.268  17.680 -0.1273 -0.5317 -0.1739
  316TMC3    C2 4800   1.085   1.292   0.052 -0.0611 -0.3330  0.0504
  316TMC3    C3 4801   1.131   1.422   0.069 -0.1383  0.0465  0.9490
  316TMC3    C4 4802   0.976   1.374  17.593  0.4600 -0.7147 -0.2097
  316TMC3    C5 4803   1.012   1.501  17.625  0.3936 -0.1460 -0.6744
  316TMC3    C6 4804   1.091   1.527  17.730  0.5482  0.0114  0.4676
  316TMC3     C 4805   0.930   1.147  17.665  0.2738  0.3673 -0.0936
  316TMC3     O 4806   0.829   1.144  17.596 -0.2107 -0.1123 -0.1113
  316TMC3     H 4807   1.099   1.221   0.133  0.7187 -1.5908 -1.1985
  316TMC3    H1 4808   0.922   1.356  17.501 -0.3683  0.2704  0.0791
  316TMC3    H2 4809   1.119   1.629   0.017  1.6840 -0.2677  0.3441
  316TMC3    C7 4810   0.946   1.613  17.555  0.2073  0.1085  0.6809
  316TMC3    C8 4811   1.249   1.433   0.148  0.3552 -0.2256 -0.0165
  316TMC3    O1 4812   0.900   1.701  17.624 -0.4775 -0.2493  0.1443
  316TMC3    O2 4813   1.270   1.534   0.215 -0.1833  0.0298 -0.8462
  317MPD2     C 4814   2.892   4.491  12.688 -0.3280  0.0748  0.0578
  317MPD2    C1 4815   2.982   4.390  12.680  0.1259 -0.3601  0.1754
  317MPD2    C2 4816   3.034   4.344  12.804 -0.2692  0.4511 -0.2278
  317MPD2    C3 4817   3.017   4.422  12.916 -0.4585  0.0665 -0.1603
  317MPD2    C4 4818   2.951   4.541  12.912  0.9439  0.3130 -0.0137
  317MPD2    C5 4819   2.884   4.570  12.799 -0.7166  0.1677 -0.1121
  317MPD2     H 4820   3.091   4.252  12.800  0.2066  0.7150  0.4550
  317MPD2    H1 4821   2.945   4.617  12.990 -0.1423  1.7600 -1.4857
  317MPD2    H2 4822   2.848   4.544  12.604  0.9553  0.2574 -0.5013
  317MPD2    H3 4823   2.832   4.665  12.797 -0.9006  0.0402 -1.2239
  317MPD2     N 4824   3.077   4.370  13.043  0.7917 -0.1860  0.2250
  317MPD2    H5 4825   3.118   4.278  13.037 -0.2507 -0.6379  0.0949
  317MPD2    N1 4826   3.007   4.310  12.567 -0.0433 -0.5411 -0.1755
  317MPD2    H7 4827   3.080   4.239  12.574  1.7597  1.3406  0.0755
  318TMC3    C1 4828   3.097   4.337  13.263  1.4067  0.7005  0.3172
  318TMC3    C2 4829   3.039   4.214  13.242 -0.5000 -0.6349  0.0384
  318TMC3    C3 4830   3.076   4.109  13.320 -0.4740  0.4946  0.0451
  318TMC3    C4 4831   3.199   4.364  13.353 -0.8382  0.0115 -0.3145
  318TMC3    C5 4832   3.230   4.258  13.430 -0.6893 -0.3101 -0.0503
  318TMC3    C6 4833   3.178   4.129  13.415 -0.3207 -0.9261 -0.5228
  318TMC3     C 4834   3.067   4.431  13.163  0.1980 -0.1947  0.6660
  318TMC3     O 4835   3.050   4.550  13.199 -0.3138 -0.3039  0.6092
  318TMC3     H 4836   2.959   4.198  13.171 -1.7451 -2.5621  1.8656
  318TMC3    H1 4837   3.244   4.463  13.352  0.8697 -0.7682 -1.3035
  318TMC3    H2 4838   3.191   4.054  13.492  2.0306 -0.4314 -0.4568
  318TMC3    C7 4839   3.358   4.266  13.495  0.4335  0.1054 -0.5794
  318TMC3    C8 4840   3.029   3.978  13.282  0.0626  0.0291  0.3381
  318TMC3    O1 4841   3.396   4.379  13.529 -0.6106 -0.9169  0.3231
  318TMC3    O2 4842   3.105   3.880  13.295  0.3772 -0.4262  0.3758
  319MPD2     C 4843   3.773   1.111  16.542 -0.9696 -0.1770  0.3046
  319MPD2    C1 4844   3.744   0.980  16.571 -0.1365  0.2366 -0.3764
  319MPD2    C2 4845   3.726   0.885  16.472  0.2322 -0.3405  0.3933
  319MPD2    C3 4846   3.743   0.922  16.339  0.4007 -0.6571 -0.6251
  319MPD2    C4 4847   3.780   1.054  16.306 -0.6812 -0.0759 -0.2126
  319MPD2    C5 4848   3.790   1.146  16.408 -0.0397  0.3175 -0.1650
  319MPD2     H 4849   3.702   0.784  16.502 -0.3718  0.0712  1.3043
  319MPD2    H1 4850   3.792   1.091  16.205 -0.8146 -1.1495 -0.6241
  319MPD2    H2 4851   3.770   1.194  16.611  0.4850 -1.9185  2.4897
  319MPD2    H3 4852   3.797   1.251  16.385 -0.3306  0.0877 -1.3164
  319MPD2     N 4853   3.712   0.838  16.231  0.3160 -0.3813  0.1803
  319MPD2    H5 4854   3.730   0.890  16.145  1.2173 -0.2694  0.4383
  319MPD2    N1 4855   3.731   0.938  16.702  0.3824 -0.0351  0.4765
  319MPD2    H7 4856   3.728   0.838  16.715  4.4455 -0.0683  1.2484
  320TMC3    C1 4857   3.612   0.648  16.122  0.6491 -0.9483 -0.0866
  320TMC3    C2 4858   3.606   0.727  16.008 -0.2076 -0.2521 -0.2261
  320TMC3    C3 4859   3.526   0.674  15.911  0.1834 -0.7673  0.0229
  320TMC3    C4 4860   3.571   0.515  16.123  0.0516 -0.3857  0.6234
  320TMC3    C5 4861   3.498   0.465  16.011  0.0634  0.1703 -0.0952
  320TMC3    C6 4862   3.481   0.542  15.902  0.1443 -0.7713  0.0503
  320TMC3     C 4863   3.661   0.708  16.240  0.5199  0.7688  0.5394
  320TMC3     O 4864   3.679   0.630  16.332  0.3587  0.0788 -0.1391
  320TMC3     H 4865   3.619   0.835  16.008  1.9334 -0.5190  1.4538
  320TMC3    H1 4866   3.586   0.454  16.211  0.8840 -2.0960 -0.7015
  320TMC3    H2 4867   3.409   0.518  15.824  2.0721  0.5193 -2.1579
  320TMC3    C7 4868   3.428   0.340  16.017 -0.3371  0.4862 -0.1031
  320TMC3    C8 4869   3.444   0.779  15.855  0.9074 -0.7849 -0.5313
  320TMC3    O1 4870   3.414   0.285  15.909 -0.5390 -0.1466  0.3727
  320TMC3    O2 4871   3.407   0.874  15.921 -0.2848 -0.4888 -0.2732
  321TMC3    C1 4872   3.692   0.932  16.926  0.4503 -0.1974  0.0025
  321TMC3    C2 4873   3.719   0.798  16.908  0.1372  0.3722  0.4316
  321TMC3    C3 4874   3.651   0.708  16.988  0.3475  0.0415  0.7477
  321TMC3    C4 4875   3.607   0.984  17.027 -0.6178  0.0676 -0.3172
  321TMC3    C5 4876   3.546   0.890  17.103 -0.3212 -0.1125 -0.6846
  321TMC3    C6 4877   3.561   0.761  17.085  0.0327  0.5515 -0.4592
  321TMC3     C 4878   3.703   1.015  16.814 -0.1482 -0.5785 -0.1937
  321TMC3     O 4879   3.696   1.137  16.825  0.1594  0.4268  0.0268
  321TMC3     H 4880   3.790   0.752  16.840 -2.3131 -1.7829 -0.6807
  321TMC3    H1 4881   3.595   1.092  17.031  4.2906  0.7844 -5.1852
  321TMC3    H2 4882   3.514   0.686  17.146  2.0308 -0.8672 -0.6564
  321TMC3    C7 4883   3.519   0.909  17.240  0.1293 -0.4002  0.0093
  321TMC3    C8 4884   3.733   0.608  17.057  1.1293  0.1484  0.6890
  321TMC3    O1 4885   3.514   0.808  17.312  0.1535  0.1147  0.7047
  321TMC3    O2 4886   3.683   0.557  17.160 -0.1250  0.2013  0.1288
  322MPD2     C 4887   2.578   1.729  13.933  0.1821  0.3597  0.3447
  322MPD2    C1 4888   2.661   1.795  13.840  0.3283 -0.5359 -0.0352
  322MPD2    C2 4889   2.714   1.722  13.729 -0.6753  0.0376  0.5106
  322MPD2    C3 4890   2.690   1.586  13.714 -0.2335  0.2561 -0.9302
  322MPD2    C4 4891   2.623   1.523  13.818 -0.0299  0.1281 -0.6710
  322MPD2    C5 4892   2.562   1.594  13.923 -0.0107  1.1381 -0.6101
  322MPD2     H 4893   2.771   1.784  13.662  1.4139 -0.6304  1.6767
  322MPD2    H1 4894   2.602   1.417  13.818 -0.4084  0.2035  0.2367
  322MPD2    H2 4895   2.532   1.783  14.015  1.0569  2.2015 -0.3690
  322MPD2    H3 4896   2.503   1.537  13.994  2.3078  1.0079  1.2147
  322MPD2     N 4897   2.748   1.515  13.605 -0.2275  0.5173  0.3565
  322MPD2    H5 4898   2.809   1.571  13.546 -0.5820  0.5141 -0.0183
  322MPD2    N1 4899   2.696   1.932  13.863 -0.4944  0.4544 -0.6907
  322MPD2    H7 4900   2.676   1.970  13.955  0.0638  0.4210 -0.5539
  323TMC3    C1 4901   2.869   2.084  13.893  0.7548 -0.6116 -0.2909
  323TMC3    C2 4902   2.966   2.157  13.835 -0.0707  0.8384 -0.5264
  323TMC3    C3 4903   3.055   2.212  13.924  0.4717 -0.2106  0.4827
  323TMC3    C4 4904   2.852   2.068  14.023 -0.1713 -0.3195 -0.1835
  323TMC3    C5 4905   2.946   2.121  14.101 -0.2174 -0.4268 -0.2099
  323TMC3    C6 4906   3.052   2.192  14.058  0.1145  0.4065  0.1806
  323TMC3     C 4907   2.795   2.001  13.799  0.0848 -0.8584  0.3636
  323TMC3     O 4908   2.823   2.003  13.679 -0.5341 -0.0371  0.8615
  323TMC3     H 4909   2.971   2.164  13.727 -1.2421  1.2332 -0.5480
  323TMC3    H1 4910   2.782   2.007  14.079  0.8378 -0.3147  1.0895
  323TMC3    H2 4911   3.119   2.235  14.130  1.6017 -2.1959  0.3488
  323TMC3    C7 4912   2.951   2.076  14.238 -0.2931 -0.3311 -0.4592
  323TMC3    C8 4913   3.179   2.272  13.882 -0.5998  0.5257  0.1087
  323TMC3    O1 4914   2.912   1.960  14.263 -0.2277  0.0066  0.7567
  323TMC3    O2 4915   3.251   2.327  13.961 -0.0759 -0.1806  0.2890
  324MPD2     C 4916   3.932   3.051  14.438 -0.1808  0.1726  0.4528
  324MPD2    C1 4917   3.973   3.165  14.379 -0.4075  0.3780 -0.1156
  324MPD2    C2 4918   3.914   3.208  14.263  0.1125  0.9883  0.5136
  324MPD2    C3 4919   3.803   3.141  14.213  0.1649 -0.3815 -0.3969
  324MPD2    C4 4920   3.757   3.025  14.274  0.1918  0.3142  0.1044
  324MPD2    C5 4921   3.825   2.982  14.386  0.3626  0.5305 -0.4265
  324MPD2     H 4922   3.945   3.304  14.222  0.8867  0.5102 -0.0085
  324MPD2    H1 4923   3.675   2.963  14.240 -0.8129  1.7910 -0.1726
  324MPD2    H2 4924   3.976   3.010  14.528  3.1890  0.4029 -1.0755
  324MPD2    H3 4925   3.796   2.889  14.434 -0.0606  0.4939 -0.7509
  324MPD2     N 4926   3.732   3.192  14.096  0.2982  0.0565  0.3865
  324MPD2    H5 4927   3.638   3.155  14.083 -0.2318  0.8928  1.8282
  324MPD2    N1 4928   4.078   3.232  14.453  0.0970 -0.0505  0.3585
  324MPD2    H7 4929   4.128   3.182  14.527 -1.1364  1.3582  2.1423
  325TMC3    C1 4930   3.684   3.336  13.908  0.1161  0.4473  0.0143
  325TMC3    C2 4931   3.589   3.248  13.870  0.1218 -0.3996 -0.0265
  325TMC3    C3 4932   3.495   3.287  13.777  0.4624  0.6038 -0.0193
  325TMC3    C4 4933   3.693   3.458  13.845  0.3037  0.4113  0.1417
  325TMC3    C5 4934   3.593   3.493  13.759 -1.0864 -0.0009  0.4924
  325TMC3    C6 4935   3.495   3.406  13.717 -0.5051 -1.2158 -0.4200
  325TMC3     C 4936   3.776   3.299  14.017  0.2556 -0.5511  0.0822
  325TMC3     O 4937   3.886   3.352  14.018  0.4630 -0.5530  0.0398
  325TMC3     H 4938   3.579   3.153  13.920  1.7352 -0.2512  0.5810
  325TMC3    H1 4939   3.770   3.527  13.877  1.5004 -0.9563  0.1911
  325TMC3    H2 4940   3.428   3.441  13.639 -0.4815  0.4980  0.3290
  325TMC3    C7 4941   3.560   3.631  13.741 -0.1884  0.0125 -0.2902
  325TMC3    C8 4942   3.377   3.197  13.756  0.1939  0.1279 -0.2534
  325TMC3    O1 4943   3.501   3.663  13.638  0.3343 -0.3704 -0.1357
  325TMC3    O2 4944   3.371   3.108  13.840 -0.1324  0.3703 -0.9282
  326MPD2     C 4945   0.347   4.346  11.158  0.4100 -0.1191  0.0059
  326MPD2    C1 4946   0.360   4.359  11.023  0.7992  0.3378 -0.5179
  326MPD2    C2 4947   0.454   4.438  10.966  0.5666 -0.1167  0.1696
  326MPD2    C3 4948   0.537   4.510  11.055  0.1845  0.1691 -0.0085
  326MPD2    C4 4949   0.523   4.495  11.189  0.4733  0.3052  0.3329
  326MPD2    C5 4950   0.429   4.414  11.234  0.3186  0.2351  0.6490
  326MPD2     H 4951   0.469   4.439  10.859  0.0495  1.4930  0.1207
  326MPD2    H1 4952   0.599   4.538  11.252  0.9262 -1.0701  0.7203
  326MPD2    H2 4953   0.268   4.283  11.196  0.0666 -0.4745 -1.3185
  326MPD2    H3 4954   0.408   4.407  11.340 -1.3998  1.6009  0.4052
  326MPD2     N 4955   0.628   4.605  11.000  0.7114 -0.6553  0.1458
  326MPD2    H5 4956   0.683   4.654  11.069  2.8396 -1.4135 -1.0072
  326MPD2    N1 4957   0.275   4.298  10.925  0.4338 -0.6405 -0.5039
  326MPD2    H7 4958   0.292   4.320  10.828 -2.8887  1.8813 -0.5165
  327TMC3    C1 4959   0.088   4.195  10.828  0.4305  0.1245  0.2499
  327TMC3    C2 4960   4.694   4.239  10.815 -0.3998  0.5685 -0.3182
  327TMC3    C3 4961   4.637   4.235  10.689 -1.0130  0.3466 -0.3026
  327TMC3    C4 4962   0.166   4.155  10.724 -0.1145 -0.1222  0.0374
  327TMC3    C5 4963   0.108   4.142  10.599 -0.0356  1.0216  0.0275
  327TMC3    C6 4964   4.711   4.187  10.576 -0.2561 -0.6457 -0.0811
  327TMC3     C 4965   0.156   4.228  10.952 -0.1538 -0.2255  0.7051
  327TMC3     O 4966   0.102   4.218  11.066  0.1892  0.5668 -0.5443
  327TMC3     H 4967   4.645   4.268  10.908  0.1863 -0.7521  0.4057
  327TMC3    H1 4968   0.269   4.124  10.739 -0.2071 -0.5608 -0.2405
  327TMC3    H2 4969   4.663   4.174  10.480 -0.0767  3.1714 -0.6750
  327TMC3    C7 4970   0.188   4.129  10.478  0.3113  0.0474  0.0964
  327TMC3    C8 4971   4.561   4.351  10.647  0.0937 -0.0083 -0.6468
  327TMC3    O1 4972   0.157   4.173  10.365  0.4629 -0.3640 -0.2119
  327TMC3    O2 4973   4.592   4.397  10.537 -0.0152 -0.6071  0.4110
  328MPD2     C 4974   3.407   4.153  17.202 -0.0956  0.1346 -0.1108
  328MPD2    C1 4975   3.270   4.152  17.224  0.1274 -0.0952  0.1157
  328MPD2    C2 4976   3.184   4.196  17.123 -0.3861  0.3498 -0.4939
  328MPD2    C3 4977   3.237   4.251  17.008 -0.1159 -0.3602  0.5533
  328MPD2    C4 4978   3.371   4.265  16.995  0.1338 -0.2588 -0.6250
  328MPD2    C5 4979   3.457   4.204  17.086  0.4895 -0.6487 -0.4350
  328MPD2     H 4980   3.077   4.195  17.139 -0.7864 -1.6295 -3.2066
  328MPD2    H1 4981   3.415   4.289  16.899 -0.0891 -0.0290 -0.6686
  328MPD2    H2 4982   3.476   4.120  17.278  0.1093  0.3908 -0.1835
  328MPD2    H3 4983   3.563   4.194  17.069  1.2800 -1.3178  4.8261
  328MPD2     N 4984   3.153   4.312  16.915 -0.1277 -0.1957  0.5649
  328MPD2    H5 4985   3.196   4.385  16.859 -1.6286 -0.1068 -0.4756
  328MPD2    N1 4986   3.216   4.094  17.341 -0.7202  0.1901 -0.1224
  328MPD2    H7 4987   3.275   4.063  17.418 -1.3406  0.1434  0.3343
  329TMC3    C1 4988   3.072   4.045  17.517 -0.1818  0.1391  0.3516
  329TMC3    C2 4989   3.160   4.091  17.608 -0.6744 -0.0020 -1.4537
  329TMC3    C3 4990   3.121   4.081   0.003  0.1419  0.0950  0.9898
  329TMC3    C4 4991   2.962   3.970  17.547  0.3598  0.2344  0.3953
  329TMC3    C5 4992   2.932   3.950  17.683 -0.7468 -0.2220 -0.3652
  329TMC3    C6 4993   3.011   4.006   0.044 -0.8983 -0.4975 -0.1688
  329TMC3     C 4994   3.085   4.083  17.372 -0.4844  0.7030  0.3182
  329TMC3     O 4995   2.989   4.064  17.300 -0.8418  0.1193  0.3831
  329TMC3     H 4996   3.248   4.152  17.591 -2.0147  1.5514 -2.7461
  329TMC3    H1 4997   2.898   3.931  17.469  0.5796 -0.6560  0.6644
  329TMC3    H2 4998   2.993   3.979   0.148 -1.7178  0.7009  0.0102
  329TMC3    C7 4999   2.813   3.879  17.727  0.1691 -0.4257 -0.3190
  329TMC3    C8 5000   3.206   4.133   0.106  0.2899  0.2225  0.4236
  329TMC3    O1 5001   2.824   3.828   0.099  0.2050  0.1232  0.5621
  329TMC3    O2 5002   3.313   4.172   0.062 -0.5306  0.2009 -0.0718
  330TMC3    C1 5003   0.677   3.903   9.189  0.4328  0.2604 -0.6906
  330TMC3    C2 5004   0.582   3.809   9.148 -0.1312 -0.1996  0.4027
  330TMC3    C3 5005   0.607   3.680   9.178 -0.2875 -0.3039 -0.1475
  330TMC3    C4 5006   0.790   3.867   9.256 -0.0882  0.5730  0.1593
  330TMC3    C5 5007   0.813   3.733   9.291 -0.2527  0.1646 -0.4359
  330TMC3    C6 5008   0.719   3.639   9.256  0.1213  0.2191 -0.3255
  330TMC3     C 5009   0.630   4.039   9.216  0.4742 -0.6137 -0.1180
  330TMC3     O 5010   0.711   4.119   9.263 -0.1450  0.7790  0.4522
  330TMC3     H 5011   0.508   3.832   9.072  0.4808 -3.2011 -1.0960
  330TMC3    H1 5012   0.847   3.943   9.308 -0.8765  0.5114  1.1142
  330TMC3    H2 5013   0.716   3.537   9.292  0.2017 -0.5123 -2.3816
  330TMC3    C7 5014   0.919   3.698   9.390  0.2785  0.0848 -0.3706
  330TMC3    C8 5015   0.515   3.583   9.127 -0.4012 -0.3219  0.1655
  330TMC3    O1 5016   0.974   3.792   9.440  0.1512  0.3361  0.1292
  330TMC3    O2 5017   0.410   3.625   9.075 -0.0641 -0.0254  0.0405
  331MPD2     C 5018   3.788   2.950  12.467  0.4057 -0.0858 -0.7880
  331MPD2    C1 5019   3.806   2.904  12.340  0.1029 -0.1077  0.1916
  331MPD2    C2 5020   3.867   2.784  12.325 -0.1317  0.9533  0.0194
  331MPD2    C3 5021   3.917   2.710  12.423 -0.0235  0.4792 -0.0139
  331MPD2    C4 5022   3.896   2.746  12.553 -0.1693 -0.1674  0.0305
  331MPD2    C5 5023   3.830   2.868  12.576  0.2633 -0.0126  0.3041
  331MPD2     H 5024   3.879   2.743  12.226  0.4446 -1.9613  1.3013
  331MPD2    H1 5025   3.948   2.693  12.632 -1.4460  0.2187  1.1163
  331MPD2    H2 5026   3.732   3.042  12.484  0.5880 -0.0293 -0.5036
  331MPD2    H3 5027   3.827   2.908  12.676  1.2083 -0.1655  0.3978
  331MPD2     N 5028   3.988   2.594  12.385  0.0049  0.1167  0.5442
  331MPD2    H5 5029   4.015   2.585  12.288  1.9036 -0.5568  1.1347
  331MPD2    N1 5030   3.757   2.970  12.221 -0.7484  0.3474  0.6690
  331MPD2    H7 5031   3.698   3.049  12.242 -2.2194  0.2228 -2.8887
  332TMC3    C1 5032   4.048   2.373  12.402  0.2085 -0.5997 -0.6887
  332TMC3    C2 5033   4.007   2.352  12.270 -0.4227 -0.5354 -0.1677
  332TMC3    C3 5034   4.040   2.232  12.210  0.3426  0.8922 -0.2460
  332TMC3    C4 5035   4.100   2.274  12.479 -0.5730 -0.0373  0.4224
  332TMC3    C5 5036   4.107   2.147  12.423 -0.0671 -0.4704 -0.5022
  332TMC3    C6 5037   4.090   2.133  12.287  0.1393 -0.0134 -0.2530
  332TMC3     C 5038   4.016   2.491  12.470 -0.4189  0.2197 -0.5591
  332TMC3     O 5039   4.014   2.478  12.593  0.7095  0.1599  0.0344
  332TMC3     H 5040   3.952   2.421  12.207  0.0866  0.0331  0.0049
  332TMC3    H1 5041   4.133   2.301  12.579  1.2798 -2.4756  0.4657
  332TMC3    H2 5042   4.127   2.041  12.244 -1.8780  0.3499 -2.7562
  332TMC3    C7 5043   4.192   2.042  12.480 -0.4845 -0.3729  0.3790
  332TMC3    C8 5044   3.997   2.205  12.070 -0.1217  0.3194 -0.0585
  332TMC3    O1 5045   4.169   1.931  12.449  0.3827  0.1265  0.3998
  332TMC3    O2 5046   3.998   2.305  11.998 -0.3918 -0.2503 -0.0050
  333MPD2     C 5047   4.437   2.360  10.897  0.2112  0.0277 -0.0025
  333MPD2    C1 5048   4.458   2.269  10.790 -0.0692  0.1689 -0.3555
  333MPD2    C2 5049   4.387   2.153  10.793  0.1410 -0.4094  0.4462
  333MPD2    C3 5050   4.301   2.129  10.899  0.0250  0.3946  0.1776
  333MPD2    C4 5051   4.271   2.228  10.998  0.1757  0.0322 -0.5884
  333MPD2    C5 5052   4.344   2.342  10.998  0.1831 -0.1972 -0.1224
  333MPD2     H 5053   4.402   2.073  10.722  0.6693 -0.1311  0.2423
  333MPD2    H1 5054   4.194   2.213  11.073 -1.4539  0.4528 -2.1699
  333MPD2    H2 5055   4.507   2.442  10.893  1.5047 -0.9999  1.6079
  333MPD2    H3 5056   4.324   2.418  11.072 -1.3477 -2.3141  1.6086
  333MPD2     N 5057   4.240   2.002  10.902 -0.2562  0.1506  0.2294
  333MPD2    H5 5058   4.271   1.931  10.837  2.2434  0.6552  0.8726
  333MPD2    N1 5059   4.549   2.305  10.697 -0.3900 -0.1614 -0.0664
  333MPD2    H7 5060   4.609   2.386  10.711 -0.2587 -0.3588  0.5160
  334TMC3    C1 5061   4.682   2.292  10.496 -0.5720 -0.5126  0.7625
  334TMC3    C2 5062   4.723   2.210  10.393  0.0265  0.0249  0.0281
  334TMC3    C3 5063   0.014   2.265  10.273 -0.5290  0.4279  0.4887
  334TMC3    C4 5064   4.682   2.431  10.476  0.2340  0.2679  0.2564
  334TMC3    C5 5065   4.695   2.476  10.348 -0.5418  0.6938 -0.1772
  334TMC3    C6 5066   4.723   2.392  10.240  0.2094 -0.0396  0.2437
  334TMC3     C 5067   4.580   2.231  10.587  0.2101  0.0717  0.2020
  334TMC3     O 5068   4.555   2.115  10.560  0.1762 -0.0300  0.0209
  334TMC3     H 5069   0.012   2.107  10.414  0.5011  0.6375  2.5496
  334TMC3    H1 5070   4.647   2.495  10.557  0.5381  0.3197  0.3448
  334TMC3    H2 5071   4.732   2.431  10.139 -1.0260 -0.5654 -0.0630
  334TMC3    C7 5072   4.645   2.610  10.336  0.2688  0.5119  0.2082
  334TMC3    C8 5073   0.113   2.198  10.196  0.0596 -0.3295  0.3110
  334TMC3    O1 5074   4.617   2.670  10.437 -0.3174  0.0880 -0.1908
  334TMC3    O2 5075   0.127   2.077  10.204  0.6794 -0.5005  0.4194
  335TMC3    C1 5076   4.205   4.539  17.327 -0.2366 -0.7849  0.2967
  335TMC3    C2 5077   4.121   4.486  17.235 -0.0466 -0.6372  0.6978
  335TMC3    C3 5078   4.166   4.471  17.109 -0.4437 -0.1173 -0.1768
  335TMC3    C4 5079   4.321   4.597  17.288 -0.2599  0.3699 -0.6108
  335TMC3    C5 5080   4.372   4.560  17.159  0.6124 -0.5289  0.3515
  335TMC3    C6 5081   4.289   4.503  17.066 -0.1486 -0.3920 -0.1925
  335TMC3     C 5082   4.139   4.570  17.453  0.4376 -0.4700  0.2196
  335TMC3     O 5083   4.028   4.529  17.483  0.1123  0.1147 -0.2117
  335TMC3     H 5084   4.022   4.453  17.264 -0.5092  1.5341  1.6747
  335TMC3    H1 5085   4.375   4.658  17.360 -0.2296  0.0733 -0.3789
  335TMC3    H2 5086   4.323   4.485  16.965  2.7722 -0.8427  0.8577
  335TMC3    C7 5087   4.516   4.575  17.126  0.8195 -1.4588  0.3656
  335TMC3    C8 5088   4.093   4.377  17.021  0.6234 -0.5772  0.2255
  335TMC3    O1 5089   4.551   4.537  17.017 -0.2136  0.0148 -0.2622
  335TMC3    O2 5090   4.137   4.371  16.910  0.5366  0.6777  0.0478
  336MPD2     C 5091   3.487   2.028  16.165  0.0162 -0.4175 -0.5429
  336MPD2    C1 5092   3.507   1.967  16.037  0.1135  0.0000 -0.1201
  336MPD2    C2 5093   3.547   1.832  16.022  0.3088 -0.3678  0.4678
  336MPD2    C3 5094   3.552   1.747  16.127  0.2645 -0.3386  0.3192
  336MPD2    C4 5095   3.519   1.801  16.248  0.3052 -0.3114 -0.5070
  336MPD2    C5 5096   3.497   1.941  16.267  0.4273 -0.2513 -0.5883
  336MPD2     H 5097   3.559   1.790  15.923  1.2204 -0.4857  0.6368
  336MPD2    H1 5098   3.514   1.740  16.337 -2.0372 -1.7478 -1.6218
  336MPD2    H2 5099   3.460   2.133  16.178 -0.9490 -0.4422 -2.2688
  336MPD2    H3 5100   3.476   1.990  16.362 -0.6160 -0.1499 -0.8622
  336MPD2     N 5101   3.566   1.605  16.111  0.3478 -0.5975 -0.1648
  336MPD2    H5 5102   3.549   1.544  16.190  4.1582 -0.4217  0.8139
  336MPD2    N1 5103   3.494   2.048  15.928 -0.8548  0.1523 -0.0059
  336MPD2    H7 5104   3.503   2.005  15.836  2.8000 -0.5015  0.6434
  337TMC3    C1 5105   3.459   2.243  15.786  0.6297  0.2847  0.0837
  337TMC3    C2 5106   3.349   2.217  15.715 -0.5690  0.0333 -0.6027
  337TMC3    C3 5107   3.274   2.320  15.655 -0.7267  0.1503 -0.0387
  337TMC3    C4 5108   3.501   2.370  15.796 -0.3863 -0.1638  0.4828
  337TMC3    C5 5109   3.440   2.460  15.719 -0.5195  0.7110  0.1715
  337TMC3    C6 5110   3.330   2.435  15.641 -0.6380 -0.0964 -1.0197
  337TMC3     C 5111   3.461   2.182  15.922  0.2630 -0.3811  0.2365
  337TMC3     O 5112   3.452   2.270  16.005 -0.4438  0.0137  0.2967
  337TMC3     H 5113   3.303   2.119  15.718 -1.7038  0.5804 -0.1907
  337TMC3    H1 5114   3.583   2.385  15.866  0.2716  2.7921 -0.9219
  337TMC3    H2 5115   3.292   2.514  15.578  1.5575 -0.4883 -2.8152
  337TMC3    C7 5116   3.477   2.602  15.743 -0.1691 -0.1368 -0.4316
  337TMC3    C8 5117   3.148   2.299  15.585  0.5471  0.0983 -0.6461
  337TMC3    O1 5118   3.390   2.686  15.730  0.2879 -0.1793  0.4381
  337TMC3    O2 5119   3.138   2.185  15.535  0.2968  0.3545  0.6228
  338MPD2     C 5120   3.263   1.125   0.853 -1.1139 -0.1328  0.3286
  338MPD2    C1 5121   3.348   1.221   0.812  0.0013  0.0118  0.0962
  338MPD2    C2 5122   3.305   1.347   0.827  0.4627 -0.4922 -0.0099
  338MPD2    C3 5123   3.190   1.384   0.890  0.2923  0.3132  0.3320
  338MPD2    C4 5124   3.109   1.286   0.942 -0.5233 -0.0066 -0.4518
  338MPD2    C5 5125   3.143   1.157   0.906 -0.1986 -0.4991 -0.2137
  338MPD2     H 5126   3.377   1.420   0.793 -0.7773  1.6266  1.9232
  338MPD2    H1 5127   3.018   1.305   0.997 -2.1368  1.1691 -3.4881
  338MPD2    H2 5128   3.299   1.023   0.853  0.3208  0.3694  1.2004
  338MPD2    H3 5129   3.077   1.082   0.948  0.3951 -1.2321 -0.6058
  338MPD2     N 5130   3.178   1.522   0.924  0.3039 -1.1224 -0.4005
  338MPD2    H5 5131   3.257   1.582   0.904 -0.5796 -1.1282 -3.9055
  338MPD2    N1 5132   3.473   1.193   0.756 -0.0693  0.0564 -0.1342
  338MPD2    H7 5133   3.523   1.270   0.713  0.4071 -0.0526  0.2277
  339TMC3    C1 5134   3.064   1.716   0.979 -0.2282  0.0978 -0.0492
  339TMC3    C2 5135   3.066   1.775   1.103 -0.3728 -0.5799 -0.0558
  339TMC3    C3 5136   3.098   1.909   1.110 -0.3207 -0.2916  0.5951
  339TMC3    C4 5137   3.102   1.784   0.869 -0.0101  0.2222 -0.2692
  339TMC3    C5 5138   3.141   1.917   0.881 -0.1970 -0.4505 -0.2696
  339TMC3    C6 5139   3.138   1.982   1.000  1.0037 -0.6860  0.2287
  339TMC3     C 5140   3.071   1.574   0.988 -0.1995 -1.1596 -0.5466
  339TMC3     O 5141   2.997   1.518   1.068 -0.1106 -0.0674 -0.5333
  339TMC3     H 5142   3.047   1.717   1.192  0.4539 -1.7729 -0.6642
  339TMC3    H1 5143   3.098   1.722   0.780  3.1271 -0.1688 -0.1163
  339TMC3    H2 5144   3.169   2.086   1.003 -1.2907 -0.0139  0.4549
  339TMC3    C7 5145   3.214   1.986   0.783 -0.0454 -0.0989 -0.8055
  339TMC3    C8 5146   3.101   1.984   1.236 -0.2575  0.3042  0.4551
  339TMC3    O1 5147   3.269   2.092   0.809 -0.0352 -0.2862 -0.4774
  339TMC3    O2 5148   3.182   2.075   1.256 -0.5102 -0.4952  0.3502
  340MPD2     C 5149   3.210   4.123  10.555  0.1468  0.0741  0.5994
  340MPD2    C1 5150   3.316   4.110  10.470  0.9803 -0.3955  0.1048
  340MPD2    C2 5151   3.452   4.116  10.512 -0.4636  0.0168  0.7820
  340MPD2    C3 5152   3.476   4.136  10.646  0.2273 -0.5489  0.0304
  340MPD2    C4 5153   3.365   4.154  10.728 -0.7410  0.2478  0.4545
  340MPD2    C5 5154   3.233   4.148  10.690 -0.3569  0.2976  0.5653
  340MPD2     H 5155   3.532   4.110  10.440  1.0770 -0.0313  2.4950
  340MPD2    H1 5156   3.383   4.176  10.832  1.3657 -2.6808  0.7093
  340MPD2    H2 5157   3.107   4.123  10.522 -0.4555  1.8921  2.5315
  340MPD2    H3 5158   3.153   4.168  10.760  0.5006  0.8332  1.3977
  340MPD2     N 5159   3.612   4.145  10.704  0.3894  0.1526 -0.2837
  340MPD2    H5 5160   3.613   4.160  10.804 -1.2205 -1.3507 -0.0464
  340MPD2    N1 5161   3.284   4.114  10.333  0.0440  0.0699 -0.2061
  340MPD2    H7 5162   3.184   4.115  10.313 -0.0144 -3.7360 -0.2131
  341TMC3    C1 5163   3.298   4.110  10.090  0.1317 -0.7017  0.5273
  341TMC3    C2 5164   3.165   4.096  10.074 -0.6441 -0.3784  0.2129
  341TMC3    C3 5165   3.120   4.069   9.950 -0.8505  0.6739  0.1626
  341TMC3    C4 5166   3.382   4.114   9.985  0.1419  0.6062 -0.5000
  341TMC3    C5 5167   3.329   4.118   9.857  1.0008  0.0977 -0.2274
  341TMC3    C6 5168   3.205   4.076   9.838  0.6544 -1.0849 -0.7113
  341TMC3     C 5169   3.368   4.113  10.224 -0.1641 -0.0827 -0.1765
  341TMC3     O 5170   3.492   4.120  10.218 -0.6552 -0.0732  0.5383
  341TMC3     H 5171   3.098   4.085  10.158  0.5186 -0.3702  1.1453
  341TMC3    H1 5172   3.487   4.138   9.992  0.2352  0.0172  0.1592
  341TMC3    H2 5173   3.158   4.073   9.741  0.5215  3.1499 -0.8175
  341TMC3    C7 5174   3.418   4.067   9.761  0.3092 -0.3844  0.3041
  341TMC3    C8 5175   3.052   3.938   9.953 -0.2586 -1.0782 -0.3019
  341TMC3    O1 5176   3.504   3.993   9.797  0.0813 -0.0291 -0.6467
  341TMC3    O2 5177   3.102   3.855  10.023  0.4065 -0.1087  0.2261
  342MPD2     C 5178   1.744   2.183  17.598  0.3227 -0.1128  0.1105
  342MPD2    C1 5179   1.831   2.208  17.491  0.0847 -0.0467 -0.3800
  342MPD2    C2 5180   1.883   2.335  17.470 -0.3820  0.8463 -0.2984
  342MPD2    C3 5181   1.831   2.435  17.552 -0.2082  0.4106 -0.4932
  342MPD2    C4 5182   1.742   2.408  17.651 -0.3505 -0.2433  0.3637
  342MPD2    C5 5183   1.697   2.284  17.677 -0.3391 -0.4895 -0.6641
  342MPD2     H 5184   1.938   2.365  17.382  1.5841 -0.8254  0.3670
  342MPD2    H1 5185   1.690   2.488  17.703 -1.2708 -0.3877 -0.3318
  342MPD2    H2 5186   1.709   2.081  17.609  0.9458 -0.5030 -1.6772
  342MPD2    H3 5187   1.613   2.260   0.002  0.6022 -0.1652  0.7118
  342MPD2     N 5188   1.866   2.571  17.543  0.1573 -0.0116 -0.1919
  342MPD2    H5 5189   1.837   2.629  17.621 -0.7943  0.1979 -0.6984
  342MPD2    N1 5190   1.860   2.118  17.382  0.0233  0.1705  0.4414
  342MPD2    H7 5191   1.915   2.157  17.306  0.0707 -1.0168 -0.1325
  343TMC3    C1 5192   1.880   1.900  17.267  0.5613 -0.0262 -0.4076
  343TMC3    C2 5193   1.983   1.952  17.180 -0.8267 -0.0212  0.6734
  343TMC3    C3 5194   2.006   1.886  17.068 -0.5091 -0.2025  0.1347
  343TMC3    C4 5195   1.812   1.786  17.236 -0.1224 -0.5312  0.2896
  343TMC3    C5 5196   1.835   1.731  17.113 -0.0528 -0.6934  0.6651
  343TMC3    C6 5197   1.941   1.770  17.036  0.4660  0.6521  0.3603
  343TMC3     C 5198   1.822   1.986  17.372  0.3569 -0.4460  0.4891
  343TMC3     O 5199   1.762   1.919  17.450 -0.1287  0.0927  0.1045
  343TMC3     H 5200   2.024   2.048  17.208  0.5716  0.0250 -1.5238
  343TMC3    H1 5201   1.723   1.754  17.289 -1.7936  1.0685 -1.5830
  343TMC3    H2 5202   1.958   1.729  16.937  0.9747  1.9073 -0.0752
  343TMC3    C7 5203   1.794   1.590  17.097  1.0535  0.1846  0.2863
  343TMC3    C8 5204   2.120   1.936  16.995  0.5994  0.5545  0.3262
  343TMC3    O1 5205   1.804   1.544  16.981 -0.6845 -0.2981 -0.2874
  343TMC3    O2 5206   2.184   2.037  17.032 -0.0397 -0.1017  0.1040
  344MPD2     C 5207   2.552   2.001  11.343  0.2304  0.6310 -0.0255
  344MPD2    C1 5208   2.599   1.923  11.238 -0.8389  0.1978 -0.2687
  344MPD2    C2 5209   2.657   1.990  11.130  0.4287 -0.6278 -0.1656
  344MPD2    C3 5210   2.690   2.124  11.150  0.6409 -0.3772 -0.8791
  344MPD2    C4 5211   2.668   2.189  11.264  0.5609  0.1114  0.7796
  344MPD2    C5 5212   2.588   2.132  11.357 -0.6475 -0.1210  0.0286
  344MPD2     H 5213   2.680   1.931  11.043  0.6872 -2.4873  1.1544
  344MPD2    H1 5214   2.705   2.290  11.276 -0.0420  0.6372 -1.7657
  344MPD2    H2 5215   2.492   1.956  11.422  0.5086 -2.0059 -1.3209
  344MPD2    H3 5216   2.561   2.188  11.446 -2.1035  0.1675 -0.5885
  344MPD2     N 5217   2.761   2.193  11.049 -0.1003  0.0858 -0.4754
  344MPD2    H5 5218   2.784   2.288  11.078  0.0451  0.3135 -1.3188
  344MPD2    N1 5219   2.586   1.779  11.228 -0.3809 -0.3697 -0.2257
  344MPD2    H7 5220   2.614   1.736  11.140  4.3373  2.0012  0.0701
  345TMC3    C1 5221   2.880   2.249  10.847  0.7141 -0.3653 -0.2409
  345TMC3    C2 5222   2.992   2.312  10.895  0.4796  0.1980 -0.1555
  345TMC3    C3 5223   3.056   2.391  10.805  0.1682  0.5134 -0.3170
  345TMC3    C4 5224   2.825   2.266  10.718 -0.5217 -0.3659  0.4756
  345TMC3    C5 5225   2.879   2.371  10.639 -0.6646  0.0121  0.8960
  345TMC3    C6 5226   3.001   2.425  10.685 -0.3309 -0.1022 -1.1032
  345TMC3     C 5227   2.810   2.151  10.927 -0.1610 -0.2142 -0.3723
  345TMC3     O 5228   2.798   2.034  10.884 -0.3096 -0.2688 -0.3147
  345TMC3     H 5229   3.028   2.293  10.995  1.0973 -1.9337 -0.7705
  345TMC3    H1 5230   2.727   2.222  10.705 -1.2712  1.3723  0.2451
  345TMC3    H2 5231   3.032   2.516  10.635  0.7072  0.4173  0.5184
  345TMC3    C7 5232   2.865   2.381  10.501 -0.1111 -0.5701  0.2130
  345TMC3    C8 5233   3.134   2.499  10.857 -0.9626  0.1461 -0.0229
  345TMC3    O1 5234   2.934   2.461  10.436 -0.2579 -0.6109  0.1175
  345TMC3    O2 5235   3.140   2.606  10.792 -0.3303 -0.0450 -0.0958
  346MPD2     C 5236   2.686   3.775  14.284  0.3756  0.1310  0.5656
  346MPD2    C1 5237   2.787   3.756  14.193  0.1233 -0.0190  0.2624
  346MPD2    C2 5238   2.917   3.770  14.238  0.0955 -0.1763 -0.5592
  346MPD2    C3 5239   2.951   3.781  14.375  0.0872 -0.4389  0.6227
  346MPD2    C4 5240   2.849   3.784  14.471 -0.3145 -0.2211  0.1841
  346MPD2    C5 5241   2.717   3.788  14.423  0.2913 -1.0253 -0.7750
  346MPD2     H 5242   2.997   3.746  14.169  1.1614 -0.7424  0.8819
  346MPD2    H1 5243   2.861   3.789  14.579 -1.3433 -0.8676  0.3339
  346MPD2    H2 5244   2.578   3.772  14.269  0.2829  0.3153  1.1974
  346MPD2    H3 5245   2.631   3.786  14.489 -0.4068 -2.2233 -1.7016
  346MPD2     N 5246   3.088   3.799  14.410  0.6789  0.0983 -0.4486
  346MPD2    H5 5247   3.152   3.814  14.332  1.7336 -0.3805  0.3352
  346MPD2    N1 5248   2.765   3.719  14.055 -0.2687 -0.2476  0.1204
  346MPD2    H7 5249   2.845   3.713  13.993  0.9335 -3.4530  2.0105
  347TMC3    C1 5250   3.286   3.833  14.545  0.4147 -0.3559 -0.7127
  347TMC3    C2 5251   3.348   3.911  14.453  0.3253 -0.3445  0.0354
  347TMC3    C3 5252   3.489   3.904  14.456 -0.4475 -0.1694  0.7447
  347TMC3    C4 5253   3.351   3.749  14.632  0.1857 -0.1738  0.1023
  347TMC3    C5 5254   3.486   3.735  14.622  0.0929  0.5409 -0.0165
  347TMC3    C6 5255   3.558   3.822  14.540 -0.1136  0.3474  0.0417
  347TMC3     C 5256   3.141   3.797  14.537 -0.7653 -0.5242  0.9467
  347TMC3     O 5257   3.080   3.762  14.634 -0.1601  0.0636  0.8688
  347TMC3     H 5258   3.286   3.946  14.372 -1.1871 -1.9675  0.4948
  347TMC3    H1 5259   3.295   3.693  14.706  0.1779  0.1778  0.3599
  347TMC3    H2 5260   3.662   3.799  14.520 -1.4822 -3.9849 -2.1039
  347TMC3    C7 5261   3.538   3.600  14.653 -0.0872 -0.8212  0.6204
  347TMC3    C8 5262   3.556   3.906  14.324  1.2358 -0.0383 -0.3299
  347TMC3    O1 5263   3.452   3.514  14.667 -0.7211 -0.4044  0.2006
  347TMC3    O2 5264   3.645   3.827  14.306  0.2516 -0.1634  0.5904
  348MPD2     C 5265   1.011   2.985  11.597  0.0537 -0.4311 -0.4931
  348MPD2    C1 5266   1.139   3.013  11.558 -0.4640  1.2385  0.4659
  348MPD2    C2 5267   1.163   3.050  11.425 -0.9204  1.0217  1.0807
  348MPD2    C3 5268   1.062   3.050  11.333 -0.1677  0.5641  0.3220
  348MPD2    C4 5269   0.930   3.034  11.376  0.2372  0.5313 -0.3406
  348MPD2    C5 5270   0.907   2.994  11.508 -0.2158  0.1390  0.1486
  348MPD2     H 5271   1.261   3.083  11.393 -1.4971  1.6096 -0.0871
  348MPD2    H1 5272   0.845   3.048  11.311 -0.6712 -1.0114  0.5140
  348MPD2    H2 5273   0.971   2.963  11.695 -1.7770  1.2698 -0.8550
  348MPD2    H3 5274   0.813   2.977  11.558  0.0862 -1.1792  0.2795
  348MPD2     N 5275   1.087   3.108  11.207  0.3893 -0.5019 -0.3719
  348MPD2    H5 5276   1.178   3.149  11.190  0.9778 -0.4940  2.8988
  348MPD2    N1 5277   1.257   3.004  11.640  0.8700 -0.1197  0.0128
  348MPD2    H7 5278   1.341   3.016  11.585 -0.5555 -3.4552 -2.9381
  349TMC3    C1 5279   1.383   2.929  11.823 -0.1266 -0.3095 -0.1564
  349TMC3    C2 5280   1.391   2.806  11.877 -1.1020 -0.7539  0.5797
  349TMC3    C3 5281   1.516   2.755  11.867 -0.0505  1.0511 -0.5369
  349TMC3    C4 5282   1.483   2.982  11.748 -0.5386 -0.0243 -0.3283
  349TMC3    C5 5283   1.600   2.913  11.727 -0.0256 -0.5602  0.0600
  349TMC3    C6 5284   1.623   2.803  11.803  0.3938  0.4275  0.7376
  349TMC3     C 5285   1.255   2.969  11.776  0.7404  0.1448 -0.7910
  349TMC3     O 5286   1.155   2.939  11.839 -0.1850 -0.3682 -0.7093
  349TMC3     H 5287   1.311   2.771  11.940 -1.9475 -0.3168 -0.2410
  349TMC3    H1 5288   1.474   3.082  11.709  1.5492 -0.1039 -1.0160
  349TMC3    H2 5289   1.713   2.744  11.791 -0.5585 -0.7434 -0.7547
  349TMC3    C7 5290   1.627   2.905  11.594 -0.2434  0.2939 -0.1994
  349TMC3    C8 5291   1.560   2.670  11.977 -0.0609 -0.0711  0.0819
  349TMC3    O1 5292   1.627   2.788  11.557  0.1497  0.0535 -0.0648
  349TMC3    O2 5293   1.679   2.686  12.001  0.1511 -0.2809  0.2385
  350MPD2     C 5294   0.935   1.339   9.553  0.1790 -0.2297  0.6065
  350MPD2    C1 5295   0.936   1.287   9.678  0.2183 -0.6230  0.7669
  350MPD2    C2 5296   1.057   1.229   9.716  0.2137  0.3946 -0.4693
  350MPD2    C3 5297   1.171   1.235   9.639 -0.1407 -0.3300  0.4167
  350MPD2    C4 5298   1.165   1.287   9.514 -0.4671  0.3384 -0.2747
  350MPD2    C5 5299   1.045   1.341   9.479  0.0273  0.5590  0.0645
  350MPD2     H 5300   1.040   1.170   9.805 -0.8794  3.4501  1.3446
  350MPD2    H1 5301   1.242   1.290   9.438  0.8528 -1.1071  0.9845
  350MPD2    H2 5302   0.843   1.378   9.510 -0.2540 -0.7911  1.0201
  350MPD2    H3 5303   1.057   1.388   9.382 -1.3986  0.4160 -0.1793
  350MPD2     N 5304   1.298   1.169   9.683 -0.1757  0.2014  0.1322
  350MPD2    H5 5305   1.373   1.161   9.616  0.3011  0.6083  0.6183
  350MPD2    N1 5306   0.825   1.274   9.759 -0.0196 -0.1062 -0.2690
  350MPD2    H7 5307   0.841   1.236   9.852  2.0981  0.8542 -0.2370
  351TMC3    C1 5308   0.612   1.304   9.844 -0.1487  0.3676  0.0121
  351TMC3    C2 5309   0.655   1.216   9.942 -0.3919 -0.0236 -0.1270
  351TMC3    C3 5310   0.563   1.149  10.006 -0.2175  0.2363  0.1857
  351TMC3    C4 5311   0.480   1.351   9.838 -0.7388  0.2983  0.3331
  351TMC3    C5 5312   0.391   1.268   9.907  0.2661 -0.3676 -0.0626
  351TMC3    C6 5313   0.432   1.166   9.989  0.1673 -0.6429 -0.2680
  351TMC3     C 5314   0.705   1.333   9.734 -0.6451 -0.1574  0.2517
  351TMC3     O 5315   0.671   1.410   9.643 -0.4183 -0.2443  0.4234
  351TMC3     H 5316   0.758   1.184   9.956 -0.5310 -0.0345  0.8235
  351TMC3    H1 5317   0.457   1.434   9.772  0.3628  1.7563  1.7679
  351TMC3    H2 5318   0.365   1.091  10.029  0.4011 -1.0087 -0.5734
  351TMC3    C7 5319   0.248   1.303   9.893 -0.2318  0.3937 -0.6188
  351TMC3    C8 5320   0.605   1.011  10.044 -0.1362  0.2194 -0.0720
  351TMC3    O1 5321   0.225   1.383   9.802 -0.1840 -0.2224  0.2082
  351TMC3    O2 5322   0.710   0.967  10.003  0.4035 -0.2929  0.1927
  352MPD2     C 5323   4.071   4.212   0.789 -0.0480  0.1605 -0.2666
  352MPD2    C1 5324   3.985   4.108   0.779 -0.2779  0.1083  0.0563
  352MPD2    C2 5325   4.030   3.981   0.763 -0.0253 -0.7324 -0.0420
  352MPD2    C3 5326   4.160   3.945   0.778  0.0344 -0.4628  0.6918
  352MPD2    C4 5327   4.252   4.048   0.804 -0.5371  0.1512  0.2868
  352MPD2    C5 5328   4.210   4.185   0.793 -0.1563 -0.3017 -0.8719
  352MPD2     H 5329   3.959   3.901   0.746 -1.4753  0.7201 -0.8236
  352MPD2    H1 5330   4.360   4.033   0.798 -0.1335  3.5204 -0.8849
  352MPD2    H2 5331   4.039   4.316   0.790 -0.0232  0.1612  0.7194
  352MPD2    H3 5332   4.282   4.265   0.782  1.0693 -1.3422 -0.2897
  352MPD2     N 5333   4.204   3.816   0.762  0.4173  0.4011 -0.0765
  352MPD2    H5 5334   4.300   3.792   0.781  0.6511  0.6562 -0.9459
  352MPD2    N1 5335   3.852   4.143   0.779  0.0471  0.0940  0.1917
  352MPD2    H7 5336   3.833   4.243   0.783 -0.7516 -0.0563  0.3116
  353TMC3    C1 5337   4.196   3.593   0.704 -0.1846  0.2400  0.0087
  353TMC3    C2 5338   4.272   3.548   0.806 -0.3432  0.4018 -0.1680
  353TMC3    C3 5339   4.275   3.416   0.841 -0.2453 -0.2083  0.1785
  353TMC3    C4 5340   4.119   3.502   0.628 -0.2502 -0.0948  0.2965
  353TMC3    C5 5341   4.127   3.369   0.657 -0.2837 -1.0427  0.1523
  353TMC3    C6 5342   4.211   3.325   0.755  0.6720  0.0541  0.4237
  353TMC3     C 5343   4.122   3.716   0.721  0.0335  0.0766  0.3509
  353TMC3     O 5344   4.015   3.714   0.667 -0.0790 -0.4573 -0.2852
  353TMC3     H 5345   4.321   3.622   0.868 -1.0989  2.0630 -1.5799
  353TMC3    H1 5346   4.073   3.533   0.535 -1.0179  1.7078  1.2883
  353TMC3    H2 5347   4.232   3.220   0.765  0.0171 -0.2447 -1.4091
  353TMC3    C7 5348   4.010   3.287   0.624  0.4369 -0.5933  0.0402
  353TMC3    C8 5349   4.386   3.368   0.928 -0.0921 -0.3691 -0.0211
  353TMC3    O1 5350   4.023   3.173   0.656 -0.2131 -0.0629  0.2486
  353TMC3    O2 5351   4.482   3.446   0.935  0.9908 -0.9652  0.3240
  354TMC3    C1 5352   0.824   3.874  13.326  0.1379  0.3851 -0.4883
  354TMC3    C2 5353   0.826   4.008  13.322  0.3286 -0.0903  0.9222
  354TMC3    C3 5354   0.821   4.068  13.201 -0.1489  0.5514 -0.4308
  354TMC3    C4 5355   0.814   3.787  13.222 -0.3951  0.0353  0.0360
  354TMC3    C5 5356   0.795   3.850  13.101  0.3784  0.3930  0.1987
  354TMC3    C6 5357   0.803   3.993  13.088 -0.5063 -0.0888 -0.2239
  354TMC3     C 5358   0.784   3.833  13.457  0.1217  0.8803  0.3658
  354TMC3     O 5359   0.685   3.762  13.465 -0.4546  0.0034  1.1005
  354TMC3     H 5360   0.836   4.066  13.413  1.2117  2.0133 -0.5245
  354TMC3    H1 5361   0.793   3.682  13.237  2.1115 -0.5203 -0.3326
  354TMC3    H2 5362   0.794   4.044  12.993  1.3520 -0.8985 -0.8398
  354TMC3    C7 5363   0.797   3.766  12.981 -0.2720 -0.9477 -0.0816
  354TMC3    C8 5364   0.829   4.215  13.200  0.5774 -0.2401 -0.3976
  354TMC3    O1 5365   0.756   3.652  12.994  0.2644  0.3277 -0.7417
  354TMC3    O2 5366   0.774   4.279  13.290 -0.0654 -0.3884 -0.6940
  355MPD2     C 5367   0.972   0.276  11.822 -0.3361  0.2482  0.6847
  355MPD2    C1 5368   1.038   0.401  11.810  0.0404  0.9482  0.2803
  355MPD2    C2 5369   1.169   0.402  11.857  0.9931 -0.5906  0.7015
  355MPD2    C3 5370   1.242   0.290  11.900  0.0808  0.3555 -0.4516
  355MPD2    C4 5371   1.170   0.171  11.907  0.3350 -1.1604 -0.5978
  355MPD2    C5 5372   1.044   0.164  11.859 -0.3083  0.6370  0.1499
  355MPD2     H 5373   1.224   0.496  11.858  0.8223 -0.5010  2.0793
  355MPD2    H1 5374   1.218   0.078  11.936 -2.2171 -2.7961 -1.6486
  355MPD2    H2 5375   0.871   0.265  11.786  0.5649 -0.3832 -1.6313
  355MPD2    H3 5376   0.996   0.066  11.861 -0.0785  0.5034 -0.8939
  355MPD2     N 5377   1.375   0.303  11.951  0.2112  0.3101  0.3388
  355MPD2    H5 5378   1.427   0.387  11.926 -1.3563  1.1479 -0.1235
  355MPD2    N1 5379   0.971   0.521  11.769 -0.2608 -0.6075 -0.4319
  355MPD2    H7 5380   0.881   0.514  11.724  0.5636 -2.8273 -1.7391
  356TMC3    C1 5381   1.546   0.286  12.093 -0.5142 -0.0064  0.9396
  356TMC3    C2 5382   1.624   0.353  12.001 -0.2132 -0.1584  0.0603
  356TMC3    C3 5383   1.695   0.459  12.051  0.1072 -0.0531 -0.1225
  356TMC3    C4 5384   1.548   0.311  12.228 -0.4164  0.4370 -0.9275
  356TMC3    C5 5385   1.638   0.415  12.274 -0.3512  0.2235 -0.3754
  356TMC3    C6 5386   1.694   0.495  12.179  0.0424 -0.4463 -0.2444
  356TMC3     C 5387   1.431   0.217  12.042  0.4398 -0.4508  0.0197
  356TMC3     O 5388   1.379   0.131  12.108  0.1596 -0.5279  0.5574
  356TMC3     H 5389   1.622   0.328  11.896 -2.4845  0.5105 -0.0605
  356TMC3    H1 5390   1.486   0.260  12.302 -0.3807  2.3031  0.3850
  356TMC3    H2 5391   1.781   0.553  12.208 -1.2701  1.1364  0.4833
  356TMC3    C7 5392   1.594   0.474  12.392 -0.8429  0.2272 -0.3318
  356TMC3    C8 5393   1.787   0.524  11.962  0.1784 -0.1239  0.2865
  356TMC3    O1 5394   1.526   0.408  12.470  0.6254  0.5072  0.7893
  356TMC3    O2 5395   1.829   0.456  11.870 -0.5951  0.1009  0.5514
  357MPD2     C 5396   0.891   0.105   0.613  0.0817  0.0171 -0.1865
  357MPD2    C1 5397   0.918   0.092   0.746 -0.6272  1.0266  0.1246
  357MPD2    C2 5398   0.816   0.087   0.837  0.2883  0.4773 -0.7085
  357MPD2    C3 5399   0.679   0.091   0.797  0.6158  0.7291 -0.6665
  357MPD2    C4 5400   0.655   0.118   0.665 -0.3202  0.7564  0.1652
  357MPD2    C5 5401   0.759   0.137   0.581  0.4131  0.0201  0.7166
  357MPD2     H 5402   0.848   0.097   0.940  1.9444  1.4664 -1.3226
  357MPD2    H1 5403   0.555   0.130   0.626 -0.5238 -1.7519 -0.1379
  357MPD2    H2 5404   0.971   0.107   0.540 -0.6010  0.5232 -0.9182
  357MPD2    H3 5405   0.741   0.161   0.477  3.0411  2.1710  0.7458
  357MPD2     N 5406   0.574   0.075   0.893  0.4241  0.3782 -0.4653
  357MPD2    H5 5407   0.477   0.079   0.865  0.3601 -1.2103 -0.4602
  357MPD2    N1 5408   1.050   0.058   0.768 -0.7157 -0.2498  0.5702
  357MPD2    H7 5409   1.099   0.030   0.684  1.0925  2.1326  0.8521
  358TMC3    C1 5410   1.227   4.689   0.864  0.1654 -0.2044  0.1129
  358TMC3    C2 5411   1.285   4.694   0.736 -0.2794 -1.0496  0.2063
  358TMC3    C3 5412   1.343   4.578   0.693  0.3947  0.0905 -0.1150
  358TMC3    C4 5413   1.246   4.587   0.950  0.3699  0.1022  0.6879
  358TMC3    C5 5414   1.312   4.480   0.901 -1.1475 -1.0813 -0.5473
  358TMC3    C6 5415   1.355   4.469   0.774 -0.3760  0.3570  0.0866
  358TMC3     C 5416   1.111   0.040   0.886 -0.6294  0.4650 -0.5650
  358TMC3     O 5417   1.071   0.039   1.003 -0.7204 -1.1345  0.6463
  358TMC3     H 5418   1.273   0.041   0.666  1.5736 -0.2360  0.8192
  358TMC3    H1 5419   1.215   4.591   1.054 -2.8447  2.1719 -0.3664
  358TMC3    H2 5420   1.409   4.385   0.731  0.2448  0.9271 -0.2489
  358TMC3    C7 5421   1.322   4.364   0.986  0.1111 -0.0424 -0.2030
  358TMC3    C8 5422   1.318   4.557   0.548 -0.7054 -0.0456 -0.2852
  358TMC3    O1 5423   1.274   4.377   1.098  0.2997  0.0741  0.4719
  358TMC3    O2 5424   1.311   4.657   0.479  0.7240  0.2623  0.5973
  359MPD2     C 5425   0.425   3.537  11.979 -0.4315  0.8621 -0.1647
  359MPD2    C1 5426   0.476   3.415  11.973 -0.4851 -0.0204  0.3092
  359MPD2    C2 5427   0.420   3.312  12.038 -0.2440  0.6243 -0.5356
  359MPD2    C3 5428   0.306   3.328  12.111 -0.0688 -0.1340 -0.8462
  359MPD2    C4 5429   0.253   3.455  12.119  0.2637  0.4605 -0.3424
  359MPD2    C5 5430   0.317   3.564  12.062  1.1939  0.1092 -0.0407
  359MPD2     H 5431   0.457   3.212  12.024  0.3593  0.5851  1.2576
  359MPD2    H1 5432   0.152   3.468  12.155  0.1882 -2.7477  0.5794
  359MPD2    H2 5433   0.478   3.615  11.927 -0.9041  0.0138 -1.9301
  359MPD2    H3 5434   0.274   3.663  12.074 -1.2371 -1.0164  0.6984
  359MPD2     N 5435   0.225   3.220  12.163  0.3710  0.5286 -0.5294
  359MPD2    H5 5436   0.136   3.243  12.207 -0.0814  1.5665 -1.9773
  359MPD2    N1 5437   0.589   3.387  11.902  0.1875  0.0617  0.2590
  359MPD2    H7 5438   0.623   3.292  11.916  0.7907 -0.1344 -2.3938
  360TMC3    C1 5439   0.761   3.421  11.733  0.3979 -0.0388 -0.1872
  360TMC3    C2 5440   0.861   3.360  11.802 -0.4899  0.3394 -0.0281
  360TMC3    C3 5441   0.977   3.338  11.735 -0.0413  0.5872  0.0906
  360TMC3    C4 5442   0.753   3.423  11.598  0.0790 -0.1417 -0.0348
  360TMC3    C5 5443   0.863   3.374  11.525 -0.1179 -0.2322  0.4179
  360TMC3    C6 5444   0.977   3.329  11.589  0.2205 -0.1293  0.0295
  360TMC3     C 5445   0.646   3.471  11.804 -0.1017  0.2017  0.0222
  360TMC3     O 5446   0.594   3.568  11.748 -0.1589 -0.1347  0.0850
  360TMC3     H 5447   0.865   3.377  11.909 -0.4357 -1.3252  0.2257
  360TMC3    H1 5448   0.664   3.472  11.559  1.6186  3.3919  0.9127
  360TMC3    H2 5449   1.058   3.289  11.529 -1.1917 -1.1794 -1.1486
  360TMC3    C7 5450   0.866   3.368  11.381  0.7573  0.5330  0.6696
  360TMC3    C8 5451   1.099   3.319  11.809  0.3719  0.7900  0.4884
  360TMC3    O1 5452   0.975   3.382  11.334  0.0765 -0.2244  0.4361
  360TMC3    O2 5453   1.089   3.309  11.929 -0.0446  0.1964  0.0897
  361MPD2     C 5454   2.909   3.214  17.498 -0.2790 -0.3183  0.2651
  361MPD2    C1 5455   2.874   3.146  17.381 -0.5102 -0.7171  0.1284
  361MPD2    C2 5456   2.964   3.066  17.314  0.0581 -0.6598  0.1471
  361MPD2    C3 5457   3.084   3.040  17.376 -0.3721 -0.4651 -1.1256
  361MPD2    C4 5458   3.119   3.097  17.499 -0.3427 -0.0834  0.2036
  361MPD2    C5 5459   3.032   3.183  17.553  0.1728  0.1735 -0.6695
  361MPD2     H 5460   2.926   3.020  17.223 -1.0593 -0.7245  0.6394
  361MPD2    H1 5461   3.214   3.071  17.545  0.4588 -1.1858 -2.0826
  361MPD2    H2 5462   2.846   3.283  17.552 -1.4151  0.1923 -1.7128
  361MPD2    H3 5463   3.064   3.224  17.647 -0.5264 -0.1572 -0.2885
  361MPD2     N 5464   3.180   2.954  17.316 -0.7483  0.4122  0.6746
  361MPD2    H5 5465   3.273   2.940  17.354 -1.1713  2.1199  2.3191
  361MPD2    N1 5466   2.742   3.145  17.327 -0.1368  0.7662 -0.5662
  361MPD2    H7 5467   2.734   3.113  17.231 -1.9021  0.3623 -0.2710
  362TMC3    C1 5468   2.523   3.204  17.299 -0.4109 -0.1117  0.0946
  362TMC3    C2 5469   2.396   3.216  17.354 -0.5643  0.6156 -0.5649
  362TMC3    C3 5470   2.285   3.185  17.271 -0.0037  0.2344 -1.0140
  362TMC3    C4 5471   2.547   3.169  17.167  0.5115  0.3693  0.0410
  362TMC3    C5 5472   2.435   3.150  17.089  0.0688 -0.1050 -0.5147
  362TMC3    C6 5473   2.308   3.155  17.139  0.2730 -0.5304 -0.1322
  362TMC3     C 5474   2.633   3.192  17.392 -0.3716 -0.2461  0.3562
  362TMC3     O 5475   2.614   3.240  17.504  0.5867  0.1475  0.2464
  362TMC3     H 5476   2.381   3.231  17.461 -0.6072  0.9718 -0.6225
  362TMC3    H1 5477   2.643   3.192  17.122  0.0626  1.0666 -0.5784
  362TMC3    H2 5478   2.222   3.151  17.072 -0.4756 -0.3239  0.8204
  362TMC3    C7 5479   2.452   3.201  16.954  0.1553  0.2716  0.6409
  362TMC3    C8 5480   2.146   3.178  17.312  0.6640 -0.4363  0.4085
  362TMC3    O1 5481   2.367   3.279  16.911  0.3761 -0.2835 -0.1481
  362TMC3    O2 5482   2.092   3.079  17.264 -0.9170 -0.4558 -0.3504
  363TMC3    C1 5483   0.896   0.573   9.131 -0.1911  0.0721 -0.0638
  363TMC3    C2 5484   0.942   0.547   9.255  0.0822  0.1512 -0.9623
  363TMC3    C3 5485   0.892   0.617   9.364  0.3815  0.5047 -0.3987
  363TMC3    C4 5486   0.809   0.675   9.104  0.3192  0.4590  0.1022
  363TMC3    C5 5487   0.763   0.745   9.209 -0.1703 -0.5560 -0.3047
  363TMC3    C6 5488   0.809   0.719   9.337  0.1914 -0.5062 -0.0111
  363TMC3     C 5489   0.938   0.498   9.017 -0.9158  0.5187 -0.2740
  363TMC3     O 5490   0.965   0.563   8.917  0.3917 -0.3156  0.5071
  363TMC3     H 5491   1.035   0.490   9.261 -0.5518 -1.1449 -3.4313
  363TMC3    H1 5492   0.773   0.689   9.003 -1.3002  1.2241  0.7827
  363TMC3    H2 5493   0.775   0.779   9.421  0.3132  1.2872 -1.2487
  363TMC3    C7 5494   0.630   0.807   9.195 -0.2429 -1.0056  0.6201
  363TMC3    C8 5495   0.946   0.602   9.494  0.5825  0.3889 -0.2936
  363TMC3    O1 5496   0.613   0.883   9.101 -0.1292  0.2733  0.5105
  363TMC3    O2 5497   0.934   0.696   9.573  0.2357  0.5192  0.7023
  364MPD2     C 5498   4.432   0.069  10.837 -0.2624 -0.2123 -0.4878
  364MPD2    C1 5499   4.504   0.040  10.727 -0.3650 -0.2337  0.5337
  364MPD2    C2 5500   4.523   4.644  10.690  0.6055 -0.4282  0.4667
  364MPD2    C3 5501   4.469   4.541  10.776 -0.0183 -0.8215  0.4525
  364MPD2    C4 5502   4.411   4.580  10.890 -0.1359 -0.4942  0.1567
  364MPD2    C5 5503   4.387   4.709  10.916 -0.2806  0.2906  0.5507
  364MPD2     H 5504   4.578   4.615  10.602  0.2125 -0.7735  0.3353
  364MPD2    H1 5505   4.370   4.503  10.954  1.7369 -1.6850 -0.0692
  364MPD2    H2 5506   4.414   0.172  10.868 -0.6638 -0.8543  1.3825
  364MPD2    H3 5507   4.333   4.724  11.009 -1.5538  2.3773 -0.5088
  364MPD2     N 5508   4.505   4.408  10.762  0.1223 -0.0087 -0.1905
  364MPD2    H5 5509   4.470   4.344  10.832  0.1769 -0.2054 -0.3435
  364MPD2    N1 5510   4.579   0.140  10.667  0.2659 -0.1922  0.0276
  364MPD2    H7 5511   4.562   0.238  10.685  0.8329  0.1854 -1.4869
  365TMC3    C1 5512   0.033   0.221  10.559  0.0760 -0.8922 -0.6919
  365TMC3    C2 5513   0.088   0.246  10.440 -0.4203 -0.2724 -0.6362
  365TMC3    C3 5514   0.150   0.368  10.422  0.5405 -0.0528 -0.3088
  365TMC3    C4 5515   0.051   0.295  10.669  1.2333 -0.7210  0.2059
  365TMC3    C5 5516   0.116   0.416  10.652  0.0339 -0.1332 -0.3487
  365TMC3    C6 5517   0.163   0.452  10.525 -0.2849  0.3814 -0.0102
  365TMC3     C 5518   4.668   0.119  10.568  0.2545 -0.3873 -0.8811
  365TMC3     O 5519   4.711   0.017  10.518  0.0812  0.0692  0.0823
  365TMC3     H 5520   0.066   0.178  10.358  2.6316  0.8690 -2.3950
  365TMC3    H1 5521   4.731   0.272  10.760  1.6805  3.8774  1.6601
  365TMC3    H2 5522   0.204   0.552  10.512 -2.3090  1.3987  1.3576
  365TMC3    C7 5523   0.087   0.526  10.750  0.2499  0.1688  0.1582
  365TMC3    C8 5524   0.174   0.423  10.280 -0.5967 -0.7018  0.1071
  365TMC3    O1 5525   0.087   0.642  10.707 -0.1399  0.0741  0.7413
  365TMC3    O2 5526   0.152   0.544  10.262  0.0900 -0.2354  0.2741
  366MPD2     C 5527   3.574   1.009  14.970 -0.7029 -0.4211  0.4523
  366MPD2    C1 5528   3.598   1.139  14.990 -0.6312 -0.3372 -1.0783
  366MPD2    C2 5529   3.707   1.203  14.935 -0.3616 -0.3691  0.2524
  366MPD2    C3 5530   3.799   1.121  14.873 -1.1104 -0.5604 -0.2642
  366MPD2    C4 5531   3.779   0.988  14.841 -0.7744 -0.4139 -0.0565
  366MPD2    C5 5532   3.659   0.933  14.889  0.0370  0.6982  0.4068
  366MPD2     H 5533   3.728   1.308  14.950 -0.8943 -0.4069  1.3384
  366MPD2    H1 5534   3.845   0.927  14.782  2.6044  2.3181  0.9233
  366MPD2    H2 5535   3.496   0.953  15.019  0.3727 -2.5282 -0.2271
  366MPD2    H3 5536   3.640   0.826  14.888  3.8508  0.0160  0.7981
  366MPD2     N 5537   3.926   1.177  14.852  0.6502 -0.3114 -0.3855
  366MPD2    H5 5538   3.929   1.277  14.866 -3.7724 -0.3874  1.1309
  366MPD2    N1 5539   3.520   1.217  15.075  0.3630 -0.2315  0.5511
  366MPD2    H7 5540   3.555   1.312  15.084  0.1610 -0.1310  0.2655
  367TMC3    C1 5541   3.354   1.288  15.216 -0.4087 -0.6418 -0.5659
  367TMC3    C2 5542   3.439   1.386  15.263  0.0586  1.1196  0.2976
  367TMC3    C3 5543   3.381   1.486  15.328  0.1354  0.0311  0.0507
  367TMC3    C4 5544   3.221   1.305  15.222 -0.0743  0.2575  0.2544
  367TMC3    C5 5545   3.169   1.418  15.279 -0.3231 -0.2584  0.6809
  367TMC3    C6 5546   3.248   1.499  15.343  0.0224 -0.1130 -0.1045
  367TMC3     C 5547   3.401   1.184  15.126 -0.6445  0.2071 -0.0935
  367TMC3     O 5548   3.321   1.104  15.087 -0.2878  0.3237  0.1956
  367TMC3     H 5549   3.546   1.373  15.256 -0.1941 -0.7095 -0.3344
  367TMC3    H1 5550   3.160   1.223  15.184 -0.4754  0.6541  0.0424
  367TMC3    H2 5551   3.205   1.586  15.392  1.2398 -0.0808  0.9003
  367TMC3    C7 5552   3.049   1.484  15.219  0.2868  0.5017  0.2546
  367TMC3    C8 5553   3.459   1.558  15.419 -0.6045  1.1314  0.0382
  367TMC3    O1 5554   3.045   1.605  15.234 -0.0003  0.7169 -0.6635
  367TMC3    O2 5555   3.538   1.488  15.477  0.6154 -0.1908 -0.1717
  368MPD2     C 5556   4.559   2.519  13.240  0.2691  0.5128  0.2970
  368MPD2    C1 5557   4.567   2.654  13.237  0.3163 -0.0298  0.7516
  368MPD2    C2 5558   4.671   2.713  13.307 -0.0782 -0.0489 -0.0052
  368MPD2    C3 5559   0.030   2.644  13.383  0.6424  0.2612  0.0981
  368MPD2    C4 5560   0.010   2.509  13.386 -0.7405  0.5838  0.4020
  368MPD2    C5 5561   4.642   2.448  13.325 -0.5659 -0.3094  0.2874
  368MPD2     H 5562   4.679   2.820  13.292  0.6791 -0.1013  0.0509
  368MPD2    H1 5563   0.075   2.455  13.455  0.0733  2.3536  1.0371
  368MPD2    H2 5564   4.495   2.458  13.178  0.9791  2.6507 -2.5440
  368MPD2    H3 5565   4.643   2.340  13.317 -0.1632 -0.3701  1.0989
  368MPD2     N 5566   0.137   2.710  13.445  0.7912  0.9235  0.3007
  368MPD2    H5 5567   0.208   2.653  13.489  0.0332  0.9404  1.5483
  368MPD2    N1 5568   4.471   2.720  13.151  0.0492 -0.1520  0.7410
  368MPD2    H7 5569   4.409   2.654  13.106  0.0452 -0.2647  0.9127
  369TMC3    C1 5570   4.377   2.901  13.013  0.6956 -0.0059 -0.2834
  369TMC3    C2 5571   4.396   3.020  12.951  0.4344  0.7685 -0.2841
  369TMC3    C3 5572   4.296   3.077  12.880 -0.4616 -0.7482 -0.3203
  369TMC3    C4 5573   4.261   2.826  12.998  0.6399  1.0481 -0.0889
  369TMC3    C5 5574   4.160   2.881  12.919  0.1722 -0.4856 -0.6323
  369TMC3    C6 5575   4.178   3.004  12.857 -1.0481  0.2122  0.1047
  369TMC3     C 5576   4.479   2.858  13.110 -0.3001  0.2659 -0.0514
  369TMC3     O 5577   4.559   2.947  13.151  0.1531 -0.7935  0.4118
  369TMC3     H 5578   4.495   3.066  12.955  1.1656 -0.8332  0.1542
  369TMC3    H1 5579   4.245   2.750  13.074  1.4056 -0.4171 -1.4138
  369TMC3    H2 5580   4.092   3.049  12.808 -1.2909 -0.6309 -0.2434
  369TMC3    C7 5581   4.026   2.838  12.956 -0.1432 -0.7905  0.6675
  369TMC3    C8 5582   4.310   3.210  12.825  1.1379  0.2783 -0.6255
  369TMC3    O1 5583   3.959   2.907  13.031  0.3003  0.7138 -0.4652
  369TMC3    O2 5584   4.267   3.214  12.710  0.0407 -0.2628 -0.0745
  370TMC3    C1 5585   4.162   3.829  16.257 -0.1328  0.5013  0.3495
  370TMC3    C2 5586   4.099   3.769  16.358 -0.2580 -0.5561 -0.3901
  370TMC3    C3 5587   4.063   3.634  16.339  0.4085 -0.2837  0.6883
  370TMC3    C4 5588   4.189   3.762  16.138 -0.6212  0.1635 -0.6225
  370TMC3    C5 5589   4.153   3.632  16.123 -0.9914  0.0165 -0.3341
  370TMC3    C6 5590   4.095   3.562  16.229  0.3792 -0.5407  0.8400
  370TMC3     C 5591   4.259   3.925  16.306  0.3688 -0.0097  0.2534
  370TMC3     O 5592   4.298   3.910  16.422  0.1215 -0.3888 -0.6029
  370TMC3     H 5593   4.069   3.829  16.443  1.6019 -1.1071  0.6561
  370TMC3    H1 5594   4.235   3.815  16.056 -1.3914  1.0578 -0.4729
  370TMC3    H2 5595   4.071   3.457  16.219 -0.5489 -0.2766  0.2674
  370TMC3    C7 5596   4.201   3.566  16.011 -0.1895  0.2123 -0.0164
  370TMC3    C8 5597   4.019   3.558  16.453 -0.6623  0.4467  0.2625
  370TMC3    O1 5598   4.223   3.638  15.913 -0.1920 -0.4939 -0.0731
  370TMC3    O2 5599   4.018   3.433  16.450 -0.8550  0.8219  0.2365
  371TMC3    C1 5600   0.455   1.843  15.487 -0.8667 -0.4558 -0.3255
  371TMC3    C2 5601   0.332   1.849  15.546 -0.1049  0.4382  0.2984
  371TMC3    C3 5602   0.273   1.973  15.566  0.4895  0.7203  0.2905
  371TMC3    C4 5603   0.526   1.956  15.458 -0.7291  0.1258  0.0113
  371TMC3    C5 5604   0.458   2.072  15.477  0.0787 -0.2882 -0.1744
  371TMC3    C6 5605   0.335   2.091  15.533  0.5373  0.8136  0.6051
  371TMC3     C 5606   0.521   1.714  15.463 -0.5374  0.2403  0.4776
  371TMC3     O 5607   0.618   1.708  15.389  0.3182  0.1215  0.2870
  371TMC3     H 5608   0.271   1.762  15.569  0.6349 -0.6917 -2.0639
  371TMC3    H1 5609   0.632   1.948  15.440 -0.5328 -0.9125  1.6110
  371TMC3    H2 5610   0.289   2.189  15.544 -0.5642  0.2639  0.8796
  371TMC3    C7 5611   0.527   2.190  15.433  0.1596 -0.1789 -0.2118
  371TMC3    C8 5612   0.179   1.966  15.676  0.2467  0.4153 -0.5786
  371TMC3    O1 5613   0.497   2.304  15.476  0.2165  0.5541 -0.0221
  371TMC3    O2 5614   0.145   1.862  15.729 -0.0639 -0.3196 -0.2037
  372MPD2     C 5615   4.243   3.098  13.376  0.2479 -0.0182 -0.3094
  372MPD2    C1 5616   4.360   3.076  13.445 -0.6191  0.1419  0.1662
  372MPD2    C2 5617   4.390   2.946  13.482 -0.5646  0.0070 -0.0694
  372MPD2    C3 5618   4.302   2.843  13.447  0.1574 -0.7482 -0.7241
  372MPD2    C4 5619   4.187   2.865  13.374  0.2344  0.4509 -0.9488
  372MPD2    C5 5620   4.159   2.997  13.344  0.1780  0.1567 -0.0564
  372MPD2     H 5621   4.480   2.923  13.539 -0.9085  0.9018  0.8532
  372MPD2    H1 5622   4.124   2.783  13.342  1.8806 -1.6984  1.2953
  372MPD2    H2 5623   4.214   3.196  13.340 -0.2578 -0.1535 -0.2698
  372MPD2    H3 5624   4.081   3.020  13.272  1.1556 -1.4445 -1.6229
  372MPD2     N 5625   4.343   2.708  13.468 -0.5123 -0.4070 -0.2540
  372MPD2    H5 5626   4.420   2.691  13.532  0.7032 -1.4099 -1.9810
  372MPD2    N1 5627   4.454   3.182  13.488  0.5118  0.3816  0.8534
  372MPD2    H7 5628   4.523   3.149  13.554  3.3660  0.4076 -2.1277
  373TMC3    C1 5629   4.317   2.475  13.490  0.4244 -0.6249  0.1921
  373TMC3    C2 5630   4.339   2.494  13.623  0.5720  0.1598  0.2794
  373TMC3    C3 5631   4.365   2.384  13.703  0.1471  0.5111  0.0115
  373TMC3    C4 5632   4.317   2.356  13.429  0.4674  0.1763 -0.3999
  373TMC3    C5 5633   4.346   2.248  13.511 -0.1021  0.1548 -0.1195
  373TMC3    C6 5634   4.369   2.260  13.643 -0.0838  0.1794 -0.2926
  373TMC3     C 5635   4.280   2.594  13.416 -0.2963 -0.5089  0.1099
  373TMC3     O 5636   4.196   2.575  13.332 -0.4413  0.0143  0.2764
  373TMC3     H 5637   4.323   2.589  13.671 -0.2497  0.4687 -0.6186
  373TMC3    H1 5638   4.305   2.348  13.322 -1.8669  0.1153 -0.1309
  373TMC3    H2 5639   4.367   2.171  13.705  0.6133 -0.9942 -1.9550
  373TMC3    C7 5640   4.452   2.160  13.463  0.1344  0.2255  0.6348
  373TMC3    C8 5641   4.466   2.397  13.812 -0.5451  0.0200  0.2726
  373TMC3    O1 5642   4.448   2.105  13.358 -0.3083  0.0248  0.1729
  373TMC3    O2 5643   4.531   2.498  13.819  0.5224 -0.0005 -0.2556
  374TMC3    C1 5644   4.713   3.427   9.286  0.0083  0.3721 -0.5022
  374TMC3    C2 5645   0.099   3.500   9.288  0.0870  0.0593 -0.0495
  374TMC3    C3 5646   0.078   3.639   9.285 -0.0813 -0.7587 -0.6710
  374TMC3    C4 5647   4.591   3.485   9.249 -0.0270  0.2236  1.3384
  374TMC3    C5 5648   4.586   3.620   9.224  0.1546  0.4225 -0.1199
  374TMC3    C6 5649   4.691   3.697   9.246 -0.5464  0.1323  0.0728
  374TMC3     C 5650   4.720   3.285   9.288  0.1824 -0.0253  0.7955
  374TMC3     O 5651   4.616   3.229   9.257 -0.1720 -0.3094 -0.3955
  374TMC3     H 5652   0.194   3.448   9.282  0.6427  0.9987  0.6175
  374TMC3    H1 5653   4.506   3.420   9.233 -0.9147  1.3754  1.4269
  374TMC3    H2 5654   4.691   3.805   9.242  0.2672  0.1463  0.5746
  374TMC3    C7 5655   4.462   3.682   9.189 -0.2702 -0.3333 -0.2607
  374TMC3    C8 5656   0.182   3.732   9.321 -0.1868 -0.2434 -0.0990
  374TMC3    O1 5657   4.359   3.638   9.233 -0.1714  0.2251  0.0632
  374TMC3    O2 5658   0.174   3.844   9.278 -0.1009 -0.5337  0.4008
  375MPD2     C 5659   0.635   3.939  16.855  0.9154 -0.1320  0.4092
  375MPD2    C1 5660   0.633   4.004  16.731 -0.5091 -0.3979 -0.3308
  375MPD2    C2 5661   0.675   3.939  16.615 -0.4242  0.6673 -0.4525
  375MPD2    C3 5662   0.701   3.807  16.619  0.1866  0.8251 -0.5137
  375MPD2    C4 5663   0.713   3.750  16.739  0.5602  0.4039 -0.4196
  375MPD2    C5 5664   0.683   3.811  16.858  0.5964 -0.4140  0.0087
  375MPD2     H 5665   0.660   3.987  16.519  2.6895  1.0038 -0.7553
  375MPD2    H1 5666   0.732   3.644  16.750  2.0476  0.9149  1.8437
  375MPD2    H2 5667   0.599   3.990  16.944  0.6691  1.8885 -0.8419
  375MPD2    H3 5668   0.674   3.756  16.951  1.1510 -1.3575 -0.4996
  375MPD2     N 5669   0.715   3.722  16.501  0.1504 -0.1005 -0.5595
  375MPD2    H5 5670   0.734   3.623  16.514  0.8804  0.0298 -0.6431
  375MPD2    N1 5671   0.601   4.140  16.714  0.5259  0.0801 -0.2817
  375MPD2    H7 5672   0.605   4.181  16.621 -0.2507  0.8542  0.0294
  376TMC3    C1 5673   0.749   3.667  16.271  1.1491  0.2673 -0.2972
  376TMC3    C2 5674   0.876   3.624  16.298 -0.3814 -0.0883 -1.0442
  376TMC3    C3 5675   0.953   3.556  16.207  0.7359 -0.2953  0.0158
  376TMC3    C4 5676   0.708   3.663  16.139 -0.0768 -0.6615  0.4308
  376TMC3    C5 5677   0.779   3.590  16.047 -0.0893  0.4189 -1.1615
  376TMC3    C6 5678   0.900   3.524  16.082 -0.1918  0.0606 -0.4051
  376TMC3     C 5679   0.696   3.763  16.364  0.2159  0.0612  0.3306
  376TMC3     O 5680   0.633   3.861  16.325  0.7097 -0.1237 -0.2533
  376TMC3     H 5681   0.918   3.626  16.398 -1.7854 -0.1915 -0.4447
  376TMC3    H1 5682   0.604   3.685  16.115 -0.5275 -1.0785  1.9715
  376TMC3    H2 5683   0.951   3.485  15.995  1.5249 -1.2524  1.1778
  376TMC3    C7 5684   0.755   3.624  15.913  0.3757 -0.8277 -0.0759
  376TMC3    C8 5685   1.102   3.549  16.216  0.2548 -0.1985 -0.2987
  376TMC3    O1 5686   0.685   3.723  15.892  0.4225  0.5355  0.3045
  376TMC3    O2 5687   1.146   3.623  16.300  0.1327  0.6349 -0.4436
  377MPD2     C 5688   4.008   3.406  12.667  0.0211  0.0597  0.5647
  377MPD2    C1 5689   3.900   3.338  12.607  0.2791 -0.0798  0.0652
  377MPD2    C2 5690   3.826   3.247  12.682  0.2469  0.2371  0.0226
  377MPD2    C3 5691   3.855   3.218  12.812  0.4377  0.4696  0.4296
  377MPD2    C4 5692   3.962   3.291  12.870  0.5142 -0.9235  0.0899
  377MPD2    C5 5693   4.041   3.383  12.798  0.0174 -0.1576  0.0975
  377MPD2     H 5694   3.749   3.188  12.633  2.2743 -3.2790  1.0528
  377MPD2    H1 5695   3.984   3.266  12.973 -2.3408 -1.3140  0.6153
  377MPD2    H2 5696   4.064   3.478  12.607 -1.7679  0.1226 -1.0230
  377MPD2    H3 5697   4.120   3.436  12.850 -0.2623  1.4254 -1.0702
  377MPD2     N 5698   3.783   3.133  12.896  0.8449  0.5730  0.4650
  377MPD2    H5 5699   3.816   3.139  12.992  0.8621 -1.4616  0.5841
  377MPD2    N1 5700   3.882   3.366  12.466 -0.1718 -0.2989  0.5312
  377MPD2    H7 5701   3.950   3.430  12.427 -0.2338  0.5425  1.8158
  378TMC3    C1 5702   3.661   3.470  12.080  0.1992 -0.6350 -0.2625
  378TMC3    C2 5703   3.661   3.438  12.212 -0.1367  1.2695 -0.3187
  378TMC3    C3 5704   3.773   3.376  12.254 -0.7470  0.2078 -0.0744
  378TMC3    C4 5705   3.760   3.429  11.988  0.4326 -0.1576  0.5342
  378TMC3    C5 5706   3.869   3.373  12.043  0.6022  0.1308 -0.2622
  378TMC3    C6 5707   3.880   3.351  12.179 -0.0665  0.7501 -0.5733
  378TMC3     C 5708   3.553   3.559  12.036  0.1653  0.0498  0.7869
  378TMC3     O 5709   3.450   3.564  12.103  0.2661  0.0718 -0.2557
  378TMC3     H 5710   3.574   3.464  12.271  1.1076 -0.6311  2.2957
  378TMC3    H1 5711   3.736   3.430  11.882  1.2450 -0.9014  0.3401
  378TMC3    H2 5712   3.972   3.304  12.213  0.4016  1.3812 -0.9580
  378TMC3    C7 5713   3.966   3.306  11.959  0.0028 -0.5176 -0.5228
  378TMC3    C8 5714   3.776   3.327  12.391 -0.6729 -0.0973  0.3857
  378TMC3    O1 5715   4.040   3.229  12.013  0.1592 -0.5417  0.2630
  378TMC3    O2 5716   3.671   3.265  12.409 -0.0681  0.6975 -0.3321
  379MPD2     C 5717   3.862   1.698  16.389  0.2294  0.0340 -0.1674
  379MPD2    C1 5718   3.947   1.626  16.310  0.2789  0.5614  0.1568
  379MPD2    C2 5719   4.011   1.513  16.354 -0.1561  0.0508 -0.0508
  379MPD2    C3 5720   3.987   1.464  16.484 -0.5271  0.2549  0.1807
  379MPD2    C4 5721   3.906   1.543  16.564  0.0088 -0.2739  0.6226
  379MPD2    C5 5722   3.844   1.655  16.517 -0.8142  0.2469  0.9151
  379MPD2     H 5723   4.083   1.465  16.288  1.2494 -0.3697  1.7924
  379MPD2    H1 5724   3.875   1.500  16.659 -2.7079 -3.6252 -1.7527
  379MPD2    H2 5725   3.805   1.783  16.354 -0.0233 -0.3023 -0.5729
  379MPD2    H3 5726   3.772   1.707  16.579 -0.6022  1.6470 -0.0190
  379MPD2     N 5727   4.045   1.352  16.536  0.0569  0.0340 -0.4647
  379MPD2    H5 5728   4.010   1.324  16.628  1.7082 -0.9848 -0.1575
  379MPD2    N1 5729   3.954   1.669  16.181  0.2742 -0.1984  0.0604
  379MPD2    H7 5730   3.914   1.762  16.169  2.6075  0.8137  0.0670
  380TMC3    C1 5731   4.026   1.701  15.962  0.2813 -0.3313  0.1102
  380TMC3    C2 5732   4.137   1.711  15.882 -0.4023 -0.0367 -0.1062
  380TMC3    C3 5733   4.145   1.808  15.785  0.1974  0.6526 -0.0056
  380TMC3    C4 5734   3.931   1.795  15.951  0.5457  0.1798  0.3070
  380TMC3    C5 5735   3.946   1.896  15.857 -0.1418  0.3001 -0.5039
  380TMC3    C6 5736   4.051   1.906  15.772 -0.3646  0.1554 -0.3943
  380TMC3     C 5737   4.030   1.616  16.081  0.5910 -0.0750 -0.3238
  380TMC3     O 5738   4.092   1.512  16.076 -0.1048  0.4394  0.4483
  380TMC3     H 5739   4.216   1.636  15.888  0.3341  0.6949 -0.6215
  380TMC3    H1 5740   3.839   1.788  16.009 -0.2198  0.7094 -0.8467
  380TMC3    H2 5741   4.062   1.994  15.709 -0.3491  0.3899 -0.0606
  380TMC3    C7 5742   3.835   1.946  15.786 -0.2921  0.0487 -0.2563
  380TMC3    C8 5743   4.254   1.802  15.687  0.0930 -0.1140 -0.4723
  380TMC3    O1 5744   3.841   2.067  15.784 -0.6983 -0.1824 -0.1404
  380TMC3    O2 5745   4.230   1.836  15.574 -0.2481  0.4380  0.0203
  381TMC3    C1 5746   4.041   2.787  16.378 -0.6028  0.3420  0.4103
  381TMC3    C2 5747   4.131   2.881  16.333  0.4930 -0.0211 -0.4779
  381TMC3    C3 5748   4.157   2.984  16.421 -0.4675 -0.2626  1.3146
  381TMC3    C4 5749   3.981   2.793  16.505  0.0284 -0.2910  0.4008
  381TMC3    C5 5750   4.009   2.901  16.584 -0.8428 -0.0845  0.6087
  381TMC3    C6 5751   4.093   3.004  16.548 -0.3378 -0.0974 -0.2415
  381TMC3     C 5752   4.023   2.675  16.284  0.1526  0.7931 -0.9585
  381TMC3     O 5753   4.099   2.668  16.188 -0.7452 -0.8990 -0.2298
  381TMC3     H 5754   4.197   2.866  16.248  2.4385 -1.3332  1.2441
  381TMC3    H1 5755   3.904   2.726  16.540 -0.1917  0.2341  0.9096
  381TMC3    H2 5756   4.091   3.096  16.607  0.2763 -0.9490  1.1127
  381TMC3    C7 5757   3.948   2.902  16.714  0.1169 -0.6966  1.3241
  381TMC3    C8 5758   4.264   3.072  16.378 -0.5036 -0.6016 -0.3268
  381TMC3    O1 5759   3.917   2.793  16.761  0.5305 -0.4121 -0.0611
  381TMC3    O2 5760   4.326   3.037  16.279  0.2998  0.2940  0.4051
  382MPD2     C 5761   3.016   0.862  17.344  0.3571  0.0272  0.5362
  382MPD2    C1 5762   3.129   0.782  17.366  0.2009  0.2337 -0.1069
  382MPD2    C2 5763   3.141   0.667  17.291  1.1069  0.4257  0.0513
  382MPD2    C3 5764   3.049   0.623  17.190 -0.2066  0.2849 -0.0354
  382MPD2    C4 5765   2.939   0.704  17.167  0.1335 -0.1976 -0.4447
  382MPD2    C5 5766   2.927   0.818  17.243  0.8378 -0.4154 -0.0960
  382MPD2     H 5767   3.229   0.605  17.309  0.5661 -0.5077 -0.4902
  382MPD2    H1 5768   2.866   0.683  17.090 -0.3656  0.3807 -0.1360
  382MPD2    H2 5769   2.992   0.945  17.409 -1.6512 -0.5797  0.5565
  382MPD2    H3 5770   2.848   0.889  17.221  3.4840  1.9995 -1.9232
  382MPD2     N 5771   3.057   0.494  17.116 -0.5660 -0.1774 -0.0763
  382MPD2    H5 5772   2.977   0.473  17.057 -0.4588  0.3439 -0.4111
  382MPD2    N1 5773   3.220   0.809  17.469  0.1668  0.1274 -0.2317
  382MPD2    H7 5774   3.306   0.755  17.473  0.2100  0.4711  3.5020
  383TMC3    C1 5775   3.146   0.290  17.074 -0.0856  0.0785  0.0043
  383TMC3    C2 5776   3.019   0.237  17.076 -0.3592 -0.4752 -0.2650
  383TMC3    C3 5777   2.992   0.102  17.059 -0.1392  0.3775 -0.8713
  383TMC3    C4 5778   3.245   0.201  17.046  0.2468 -0.0106 -0.0970
  383TMC3    C5 5779   3.220   0.069  17.018  0.0558 -0.0681  0.3452
  383TMC3    C6 5780   3.095   0.016  17.029  0.0645 -0.4973  0.0561
  383TMC3     C 5781   3.170   0.419  17.116  0.2910  0.5008 -0.4890
  383TMC3     O 5782   3.287   0.442  17.151  0.3130  0.3775  0.4685
  383TMC3     H 5783   2.931   0.299  17.089 -0.8903 -1.2261 -0.3072
  383TMC3    H1 5784   3.345   0.242  17.045  0.2946 -0.1311 -0.4302
  383TMC3    H2 5785   3.077   4.644  17.028 -0.8681 -0.3500  0.8200
  383TMC3    C7 5786   3.325   4.707  17.008 -1.2713  0.4063  0.0468
  383TMC3    C8 5787   2.860   0.049  17.079 -0.5651  0.1889 -0.4233
  383TMC3    O1 5788   3.304   4.607  16.941  0.2303  0.4418 -0.3724
  383TMC3    O2 5789   2.766   0.127  17.103 -0.1082 -0.0792  0.2086
  384MPD2     C 5790   4.271   0.744  12.363 -0.6008  0.4879  0.1349
  384MPD2    C1 5791   4.342   0.824  12.280 -0.7919 -0.6561  0.0952
  384MPD2    C2 5792   4.479   0.842  12.305 -0.1965  0.3564 -0.3672
  384MPD2    C3 5793   4.538   0.781  12.409 -0.2887  0.0860 -0.1503
  384MPD2    C4 5794   4.468   0.703  12.491 -0.0983 -0.1817 -0.0946
  384MPD2    C5 5795   4.328   0.690  12.476 -1.0604  0.9378  0.4290
  384MPD2     H 5796   4.551   0.893  12.243  3.0475 -1.9773  1.4694
  384MPD2    H1 5797   4.518   0.662  12.578  1.2644  1.9104  0.1229
  384MPD2    H2 5798   4.169   0.719  12.337 -0.3474  0.5222 -0.9006
  384MPD2    H3 5799   4.274   0.629  12.548  1.2519 -0.1788  1.2110
  384MPD2     N 5800   4.673   0.805  12.437  0.5341  0.2888  0.4584
  384MPD2    H5 5801   4.733   0.739  12.487 -0.0889 -0.4800  0.1978
  384MPD2    N1 5802   4.268   0.882  12.181 -0.4713  0.3362  0.5418
  384MPD2    H7 5803   4.176   0.846  12.157 -0.2126 -1.3956  2.1564
  385TMC3    C1 5804   0.134   0.959  12.447 -0.1592 -0.5993 -0.8695
  385TMC3    C2 5805   0.228   0.911  12.360  0.0753  0.4378  0.1947
  385TMC3    C3 5806   0.331   0.999  12.336 -0.3819  0.2007 -0.2076
  385TMC3    C4 5807   0.132   1.097  12.479  0.3777  0.0277 -0.2706
  385TMC3    C5 5808   0.237   1.182  12.443  0.2797 -0.1959  0.5071
  385TMC3    C6 5809   0.344   1.131  12.375 -0.2917 -0.2114  0.2277
  385TMC3     C 5810   4.725   0.929  12.422 -0.3367 -0.1247  0.8127
  385TMC3     O 5811   4.656   1.027  12.393 -0.0002  0.6286  0.0693
  385TMC3     H 5812   0.204   0.812  12.322 -3.0010  0.2303  2.6055
  385TMC3    H1 5813   0.050   1.139  12.538 -0.0823 -0.8638 -0.2739
  385TMC3    H2 5814   0.426   1.190  12.336 -0.0228 -0.3162  0.6308
  385TMC3    C7 5815   0.179   1.302  12.375  0.0280 -0.0523 -0.2291
  385TMC3    C8 5816   0.420   0.965  12.231 -0.4513  0.8035 -0.1399
  385TMC3    O1 5817   0.243   1.407  12.375  0.1591  0.2240  0.1400
  385TMC3    O2 5818   0.516   1.040  12.209 -0.0786  0.3369 -0.1046
  386TMC3    C1 5819   0.262   3.426  11.487  0.5361  0.5044  0.4458
  386TMC3    C2 5820   0.269   3.471  11.362  0.8623 -0.6268  0.3890
  386TMC3    C3 5821   0.162   3.540  11.311  0.0102  0.7801 -0.1696
  386TMC3    C4 5822   0.157   3.452  11.570  0.6066 -0.6534 -0.4036
  386TMC3    C5 5823   0.054   3.524  11.513 -0.1256 -0.2496  0.0298
  386TMC3    C6 5824   0.050   3.570  11.388 -0.1381  0.3048 -0.0040
  386TMC3     C 5825   0.366   3.339  11.522  0.4545 -0.5518 -0.2157
  386TMC3     O 5826   0.473   3.329  11.461  0.6102 -0.6561 -0.0782
  386TMC3     H 5827   0.353   3.439  11.301  1.1214  1.7627 -0.5397
  386TMC3    H1 5828   0.172   3.431  11.676  1.1662  2.6983  0.1611
  386TMC3    H2 5829   4.703   3.627  11.345  0.5683  0.7129 -0.8141
  386TMC3    C7 5830   4.700   3.590  11.608  0.3847 -0.0205  0.3479
  386TMC3    C8 5831   0.149   3.553  11.171 -0.5528 -0.2231  0.0113
  386TMC3    O1 5832   4.702   3.548  11.721 -0.3192  0.1094  0.4867
  386TMC3    O2 5833   0.034   3.570  11.141  0.5357  0.3190  0.5572
  387MPD2     C 5834   2.293   3.544   9.724  0.0346  0.6809  0.1071
  387MPD2    C1 5835   2.334   3.532   9.854  0.6959 -0.3298  0.6262
  387MPD2    C2 5836   2.383   3.410   9.901  0.7056 -0.8017  0.0035
  387MPD2    C3 5837   2.374   3.300   9.821  0.3149  0.0588 -0.1447
  387MPD2    C4 5838   2.323   3.309   9.697 -0.4585  0.3920 -0.0641
  387MPD2    C5 5839   2.298   3.433   9.652 -0.2533 -0.1095  0.3396
  387MPD2     H 5840   2.413   3.405  10.005  1.6795 -0.4150 -0.2576
  387MPD2    H1 5841   2.309   3.222   9.634 -1.3329  1.2349 -1.0107
  387MPD2    H2 5842   2.245   3.634   9.686  0.5260  0.4296 -1.1124
  387MPD2    H3 5843   2.253   3.443   9.554  1.7083  0.2257 -0.5402
  387MPD2     N 5844   2.420   3.178   9.873 -0.2871  0.2074  0.3177
  387MPD2    H5 5845   2.462   3.186   9.965 -1.5359 -0.7576  0.9754
  387MPD2    N1 5846   2.341   3.636   9.947 -0.8549 -0.8654 -0.0338
  387MPD2    H7 5847   2.375   3.615  10.040 -1.1671 -0.3626  0.1955
  388TMC3    C1 5848   2.405   3.862   9.993 -0.9081 -0.2423  0.6487
  388TMC3    C2 5849   2.452   3.978   9.932  0.2785  0.1566  0.0011
  388TMC3    C3 5850   2.581   4.026   9.966  0.0324  0.2484  0.1855
  388TMC3    C4 5851   2.484   3.805  10.093 -0.0264 -1.0067 -0.3609
  388TMC3    C5 5852   2.610   3.856  10.127  0.3814 -0.0405  0.6633
  388TMC3    C6 5853   2.653   3.977  10.072  0.1798 -0.0653 -0.1251
  388TMC3     C 5854   2.343   3.769   9.902 -0.1090 -0.1700  0.0019
  388TMC3     O 5855   2.324   3.825   9.796  0.0313 -0.2039  0.5754
  388TMC3     H 5856   2.396   4.030   9.855 -0.3450 -1.4657 -0.6210
  388TMC3    H1 5857   2.444   3.725  10.155  0.6076 -3.2202 -2.8228
  388TMC3    H2 5858   2.752   4.011  10.102  1.2882 -0.9266 -2.8175
  388TMC3    C7 5859   2.706   3.773  10.202 -0.0039  0.1938  0.5101
  388TMC3    C8 5860   2.621   4.156   9.920  0.0506 -0.5155  0.4928
  388TMC3    O1 5861   2.818   3.814  10.219 -0.2670  0.2620  0.1826
  388TMC3    O2 5862   2.696   4.225   9.990 -0.4684 -0.4518 -0.2418
  389MPD2     C 5863   1.743   2.109  10.920 -0.1608  0.3580 -0.1905
  389MPD2    C1 5864   1.754   1.975  10.888 -1.0412  0.0623 -0.4674
  389MPD2    C2 5865   1.705   1.877  10.973 -0.2225 -0.7322  0.2548
  389MPD2    C3 5866   1.681   1.905  11.105  0.3206  0.7445  0.1151
  389MPD2    C4 5867   1.693   2.039  11.143 -0.9318 -0.4926  0.0778
  389MPD2    C5 5868   1.718   2.141  11.054 -0.5680 -0.0966  0.8506
  389MPD2     H 5869   1.692   1.772  10.952 -0.2782 -0.5017 -0.8685
  389MPD2    H1 5870   1.680   2.069  11.247 -0.7987  2.1139 -0.6565
  389MPD2    H2 5871   1.764   2.188  10.849  0.3224 -0.6688 -1.1925
  389MPD2    H3 5872   1.714   2.243  11.091 -0.4923  0.0410  0.4811
  389MPD2     N 5873   1.651   1.819  11.211  0.3402  0.4582 -0.4513
  389MPD2    H5 5874   1.669   1.860  11.302  1.5152  2.2748 -1.4883
  389MPD2    N1 5875   1.820   1.948  10.767  0.1781  0.1407  0.5023
  389MPD2    H7 5876   1.860   2.030  10.722 -0.2172  0.7033  1.1528
  390TMC3    C1 5877   1.587   1.632  11.337  0.0366 -0.0447  0.3666
  390TMC3    C2 5878   1.473   1.560  11.373 -0.4174  0.0277 -0.4671
  390TMC3    C3 5879   1.456   1.527  11.506 -0.0349  0.4517  0.4645
  390TMC3    C4 5880   1.680   1.667  11.438 -0.0608  0.0204 -0.2683
  390TMC3    C5 5881   1.656   1.628  11.568  0.1902  0.3913  0.5874
  390TMC3    C6 5882   1.546   1.558  11.607 -0.1169  0.0312 -0.2772
  390TMC3     C 5883   1.600   1.694  11.202 -0.6558 -0.7653 -0.4546
  390TMC3     O 5884   1.553   1.640  11.103  0.1997 -0.1172  0.0473
  390TMC3     H 5885   1.403   1.517  11.302  0.4769 -0.1740 -1.2194
  390TMC3    H1 5886   1.768   1.727  11.418  1.6568 -2.7067 -1.0352
  390TMC3    H2 5887   1.530   1.527  11.710  0.2911 -3.5858 -1.3133
  390TMC3    C7 5888   1.761   1.648  11.665  0.1706 -0.1988  0.4852
  390TMC3    C8 5889   1.328   1.470  11.537  0.2690 -0.1411 -0.4004
  390TMC3    O1 5890   1.843   1.734  11.653 -0.5180 -0.4915 -0.3795
  390TMC3    O2 5891   1.283   1.384  11.460 -0.4786  0.2512 -1.0573
  391MPD2     C 5892   0.819   2.944  10.440  0.2345  0.5535 -0.2411
  391MPD2    C1 5893   0.913   3.042  10.453 -0.2377 -0.7212 -0.6250
  391MPD2    C2 5894   0.934   3.133  10.344 -0.2288 -0.0530  0.2901
  391MPD2    C3 5895   0.872   3.120  10.226 -0.6941 -0.6022 -0.1940
  391MPD2    C4 5896   0.778   3.019  10.217 -0.2353 -0.9905 -0.0197
  391MPD2    C5 5897   0.747   2.931  10.322 -0.0988 -0.0024  0.4795
  391MPD2     H 5898   1.012   3.207  10.357  0.9053 -1.4934  1.7114
  391MPD2    H1 5899   0.729   3.002  10.123  0.9938  0.0265 -0.8523
  391MPD2    H2 5900   0.801   2.876  10.523 -1.9031  4.1310  2.2205
  391MPD2    H3 5901   0.674   2.852  10.310  0.8198 -0.5516 -1.4705
  391MPD2     N 5902   0.901   3.212  10.125 -0.0907 -0.9151  0.0405
  391MPD2    H5 5903   0.972   3.283  10.143 -0.6867 -0.2314 -0.2833
  391MPD2    N1 5904   0.971   3.061  10.579  0.2317  0.2500 -0.4309
  391MPD2    H7 5905   0.949   2.992  10.650 -1.1822  1.5153  0.3582
  392TMC3    C1 5906   0.899   3.326   9.923 -0.5360 -0.3268  0.3916
  392TMC3    C2 5907   0.819   3.368   9.824  0.5638 -0.4419 -0.4293
  392TMC3    C3 5908   0.794   3.500   9.811  0.6195 -0.0434  0.4962
  392TMC3    C4 5909   0.988   3.418   9.980 -0.2552  0.7647  0.4555
  392TMC3    C5 5910   0.970   3.549   9.953  0.2358  0.3445 -0.1959
  392TMC3    C6 5911   0.868   3.597   9.875  0.7816  0.1722 -0.0305
  392TMC3     C 5912   0.859   3.201   9.992  0.2688  0.3652 -0.5950
  392TMC3     O 5913   0.768   3.135   9.944 -0.7235  0.6206  0.1303
  392TMC3     H 5914   0.746   3.298   9.784 -0.1336 -1.7323  3.1372
  392TMC3    H1 5915   1.060   3.383  10.053  1.2677 -0.3151 -1.5601
  392TMC3    H2 5916   0.845   3.702   9.866  0.4242  0.1503  0.6056
  392TMC3    C7 5917   1.066   3.633  10.018  0.9142  0.0429  1.0451
  392TMC3    C8 5918   0.695   3.532   9.707  0.3714 -0.5330 -0.2342
  392TMC3    O1 5919   1.141   3.590  10.106  0.1444  0.0302  0.4679
  392TMC3    O2 5920   0.638   3.439   9.649  0.7173  0.4419 -0.0574
  393TMC3    C1 5921   0.895   1.538  10.450  0.1312  1.4528  0.3050
  393TMC3    C2 5922   0.816   1.590  10.551  0.6414 -0.2073 -0.1855
  393TMC3    C3 5923   0.868   1.593  10.677  0.3195 -0.4381 -0.2315
  393TMC3    C4 5924   1.026   1.496  10.470 -0.6590 -0.2035  0.3660
  393TMC3    C5 5925   1.076   1.514  10.599 -0.2374 -0.1081 -0.3012
  393TMC3    C6 5926   0.996   1.554  10.707  0.5910  0.1942 -0.7143
  393TMC3     C 5927   0.843   1.571  10.321  0.5641  0.0932 -0.0625
  393TMC3     O 5928   0.726   1.617  10.317 -0.2552  0.3544  0.1070
  393TMC3     H 5929   0.711   1.611  10.531  0.7181  0.4023  0.0479
  393TMC3    H1 5930   1.096   1.480  10.388 -0.5777  2.4321 -0.0704
  393TMC3    H2 5931   1.024   1.551  10.812  0.6255 -0.1037 -0.7336
  393TMC3    C7 5932   1.224   1.490  10.623 -0.0737  0.1802 -0.1765
  393TMC3    C8 5933   0.773   1.574  10.779 -0.2012 -0.1438 -0.0862
  393TMC3    O1 5934   1.278   1.547  10.715  0.1518  0.2690 -0.5967
  393TMC3    O2 5935   0.670   1.516  10.754 -0.2223 -0.2340 -0.8913
  394TMC3    C1 5936   1.942   1.827  10.609  0.2895 -0.6729 -0.2098
  394TMC3    C2 5937   1.924   1.755  10.494  0.4379 -0.3230 -0.0523
  394TMC3    C3 5938   2.012   1.783  10.394  0.7864 -0.5087 -0.1790
  394TMC3    C4 5939   2.037   1.921  10.624  0.6417 -0.6700  0.1040
  394TMC3    C5 5940   2.118   1.942  10.523 -0.0309 -0.3688 -0.2012
  394TMC3    C6 5941   2.108   1.879  10.403  0.7763 -0.2337  0.5032
  394TMC3     C 5942   1.834   1.828  10.709 -0.4197 -0.7973 -0.5650
  394TMC3     O 5943   1.780   1.723  10.738 -0.8445 -0.6202  0.0045
  394TMC3     H 5944   1.848   1.678  10.498 -0.0094  0.0200 -1.6124
  394TMC3    H1 5945   2.063   1.964  10.719  1.2606  1.9231 -1.2493
  394TMC3    H2 5946   2.180   1.909  10.328  1.1310 -3.0744 -0.2793
  394TMC3    C7 5947   2.226   2.030  10.535  0.2319 -0.1235  0.7681
  394TMC3    C8 5948   2.035   1.681  10.297  0.0295 -0.2147  0.3040
  394TMC3    O1 5949   2.238   2.107  10.440 -0.4906 -0.3631 -0.0011
  394TMC3    O2 5950   2.082   1.713  10.188  0.2022  0.4610 -0.2191
  395TMC3    C1 5951   2.047   3.744  14.550 -0.5405  0.2238  0.1078
  395TMC3    C2 5952   1.911   3.759  14.567 -0.0817 -0.7877 -0.4221
  395TMC3    C3 5953   1.867   3.886  14.604  0.0847 -0.1022  0.0334
  395TMC3    C4 5954   2.130   3.847  14.545 -0.2267 -0.5781  0.6746
  395TMC3    C5 5955   2.081   3.975  14.565 -1.1256  0.1538 -0.0158
  395TMC3    C6 5956   1.950   3.996  14.594 -0.5270 -0.4347  0.8450
  395TMC3     C 5957   2.097   3.614  14.590 -0.2742  0.8859  0.0835
  395TMC3     O 5958   2.209   3.580  14.553  0.7294  0.0720 -0.3732
  395TMC3     H 5959   1.839   3.679  14.573  0.7345 -1.5898 -1.4851
  395TMC3    H1 5960   2.234   3.819  14.541 -0.3424 -1.0786  1.1647
  395TMC3    H2 5961   1.914   4.090  14.631  1.6131 -0.1022  2.0747
  395TMC3    C7 5962   2.166   4.090  14.582 -0.3098 -0.0880  0.3168
  395TMC3    C8 5963   1.721   3.904  14.626 -0.1383  0.1993 -0.4265
  395TMC3    O1 5964   2.114   4.200  14.583  1.1101  0.3502 -0.2404
  395TMC3    O2 5965   1.685   3.981  14.709 -0.4195  0.1174 -0.0286
  396MPD2     C 5966   1.322   0.277  16.734 -0.1518  0.3238 -0.2709
  396MPD2    C1 5967   1.440   0.332  16.773  0.2159 -0.2983  0.7638
  396MPD2    C2 5968   1.522   0.399  16.682 -0.3905  0.3991  0.0335
  396MPD2    C3 5969   1.483   0.416  16.552 -0.0657  0.3491 -0.6537
  396MPD2    C4 5970   1.364   0.364  16.514 -0.2036 -0.0099 -0.3517
  396MPD2    C5 5971   1.283   0.295  16.602 -0.5513 -0.0459 -0.2421
  396MPD2     H 5972   1.619   0.431  16.715 -1.3616  2.1685  1.1685
  396MPD2    H1 5973   1.330   0.388  16.414 -3.0280  2.3906  1.1915
  396MPD2    H2 5974   1.263   0.224  16.807 -2.1420  3.6718  0.5746
  396MPD2    H3 5975   1.195   0.242  16.569  1.1048 -2.1000 -1.3643
  396MPD2     N 5976   1.564   0.494  16.467  0.1852  0.0292  0.6572
  396MPD2    H5 5977   1.659   0.513  16.496 -0.0513  0.0673  1.4125
  396MPD2    N1 5978   1.487   0.297  16.903 -0.0086 -0.5325  0.4495
  396MPD2    H7 5979   1.422   0.234  16.950  0.5881 -3.0481 -2.1289
  397TMC3    C1 5980   1.594   0.295  17.112  0.8619 -0.4706 -0.1181
  397TMC3    C2 5981   1.721   0.293  17.161 -0.0946  0.3737  0.2945
  397TMC3    C3 5982   1.766   0.180  17.218  0.6987  0.1019 -0.3190
  397TMC3    C4 5983   1.502   0.197  17.144 -0.2347  0.1014  0.1776
  397TMC3    C5 5984   1.548   0.089  17.219 -0.8635 -0.4712 -0.0222
  397TMC3    C6 5985   1.678   0.081  17.263  0.1851  0.3665 -0.4914
  397TMC3     C 5986   1.583   0.357  16.979 -0.3932  0.3347 -0.3626
  397TMC3     O 5987   1.651   0.447  16.937 -0.2000  0.4926 -0.6506
  397TMC3     H 5988   1.790   0.368  17.126 -0.8721  1.6992  1.6286
  397TMC3    H1 5989   1.399   0.192  17.112 -0.0646 -0.3274 -0.2995
  397TMC3    H2 5990   1.725   4.724  17.294 -0.2634 -0.2251 -1.5624
  397TMC3    C7 5991   1.463   4.728  17.277  0.0225  0.4815  0.2995
  397TMC3    C8 5992   1.913   0.171  17.245 -0.4810  0.5236 -0.2348
  397TMC3    O1 5993   1.353   4.707  17.223 -0.0517 -0.5560 -0.8210
  397TMC3    O2 5994   1.957   0.117  17.349  0.3977  0.2528  0.1407
  398MPD2     C 5995   4.426   0.902   0.285  0.7201  0.3353  0.0776
  398MPD2    C1 5996   4.357   0.949   0.395 -1.0011  0.5813 -0.2222
  398MPD2    C2 5997   4.294   1.072   0.381 -0.4672 -0.2529 -0.6273
  398MPD2    C3 5998   4.305   1.149   0.267  0.1732 -0.4932  0.1984
  398MPD2    C4 5999   4.384   1.096   0.165  0.3322  0.1781 -0.2509
  398MPD2    C5 6000   4.445   0.974   0.178 -0.6928  0.1992  0.0110
  398MPD2     H 6001   4.230   1.112   0.459 -0.7944 -2.6621  0.3372
  398MPD2    H1 6002   4.394   1.143   0.068 -1.6546 -1.3835 -1.2208
  398MPD2    H2 6003   4.476   0.806   0.285 -0.3131 -0.2009  0.5860
  398MPD2    H3 6004   4.522   0.944   0.108 -0.2822  1.8893 -0.2739
  398MPD2     N 6005   4.241   1.279   0.265 -0.1961 -0.0060  0.3598
  398MPD2    H5 6006   4.177   1.305   0.340  1.0834  1.9258  0.8035
  398MPD2    N1 6007   4.349   0.880   0.518  0.5848 -0.3389 -0.7762
  398MPD2    H7 6008   4.290   0.915   0.592  0.2247 -0.9508 -0.7753
  399TMC3    C1 6009   4.413   0.718   0.686  0.7907 -0.1249  0.0131
  399TMC3    C2 6010   4.520   0.678   0.757 -0.0142 -0.5892 -0.6052
  399TMC3    C3 6011   4.503   0.609   0.871  0.0240  0.3968 -0.3588
  399TMC3    C4 6012   4.281   0.684   0.722 -0.2535  1.4477 -0.0872
  399TMC3    C5 6013   4.262   0.615   0.842  0.1839 -0.3734  0.0292
  399TMC3    C6 6014   4.376   0.583   0.915  0.4643 -0.0251  0.9877
  399TMC3     C 6015   4.434   0.773   0.554  0.1301 -0.4752  0.5098
  399TMC3     O 6016   4.538   0.736   0.501  0.1124  0.1853 -0.2963
  399TMC3     H 6017   4.618   0.722   0.744  0.1283 -0.5615  0.5697
  399TMC3    H1 6018   4.197   0.693   0.656  0.0504 -1.0156 -0.8019
  399TMC3    H2 6019   4.369   0.521   1.004  0.6074 -0.5753  0.6184
  399TMC3    C7 6020   4.150   0.529   0.862 -0.1350  0.1445 -0.5380
  399TMC3    C8 6021   4.613   0.564   0.957 -0.7316 -0.2438  0.4789
  399TMC3    O1 6022   4.173   0.426   0.927  0.2408  0.0387 -0.2268
  399TMC3    O2 6023   4.579   0.541   1.072 -0.8065  0.2061  0.0617
  400TMC3    C1 6024   2.962   4.381  16.801 -0.0352 -0.2579  0.3564
  400TMC3    C2 6025   2.835   4.365  16.770  0.4170  0.1605  0.1129
  400TMC3    C3 6026   2.767   4.467  16.718  0.5164 -0.5899 -0.4664
  400TMC3    C4 6027   3.022   4.506  16.796 -0.3974 -0.5044 -0.8519
  400TMC3    C5 6028   2.955   4.604  16.726 -0.1064 -0.1535 -0.4098
  400TMC3    C6 6029   2.825   4.588  16.683 -0.2075  0.6132 -1.0048
  400TMC3     C 6030   3.022   4.289  16.889 -0.3903 -0.1749 -0.4192
  400TMC3     O 6031   2.953   4.201  16.937  0.2185  0.6568  0.4188
  400TMC3     H 6032   2.792   4.267  16.787  1.5770 -0.4508 -0.4032
  400TMC3    H1 6033   3.125   4.525  16.824 -0.6371  1.8363 -1.5108
  400TMC3    H2 6034   2.773   4.669  16.633 -1.5731 -0.3694 -1.1746
  400TMC3    C7 6035   3.033   4.709  16.686 -0.0236  0.1611  0.5422
  400TMC3    C8 6036   2.632   4.439  16.663 -0.6378  0.5008  0.0629
  400TMC3    O1 6037   3.155   4.698  16.679  0.4266  0.8420 -0.0712
  400TMC3    O2 6038   2.556   4.537  16.654  0.4866  0.1002  0.2772
  401MPD2     C 6039   1.012   2.821   0.670  0.2368 -0.1108  0.7005
  401MPD2    C1 6040   1.098   2.728   0.731 -0.3874  0.4097  0.5428
  401MPD2    C2 6041   1.083   2.593   0.690  0.3082 -0.3411  0.0019
  401MPD2    C3 6042   0.985   2.560   0.593 -0.2087  0.0478 -0.0294
  401MPD2    C4 6043   0.932   2.657   0.515 -0.2393  0.5590 -0.4409
  401MPD2    C5 6044   0.939   2.785   0.563 -0.7342  0.5680  0.2666
  401MPD2     H 6045   1.139   2.516   0.741 -2.0314  0.3657  3.6183
  401MPD2    H1 6046   0.865   2.635   0.433 -1.0982 -0.5545  0.5533
  401MPD2    H2 6047   1.024   2.925   0.697 -2.8065  0.0620  1.3470
  401MPD2    H3 6048   0.890   2.867   0.513 -0.2509  0.4450 -0.4203
  401MPD2     N 6049   0.968   2.424   0.558 -0.3576 -0.6787 -0.0709
  401MPD2    H5 6050   1.027   2.357   0.607 -0.5438  0.1500  1.2668
  401MPD2    N1 6051   1.187   2.755   0.839 -0.0881  0.4835  0.5583
  401MPD2    H7 6052   1.253   2.684   0.866  0.3967  0.3978 -0.8313
  402TMC3    C1 6053   0.902   2.234   0.437  0.2030 -0.2968  0.1775
  402TMC3    C2 6054   0.940   2.173   0.554  0.1946  0.0758  0.6101
  402TMC3    C3 6055   1.024   2.064   0.549  0.8587  0.0436 -0.6729
  402TMC3    C4 6056   0.938   2.198   0.308 -0.2621 -0.3746  0.0911
  402TMC3    C5 6057   1.024   2.087   0.306 -0.5394 -0.5906 -0.3646
  402TMC3    C6 6058   1.064   2.020   0.420  0.1656  0.0441 -0.4494
  402TMC3     C 6059   0.885   2.375   0.455 -0.0380 -1.0769  0.3010
  402TMC3     O 6060   0.832   2.429   0.356  0.3674  0.1166 -0.5689
  402TMC3     H 6061   0.911   2.211   0.651  0.2338  0.9488  0.2726
  402TMC3    H1 6062   0.891   2.243   0.222 -0.7804  1.1223  1.1584
  402TMC3    H2 6063   1.122   1.929   0.419  0.0951  0.0124 -2.5345
  402TMC3    C7 6064   1.068   2.035   0.176  0.9582 -0.2576 -0.0056
  402TMC3    C8 6065   1.038   1.970   0.663  0.7880  0.2576 -0.7891
  402TMC3    O1 6066   0.998   2.057   0.081  0.0753  0.0529  0.1879
  402TMC3    O2 6067   1.129   1.894   0.665 -0.0599 -1.3329 -0.5421
  403MPD2     C 6068   0.101   0.869  13.200  0.3164  0.4357 -0.1689
  403MPD2    C1 6069   0.111   0.960  13.301  0.4639  0.6088 -0.0606
  403MPD2    C2 6070   0.217   0.951  13.396 -0.2064  0.4370 -0.3300
  403MPD2    C3 6071   0.315   0.858  13.376  0.0388 -0.4058  1.1542
  403MPD2    C4 6072   0.300   0.777  13.268  0.0476  0.8594 -0.6103
  403MPD2    C5 6073   0.196   0.773  13.183 -0.1783 -0.2654 -0.1254
  403MPD2     H 6074   0.215   1.011  13.487  1.1132 -0.2195  0.1232
  403MPD2    H1 6075   0.367   0.692  13.260  0.0411  0.8989 -1.0899
  403MPD2    H2 6076   0.013   0.863  13.137  0.4524 -0.2492 -0.2961
  403MPD2    H3 6077   0.195   0.704  13.099 -0.4391 -0.3932 -0.0159
  403MPD2     N 6078   0.419   0.854  13.470  0.4611 -0.2291  0.3066
  403MPD2    H5 6079   0.408   0.911  13.553  0.8997  0.0146  0.1992
  403MPD2    N1 6080   4.731   1.046  13.319  0.0316  0.2052  0.7459
  403MPD2    H7 6081   4.655   1.039  13.252  0.9581 -0.7838 -0.2068
  404TMC3    C1 6082   4.567   1.150  13.443  0.3586  0.2188  0.6264
  404TMC3    C2 6083   4.510   1.094  13.554 -0.5331 -0.3139  0.2041
  404TMC3    C3 6084   4.385   1.048  13.556  0.3944 -0.1024  0.1802
  404TMC3    C4 6085   4.492   1.161  13.327  0.4903  0.5929  0.0759
  404TMC3    C5 6086   4.365   1.131  13.337 -0.7369 -0.5227 -0.0743
  404TMC3    C6 6087   4.306   1.077  13.447 -0.1858  0.4338  0.3379
  404TMC3     C 6088   4.710   1.118  13.426  0.1976 -0.5568  0.2376
  404TMC3     O 6089   0.050   1.159  13.518 -0.0324 -0.1276  0.8016
  404TMC3     H 6090   4.577   1.089  13.640 -0.3552  1.8356  0.1771
  404TMC3    H1 6091   4.538   1.187  13.232  1.3372 -0.9773  0.0515
  404TMC3    H2 6092   4.207   1.034  13.448  0.1879 -0.4258  1.5081
  404TMC3    C7 6093   4.294   1.162  13.214 -0.1502  0.0094  0.4331
  404TMC3    C8 6094   4.344   0.948  13.650 -0.6389  0.5400  0.1005
  404TMC3    O1 6095   4.292   1.282  13.179 -0.1845  0.2464 -0.4711
  404TMC3    O2 6096   4.226   0.922  13.661 -0.1294 -0.1317  0.7935
  405MPD2     C 6097   0.100   1.850  14.360 -0.2332  0.5043  0.6865
  405MPD2    C1 6098   4.722   1.773  14.328 -0.3408  0.9022  0.7310
  405MPD2    C2 6099   4.601   1.829  14.318 -0.8702  0.0154  0.4675
  405MPD2    C3 6100   4.584   1.963  14.354  0.2856 -0.7306 -0.3224
  405MPD2    C4 6101   4.695   2.043  14.387  0.2234 -0.6812  0.0329
  405MPD2    C5 6102   0.084   1.985  14.376 -0.9664 -0.2209 -0.4095
  405MPD2     H 6103   4.514   1.775  14.282 -0.1604 -1.9532  1.6857
  405MPD2    H1 6104   4.687   2.145  14.421  1.0847 -0.6624  0.1895
  405MPD2    H2 6105   0.195   1.798  14.368 -1.2030 -1.0001  2.2931
  405MPD2    H3 6106   0.164   2.047  14.416 -0.2151 -0.6063 -1.3092
  405MPD2     N 6107   4.453   2.016  14.360 -0.1157  0.2539  0.4922
  405MPD2    H5 6108   4.382   1.946  14.347 -0.9178  1.0528  0.5612
  405MPD2    N1 6109   0.015   1.637  14.301 -0.1886 -0.4168  0.7581
  405MPD2    H7 6110   0.107   1.597  14.319 -0.5571 -1.9782 -0.8817
  406TMC3    C1 6111   4.057   2.185  14.424  0.0001  0.6426 -0.3079
  406TMC3    C2 6112   4.015   2.071  14.474 -0.2893  0.2184 -0.7477
  406TMC3    C3 6113   4.110   1.980  14.516  0.3112 -0.1352  0.2209
  406TMC3    C4 6114   4.193   2.222  14.423 -0.5077  0.4646  0.2803
  406TMC3    C5 6115   4.289   2.130  14.460 -0.0065 -0.3273 -0.7708
  406TMC3    C6 6116   4.245   2.007  14.498 -0.3025 -0.1332 -0.3304
  406TMC3     C 6117   3.968   2.291  14.382  0.4791  0.3921  0.0782
  406TMC3     O 6118   4.025   2.394  14.356  0.1772 -0.6866  0.1271
  406TMC3     H 6119   3.910   2.050  14.493 -0.1021  0.1320  0.1962
  406TMC3    H1 6120   4.230   2.317  14.384 -1.2073  0.7375  0.2765
  406TMC3    H2 6121   4.318   1.952  14.557  0.5527  1.4807  0.1399
  406TMC3    C7 6122   4.420   2.140  14.409  0.1104 -0.5593  0.5863
  406TMC3    C8 6123   4.068   1.840  14.539  0.1349 -0.8069  0.3978
  406TMC3    O1 6124   4.484   2.242  14.421  0.0825  0.6469  0.2888
  406TMC3    O2 6125   3.949   1.819  14.525 -0.0676 -0.2400 -0.3261
  407MPD2     C 6126   1.899   3.269   9.883  0.2529  0.6234  0.4489
  407MPD2    C1 6127   1.922   3.378   9.806  0.2818 -0.2053 -0.3086
  407MPD2    C2 6128   1.951   3.498   9.865  0.3445 -0.0979  1.3676
  407MPD2    C3 6129   1.947   3.510  10.006  0.2872  0.3252  0.7535
  407MPD2    C4 6130   1.916   3.407  10.080  0.7808  0.3657  0.1417
  407MPD2    C5 6131   1.899   3.281  10.020 -0.2585  0.4822 -0.5042
  407MPD2     H 6132   1.975   3.585   9.806 -1.9777 -1.5839 -1.7152
  407MPD2    H1 6133   1.915   3.404  10.188 -2.9098 -1.7402  0.0793
  407MPD2    H2 6134   1.895   3.170   9.837 -2.3590  0.8143  0.2639
  407MPD2    H3 6135   1.884   3.193  10.080  0.0677  1.7688  1.4572
  407MPD2     N 6136   1.986   3.637  10.066  0.3302  0.0485 -0.2221
  407MPD2    H5 6137   2.006   3.713  10.003  1.6752 -0.2610 -0.1539
  407MPD2    N1 6138   1.905   3.377   9.662 -0.5131  0.9198  0.3726
  407MPD2    H7 6139   1.915   3.465   9.612  0.9666  1.7625  2.1611
  408TMC3    C1 6140   1.858   3.323   9.455 -0.3978  0.4431  0.3634
  408TMC3    C2 6141   1.973   3.311   9.383 -0.1981  0.5029 -0.5827
  408TMC3    C3 6142   2.031   3.421   9.325 -0.4335  0.6992 -0.3026
  408TMC3    C4 6143   1.806   3.455   9.467  0.1277 -0.4375 -0.1753
  408TMC3    C5 6144   1.853   3.565   9.396 -0.7471 -0.1258 -0.0709
  408TMC3    C6 6145   1.973   3.547   9.338  0.6316 -0.4511 -0.4104
  408TMC3     C 6146   1.886   3.266   9.583  0.3778  0.5164 -0.4416
  408TMC3     O 6147   1.926   3.153   9.601  0.6128 -0.7539  0.6935
  408TMC3     H 6148   2.009   3.211   9.365 -0.5495  0.1225  0.8234
  408TMC3    H1 6149   1.721   3.463   9.534  1.1001  0.4147  0.9508
  408TMC3    H2 6150   2.020   3.628   9.283  0.2591 -0.5445 -0.8718
  408TMC3    C7 6151   1.860   3.686   9.466  0.6091 -0.4887 -0.4876
  408TMC3    C8 6152   2.171   3.400   9.298  0.4778  0.5247 -0.0689
  408TMC3    O1 6153   1.966   3.733   9.503  0.1900 -0.0778 -0.4151
  408TMC3    O2 6154   2.211   3.287   9.322 -0.0426  0.4806 -0.2179
  409MPD2     C 6155   1.536   4.296  17.227 -0.0013  0.2190  0.2966
  409MPD2    C1 6156   1.660   4.301  17.285  0.0874 -0.9728  0.8047
  409MPD2    C2 6157   1.753   4.390  17.233  0.4780  0.2589  0.8805
  409MPD2    C3 6158   1.723   4.475  17.123  0.5896 -0.1798  0.3199
  409MPD2    C4 6159   1.600   4.467  17.072  0.0223  0.3701  0.3072
  409MPD2    C5 6160   1.518   4.376  17.113  0.7333  0.4588  0.4436
  409MPD2     H 6161   1.852   4.388  17.278  0.5528  1.2746  0.7645
  409MPD2    H1 6162   1.574   4.542  16.999 -1.5999  1.2246  1.7577
  409MPD2    H2 6163   1.456   4.228  17.249 -0.7342  0.8433 -0.4383
  409MPD2    H3 6164   1.420   4.368  17.068  1.1630 -0.8430 -0.2831
  409MPD2     N 6165   1.816   4.557  17.057 -0.1296  0.1825  0.2311
  409MPD2    H5 6166   1.783   4.615  16.980  0.8733 -0.1147 -0.4248
  409MPD2    N1 6167   1.696   4.229  17.400 -0.0770 -0.1933  0.3599
  409MPD2    H7 6168   1.768   4.272  17.456 -0.2152  0.7300 -0.1810
  410TMC3    C1 6169   2.025   4.610  16.962 -0.4825  0.4590 -0.3081
  410TMC3    C2 6170   2.153   4.645  16.996 -0.4973 -0.6696 -0.3486
  410TMC3    C3 6171   2.227   4.693  16.895  0.0632 -0.4227 -0.0105
  410TMC3    C4 6172   1.979   4.605  16.831  0.4659 -0.5091  0.4779
  410TMC3    C5 6173   2.067   4.650  16.731 -0.0970  0.6246 -0.0629
  410TMC3    C6 6174   2.192   4.687  16.765 -0.0171  0.7966  0.5278
  410TMC3     C 6175   1.948   4.556  17.071  0.1221  0.5552 -0.5270
  410TMC3     O 6176   2.010   4.519  17.172 -0.2563 -0.1704  0.4490
  410TMC3     H 6177   2.194   4.631  17.095 -0.8067 -2.5758 -0.4899
  410TMC3    H1 6178   1.887   4.559  16.797 -1.1057  2.8881  0.0733
  410TMC3    H2 6179   2.270   4.698  16.691 -0.6355 -2.6934 -0.6577
  410TMC3    C7 6180   2.031   4.614  16.591 -0.5660  0.2496 -0.4263
  410TMC3    C8 6181   2.365   4.688  16.924 -0.9085 -0.5212  0.0519
  410TMC3    O1 6182   1.931   4.545  16.571  0.2226 -0.0261  0.7440
  410TMC3    O2 6183   2.429   0.056  16.907  0.3247  0.2962 -0.5329
  411MPD2     C 6184   2.314   4.718  14.575  0.6840 -0.2143  0.8140
  411MPD2    C1 6185   2.194   0.033  14.625 -0.7098  0.0773  0.5907
  411MPD2    C2 6186   2.077   4.694  14.613 -0.0446 -0.2666  0.3196
  411MPD2    C3 6187   2.089   4.563  14.565  0.2468 -0.7549  0.3500
  411MPD2    C4 6188   2.211   4.516  14.514  0.4790  0.3756 -0.5681
  411MPD2    C5 6189   2.321   4.598  14.514 -0.3135  0.1691 -0.1365
  411MPD2     H 6190   1.982   0.001  14.644 -0.7339 -0.0100 -2.1010
  411MPD2    H1 6191   2.224   4.424  14.459 -3.9685 -0.8387  0.4481
  411MPD2    H2 6192   2.398   0.052  14.583 -1.2859  2.3228 -0.1079
  411MPD2    H3 6193   2.417   4.575  14.469 -0.7386 -1.4271 -0.2257
  411MPD2     N 6194   1.983   4.476  14.543 -0.1047  0.1454  0.0120
  411MPD2    H5 6195   2.013   4.384  14.510 -1.1459 -0.0801 -0.2886
  411MPD2    N1 6196   2.191   0.165  14.672  0.1335  0.0050  0.1260
  411MPD2    H7 6197   2.274   0.222  14.665  1.7181 -2.0227  2.6639
  412TMC3    C1 6198   1.781   4.377  14.508  0.2575  0.1011 -0.8777
  412TMC3    C2 6199   1.662   4.334  14.555 -0.4261 -0.4866  0.3871
  412TMC3    C3 6200   1.612   4.220  14.499  0.2023  0.2499 -0.7082
  412TMC3    C4 6201   1.835   4.320  14.390  0.0103  0.8160  0.3717
  412TMC3    C5 6202   1.785   4.206  14.334  0.5374  0.1521 -0.0992
  412TMC3    C6 6203   1.681   4.149  14.395 -0.0264 -0.1523  0.2600
  412TMC3     C 6204   1.849   4.489  14.576 -0.7781 -0.0545 -0.0657
  412TMC3     O 6205   1.800   4.562  14.660  0.0041 -0.1237 -0.3726
  412TMC3     H 6206   1.616   4.384  14.640  0.3478 -0.7051  0.9336
  412TMC3    H1 6207   1.923   4.364  14.344  0.5825 -2.0171 -1.2659
  412TMC3    H2 6208   1.646   4.053  14.359 -1.8672  0.7330 -0.3280
  412TMC3    C7 6209   1.768   4.214  14.196  0.2288  0.4856  0.3094
  412TMC3    C8 6210   1.469   4.208  14.482 -0.2532 -0.4370  0.4805
  412TMC3    O1 6211   1.660   4.165  14.161  0.2226 -0.1312 -0.0290
  412TMC3    O2 6212   1.387   4.247  14.563 -0.5876  0.6093 -0.3894
  413MPD2     C 6213   3.593   3.242  15.645  0.7025  0.4344 -0.2542
  413MPD2    C1 6214   3.553   3.192  15.522  0.2697 -0.1061 -0.7031
  413MPD2    C2 6215   3.608   3.078  15.465 -0.2127  0.4860  0.0128
  413MPD2    C3 6216   3.717   3.015  15.521  0.0574 -0.2880  0.2170
  413MPD2    C4 6217   3.772   3.079  15.631  0.4525  0.0590 -0.3421
  413MPD2    C5 6218   3.711   3.183  15.693 -0.8574  0.1218 -0.4147
  413MPD2     H 6219   3.582   3.032  15.369 -1.2720  0.9642  0.0753
  413MPD2    H1 6220   3.864   3.050  15.680 -0.0633 -2.4045 -0.8438
  413MPD2    H2 6221   3.548   3.323  15.700  1.3614  0.1723  0.6834
  413MPD2    H3 6222   3.753   3.211  15.789  0.7455  1.8811 -1.6517
  413MPD2     N 6223   3.759   2.896  15.464 -0.2291 -0.7751  0.5481
  413MPD2    H5 6224   3.698   2.868  15.388 -0.3915 -0.7281  0.6602
  413MPD2    N1 6225   3.442   3.260  15.457 -0.5773 -0.3720 -0.5486
  413MPD2    H7 6226   3.405   3.344  15.501  0.1631 -1.4334  2.1073
  414TMC3    C1 6227   3.916   2.741  15.382  0.0106  0.5163  0.8353
  414TMC3    C2 6228   4.018   2.660  15.413 -0.1356 -0.5212 -0.8194
  414TMC3    C3 6229   4.046   2.560  15.321 -0.0547 -0.4938  0.5396
  414TMC3    C4 6230   3.849   2.735  15.259  0.6137  0.1058  0.0183
  414TMC3    C5 6231   3.886   2.635  15.172 -0.2007  0.3354  0.1025
  414TMC3    C6 6232   3.975   2.539  15.212 -0.0225  0.0731 -0.2038
  414TMC3     C 6233   3.880   2.838  15.486 -0.3242  0.4099  0.0164
  414TMC3     O 6234   3.970   2.862  15.565  0.2611 -0.2203 -0.5051
  414TMC3     H 6235   4.070   2.674  15.507  1.4309 -3.0597 -1.3149
  414TMC3    H1 6236   3.780   2.807  15.216  0.8580 -0.9830 -2.1886
  414TMC3    H2 6237   4.011   2.464  15.142 -1.0351  0.6617 -1.3657
  414TMC3    C7 6238   3.945   2.699  15.063 -0.0092  0.1045  0.9428
  414TMC3    C8 6239   4.177   2.487  15.335  0.1497 -0.7568  0.8539
  414TMC3    O1 6240   4.027   2.786  15.090  0.5724  0.3192  0.3979
  414TMC3    O2 6241   4.179   2.372  15.298  0.0936 -0.6094 -0.1294
  415TMC3    C1 6242   4.181   0.873   9.942 -0.3329 -0.2711  0.2209
  415TMC3    C2 6243   4.315   0.845   9.967 -0.4491  0.8438 -0.0169
  415TMC3    C3 6244   4.406   0.913   9.887  0.2460  0.3516  0.4213
  415TMC3    C4 6245   4.138   0.976   9.856  0.3586 -0.3719 -0.5398
  415TMC3    C5 6246   4.238   1.038   9.779 -0.2355  0.0233 -0.4820
  415TMC3    C6 6247   4.371   1.003   9.790 -0.0256 -0.2854 -1.4010
  415TMC3     C 6248   4.085   0.825  10.043  0.6745  0.5579 -0.1030
  415TMC3     O 6249   3.969   0.875  10.035  0.4928 -0.2698  0.0904
  415TMC3     H 6250   4.346   0.762  10.031  0.7465  1.6619  0.4726
  415TMC3    H1 6251   4.032   0.998   9.852  0.7656  1.6829 -0.0453
  415TMC3    H2 6252   4.439   1.063   9.731  1.7951  0.2702  1.2927
  415TMC3    C7 6253   4.197   1.129   9.673  0.4057  0.3276  0.4609
  415TMC3    C8 6254   4.545   0.879   9.922  0.6418 -0.1457 -0.1596
  415TMC3    O1 6255   4.234   1.095   9.566  0.7327  0.2371  0.6692
  415TMC3    O2 6256   4.554   0.834  10.035  0.1303 -0.2570 -0.2186
  416MPD2     C 6257   1.199   4.005  11.352 -0.5942  0.1473 -0.7311
  416MPD2    C1 6258   1.208   4.095  11.251 -0.0900 -0.0353 -0.1248
  416MPD2    C2 6259   1.184   4.062  11.124 -0.0844  0.0866 -0.3418
  416MPD2    C3 6260   1.152   3.928  11.103  0.1282  0.0326 -1.0438
  416MPD2    C4 6261   1.136   3.841  11.205  0.7406  0.0413 -0.4896
  416MPD2    C5 6262   1.172   3.875  11.332  0.3616  0.6714 -0.0298
  416MPD2     H 6263   1.178   4.138  11.047 -2.2437  0.7869  0.5005
  416MPD2    H1 6264   1.123   3.736  11.181 -1.2727  0.0675  0.5120
  416MPD2    H2 6265   1.219   4.033  11.455 -1.2235 -0.1398 -0.5303
  416MPD2    H3 6266   1.167   3.806  11.415  0.3931  0.6186 -0.0720
  416MPD2     N 6267   1.117   3.876  10.978  0.1298 -0.3340 -0.3025
  416MPD2    H5 6268   1.082   3.781  10.987 -0.1257  0.0104  2.2690
  416MPD2    N1 6269   1.228   4.229  11.291  0.3778 -0.2520 -0.6600
  416MPD2    H7 6270   1.249   4.238  11.390 -2.4924 -1.1253  0.0132
  417TMC3    C1 6271   1.167   4.452  11.298  0.1858  0.5104 -0.2510
  417TMC3    C2 6272   1.214   4.457  11.431  0.0465 -0.0310 -0.5007
  417TMC3    C3 6273   1.145   4.531  11.520  0.2709  0.0719 -0.6321
  417TMC3    C4 6274   1.055   4.525  11.261  0.0932 -0.1499  0.0669
  417TMC3    C5 6275   0.988   4.596  11.350 -0.1612  0.0469  0.3408
  417TMC3    C6 6276   1.031   4.604  11.479 -0.2200  0.1324  0.3050
  417TMC3     C 6277   1.194   4.339  11.214  0.0407  0.8784 -0.4897
  417TMC3     O 6278   1.169   4.351  11.094 -0.3579 -0.3408 -0.5253
  417TMC3     H 6279   1.311   4.416  11.454 -0.2402  0.1679  1.0397
  417TMC3    H1 6280   1.017   4.517  11.160  1.2274  0.0589 -0.3755
  417TMC3    H2 6281   0.993   4.670  11.555  0.6389  1.5920 -0.5452
  417TMC3    C7 6282   0.860   4.663  11.322 -0.4624 -0.1373  0.0606
  417TMC3    C8 6283   1.184   4.552  11.663  0.0739 -0.4107  0.3517
  417TMC3    O1 6284   0.823   4.685  11.210 -0.1035 -0.5022  0.0982
  417TMC3    O2 6285   1.132   4.643  11.721 -0.0959  0.3407 -0.7024
  418TMC3    C1 6286   4.240   1.721   0.097  0.1462  0.1067 -0.3682
  418TMC3    C2 6287   4.239   1.588   0.076  0.1151 -0.4503 -0.3763
  418TMC3    C3 6288   4.211   1.503   0.182  0.2775  0.6200 -0.2904
  418TMC3    C4 6289   4.222   1.775   0.215  0.8782  0.2358  0.3079
  418TMC3    C5 6290   4.201   1.693   0.322 -0.4500  0.0635 -0.1728
  418TMC3    C6 6291   4.181   1.559   0.304 -0.3419 -0.0267 -0.4354
  418TMC3     C 6292   4.308   1.798  17.732 -0.1951  0.0396 -0.2377
  418TMC3     O 6293   4.279   1.913  17.714  0.2421  0.0521 -0.0521
  418TMC3     H 6294   4.256   1.554  17.713 -1.6604 -0.0753 -0.7929
  418TMC3    H1 6295   4.222   1.884   0.222  1.5443  0.4331 -2.9667
  418TMC3    H2 6296   4.169   1.489   0.386 -2.6709  0.7398 -0.1228
  418TMC3    C7 6297   4.264   1.731   0.444  0.9194 -1.1759 -0.3399
  418TMC3    C8 6298   4.259   1.367   0.162 -0.2207  0.4077  0.1696
  418TMC3    O1 6299   4.240   1.663   0.542  0.3010  0.0043 -0.1167
  418TMC3    O2 6300   4.321   1.353   0.057  0.2473  0.4921 -0.3840
  419MPD2     C 6301   3.484   4.430  12.111  0.2510 -0.0791  0.3575
  419MPD2    C1 6302   3.456   4.564  12.135  0.3001  0.8175  0.1825
  419MPD2    C2 6303   3.422   4.595  12.266  0.1599  0.3995  0.1209
  419MPD2    C3 6304   3.424   4.498  12.369  0.1541 -0.1795 -0.3153
  419MPD2    C4 6305   3.460   4.371  12.339 -0.1193 -0.5841 -0.6988
  419MPD2    C5 6306   3.491   4.339  12.211 -0.1038 -0.4273  0.3922
  419MPD2     H 6307   3.405   4.694  12.305 -2.8839  0.2500 -0.8484
  419MPD2    H1 6308   3.472   4.302  12.422 -1.5121 -0.8035 -0.6761
  419MPD2    H2 6309   3.504   4.387  12.013 -0.1752 -1.2062  0.7668
  419MPD2    H3 6310   3.529   4.239  12.197 -0.1315 -0.0985 -2.1838
  419MPD2     N 6311   3.397   4.540  12.500 -0.2806 -0.2163  0.0543
  419MPD2    H5 6312   3.391   4.641  12.507  0.5785 -0.1795  0.2504
  419MPD2    N1 6313   3.453   4.666  12.037  0.1661  0.2008  0.2169
  419MPD2    H7 6314   3.423   0.025  12.062  1.7081  0.4664  1.0725
  420TMC3    C1 6315   3.329   4.559  12.720  0.6086 -0.2410 -0.1831
  420TMC3    C2 6316   3.236   4.657  12.687  0.2434 -0.5979 -0.2820
  420TMC3    C3 6317   3.203   0.003  12.789 -0.2918  0.6574 -0.1332
  420TMC3    C4 6318   3.369   4.519  12.841 -0.6280  0.0941 -0.5954
  420TMC3    C5 6319   3.340   4.608  12.939  0.1644  0.8047  0.0463
  420TMC3    C6 6320   3.259   4.715  12.914 -0.4148  0.7447 -0.0984
  420TMC3     C 6321   3.363   4.465  12.607  0.2601 -0.5167  0.0206
  420TMC3     O 6322   3.385   4.349  12.628  0.3235  0.3449  0.1903
  420TMC3     H 6323   3.207   4.665  12.583 -1.6398  0.8276  0.3615
  420TMC3    H1 6324   3.432   4.431  12.851  0.0106  0.7352  1.0541
  420TMC3    H2 6325   3.242   0.051  12.995 -0.5470 -0.4198  0.8868
  420TMC3    C7 6326   3.394   4.598  13.075  0.4946  0.6475 -0.2625
  420TMC3    C8 6327   3.077   0.082  12.789 -0.4641 -0.0052 -0.0266
  420TMC3    O1 6328   3.381   4.492  13.134  0.1230  0.3282 -0.3541
  420TMC3    O2 6329   3.014   0.094  12.685  0.2297  0.2834 -0.1240
  421TMC3    C1 6330   0.634   0.819  13.565  0.1426  0.1110 -0.3096
  421TMC3    C2 6331   0.622   0.936  13.637  0.4193  0.3414  0.1176
  421TMC3    C3 6332   0.676   0.933  13.766 -0.7354  0.4718 -0.2525
  421TMC3    C4 6333   0.720   0.722  13.608 -0.4383 -0.4154 -0.1379
  421TMC3    C5 6334   0.780   0.734  13.726 -0.4462 -0.5431 -0.7244
  421TMC3    C6 6335   0.756   0.837  13.814 -0.4839  0.2105  0.2880
  421TMC3     C 6336   0.542   0.792  13.455 -0.2078  0.6551 -0.4214
  421TMC3     O 6337   0.583   0.706  13.373 -0.4377  0.3484  0.9159
  421TMC3     H 6338   0.558   1.018  13.607  1.1881  1.3549  1.1991
  421TMC3    H1 6339   0.719   0.625  13.560  2.5042  0.1149 -1.2907
  421TMC3    H2 6340   0.807   0.844  13.909 -1.1308 -0.1834  0.6605
  421TMC3    C7 6341   0.886   0.640  13.762 -0.8079 -0.2431  0.4170
  421TMC3    C8 6342   0.695   1.058  13.840  0.0486 -0.0404 -0.7651
  421TMC3    O1 6343   0.972   0.612  13.683  0.1039 -0.3230 -0.0699
  421TMC3    O2 6344   0.806   1.075  13.893  0.2110  0.0561  0.8394
  422TMC3    C1 6345   2.086   2.977  12.460 -0.2461  0.9707  0.0431
  422TMC3    C2 6346   2.098   3.117  12.468  0.0892 -0.1994 -0.3029
  422TMC3    C3 6347   1.999   3.192  12.528 -0.2691 -0.3612  0.2581
  422TMC3    C4 6348   1.977   2.911  12.517 -0.0314  0.0755  0.3190
  422TMC3    C5 6349   1.879   2.990  12.572 -0.0650  0.2588  0.0734
  422TMC3    C6 6350   1.895   3.128  12.588  0.8767 -0.3214  0.1639
  422TMC3     C 6351   2.147   2.915  12.356 -0.2823 -0.0930 -0.1813
  422TMC3     O 6352   2.186   2.798  12.375 -0.3165  0.0186 -0.3974
  422TMC3     H 6353   2.181   3.175  12.431 -0.7322  1.3529  0.3179
  422TMC3    H1 6354   1.971   2.804  12.501  0.9970  0.1919 -0.8404
  422TMC3    H2 6355   1.813   3.187  12.626 -0.6155 -1.3873 -1.3857
  422TMC3    C7 6356   1.743   2.945  12.563 -0.8475 -0.1528  0.3277
  422TMC3    C8 6357   2.014   3.337  12.529 -0.3602 -1.1886 -0.5351
  422TMC3    O1 6358   1.673   3.019  12.493  0.1757  0.4277  0.3881
  422TMC3    O2 6359   2.125   3.379  12.506  0.6024  0.4948 -0.4632
  423MPD2     C 6360   3.182   3.819   0.445 -0.5535 -1.0961  0.2230
  423MPD2    C1 6361   3.305   3.880   0.415  0.8216  0.1753  0.0218
  423MPD2    C2 6362   3.393   3.830   0.325 -0.1431  0.3123 -0.6608
  423MPD2    C3 6363   3.358   3.712   0.254  0.2285  0.1798  0.1742
  423MPD2    C4 6364   3.235   3.657   0.280 -0.4679  0.1797 -0.6213
  423MPD2    C5 6365   3.148   3.710   0.370  0.2986  0.9038 -0.2279
  423MPD2     H 6366   3.487   3.884   0.320 -0.8854  1.6989  0.3250
  423MPD2    H1 6367   3.198   3.576   0.217 -1.6171 -0.4978  0.9046
  423MPD2    H2 6368   3.115   3.845   0.526 -1.3198 -0.0236 -0.7596
  423MPD2    H3 6369   3.055   3.657   0.385  0.6101  0.2164 -0.7280
  423MPD2     N 6370   3.447   3.654   0.164 -0.1035  0.1321 -0.1053
  423MPD2    H5 6371   3.425   3.560   0.133  1.9542  0.0498 -1.3160
  423MPD2    N1 6372   3.348   3.986   0.496 -0.5174 -0.5385  0.0034
  423MPD2    H7 6373   3.444   4.012   0.474 -0.6984 -1.3009 -1.7636
  424TMC3    C1 6374   3.397   4.099   0.699 -0.5444 -0.5853  0.4619
  424TMC3    C2 6375   3.530   4.058   0.688 -0.4258  0.2981 -0.6644
  424TMC3    C3 6376   3.623   4.123   0.763 -0.6856  0.3938 -0.3612
  424TMC3    C4 6377   3.359   4.198   0.777  0.1904 -0.2603 -0.5068
  424TMC3    C5 6378   3.454   4.260   0.855  0.3928 -0.0810 -0.0874
  424TMC3    C6 6379   3.589   4.227   0.851 -0.3701  0.0646 -0.3515
  424TMC3     C 6380   3.295   4.025   0.617 -0.5398  0.1658  0.0804
  424TMC3     O 6381   3.181   4.011   0.669  0.2164  0.1551  0.4272
  424TMC3     H 6382   3.557   3.973   0.627  2.1539  0.8060 -0.2029
  424TMC3    H1 6383   3.254   4.224   0.780  0.3060  0.1091  0.2220
  424TMC3    H2 6384   3.662   4.259   0.924 -2.0435 -1.0668  1.8323
  424TMC3    C7 6385   3.422   4.354   0.958 -0.5516  0.4140 -0.1823
  424TMC3    C8 6386   3.748   4.057   0.763 -0.1695 -0.5025 -0.0311
  424TMC3    O1 6387   3.501   4.447   0.970 -0.5280 -0.0781  0.5564
  424TMC3    O2 6388   3.754   3.935   0.742 -0.4535 -0.9417  0.8462
  425MPD2     C 6389   2.776   2.820  17.597  0.1944 -0.1484 -0.3799
  425MPD2    C1 6390   2.722   2.783  17.480 -0.7887 -0.4011 -0.6101
  425MPD2    C2 6391   2.591   2.809  17.457  0.8779 -0.0164 -0.0071
  425MPD2    C3 6392   2.514   2.868  17.547  0.0185  0.2595 -0.0816
  425MPD2    C4 6393   2.563   2.916  17.671  0.7261  0.6357 -0.8537
  425MPD2    C5 6394   2.696   2.886  17.692  0.2605 -1.0314 -0.5389
  425MPD2     H 6395   2.550   2.792  17.358  0.7253 -1.6723  0.3527
  425MPD2    H1 6396   2.502   2.961   0.010 -0.3431 -0.0516 -1.2982
  425MPD2    H2 6397   2.882   2.812  17.619  0.1063 -1.1060 -0.2970
  425MPD2    H3 6398   2.749   2.937   0.033 -1.4497 -1.0954  0.6411
  425MPD2     N 6399   2.379   2.882  17.506 -0.1646 -0.0726 -0.4963
  425MPD2    H5 6400   2.348   2.852  17.414 -1.8101 -1.8121  0.6463
  425MPD2    N1 6401   2.813   2.723  17.388 -0.5263 -0.2506 -1.2576
  425MPD2    H7 6402   2.908   2.701  17.415 -0.0300  4.1324  0.5854
  426TMC3    C1 6403   2.890   2.638  17.177  0.3563  1.0281  0.1901
  426TMC3    C2 6404   2.897   2.654  17.046  0.6111  0.3058 -0.1574
  426TMC3    C3 6405   2.972   2.557  16.973  0.9785  0.5416 -0.5306
  426TMC3    C4 6406   2.936   2.526  17.242 -0.5872 -0.8242  0.7544
  426TMC3    C5 6407   2.998   2.429  17.160  0.2511 -0.6305  0.0165
  426TMC3    C6 6408   3.019   2.440  17.030 -0.4176 -0.3766 -0.3213
  426TMC3     C 6409   2.800   2.719  17.251  0.2252 -0.6515  0.1517
  426TMC3     O 6410   2.711   2.776  17.192  0.2246 -0.2265  0.2038
  426TMC3     H 6411   2.852   2.742  17.003  1.3061 -0.3187 -2.1720
  426TMC3    H1 6412   2.930   2.522  17.350 -0.8471 -1.2615  0.7218
  426TMC3    H2 6413   3.069   2.364  16.972 -0.6346 -0.9767  0.2823
  426TMC3    C7 6414   2.996   2.291  17.215  0.5533  0.8856  0.2924
  426TMC3    C8 6415   2.970   2.557  16.832 -0.2885  0.2115  0.6388
  426TMC3    O1 6416   3.057   2.199  17.161  0.6470 -0.3632  0.1325
  426TMC3    O2 6417   2.989   2.447  16.781  0.0999 -0.5386  0.7740
  427MPD2     C 6418   1.072   4.334  14.995 -0.1252  0.2942  0.1985
  427MPD2    C1 6419   1.089   4.425  15.097 -0.3389 -0.2643  0.5056
  427MPD2    C2 6420   0.999   4.534  15.106  0.8504 -0.3065 -0.2712
  427MPD2    C3 6421   0.890   4.531  15.023 -0.6032  0.4965  0.6615
  427MPD2    C4 6422   0.887   4.447  14.913  0.7471  0.0505 -0.7322
  427MPD2    C5 6423   0.980   4.349  14.897  0.1784  0.5291  0.4173
  427MPD2     H 6424   1.008   4.606  15.186 -1.2798 -0.8098  0.4059
  427MPD2    H1 6425   0.800   4.432  14.852  1.0268 -1.8570 -0.6605
  427MPD2    H2 6426   1.134   4.245  14.989  0.4440  0.6663  0.6689
  427MPD2    H3 6427   0.944   4.267  14.835 -2.0506  1.5429  0.3845
  427MPD2     N 6428   0.796   4.640  15.028  0.5362  0.4754  0.0881
  427MPD2    H5 6429   0.736   4.652  14.948 -2.0791 -2.2042  1.6619
  427MPD2    N1 6430   1.193   4.415  15.190  0.1922 -0.0950  0.3589
  427MPD2    H7 6431   1.188   4.484  15.264  3.9636 -1.4453  1.8850
  428TMC3    C1 6432   1.364   4.321  15.307  0.2776 -1.1703  0.3527
  428TMC3    C2 6433   1.408   4.207  15.369 -0.2267 -0.0876  0.5876
  428TMC3    C3 6434   1.494   4.228  15.473 -0.3367  0.6360 -0.4388
  428TMC3    C4 6435   1.421   4.440  15.318 -0.1734  0.1569  0.0829
  428TMC3    C5 6436   1.518   4.454  15.411  0.4728 -0.6071  0.0380
  428TMC3    C6 6437   1.542   4.354  15.501  0.2218  0.0661  0.6403
  428TMC3     C 6438   1.259   4.295  15.213 -0.5325  0.1558 -0.4903
  428TMC3     O 6439   1.239   4.182  15.179 -0.0211 -0.3964  0.2092
  428TMC3     H 6440   1.352   4.114  15.357 -0.8000  0.4186 -0.5933
  428TMC3    H1 6441   1.388   4.524  15.258  0.0040 -0.1877 -0.4966
  428TMC3    H2 6442   1.607   4.371  15.587  0.1973  1.4636  0.3913
  428TMC3    C7 6443   1.604   4.576  15.416  0.4725 -0.2883 -0.7227
  428TMC3    C8 6444   1.499   4.134  15.583 -0.3270  0.0515 -0.0726
  428TMC3    O1 6445   1.669   4.592  15.519 -0.1281 -0.6298  0.6841
  428TMC3    O2 6446   1.518   4.176  15.695 -0.3480 -0.2593  0.2822
  429MPD2     C 6447   1.967   0.556  17.284 -0.3264  0.4190  0.3241
  429MPD2    C1 6448   2.090   0.528  17.334  0.0981  0.1396 -0.4724
  429MPD2    C2 6449   2.205   0.554  17.262  0.5540  0.4195  0.9111
  429MPD2    C3 6450   2.198   0.618  17.143 -0.0726  0.5523 -0.7844
  429MPD2    C4 6451   2.075   0.658  17.085 -0.2609 -0.3214  0.6946
  429MPD2    C5 6452   1.962   0.619  17.157  0.0322  0.5471  0.8133
  429MPD2     H 6453   2.303   0.529  17.302 -0.8249 -5.3444  0.5690
  429MPD2    H1 6454   2.059   0.711  16.992 -1.3021  0.1693  1.1530
  429MPD2    H2 6455   1.875   0.533  17.336 -0.6335 -0.5577 -0.6623
  429MPD2    H3 6456   1.866   0.652  17.118 -0.9937  0.1004  2.9072
  429MPD2     N 6457   2.322   0.648  17.074 -0.1216 -0.2626 -0.5622
  429MPD2    H5 6458   2.410   0.610  17.107  0.3619  0.5657 -0.8832
  429MPD2    N1 6459   2.116   0.473  17.463  1.2033  0.3846 -0.0216
  429MPD2    H7 6460   2.211   0.454  17.491  0.4780 -2.0693  0.7688
  430TMC3    C1 6461   2.470   0.754  16.929 -0.0341 -0.0301  0.5346
  430TMC3    C2 6462   2.493   0.851  16.844  0.7038  0.3330 -0.4847
  430TMC3    C3 6463   2.585   0.835  16.745  0.5675 -0.6127  0.1068
  430TMC3    C4 6464   2.548   0.643  16.923 -0.5755  0.5422  0.3294
  430TMC3    C5 6465   2.660   0.641  16.839 -0.0789  1.1298  0.2085
  430TMC3    C6 6466   2.676   0.737  16.739 -0.6145 -0.2249  0.2045
  430TMC3     C 6467   2.336   0.734  16.967  0.2078 -0.4944 -0.6006
  430TMC3     O 6468   2.256   0.804  16.908 -0.3163  0.4338 -0.7011
  430TMC3     H 6469   2.428   0.937  16.854 -0.2907 -0.4999  0.1572
  430TMC3    H1 6470   2.526   0.555  16.982 -1.0830  0.2365 -0.3102
  430TMC3    H2 6471   2.752   0.728  16.662 -1.5664  0.3310 -0.7911
  430TMC3    C7 6472   2.739   0.521  16.830 -0.6084 -0.4276  0.2450
  430TMC3    C8 6473   2.533   0.843  16.611  0.0737  0.2696 -0.2174
  430TMC3    O1 6474   2.688   0.423  16.886  0.3640  0.9069  0.0604
  430TMC3    O2 6475   2.598   0.799  16.515  0.2024 -0.5842 -0.2811
  431MPD2     C 6476   3.733   0.791  12.099  0.0989  0.2667 -0.2541
  431MPD2    C1 6477   3.708   0.669  12.154  0.0649 -0.5304 -0.2777
  431MPD2    C2 6478   3.626   0.581  12.085  0.4779 -0.6858 -0.0463
  431MPD2    C3 6479   3.582   0.607  11.958  0.1536  0.2291  0.2774
  431MPD2    C4 6480   3.613   0.722  11.900 -0.4009 -0.5357  0.1736
  431MPD2    C5 6481   3.693   0.811  11.972  0.1731 -0.3083  0.3145
  431MPD2     H 6482   3.608   0.485  12.132  0.4642 -0.0747  1.2050
  431MPD2    H1 6483   3.592   0.752  11.798  2.7764 -0.9271 -0.5976
  431MPD2    H2 6484   3.814   0.848  12.141 -0.3964  0.2873  0.6776
  431MPD2    H3 6485   3.728   0.898  11.917 -0.7141 -1.1780 -1.6315
  431MPD2     N 6486   3.511   0.508  11.883 -0.4097  0.0985 -0.3916
  431MPD2    H5 6487   3.502   0.535  11.786  0.2500 -1.0728 -0.7689
  431MPD2    N1 6488   3.757   0.627  12.281  0.4433 -0.3676 -0.0128
  431MPD2    H7 6489   3.738   0.536  12.322 -2.2072  0.7614  1.2543
  432TMC3    C1 6490   3.462   0.277  11.820  0.6502  0.7065 -1.2002
  432TMC3    C2 6491   3.528   0.278  11.704  0.1579 -0.8127 -0.0345
  432TMC3    C3 6492   3.591   0.163  11.660  0.0753 -0.1583 -0.5205
  432TMC3    C4 6493   3.435   0.156  11.884  0.2777  0.4112 -0.6157
  432TMC3    C5 6494   3.499   0.043  11.833 -0.7150  0.3067 -0.2025
  432TMC3    C6 6495   3.582   0.046  11.727 -0.0845  0.3196  0.2236
  432TMC3     C 6496   3.471   0.377  11.928 -0.4034  0.4746 -0.0397
  432TMC3     O 6497   3.466   0.326  12.038  0.1090 -1.3684  0.5719
  432TMC3     H 6498   3.570   0.368  11.661 -0.6947 -2.1257 -3.5977
  432TMC3    H1 6499   3.358   0.157  11.960 -0.3086  4.5109 -1.2209
  432TMC3    H2 6500   3.630   4.692  11.687 -1.4809  0.0114 -0.7778
  432TMC3    C7 6501   3.503   4.651  11.911  0.1736 -0.3283 -0.2139
  432TMC3    C8 6502   3.718   0.192  11.600  0.1537 -0.5037 -0.7531
  432TMC3    O1 6503   3.559   4.556  11.862 -0.3781 -0.4403  0.1983
  432TMC3    O2 6504   3.723   0.215  11.477 -0.3719 -0.7917 -0.2519
  433MPD2     C 6505   1.829   3.711  10.636  0.1556  0.3952 -0.3049
  433MPD2    C1 6506   1.896   3.605  10.687 -0.5632  0.0543  0.4802
  433MPD2    C2 6507   1.914   3.597  10.825  1.0319  0.4800  0.3913
  433MPD2    C3 6508   1.873   3.696  10.912 -0.6858 -0.0026 -0.2439
  433MPD2    C4 6509   1.817   3.810  10.857  0.1367  0.4631  0.3541
  433MPD2    C5 6510   1.790   3.814  10.723 -0.8422  0.1750  0.1524
  433MPD2     H 6511   1.964   3.513  10.872  0.3607  0.6532  1.4148
  433MPD2    H1 6512   1.788   3.891  10.923  1.3131  0.5594  0.7525
  433MPD2    H2 6513   1.808   3.736  10.532 -1.5967 -1.0728 -0.2918
  433MPD2    H3 6514   1.743   3.905  10.688 -3.0662 -1.0910 -0.0942
  433MPD2     N 6515   1.898   3.677  11.049 -0.5682 -0.2765  0.1760
  433MPD2    H5 6516   1.930   3.585  11.078 -1.1135 -0.1572  1.1657
  433MPD2    N1 6517   1.943   3.507  10.601  0.3580 -0.1349  0.1815
  433MPD2    H7 6518   1.929   3.526  10.502 -0.4814  0.0170  0.3269
  434TMC3    C1 6519   2.042   3.311  10.545  0.4275  0.4967 -0.3899
  434TMC3    C2 6520   2.140   3.220  10.569 -1.0163 -0.4124  0.5377
  434TMC3    C3 6521   2.136   3.093  10.514 -0.6937 -0.1139  0.6394
  434TMC3    C4 6522   1.925   3.275  10.475  0.6306  0.1252  0.9633
  434TMC3    C5 6523   1.911   3.144  10.436  0.4991 -0.4182  0.1870
  434TMC3    C6 6524   2.013   3.049  10.464 -0.3977 -0.1111  0.1590
  434TMC3     C 6525   2.028   3.409  10.646  0.5621  0.4880  0.1900
  434TMC3     O 6526   2.083   3.375  10.749  0.1005 -0.5814 -1.5817
  434TMC3     H 6527   2.225   3.255  10.625 -0.0105  1.0107 -1.8822
  434TMC3    H1 6528   1.839   3.338  10.456  1.4844  0.8835 -0.4316
  434TMC3    H2 6529   2.011   2.957  10.406  2.2278  0.0211 -0.1577
  434TMC3    C7 6530   1.796   3.110  10.357 -0.0880  0.3486 -0.7017
  434TMC3    C8 6531   2.229   3.005  10.586  0.3214 -0.5078  0.0787
  434TMC3    O1 6532   1.746   3.200  10.288 -0.8356 -0.4895  0.3013
  434TMC3    O2 6533   2.331   3.050  10.642  0.6702  0.2534  0.2613
  435MPD2     C 6534   4.393   3.774  15.476  0.4028  0.1301  0.3551
  435MPD2    C1 6535   4.351   3.729  15.602  0.3507 -0.5654  0.0096
  435MPD2    C2 6536   4.441   3.664  15.688 -1.1263  0.5205 -0.1709
  435MPD2    C3 6537   4.549   3.594  15.641  1.1705  0.0804  0.1478
  435MPD2    C4 6538   4.587   3.637  15.514 -0.0857 -0.9444 -0.4588
  435MPD2    C5 6539   4.513   3.723  15.434  0.1376 -0.0881 -0.1455
  435MPD2     H 6540   4.404   3.641  15.787  0.4055  0.3750  0.3775
  435MPD2    H1 6541   4.671   3.596  15.459 -1.0059  0.6391 -3.0467
  435MPD2    H2 6542   4.334   3.828  15.403  1.9468  0.9775 -0.2604
  435MPD2    H3 6543   4.559   3.731  15.335  2.5778 -1.9798  0.8277
  435MPD2     N 6544   4.609   3.493  15.721  0.4718 -0.0503 -0.2158
  435MPD2    H5 6545   4.561   3.465  15.807  1.6673 -1.8483 -0.1531
  435MPD2    N1 6546   4.224   3.769  15.658 -0.4258 -0.6837 -0.3606
  435MPD2    H7 6547   4.207   3.760  15.757 -0.7075 -0.0115 -0.3528
  436TMC3    C1 6548   3.925   3.962  15.868  0.3649  0.0574 -0.1657
  436TMC3    C2 6549   4.025   3.908  15.798  0.5117 -0.1176 -1.0322
  436TMC3    C3 6550   4.001   3.860  15.675 -0.5208  0.5300 -0.2602
  436TMC3    C4 6551   3.804   3.970  15.817  0.3786 -0.1649 -0.0699
  436TMC3    C5 6552   3.772   3.907  15.697 -0.7112  0.3781  0.1337
  436TMC3    C6 6553   3.871   3.848  15.627 -0.3526  0.5110  0.6916
  436TMC3     C 6554   3.966   4.016  15.996  0.2965 -0.4278 -0.8548
  436TMC3     O 6555   4.085   4.039  16.016 -0.1293  0.1178 -0.5408
  436TMC3     H 6556   4.128   3.932  15.819 -0.2165  0.5966  1.6558
  436TMC3    H1 6557   3.737   4.038  15.870 -0.2287  0.1664 -1.2760
  436TMC3    H2 6558   3.843   3.815  15.528  2.2355 -1.4826  0.6445
  436TMC3    C7 6559   3.642   3.916  15.646 -0.3001  0.4924 -0.3095
  436TMC3    C8 6560   4.109   3.798  15.595  0.3122 -0.7519  0.1698
  436TMC3    O1 6561   3.634   3.922  15.526  0.5504 -0.2715  0.3600
  436TMC3    O2 6562   4.090   3.776  15.475 -0.2157  0.2677 -0.1274
  437TMC3    C1 6563   2.498   0.653  13.176  0.1097 -0.4176  0.7070
  437TMC3    C2 6564   2.383   0.595  13.162  0.5605  0.0034 -0.1796
  437TMC3    C3 6565   2.279   0.664  13.100  0.3893 -0.0990 -0.0875
  437TMC3    C4 6566   2.523   0.782  13.135 -0.1927 -0.2048  0.5222
  437TMC3    C5 6567   2.421   0.849  13.076 -0.9179  0.4594  0.7568
  437TMC3    C6 6568   2.295   0.790  13.050 -0.1507  0.9901 -0.2455
  437TMC3     C 6569   2.602   0.587  13.260 -0.2622 -0.0673 -0.2684
  437TMC3     O 6570   2.560   0.490  13.319  0.0796 -0.3889  0.1335
  437TMC3     H 6571   2.374   0.489  13.183  0.6755 -0.2997 -1.6777
  437TMC3    H1 6572   2.610   0.832  13.176 -0.4866  0.2654  0.5668
  437TMC3    H2 6573   2.228   0.852  12.992  1.2876  1.8906 -0.9516
  437TMC3    C7 6574   2.443   0.965  12.993 -0.0795  0.2169 -0.2796
  437TMC3    C8 6575   2.149   0.604  13.086  0.9362 -0.2438  0.2801
  437TMC3    O1 6576   2.353   1.048  12.979 -0.1880  0.1144  0.1713
  437TMC3    O2 6577   2.126   0.501  13.155  0.4120 -0.5825  0.3326
  438MPD2     C 6578   0.205   1.836  16.260  0.2934  0.1264  0.4200
  438MPD2    C1 6579   0.260   1.742  16.347 -0.1438 -0.2310  0.3051
  438MPD2    C2 6580   0.200   1.727  16.474  0.9054 -0.3018 -0.1513
  438MPD2    C3 6581   0.082   1.788  16.508 -0.2417  0.2961  0.1921
  438MPD2    C4 6582   0.040   1.881  16.419 -0.5239 -0.2572  0.1409
  438MPD2    C5 6583   0.093   1.903  16.292  0.2072  0.0093 -0.0770
  438MPD2     H 6584   0.247   1.655  16.540  0.4344 -1.4767 -1.1020
  438MPD2    H1 6585   4.687   1.941  16.439 -0.9968 -1.4481  1.6130
  438MPD2    H2 6586   0.232   1.861  16.159 -0.1284 -2.5368 -0.3419
  438MPD2    H3 6587   0.050   1.976  16.225  0.6850 -1.2834 -1.7973
  438MPD2     N 6588   0.011   1.763  16.624  0.2641  0.1549  0.3130
  438MPD2    H5 6589   4.661   1.819  16.637  1.8830  2.8812 -0.8858
  438MPD2    N1 6590   0.377   1.675  16.326  0.2327  0.3704 -0.2261
  438MPD2    H7 6591   0.398   1.602  16.392 -3.0465 -0.1333  0.2388
  439TMC3    C1 6592   0.561   1.583  16.214 -0.6099  0.0509 -0.0215
  439TMC3    C2 6593   0.629   1.573  16.093  0.2529 -0.5629  0.0742
  439TMC3    C3 6594   0.754   1.523  16.097  0.8781  0.3700  0.0552
  439TMC3    C4 6595   0.609   1.528  16.332 -0.2377  0.2477 -0.9594
  439TMC3    C5 6596   0.730   1.472  16.325  1.0830  0.5767  0.6094
  439TMC3    C6 6597   0.802   1.469  16.215 -0.3164  0.4601 -0.9632
  439TMC3     C 6598   0.453   1.676  16.210  0.8089 -0.3154 -0.2293
  439TMC3     O 6599   0.459   1.767  16.127  0.3891  0.6614 -0.2889
  439TMC3     H 6600   0.588   1.600  15.996  1.6118 -0.2009 -0.3969
  439TMC3    H1 6601   0.560   1.559  16.423 -1.4445  2.3061 -2.3069
  439TMC3    H2 6602   0.899   1.420  16.213 -0.3139  0.3680  2.0087
  439TMC3    C7 6603   0.784   1.398  16.435 -0.0263 -0.2082  0.8142
  439TMC3    C8 6604   0.831   1.501  15.975  0.6672  0.9598  0.0070
  439TMC3    O1 6605   0.907   1.371  16.442 -0.2589 -0.4722 -0.2709
  439TMC3    O2 6606   0.907   1.406  15.969 -0.1531  0.0705 -0.0795
  440MPD2     C 6607   4.014   1.982  14.961 -0.5984  0.3741  0.5356
  440MPD2    C1 6608   4.071   2.104  15.006 -0.2266 -0.5808 -0.4613
  440MPD2    C2 6609   4.209   2.123  14.998 -0.7182  0.0754  0.2025
  440MPD2    C3 6610   4.287   2.031  14.932 -0.9719 -0.4995  0.5253
  440MPD2    C4 6611   4.227   1.925  14.869  0.4639 -0.1439  0.0518
  440MPD2    C5 6612   4.093   1.893  14.888  0.6049 -0.2756 -0.7351
  440MPD2     H 6613   4.264   2.206  15.040 -1.4976  0.9326 -0.4721
  440MPD2    H1 6614   4.282   1.862  14.801  1.8792  0.1653  0.9103
  440MPD2    H2 6615   3.910   1.957  14.979 -0.7407 -0.6270 -1.6777
  440MPD2    H3 6616   4.051   1.807  14.837 -0.5888 -0.7480  1.0401
  440MPD2     N 6617   4.426   2.037  14.911 -0.2440  0.6151 -0.0447
  440MPD2    H5 6618   4.472   1.965  14.856  0.9306 -0.1713  1.9529
  440MPD2    N1 6619   3.997   2.202  15.082  0.1716  0.1078  0.4961
  440MPD2    H7 6620   4.041   2.280  15.130  2.6499 -1.5799  0.9380
  441TMC3    C1 6621   4.645   2.044  15.006  0.1678  0.4298 -0.5787
  441TMC3    C2 6622   4.718   2.139  15.064 -0.5224 -0.0625 -0.2032
  441TMC3    C3 6623   0.035   2.126  15.192  0.7415 -0.3390  0.1690
  441TMC3    C4 6624   4.634   1.922  15.065  0.0260  0.3726  0.3824
  441TMC3    C5 6625   4.694   1.911  15.191  0.1794  0.0443 -0.4488
  441TMC3    C6 6626   0.024   2.007  15.256  0.1396 -0.6489 -0.2114
  441TMC3     C 6627   4.514   2.110  14.988 -0.0652 -0.2250  0.7781
  441TMC3     O 6628   4.485   2.204  15.060 -0.6939  0.2445 -0.0772
  441TMC3     H 6629   4.724   2.235  15.016 -1.8995  0.7444  1.2373
  441TMC3    H1 6630   4.594   1.836  15.012 -0.2152  0.2004  0.8423
  441TMC3    H2 6631   0.059   1.995  15.357  2.4190  1.6447 -0.7124
  441TMC3    C7 6632   4.609   1.837  15.279 -0.9941  0.0723 -0.4651
  441TMC3    C8 6633   0.028   2.235  15.279 -0.2765 -0.1823 -0.5816
  441TMC3    O1 6634   4.489   1.833  15.258  0.2476 -0.0739 -0.4564
  441TMC3    O2 6635   0.116   2.241  15.361 -0.3901  0.1713  0.0976
  442MPD2     C 6636   2.587   2.262  16.760 -0.5791  0.2746  0.7867
  442MPD2    C1 6637   2.454   2.233  16.756 -0.0641 -0.6369  0.0716
  442MPD2    C2 6638   2.408   2.145  16.663 -0.5511 -0.1119  0.7443
  442MPD2    C3 6639   2.490   2.072  16.572  0.4047 -0.3236  0.7027
  442MPD2    C4 6640   2.624   2.094  16.597 -0.0673 -0.0688  0.1077
  442MPD2    C5 6641   2.672   2.190  16.685 -0.0309  0.5132 -0.5852
  442MPD2     H 6642   2.301   2.132  16.660 -0.2549 -2.5254  0.7909
  442MPD2    H1 6643   2.695   2.051  16.527  0.8612  2.5759 -0.5840
  442MPD2    H2 6644   2.640   2.319  16.835 -0.5403  2.3414 -0.8071
  442MPD2    H3 6645   2.780   2.202  16.692  0.1779 -0.3651 -2.1321
  442MPD2     N 6646   2.449   1.991  16.470 -0.3008 -0.5781 -0.0141
  442MPD2    H5 6647   2.524   1.971  16.405  1.6567 -1.7651  2.6549
  442MPD2    N1 6648   2.358   2.311  16.823 -0.6675  0.5307 -0.1922
  442MPD2    H7 6649   2.263   2.279  16.806 -1.9356  2.7960  2.7107
  443TMC3    C1 6650   2.250   2.475  16.941  0.7191 -0.2799 -0.1178
  443TMC3    C2 6651   2.220   2.605  16.908  0.1689  0.2342  1.2717
  443TMC3    C3 6652   2.100   2.656  16.932 -0.6561 -0.2708 -0.2131
  443TMC3    C4 6653   2.150   2.392  16.984 -0.5713 -0.0141  0.1092
  443TMC3    C5 6654   2.033   2.454  17.017  0.3350 -0.1310 -0.3077
  443TMC3    C6 6655   2.001   2.587  16.990 -0.5819  0.1843 -0.3254
  443TMC3     C 6656   2.376   2.415  16.904  0.5917  0.6201 -0.5275
  443TMC3     O 6657   2.480   2.480  16.927 -0.5284 -0.4912 -0.4809
  443TMC3     H 6658   2.294   2.672  16.864 -1.0590  0.0758 -1.0229
  443TMC3    H1 6659   2.148   2.285  17.000  0.8588  0.2083  1.8358
  443TMC3    H2 6660   1.909   2.637  17.015  0.1429  0.6416  1.4373
  443TMC3    C7 6661   1.927   2.370  17.084  0.4373  0.3176 -0.2805
  443TMC3    C8 6662   2.052   2.725  16.814  0.6389  0.0478 -0.0317
  443TMC3    O1 6663   1.929   2.248  17.069  0.1035  0.1547  0.1907
  443TMC3    O2 6664   2.123   2.819  16.777 -0.1341  0.1642 -0.2585
  444MPD2     C 6665   2.407   1.883  16.878 -0.1730 -0.5503 -0.5934
  444MPD2    C1 6666   2.298   1.797  16.873  0.2732 -0.1370  0.7550
  444MPD2    C2 6667   2.315   1.673  16.808 -0.7676 -0.4650 -0.0233
  444MPD2    C3 6668   2.436   1.628  16.756  0.3238  0.1483 -0.2827
  444MPD2    C4 6669   2.541   1.717  16.766  0.1877  0.0886  0.2158
  444MPD2    C5 6670   2.524   1.843  16.819 -0.1640  0.5504 -0.6328
  444MPD2     H 6671   2.233   1.603  16.814 -2.2363  1.1223 -1.7454
  444MPD2    H1 6672   2.640   1.697  16.727  1.0209 -0.0244  2.4062
  444MPD2    H2 6673   2.402   1.986  16.913  0.1759 -0.9846  0.7428
  444MPD2    H3 6674   2.617   1.899  16.816 -1.0230  1.9650 -0.7146
  444MPD2     N 6675   2.440   1.501  16.696  0.1496 -0.6264  0.0677
  444MPD2    H5 6676   2.352   1.455  16.676 -0.1099  0.3789 -1.0828
  444MPD2    N1 6677   2.170   1.821  16.932  0.0589 -0.2558  0.3753
  444MPD2    H7 6678   2.103   1.744  16.926  0.7566 -0.8247 -0.0984
  445TMC3    C1 6679   2.560   1.310  16.601  0.5009  0.2393  0.7621
  445TMC3    C2 6680   2.464   1.300  16.499 -0.0287  0.0568 -0.4717
  445TMC3    C3 6681   2.502   1.222  16.393 -0.6761 -0.3671 -0.1392
  445TMC3    C4 6682   2.671   1.231  16.601  0.1174 -0.4363 -0.6399
  445TMC3    C5 6683   2.691   1.147  16.501 -0.0434 -0.2811  0.7634
  445TMC3    C6 6684   2.627   1.166  16.383 -0.2900  0.0490  0.8444
  445TMC3     C 6685   2.558   1.440  16.670  0.8483  0.0831 -0.7687
  445TMC3     O 6686   2.675   1.473  16.699 -0.3104  0.0799  0.2697
  445TMC3     H 6687   2.371   1.356  16.503  0.6788  1.0106  2.4010
  445TMC3    H1 6688   2.741   1.235  16.684  0.4003 -0.9214 -0.8558
  445TMC3    H2 6689   2.655   1.090  16.311  0.0481 -0.1165  1.1446
  445TMC3    C7 6690   2.812   1.068  16.507 -0.2717 -0.3432 -0.3345
  445TMC3    C8 6691   2.441   1.258  16.268  0.5965  0.4331 -0.1698
  445TMC3    O1 6692   2.845   1.038  16.621  0.7548 -0.4781 -0.2670
  445TMC3    O2 6693   2.359   1.350  16.271  0.0724  0.6272 -0.2890
  446MPD2     C 6694   1.826   3.001  11.092 -0.1072  0.0279 -0.2468
  446MPD2    C1 6695   1.824   3.034  10.962 -0.1541 -0.1750 -0.0270
  446MPD2    C2 6696   1.943   3.084  10.904 -0.0633  0.3359 -0.2942
  446MPD2    C3 6697   2.061   3.089  10.980  0.4957 -0.2020 -0.6691
  446MPD2    C4 6698   2.050   3.053  11.108  0.4308  0.1951  0.0277
  446MPD2    C5 6699   1.934   3.009  11.164  0.5593  0.0080  0.9150
  446MPD2     H 6700   1.940   3.120  10.802 -3.0000  0.5728 -0.1249
  446MPD2    H1 6701   2.129   3.060  11.182  0.5018  1.2673 -0.1481
  446MPD2    H2 6702   1.734   2.970  11.140  0.1934 -0.2146  0.1674
  446MPD2    H3 6703   1.930   2.988  11.270  3.1786 -1.9560  0.6462
  446MPD2     N 6704   2.176   3.156  10.937  0.1734  0.5046 -0.3610
  446MPD2    H5 6705   2.171   3.212  10.852 -1.4572 -0.2940 -0.7915
  446MPD2    N1 6706   1.701   3.023  10.893  0.1241  0.1037 -0.1426
  446MPD2    H7 6707   1.634   2.969  10.946 -0.2762  0.3479 -0.3983
  447TMC3    C1 6708   2.411   3.192  10.938  0.7444  0.7372  0.2592
  447TMC3    C2 6709   2.406   3.318  10.886  0.8243 -0.4671 -0.4097
  447TMC3    C3 6710   2.516   3.393  10.890 -0.4375  0.1354  0.4191
  447TMC3    C4 6711   2.529   3.128  10.961  1.0558  0.5913 -0.1087
  447TMC3    C5 6712   2.642   3.211  10.960 -0.1616 -0.0914 -0.0663
  447TMC3    C6 6713   2.637   3.347  10.937  0.0883  0.2107 -0.2848
  447TMC3     C 6714   2.296   3.134  10.995 -0.0952 -0.1456  0.2563
  447TMC3     O 6715   2.329   3.058  11.083  0.6303  0.7923 -0.1999
  447TMC3     H 6716   2.310   3.362  10.862  1.2010 -1.2095 -3.3020
  447TMC3    H1 6717   2.538   3.020  10.971 -1.0038  0.3929 -0.4695
  447TMC3    H2 6718   2.724   3.410  10.933  0.7042 -0.7095 -1.4006
  447TMC3    C7 6719   2.753   3.156  11.028 -0.1258 -0.4742 -0.4139
  447TMC3    C8 6720   2.514   3.503  10.786  0.3656  0.3608 -0.9270
  447TMC3    O1 6721   2.753   3.032  11.041 -0.2128 -0.5202 -0.3770
  447TMC3    O2 6722   2.439   3.483  10.696  0.5214 -0.2303  0.4666
  448TMC3    C1 6723   0.299   1.943  17.609 -0.0680  0.3090  0.2652
  448TMC3    C2 6724   0.348   1.885  17.493  0.9832  0.5619 -0.7420
  448TMC3    C3 6725   0.465   1.816  17.511 -0.0099 -0.4014 -0.0282
  448TMC3    C4 6726   0.359   1.935  17.733 -0.2721  0.0721  0.2504
  448TMC3    C5 6727   0.474   1.861   0.006 -0.0294 -0.4383  0.1402
  448TMC3    C6 6728   0.528   1.807  17.632  0.7083  0.2297 -0.7558
  448TMC3     C 6729   0.185   2.038  17.606  0.5763 -0.2821 -0.4224
  448TMC3     O 6730   0.116   2.036  17.704  0.2056 -0.5631  0.1461
  448TMC3     H 6731   0.303   1.887  17.394  1.7442 -0.5259 -1.1198
  448TMC3    H1 6732   0.317   1.973   0.088  0.3780 -1.7118  1.2731
  448TMC3    H2 6733   0.611   1.738  17.646 -0.1556 -0.5999  0.2903
  448TMC3    C7 6734   0.540   1.858   0.130  0.0960 -0.3015  0.7309
  448TMC3    C8 6735   0.504   1.729  17.401  0.3479  0.2720 -0.2564
  448TMC3    O1 6736   0.473   1.886   0.230 -0.2851  0.2369 -0.1535
  448TMC3    O2 6737   0.489   1.780  17.292 -0.2531  0.6261  0.0815
  449MPD2     C 6738   2.271   1.389  13.883 -0.6664  0.0370 -0.2886
  449MPD2    C1 6739   2.216   1.312  13.784 -0.1954  0.5732  0.3408
  449MPD2    C2 6740   2.166   1.187  13.821  0.4718  0.1119  0.5247
  449MPD2    C3 6741   2.162   1.137  13.955 -0.7186 -0.8728 -0.1622
  449MPD2    C4 6742   2.222   1.219  14.053  0.2898  0.1345 -0.3806
  449MPD2    C5 6743   2.273   1.340  14.016  0.0441  0.1845  0.1264
  449MPD2     H 6744   2.128   1.129  13.738  1.1694  0.7993 -0.2722
  449MPD2    H1 6745   2.214   1.190  14.157  3.6796 -1.9459 -0.7047
  449MPD2    H2 6746   2.309   1.489  13.871 -0.1881 -0.1762 -0.5419
  449MPD2    H3 6747   2.313   1.403  14.095  0.5566  1.8259 -1.4153
  449MPD2     N 6748   2.103   1.015  13.970 -0.2790 -0.3083  0.0468
  449MPD2    H5 6749   2.078   0.974  13.881  0.8873 -0.3317 -0.2642
  449MPD2    N1 6750   2.200   1.350  13.649  0.2091  1.0760  0.3666
  449MPD2    H7 6751   2.139   1.287  13.599  0.8603  1.5824 -1.0834
  450TMC3    C1 6752   2.235   1.443  13.442 -0.0660 -0.7080  0.3277
  450TMC3    C2 6753   2.354   1.397  13.389 -0.4544  0.5500 -0.2758
  450TMC3    C3 6754   2.351   1.298  13.296 -0.4492 -0.5798 -0.0910
  450TMC3    C4 6755   2.122   1.383  13.407  0.6793 -0.4328 -0.2507
  450TMC3    C5 6756   2.117   1.283  13.318 -0.1525  0.1290  0.3885
  450TMC3    C6 6757   2.231   1.242  13.261 -0.6114  0.1985  0.3604
  450TMC3     C 6758   2.247   1.463  13.582  0.1492  0.3516 -0.4323
  450TMC3     O 6759   2.329   1.544  13.623  0.1696  0.2284 -0.0643
  450TMC3     H 6760   2.449   1.423  13.434  0.0222  0.2310 -1.1135
  450TMC3    H1 6761   2.029   1.412  13.454  0.7654  1.0907 -1.0338
  450TMC3    H2 6762   2.241   1.155  13.197 -0.5971  0.4771 -0.0184
  450TMC3    C7 6763   2.045   1.174  13.375  0.0291  0.5288 -0.2414
  450TMC3    C8 6764   2.463   1.208  13.306 -0.3387 -0.3974 -0.1908
  450TMC3    O1 6765   2.002   1.190  13.490  0.0080 -0.9292  0.2343
  450TMC3    O2 6766   2.431   1.094  13.333 -0.5179  0.0090 -0.3237
  451MPD2     C 6767   2.843   0.920   2.023 -0.2700 -0.6170  0.2983
  451MPD2    C1 6768   2.921   0.874   1.917  0.0666  0.4199 -0.3101
  451MPD2    C2 6769   3.002   0.760   1.935  0.0919  0.1128  0.2711
  451MPD2    C3 6770   3.002   0.700   2.060  0.1342  0.0694 -0.0403
  451MPD2    C4 6771   2.928   0.753   2.167 -0.2672 -0.1198 -0.4029
  451MPD2    C5 6772   2.848   0.862   2.142 -0.0401  0.2240 -0.0308
  451MPD2     H 6773   3.076   0.732   1.860  0.0038  2.1633 -0.5750
  451MPD2    H1 6774   2.930   0.716   2.268 -0.7259 -1.1591 -0.7777
  451MPD2    H2 6775   2.770   1.000   2.013 -0.6048 -0.9654 -0.0252
  451MPD2    H3 6776   2.783   0.904   2.218 -2.0620 -0.2519 -1.4642
  451MPD2     N 6777   3.090   0.595   2.097 -0.1761 -0.2750  0.2637
  451MPD2    H5 6778   3.080   0.553   2.189  1.2933  0.8119  0.9261
  451MPD2    N1 6779   2.898   0.933   1.795  0.7039  0.3234 -0.2340
  451MPD2    H7 6780   2.825   1.003   1.795  0.5277  0.1386 -0.0836
  452TMC3    C1 6781   3.225   0.401   2.067  0.0339  0.1417  0.1990
  452TMC3    C2 6782   3.164   0.335   2.172 -0.3301 -0.1730 -0.2607
  452TMC3    C3 6783   3.201   0.208   2.196 -0.0033 -1.0199 -0.1060
  452TMC3    C4 6784   3.323   0.340   1.996 -0.2450  0.5713 -0.0814
  452TMC3    C5 6785   3.356   0.209   2.021  0.0215  0.2431 -0.7936
  452TMC3    C6 6786   3.298   0.137   2.123 -0.6288  0.2449  0.0270
  452TMC3     C 6787   3.172   0.528   2.011 -0.3528 -0.7000  0.2648
  452TMC3     O 6788   3.207   0.555   1.894  0.1624  0.1349  0.2727
  452TMC3     H 6789   3.079   0.382   2.220 -0.4532 -0.0596 -0.5915
  452TMC3    H1 6790   3.372   0.395   1.916  0.2770 -1.4214 -1.1175
  452TMC3    H2 6791   3.306   0.029   2.128  0.8308  0.4426  1.7203
  452TMC3    C7 6792   3.398   0.148   1.894 -0.0510  0.4425  0.1961
  452TMC3    C8 6793   3.123   0.125   2.281 -1.0216 -0.0123  0.6253
  452TMC3    O1 6794   3.485   0.201   1.823 -0.7278 -0.4912  0.2966
  452TMC3    O2 6795   3.030   0.184   2.330  0.0940 -0.1598  0.4263
  453TMC3    C1 6796   4.238   2.063  11.409  0.4411 -0.0459  0.3116
  453TMC3    C2 6797   4.195   1.940  11.446 -0.2738  0.0147 -0.0200
  453TMC3    C3 6798   4.241   1.830  11.382 -0.7181  0.2053  0.0486
  453TMC3    C4 6799   4.339   2.074  11.323 -0.4140 -0.4524 -0.2555
  453TMC3    C5 6800   4.390   1.965  11.271 -0.0732  0.0065  0.4401
  453TMC3    C6 6801   4.346   1.842  11.298 -0.1049  0.3478 -0.2807
  453TMC3     C 6802   4.235   2.170  11.510  1.1470 -0.3694 -0.3387
  453TMC3     O 6803   4.258   2.282  11.463  0.2880  0.2155  0.0185
  453TMC3     H 6804   4.112   1.938  11.516 -0.4154  0.6081 -0.1697
  453TMC3    H1 6805   4.378   2.172  11.297  0.1811 -0.4010  0.8329
  453TMC3    H2 6806   4.393   1.752  11.259 -0.7981  0.5733 -1.6330
  453TMC3    C7 6807   4.484   1.964  11.157  0.5264  0.5362  0.2027
  453TMC3    C8 6808   4.195   1.708  11.432 -0.4770 -0.2350 -0.7395
  453TMC3    O1 6809   4.492   1.853  11.105 -1.0753  0.1303 -0.2143
  453TMC3    O2 6810   4.075   1.687  11.441 -0.0522  0.0736  0.6367
  454MPD2     C 6811   3.248   1.701  16.073  0.0821 -0.2736 -0.3399
  454MPD2    C1 6812   3.225   1.774  15.962  0.1807  0.7866 -0.5306
  454MPD2    C2 6813   3.182   1.903  15.979  0.4217 -0.3751 -0.4403
  454MPD2    C3 6814   3.154   1.964  16.102 -0.2618 -0.5325  0.4314
  454MPD2    C4 6815   3.171   1.882  16.213 -0.0477  0.2254 -0.0325
  454MPD2    C5 6816   3.211   1.750  16.196  0.8837  0.3217 -0.1455
  454MPD2     H 6817   3.169   1.963  15.890 -2.1410 -1.5592 -0.8574
  454MPD2    H1 6818   3.146   1.917  16.312  0.5053 -2.8176  1.1754
  454MPD2    H2 6819   3.278   1.597  16.075  1.2165  0.0845  2.1443
  454MPD2    H3 6820   3.213   1.681  16.280 -1.2765  0.0367 -0.3350
  454MPD2     N 6821   3.087   2.089  16.120  0.7362 -0.5469 -0.5125
  454MPD2    H5 6822   3.038   2.110  16.207  1.4449 -0.1915 -0.1975
  454MPD2    N1 6823   3.240   1.733  15.826 -0.4465 -0.1145 -0.1599
  454MPD2    H7 6824   3.221   1.802  15.755  2.8690 -1.1252 -2.0331
  455TMC3    C1 6825   2.922   2.218  16.034 -0.5122  0.1232 -0.4583
  455TMC3    C2 6826   2.917   2.317  16.127  0.5192  0.6962  0.6618
  455TMC3    C3 6827   2.827   2.297  16.225 -0.6061 -0.4474 -0.8199
  455TMC3    C4 6828   2.845   2.103  16.037 -0.0263 -0.3942  0.6398
  455TMC3    C5 6829   2.753   2.086  16.140 -0.0405  0.3655  0.0120
  455TMC3    C6 6830   2.737   2.189  16.225  0.4676 -0.7063 -0.2782
  455TMC3     C 6831   3.055   2.174  16.017 -0.3026 -0.6771  0.1425
  455TMC3     O 6832   3.109   2.178  15.904 -0.4129  0.0946  0.0065
  455TMC3     H 6833   2.996   2.391  16.123  0.9637  0.2031  0.2917
  455TMC3    H1 6834   2.869   2.023  15.967 -0.5354 -1.0330  1.1885
  455TMC3    H2 6835   2.677   2.181  16.315 -0.0823  0.1486 -0.5714
  455TMC3    C7 6836   2.723   1.951  16.196 -0.0943  0.4311 -0.2909
  455TMC3    C8 6837   2.842   2.377  16.346 -0.8726  0.4142 -0.3736
  455TMC3    O1 6838   2.664   1.950  16.304  0.2288 -0.1169 -0.3969
  455TMC3    O2 6839   2.825   2.318  16.452  0.4828  0.0396  0.4961
  456MPD2     C 6840   0.887   1.883  16.070  0.5310  0.1589  0.1122
  456MPD2    C1 6841   0.993   1.807  16.115 -0.2728 -0.2208  0.0534
  456MPD2    C2 6842   0.995   1.761  16.241 -0.3087 -0.3094  0.4038
  456MPD2    C3 6843   0.884   1.790  16.327  0.4744  0.7579 -0.2878
  456MPD2    C4 6844   0.785   1.870  16.279  0.3970  0.6401  0.0527
  456MPD2    C5 6845   0.776   1.910  16.147  0.1166  0.0161  0.6592
  456MPD2     H 6846   1.076   1.705  16.289 -0.8095 -1.2114  0.1976
  456MPD2    H1 6847   0.694   1.893  16.334  0.5459 -0.0357  0.5741
  456MPD2    H2 6848   0.894   1.921  15.969 -1.6967 -1.3272 -0.6183
  456MPD2    H3 6849   0.698   1.977  16.114  0.0183 -0.9486 -1.0194
  456MPD2     N 6850   0.887   1.733  16.451 -0.5701  0.0047  0.0126
  456MPD2    H5 6851   0.971   1.685  16.481 -0.5687 -0.4464 -0.7094
  456MPD2    N1 6852   1.095   1.785  16.022  0.1219  0.4410 -0.6182
  456MPD2    H7 6853   1.078   1.824  15.930 -2.9225  0.9542  0.1761
  457TMC3    C1 6854   0.832   1.662  16.662  0.2014 -0.3231  0.2794
  457TMC3    C2 6855   0.738   1.588  16.716  0.3190  0.6973  0.0291
  457TMC3    C3 6856   0.769   1.497  16.812  0.1172  0.1477 -0.0271
  457TMC3    C4 6857   0.960   1.659  16.698  0.0779 -0.2849 -0.1960
  457TMC3    C5 6858   0.997   1.576  16.794 -0.2768  0.3788  0.3684
  457TMC3    C6 6859   0.905   1.491  16.843 -0.4894  0.4909 -0.5619
  457TMC3     C 6860   0.784   1.736  16.542 -0.5126 -0.3955 -0.4556
  457TMC3     O 6861   0.663   1.751  16.530 -0.1668 -0.0955  0.6048
  457TMC3     H 6862   0.635   1.591  16.681  0.6785  0.4350 -1.0447
  457TMC3    H1 6863   1.030   1.732  16.660 -0.9130  1.7896  1.9423
  457TMC3    H2 6864   0.937   1.437  16.932 -1.7805  0.5375 -0.0740
  457TMC3    C7 6865   1.076   1.626  16.898 -0.0702 -0.2030 -0.4607
  457TMC3    C8 6866   0.691   1.522  16.930 -0.0664 -0.7733 -0.5200
  457TMC3    O1 6867   1.151   1.547  16.962 -0.0782 -0.2384 -0.4257
  457TMC3    O2 6868   0.637   1.629  16.947 -0.4170 -0.1462  0.1278
  458MPD2     C 6869   2.719   1.227  12.659  0.1591  0.0368  0.4661
  458MPD2    C1 6870   2.808   1.141  12.729 -0.2946 -0.6567 -0.1650
  458MPD2    C2 6871   2.748   1.054  12.819 -0.5465  0.9270  0.4028
  458MPD2    C3 6872   2.611   1.053  12.839 -0.5466 -0.2459  0.1070
  458MPD2    C4 6873   2.527   1.127  12.755 -1.3371  0.3825  0.2369
  458MPD2    C5 6874   2.586   1.218  12.667  0.3969  0.7729 -0.2341
  458MPD2     H 6875   2.810   0.993  12.883 -0.1341 -0.8404 -1.6660
  458MPD2    H1 6876   2.419   1.135  12.768 -0.8824  2.5193  2.7118
  458MPD2    H2 6877   2.768   1.294  12.589 -0.3215  1.7860  1.8151
  458MPD2    H3 6878   2.526   1.285  12.607 -0.1882  0.5985  0.1494
  458MPD2     N 6879   2.566   0.965  12.942  0.1461 -0.6491 -0.0349
  458MPD2    H5 6880   2.637   0.905  12.981 -0.2784 -2.1039 -1.4739
  458MPD2    N1 6881   2.949   1.150  12.706  0.8231 -0.7328  0.0351
  458MPD2    H7 6882   2.982   1.223  12.644 -1.0935  0.4870  0.4628
  459TMC3    C1 6883   3.186   1.088  12.728 -0.2819 -0.0770  0.1019
  459TMC3    C2 6884   3.203   1.149  12.605 -0.5200  0.0520  0.6480
  459TMC3    C3 6885   3.325   1.133  12.541  0.4807 -0.0496  0.1380
  459TMC3    C4 6886   3.286   1.015  12.786  0.6449 -0.7610  0.7747
  459TMC3    C5 6887   3.409   1.011  12.730  0.0819 -0.0058 -0.4416
  459TMC3    C6 6888   3.430   1.068  12.599 -0.2520  0.4371 -0.5679
  459TMC3     C 6889   3.048   1.083  12.780  0.8770 -0.3595 -0.1398
  459TMC3     O 6890   3.033   1.016  12.883 -0.4955  0.0775 -0.6015
  459TMC3     H 6891   3.131   1.195  12.539  0.1000 -0.4909 -0.4117
  459TMC3    H1 6892   3.261   0.949  12.867 -0.8827 -1.8689 -0.6011
  459TMC3    H2 6893   3.523   1.044  12.549  0.8504  0.8278  1.3273
  459TMC3    C7 6894   3.516   0.974  12.825  0.3973  0.0327 -0.4561
  459TMC3    C8 6895   3.329   1.163  12.399 -0.3451  0.0448  0.7110
  459TMC3    O1 6896   3.490   0.884  12.903  0.0177 -0.0348  0.2463
  459TMC3    O2 6897   3.225   1.195  12.343 -0.4942 -0.0950 -0.0542
  460MPD2     C 6898   2.718   3.797  10.713 -0.3802 -0.0572 -0.0226
  460MPD2    C1 6899   2.614   3.706  10.712  0.7322 -1.1315  0.1637
  460MPD2    C2 6900   2.496   3.756  10.651 -0.2145  0.2578  0.3715
  460MPD2    C3 6901   2.498   3.857  10.560  0.5296 -0.9655  0.1228
  460MPD2    C4 6902   2.605   3.938  10.553  0.2992 -0.5051  0.6961
  460MPD2    C5 6903   2.709   3.907  10.636 -0.2830 -0.5724 -0.0213
  460MPD2     H 6904   2.407   3.695  10.648 -0.1622  0.1704  0.5977
  460MPD2    H1 6905   2.612   4.025  10.489 -1.3400 -0.9135 -0.0399
  460MPD2    H2 6906   2.802   3.765  10.774  0.1889 -0.9363 -1.2629
  460MPD2    H3 6907   2.803   3.961  10.629 -0.4598 -0.2045  0.4616
  460MPD2     N 6908   2.384   3.868  10.484 -0.4650  0.0620 -0.0563
  460MPD2    H5 6909   2.315   3.798  10.511 -0.7994  0.4163  0.0163
  460MPD2    N1 6910   2.609   3.595  10.794 -0.0266  0.6377  0.3612
  460MPD2    H7 6911   2.682   3.594  10.864  0.1833  0.4065  0.1393
  461TMC3    C1 6912   2.225   3.934  10.334 -0.5325 -0.0165  0.5706
  461TMC3    C2 6913   2.182   3.805  10.310 -0.4100  0.0418 -0.3281
  461TMC3    C3 6914   2.069   3.783  10.230  0.2777 -0.3973 -0.1967
  461TMC3    C4 6915   2.161   4.039  10.284 -0.0954 -0.1243 -0.1439
  461TMC3    C5 6916   2.054   4.003  10.201 -0.4380  0.5332 -0.1679
  461TMC3    C6 6917   2.002   3.879  10.167 -0.4839  0.3748 -0.0384
  461TMC3     C 6918   2.357   3.954  10.380 -0.2986 -0.4269 -0.4876
  461TMC3     O 6919   2.431   4.040  10.336  0.4309  0.8740 -0.3389
  461TMC3     H 6920   2.250   3.730  10.350 -0.3305 -0.6757 -1.8314
  461TMC3    H1 6921   2.207   4.136  10.296  0.0488 -0.0933 -0.9261
  461TMC3    H2 6922   1.910   3.863  10.113 -1.4726 -0.1408  1.8182
  461TMC3    C7 6923   1.966   4.106  10.157  0.1795 -0.4928  0.7359
  461TMC3    C8 6924   2.027   3.650  10.199  0.5102 -0.4085 -0.0535
  461TMC3    O1 6925   1.882   4.087  10.068  0.3520  0.3300 -0.1093
  461TMC3    O2 6926   2.058   3.570  10.288 -0.2013 -0.4462 -0.1773
  462TMC3    C1 6927   2.801   4.562   0.985  0.4437 -0.0651 -0.0550
  462TMC3    C2 6928   2.923   4.560   0.916  0.2306  0.5641  0.5689
  462TMC3    C3 6929   2.954   4.454   0.836  0.1267  0.2611 -0.1371
  462TMC3    C4 6930   2.711   4.459   0.962  0.3236 -0.5529  1.0701
  462TMC3    C5 6931   2.753   4.342   0.890 -0.2553 -0.3278 -0.2135
  462TMC3    C6 6932   2.870   4.348   0.820  0.6099 -0.3557 -0.4527
  462TMC3     C 6933   2.772   4.655   1.090 -0.3353  0.2808  0.1556
  462TMC3     O 6934   2.676   4.631   1.156 -0.2700  0.0350 -0.8502
  462TMC3     H 6935   3.004   4.631   0.927  0.8115 -0.1682  1.0529
  462TMC3    H1 6936   2.610   4.464   0.999 -0.5840  2.6982 -1.8566
  462TMC3    H2 6937   2.903   4.249   0.789  1.5706 -0.1974  0.0858
  462TMC3    C7 6938   2.649   4.258   0.836 -0.1580 -0.2657 -0.5716
  462TMC3    C8 6939   3.077   4.452   0.760  0.2841 -0.6648  0.4572
  462TMC3    O1 6940   2.654   4.141   0.872 -0.1489 -0.6341 -0.3795
  462TMC3    O2 6941   3.171   4.528   0.777  0.4422 -0.3158 -0.6179
  463MPD2     C 6942   3.422   2.740   1.022 -0.0793  0.2193 -0.3492
  463MPD2    C1 6943   3.342   2.848   1.001  0.0071  0.4495 -0.3572
  463MPD2    C2 6944   3.403   2.972   0.982  0.7852  0.4839 -0.3421
  463MPD2    C3 6945   3.543   2.986   0.980 -0.0070 -0.8460  0.2788
  463MPD2    C4 6946   3.621   2.876   1.014  0.5110  0.3061  0.3403
  463MPD2    C5 6947   3.558   2.755   1.034 -0.2791 -0.2777  0.5920
  463MPD2     H 6948   3.334   3.056   0.974 -0.5412 -0.6643 -1.0234
  463MPD2    H1 6949   3.728   2.888   1.017  0.3791  1.7719 -0.8596
  463MPD2    H2 6950   3.378   2.642   1.021 -2.7695  1.4270  0.0374
  463MPD2    H3 6951   3.609   2.659   1.041 -1.8280 -1.3340 -2.5819
  463MPD2     N 6952   3.606   3.107   0.944  0.3767  0.7304 -0.4468
  463MPD2    H5 6953   3.707   3.099   0.941  0.1955 -0.9657 -2.0800
  463MPD2    N1 6954   3.197   2.847   0.999 -0.6159  0.2049 -0.2519
  463MPD2    H7 6955   3.153   2.937   0.982  0.3490  0.6457 -0.4176
  464TMC3    C1 6956   2.980   2.747   1.002 -0.2313  0.9166  0.2019
  464TMC3    C2 6957   2.919   2.865   1.021 -0.0344 -0.1980 -0.3337
  464TMC3    C3 6958   2.788   2.858   1.041 -0.7422 -0.6068 -0.2610
  464TMC3    C4 6959   2.920   2.625   0.978  0.7880 -0.0355  0.0241
  464TMC3    C5 6960   2.780   2.634   0.980  0.1578 -0.0690 -0.1432
  464TMC3    C6 6961   2.714   2.746   1.015  0.0605 -0.8044 -0.7127
  464TMC3     C 6962   3.125   2.733   1.015  0.5222  0.3967 -0.7687
  464TMC3     O 6963   3.167   2.620   1.032  0.0301  0.9016  0.1251
  464TMC3     H 6964   2.973   2.955   1.047 -1.2838  0.0624  1.3717
  464TMC3    H1 6965   2.972   2.533   0.952 -1.6342 -1.7955  1.3580
  464TMC3    H2 6966   2.608   2.762   0.999  0.6583  2.1900 -1.6404
  464TMC3    C7 6967   2.715   2.505   0.980  0.5670  0.0810 -0.2918
  464TMC3    C8 6968   2.720   2.977   1.088 -0.2965  0.3940 -0.1036
  464TMC3    O1 6969   2.762   2.420   0.909  0.3840  0.5422 -0.0051
  464TMC3    O2 6970   2.782   3.078   1.062  0.1024  0.0332  0.2843
  465MPD2     C 6971   4.451   1.244  16.759 -0.2087 -0.1193  0.4795
  465MPD2    C1 6972   4.356   1.288  16.855 -0.3889  0.6598 -0.2124
  465MPD2    C2 6973   4.290   1.399  16.825  0.2322  0.1757 -0.4418
  465MPD2    C3 6974   4.312   1.475  16.710 -0.4335 -0.8205  0.5469
  465MPD2    C4 6975   4.405   1.429  16.619  0.1445  0.3863  0.3916
  465MPD2    C5 6976   4.472   1.311  16.644 -0.0457 -0.2222  0.0942
  465MPD2     H 6977   4.210   1.434  16.888 -0.1275 -1.1962 -0.1292
  465MPD2    H1 6978   4.426   1.478  16.525  1.1351  1.9715  1.4245
  465MPD2    H2 6979   4.518   1.160  16.775 -1.9677 -1.6203  0.0148
  465MPD2    H3 6980   4.540   1.281  16.566 -1.3106  0.9255 -1.4433
  465MPD2     N 6981   4.252   1.607  16.703 -0.6525 -0.1680  0.1262
  465MPD2    H5 6982   4.191   1.633  16.780 -0.5264  2.1273 -0.5531
  465MPD2    N1 6983   4.339   1.230  16.979  0.6077 -0.0192 -0.0392
  465MPD2    H7 6984   4.281   1.276  17.048 -0.1121  1.7922 -1.8547
  466TMC3    C1 6985   4.078   1.966  16.753 -0.3329 -0.0118 -0.4852
  466TMC3    C2 6986   4.146   2.082  16.720  0.3953 -0.7010  0.4223
  466TMC3    C3 6987   4.243   2.069  16.626 -0.3728 -0.0202  0.3299
  466TMC3    C4 6988   4.117   1.841  16.709 -0.1855 -0.5947 -0.1530
  466TMC3    C5 6989   4.229   1.834  16.638 -0.7401 -0.4960 -0.1877
  466TMC3    C6 6990   4.290   1.943  16.580  0.9934  0.1143 -0.1313
  466TMC3     C 6991   3.969   1.974  16.849 -0.6817  0.8302  0.0042
  466TMC3     O 6992   3.952   1.873  16.916  0.2501  0.1549  0.3158
  466TMC3     H 6993   4.106   2.179  16.746  2.7245  0.0151  1.3496
  466TMC3    H1 6994   4.063   1.750  16.733 -0.5870  0.0470  1.4186
  466TMC3    H2 6995   4.359   1.943  16.496  2.1079  1.8491  0.7991
  466TMC3    C7 6996   4.287   1.703  16.613  0.4991 -0.1162  0.3276
  466TMC3    C8 6997   4.305   2.187  16.578  0.3332  0.1735 -0.2977
  466TMC3    O1 6998   4.370   1.708  16.520 -0.4505 -0.8037 -0.2150
  466TMC3    O2 6999   4.385   2.174  16.484  0.4773 -0.0513 -0.2773
  467TMC3    C1 7000   1.000   0.034  13.697  0.1221  0.0015 -0.0164
  467TMC3    C2 7001   0.932   0.069  13.580 -0.3561 -0.4401 -0.2754
  467TMC3    C3 7002   0.807   0.123  13.589  0.6878  0.1821  0.6813
  467TMC3    C4 7003   0.939   0.041  13.818  0.0125 -0.1007  0.3935
  467TMC3    C5 7004   0.815   0.102  13.822 -0.8591  0.0615 -1.0974
  467TMC3    C6 7005   0.750   0.134  13.713  1.2060  0.1578 -0.0562
  467TMC3     C 7006   1.138   0.040  13.672  0.3683  0.1069  0.6326
  467TMC3     O 7007   1.191   0.109  13.586  0.4739  0.0969 -0.0977
  467TMC3     H 7008   0.978   0.067  13.482 -0.0762  0.1539 -0.1568
  467TMC3    H1 7009   0.991   0.029  13.913  1.0476  0.3398 -0.1252
  467TMC3    H2 7010   0.650   0.177  13.713  1.7315  1.3820  1.0670
  467TMC3    C7 7011   0.737   0.059  13.935  0.1000 -0.0846 -0.2633
  467TMC3    C8 7012   0.789   0.233  13.496 -0.2893 -1.1873 -0.0502
  467TMC3    O1 7013   0.786   4.693  13.985 -0.1308  0.5013  0.2147
  467TMC3    O2 7014   0.764   0.342  13.548  0.2023  0.3291 -0.3876
  468MPD2     C 7015   4.409   2.998  10.113 -0.4468 -0.0988 -0.2654
  468MPD2    C1 7016   4.473   2.995  10.232  0.5323 -0.4035 -0.2308
  468MPD2    C2 7017   4.542   2.886  10.270  0.1366 -0.0986 -0.3655
  468MPD2    C3 7018   4.556   2.781  10.181 -0.5996  0.0938 -0.2400
  468MPD2    C4 7019   4.504   2.789  10.056 -0.0761  0.0502  0.6655
  468MPD2    C5 7020   4.414   2.893  10.027 -0.2027  0.7455  0.2996
  468MPD2     H 7021   4.584   2.893  10.369  0.7354 -0.0308 -0.6276
  468MPD2    H1 7022   4.511   2.710   9.983  1.3212  0.6789  0.1255
  468MPD2    H2 7023   4.350   3.084  10.085  0.1321  1.2066  2.4301
  468MPD2    H3 7024   4.366   2.907   9.932  0.8276 -2.1887 -0.6638
  468MPD2     N 7025   4.628   2.657  10.209  0.7886  0.6905  0.1279
  468MPD2    H5 7026   4.630   2.589  10.134 -0.4918  0.0658  0.6551
  468MPD2    N1 7027   4.482   3.117  10.302 -1.0274 -0.0651  0.0285
  468MPD2    H7 7028   4.561   3.130  10.363 -1.0886 -1.5292  0.4376
  469TMC3    C1 7029   4.436   3.330  10.377  0.1090  0.5444 -0.0195
  469TMC3    C2 7030   4.567   3.363  10.392 -0.1838  0.2496 -0.8350
  469TMC3    C3 7031   4.600   3.457  10.492  0.1512 -0.3243 -0.4634
  469TMC3    C4 7032   4.335   3.407  10.445  0.3887 -0.8831 -0.0173
  469TMC3    C5 7033   4.370   3.494  10.544  0.5600 -0.5039  0.1940
  469TMC3    C6 7034   4.503   3.516  10.569  0.7411  0.5668  0.5157
  469TMC3     C 7035   4.399   3.220  10.289 -0.8047 -0.3375 -0.5045
  469TMC3     O 7036   4.288   3.228  10.241  0.4633 -0.2022  0.0387
  469TMC3     H 7037   4.645   3.315  10.334  1.1986 -0.4606  1.5955
  469TMC3    H1 7038   4.230   3.380  10.433  0.3614  0.2979 -2.3749
  469TMC3    H2 7039   4.537   3.599  10.631 -0.4253  1.3648  0.0785
  469TMC3    C7 7040   4.272   3.568  10.614 -0.7658 -0.4946  0.5892
  469TMC3    C8 7041   0.007   3.460  10.533  0.1182 -0.5687  0.0255
  469TMC3    O1 7042   4.155   3.555  10.588  0.5968  0.1036 -0.4533
  469TMC3    O2 7043   0.095   3.419  10.460 -0.1759  0.0534 -0.1137
  470TMC3    C1 7044   1.902   4.189   1.138 -0.1159  0.3613  0.5537
  470TMC3    C2 7045   1.957   4.295   1.082  0.2374  0.5349  0.0720
  470TMC3    C3 7046   2.045   4.369   1.150  0.3455 -0.1298 -0.6672
  470TMC3    C4 7047   1.916   4.167   1.269 -0.1930 -0.8600 -0.2157
  470TMC3    C5 7048   2.006   4.245   1.343  0.4163 -0.4445 -0.1520
  470TMC3    C6 7049   2.071   4.352   1.284  0.3229 -0.3367 -0.0089
  470TMC3     C 7050   1.860   4.075   1.059  0.4711  0.3725 -0.1446
  470TMC3     O 7051   1.814   3.973   1.114  0.0937 -0.2792  0.0222
  470TMC3     H 7052   1.937   4.328   0.981  0.5240 -2.2115 -0.8985
  470TMC3    H1 7053   1.862   4.083   1.311  0.9160 -1.3744  0.1742
  470TMC3    H2 7054   2.143   4.407   1.343  3.0241 -1.4534 -2.2952
  470TMC3    C7 7055   2.065   4.196   1.466  0.1468  0.6062 -0.2063
  470TMC3    C8 7056   2.063   4.502   1.103 -0.0683 -0.3984  0.1614
  470TMC3    O1 7057   2.144   4.263   1.526 -1.0018 -0.2331 -0.8432
  470TMC3    O2 7058   1.966   4.567   1.122  0.1784  0.7256 -0.0230
  471MPD2     C 7059   2.167   0.969  16.296  0.1241  0.1634 -0.1593
  471MPD2    C1 7060   2.251   0.859  16.288 -0.4768  0.7347 -0.0719
  471MPD2    C2 7061   2.345   0.838  16.385 -0.6621 -0.2104 -0.0123
  471MPD2    C3 7062   2.327   0.913  16.502  0.4847  0.3604 -0.1886
  471MPD2    C4 7063   2.236   1.016  16.511 -0.4603  0.2632 -0.1535
  471MPD2    C5 7064   2.161   1.043  16.409  0.1093  0.7199  0.1408
  471MPD2     H 7065   2.419   0.759  16.386 -0.5476 -0.1388 -1.5905
  471MPD2    H1 7066   2.238   1.086  16.593 -1.7531  1.4203 -1.1290
  471MPD2    H2 7067   2.116   1.002  16.207  0.8293 -0.4449 -0.7854
  471MPD2    H3 7068   2.088   1.124  16.413  0.6380  1.2437 -0.7566
  471MPD2     N 7069   2.412   0.912  16.607 -0.2066 -0.5895 -0.0069
  471MPD2    H5 7070   2.380   0.945  16.697  1.2414  2.7558 -0.7093
  471MPD2    N1 7071   2.253   0.770  16.178 -0.0359 -0.2250 -0.2717
  471MPD2    H7 7072   2.329   0.702  16.174 -0.2850 -0.5569  0.5068
  472TMC3    C1 7073   2.176   0.639  15.999 -0.5296  0.0197 -0.1963
  472TMC3    C2 7074   2.080   0.623  15.902  0.6086  0.5295 -0.2679
  472TMC3    C3 7075   2.046   0.501  15.856  0.1703  0.2407  0.2096
  472TMC3    C4 7076   2.251   0.523  16.038 -0.0174 -0.1939  0.4718
  472TMC3    C5 7077   2.214   0.397  15.993  0.3412 -0.3393 -0.2064
  472TMC3    C6 7078   2.111   0.387  15.898 -0.2891 -0.3557  0.8277
  472TMC3     C 7079   2.159   0.759  16.079  0.8466  0.6096 -0.5849
  472TMC3     O 7080   2.047   0.805  16.067  0.5398 -0.3154  0.4025
  472TMC3     H 7081   2.026   0.708  15.861  2.7159  1.3029 -1.4298
  472TMC3    H1 7082   2.319   0.533  16.122 -0.8439 -1.9354  1.3514
  472TMC3    H2 7083   2.088   0.296  15.843  1.0000 -0.5616  0.6273
  472TMC3    C7 7084   2.203   0.302  16.098  0.3245 -0.7581  0.2236
  472TMC3    C8 7085   1.903   0.482  15.819 -0.8879  0.1570  0.1612
  472TMC3    O1 7086   2.230   0.336  16.211 -0.1498  0.3387 -0.0290
  472TMC3    O2 7087   1.841   0.566  15.755  0.2337  0.4940 -0.3563
  473MPD2     C 7088   2.282   2.663  13.606  0.0196 -0.0236 -0.5483
  473MPD2    C1 7089   2.242   2.782  13.553 -0.2662 -0.1183 -0.0819
  473MPD2    C2 7090   2.282   2.904  13.612  0.0996  0.8664  0.4874
  473MPD2    C3 7091   2.351   2.903  13.735 -0.1427 -0.6196 -0.1770
  473MPD2    C4 7092   2.386   2.782  13.783  0.2202  0.2718  0.7480
  473MPD2    C5 7093   2.361   2.671  13.715  0.1864 -0.0460 -0.4816
  473MPD2     H 7094   2.256   2.998  13.565 -0.5158  0.0784 -0.7171
  473MPD2    H1 7095   2.439   2.773  13.878 -1.6865  0.0820  1.7917
  473MPD2    H2 7096   2.241   2.567  13.579 -0.2162  0.6700 -2.6769
  473MPD2    H3 7097   2.386   2.579  13.767  2.2013  0.7120 -0.1060
  473MPD2     N 7098   2.384   3.017  13.812  1.1434  0.6790  0.1761
  473MPD2    H5 7099   2.440   3.010  13.896 -2.7827 -3.1224  2.4602
  473MPD2    N1 7100   2.152   2.782  13.441 -0.1015 -0.3635 -0.3964
  473MPD2    H7 7101   2.133   2.869  13.392 -1.1985 -0.9238 -0.9567
  474TMC3    C1 7102   2.367   3.248  13.891 -0.3037 -0.1711  0.5069
  474TMC3    C2 7103   2.281   3.348  13.920  0.3205 -0.7252 -0.0697
  474TMC3    C3 7104   2.322   3.441  14.005 -0.2059 -0.3095 -0.1183
  474TMC3    C4 7105   2.487   3.230  13.960  0.0196 -0.9100 -0.6923
  474TMC3    C5 7106   2.511   3.328  14.052 -0.8977  0.2319  0.2957
  474TMC3    C6 7107   2.435   3.434  14.074 -0.1674 -0.2983 -0.0321
  474TMC3     C 7108   2.327   3.145  13.793 -0.3218 -0.1325 -0.1885
  474TMC3     O 7109   2.247   3.179  13.709 -0.3076  0.4936  0.3041
  474TMC3     H 7110   2.181   3.360  13.880 -0.3904 -0.6821  1.7038
  474TMC3    H1 7111   2.550   3.142  13.964 -0.0574 -0.9208  0.3656
  474TMC3    H2 7112   2.461   3.507  14.150  0.0037  0.3813 -0.7439
  474TMC3    C7 7113   2.632   3.320  14.123 -0.5390  0.1784 -0.0708
  474TMC3    C8 7114   2.218   3.527  14.058 -0.2837 -0.1195 -0.3306
  474TMC3    O1 7115   2.719   3.263  14.062 -0.0022 -0.1321 -0.9670
  474TMC3    O2 7116   2.100   3.506  14.033  0.0464  0.1757 -0.4684
  475MPD2     C 7117   1.686   1.319  10.458 -0.4647  0.7005  0.9508
  475MPD2    C1 7118   1.589   1.253  10.389  0.3814 -0.2317 -0.0419
  475MPD2    C2 7119   1.459   1.284  10.415 -0.0844 -0.0691 -0.1310
  475MPD2    C3 7120   1.422   1.372  10.511  0.2194 -0.4953 -0.7461
  475MPD2    C4 7121   1.521   1.437  10.586  0.8407  0.7239  0.2656
  475MPD2    C5 7122   1.657   1.417  10.560 -0.5828 -0.0771  0.4841
  475MPD2     H 7123   1.383   1.247  10.347 -0.1035  2.7215 -1.6110
  475MPD2    H1 7124   1.494   1.485  10.679  0.5491  2.6062 -0.8040
  475MPD2    H2 7125   1.789   1.296  10.436 -1.2016  0.1264 -1.8480
  475MPD2    H3 7126   1.741   1.464  10.609  0.9154 -0.0036 -2.1766
  475MPD2     N 7127   1.286   1.405  10.534  0.1251  0.2237 -0.5017
  475MPD2    H5 7128   1.229   1.378  10.455 -1.5520  0.7432  0.5128
  475MPD2    N1 7129   1.617   1.174  10.269  0.1063 -0.4240 -0.3391
  475MPD2    H7 7130   1.715   1.169  10.244  0.8193  0.5400  2.2854
  476TMC3    C1 7131   1.564   1.073  10.055 -0.6983  0.0612 -0.3807
  476TMC3    C2 7132   1.469   1.038   9.974  0.0521  0.6061  0.5936
  476TMC3    C3 7133   1.459   1.099   9.848  0.4628 -0.1328  0.4101
  476TMC3    C4 7134   1.654   1.161  10.011  0.0401 -0.2857  0.6183
  476TMC3    C5 7135   1.649   1.230   9.895 -0.7495 -0.1361 -0.3619
  476TMC3    C6 7136   1.546   1.202   9.815  0.1692  0.2405 -0.2994
  476TMC3     C 7137   1.532   1.096  10.194  0.3165 -0.1993 -0.0750
  476TMC3     O 7138   1.413   1.064  10.213  0.0937  0.3257  0.3505
  476TMC3     H 7139   1.385   0.974   9.999  0.4094 -0.2445 -0.3808
  476TMC3    H1 7140   1.746   1.183  10.062 -0.0611  1.5237  0.0169
  476TMC3    H2 7141   1.529   1.269   9.731 -0.1658  1.0429  0.4091
  476TMC3    C7 7142   1.696   1.361   9.899  0.2313  0.7579 -0.1059
  476TMC3    C8 7143   1.316   1.118   9.810 -0.5484 -0.5464  0.4568
  476TMC3    O1 7144   1.746   1.410   9.796 -0.3639  0.1934 -0.5942
  476TMC3    O2 7145   1.239   1.117   9.901  0.0448  1.1326  0.2711
  477MPD2     C 7146   2.626   2.319  11.694 -0.2123  0.8043 -0.6670
  477MPD2    C1 7147   2.727   2.393  11.629 -0.0498  0.4290  0.6256
  477MPD2    C2 7148   2.862   2.366  11.664  0.0541  0.3594 -0.0168
  477MPD2    C3 7149   2.894   2.269  11.756 -0.5582 -0.1760 -0.5558
  477MPD2    C4 7150   2.789   2.212  11.821 -0.7936  0.3049 -0.0512
  477MPD2    C5 7151   2.660   2.234  11.795 -0.7270 -0.7571 -0.4402
  477MPD2     H 7152   2.940   2.422  11.613  0.3578 -1.1047 -1.1668
  477MPD2    H1 7153   2.809   2.133  11.893 -1.9997 -1.5106 -1.7062
  477MPD2    H2 7154   2.522   2.327  11.663 -0.9067 -0.8325  1.2589
  477MPD2    H3 7155   2.579   2.191  11.853  0.0787 -2.5370 -0.6301
  477MPD2     N 7156   3.023   2.223  11.784 -0.3326  1.1578 -0.0522
  477MPD2    H5 7157   3.033   2.156  11.860 -1.4869  0.7358 -0.2685
  477MPD2    N1 7158   2.688   2.494  11.535 -0.1280 -0.4768 -0.2321
  477MPD2    H7 7159   2.590   2.505  11.510 -0.4636 -0.1636  1.2149
  478TMC3    C1 7160   2.713   2.675  11.386 -0.1844 -0.1256 -0.7142
  478TMC3    C2 7161   2.712   2.805  11.413 -0.0689 -0.1786 -0.0401
  478TMC3    C3 7162   2.635   2.883  11.331  0.0972 -0.4509 -0.1130
  478TMC3    C4 7163   2.639   2.617  11.288 -0.2187 -0.2769 -0.3579
  478TMC3    C5 7164   2.566   2.694  11.205  0.0090 -0.5512 -0.2839
  478TMC3    C6 7165   2.560   2.833  11.225  0.4413  0.0898 -0.3291
  478TMC3     C 7166   2.770   2.587  11.475 -0.0393  0.1316 -0.5222
  478TMC3     O 7167   2.884   2.629  11.510 -0.3208  0.1888  0.1700
  478TMC3     H 7168   2.760   2.845  11.502  1.7029 -1.7928 -0.2629
  478TMC3    H1 7169   2.640   2.510  11.267  3.2189 -0.2736 -0.0981
  478TMC3    H2 7170   2.529   2.902  11.148  0.1696 -1.2169 -1.3980
  478TMC3    C7 7171   2.473   2.636  11.110 -0.1595  0.3758 -0.0301
  478TMC3    C8 7172   2.622   3.016  11.374  0.4065  0.0634 -0.1000
  478TMC3    O1 7173   2.476   2.513  11.105  0.4653  0.2668  0.1815
  478TMC3    O2 7174   2.704   3.070  11.447 -0.5059 -0.4684  0.1973
  479MPD2     C 7175   1.719   0.048  15.131  0.6999  0.6392 -0.4188
  479MPD2    C1 7176   1.718   0.006  15.262  0.1586  0.1725 -0.5570
  479MPD2    C2 7177   1.815   0.057  15.349 -0.6486  1.1024 -0.1986
  479MPD2    C3 7178   1.903   0.157  15.309  0.4121  0.1813 -0.4483
  479MPD2    C4 7179   1.914   0.187  15.177 -0.4900 -0.3069  0.1533
  479MPD2    C5 7180   1.819   0.133  15.091 -0.6370 -0.2711  0.0353
  479MPD2     H 7181   1.813   0.026  15.453  1.6864 -1.5216 -0.9096
  479MPD2    H1 7182   1.996   0.236  15.127 -0.7827  1.1657  1.1191
  479MPD2    H2 7183   1.663   0.010  15.046  1.7385 -1.1333 -0.3047
  479MPD2    H3 7184   1.820   0.150  14.984 -0.2911 -2.2936 -0.2898
  479MPD2     N 7185   1.999   0.217  15.393 -0.1463  0.1971  0.7781
  479MPD2    H5 7186   2.072   0.270  15.346 -0.8230  0.8044  0.4030
  479MPD2    N1 7187   1.625   4.637  15.294 -0.5084 -0.1580  0.2379
  479MPD2    H7 7188   1.578   4.604  15.211 -0.4429  2.1665 -0.7163
  480TMC3    C1 7189   1.696   0.131  15.716 -0.1586 -0.1434  0.1424
  480TMC3    C2 7190   1.593   0.197  15.658 -0.0514 -0.5280  0.2315
  480TMC3    C3 7191   1.625   0.293  15.562  1.0271 -0.1088 -0.0365
  480TMC3    C4 7192   1.820   0.147  15.680  0.4823  0.0945 -0.5763
  480TMC3    C5 7193   1.849   0.241  15.586  0.1286 -0.6054 -0.3100
  480TMC3    C6 7194   1.761   0.323  15.531 -0.2362 -0.2433  0.2846
  480TMC3     C 7195   1.680   0.030  15.817 -0.1922  0.6189 -0.5490
  480TMC3     O 7196   1.777   4.692  15.847 -0.2300  0.1847  0.6070
  480TMC3     H 7197   1.489   0.181  15.683  0.0801 -2.0155 -0.2008
  480TMC3    H1 7198   1.907   0.104  15.729 -2.0609 -1.6387  2.3877
  480TMC3    H2 7199   1.791   0.404  15.465  2.3142 -1.1911  0.2634
  480TMC3    C7 7200   1.986   0.238  15.525 -0.3916 -0.5036 -0.7429
  480TMC3    C8 7201   1.525   0.323  15.457  0.3047  0.1246 -0.5667
  480TMC3    O1 7202   2.074   0.261  15.605  0.4841  0.1627  0.3144
  480TMC3    O2 7203   1.407   0.309  15.479 -0.5815  0.0726 -0.1123
  481MPD2     C 7204   3.765   0.044  14.373 -0.6756  0.0541 -0.0041
  481MPD2    C1 7205   3.723   4.656  14.324  0.4533  0.2724 -0.2310
  481MPD2    C2 7206   3.743   4.545  14.403 -0.1663 -0.0528  0.4367
  481MPD2    C3 7207   3.803   4.549  14.528  1.4570  1.0091  0.3151
  481MPD2    C4 7208   3.852   4.666  14.561 -0.2564  1.3022  0.5109
  481MPD2    C5 7209   3.831   0.046  14.491  0.8364 -0.6194  0.1502
  481MPD2     H 7210   3.701   4.452  14.367 -0.4700  0.0916  0.4225
  481MPD2    H1 7211   3.913   4.681  14.649 -0.2101  0.6513  0.5892
  481MPD2    H2 7212   3.750   0.138  14.322 -0.5825 -1.1059 -2.1667
  481MPD2    H3 7213   3.886   0.133  14.524 -0.6377 -0.0404  1.0820
  481MPD2     N 7214   3.812   4.443  14.621 -0.1300  0.3524  0.0346
  481MPD2    H5 7215   3.840   4.460  14.717  0.8343  2.7075 -0.6715
  481MPD2    N1 7216   3.640   4.650  14.204 -0.1645 -0.3024 -0.4816
  481MPD2    H7 7217   3.624   0.000  14.151 -1.4916  0.6420  1.3881
  482TMC3    C1 7218   3.502   4.551  14.047  0.7909 -0.1178 -0.6055
  482TMC3    C2 7219   3.380   4.489  14.024 -0.6382  0.7260 -0.0057
  482TMC3    C3 7220   3.318   4.500  13.897 -0.1316  0.2658  0.2180
  482TMC3    C4 7221   3.553   4.628  13.946 -0.9935  0.2199 -0.7242
  482TMC3    C5 7222   3.492   4.628  13.823  0.0218  0.4914 -0.4748
  482TMC3    C6 7223   3.377   4.559  13.794 -0.4506 -0.2188 -0.0561
  482TMC3     C 7224   3.559   4.540  14.169  0.1746  0.4418 -0.0503
  482TMC3     O 7225   3.516   4.449  14.237  0.4144  0.0181  0.1387
  482TMC3     H 7226   3.335   4.433  14.105 -1.8516  0.6588 -0.7284
  482TMC3    H1 7227   3.650   4.672  13.968 -0.3714 -1.3449 -0.3730
  482TMC3    H2 7228   3.336   4.540  13.696 -2.6191  0.9106  0.6202
  482TMC3    C7 7229   3.560   4.699  13.716 -0.3658  0.1320  0.2398
  482TMC3    C8 7230   3.202   4.418  13.871  0.3252  0.2100 -0.1298
  482TMC3    O1 7231   3.618   0.069  13.744 -0.4607 -0.1409 -0.4389
  482TMC3    O2 7232   3.193   4.318  13.941 -0.2799  0.2815 -0.2229
  483TMC3    C1 7233   1.331   2.896   0.962 -0.0677  0.3653 -0.1721
  483TMC3    C2 7234   1.411   3.008   0.944  0.2247 -0.0832 -0.1299
  483TMC3    C3 7235   1.482   3.060   1.047  0.6400 -0.6889  0.1903
  483TMC3    C4 7236   1.334   2.824   1.078 -0.2766 -0.8175  0.3260
  483TMC3    C5 7237   1.410   2.871   1.178 -0.3983  0.1952  0.2785
  483TMC3    C6 7238   1.483   2.986   1.165  0.4938 -0.3396 -0.2152
  483TMC3     C 7239   1.208   2.886   0.885 -0.0165  0.2679 -0.3309
  483TMC3     O 7240   1.150   2.988   0.858 -0.2942 -0.1108  0.0854
  483TMC3     H 7241   1.398   3.070   0.856  2.4788 -1.8696 -1.7107
  483TMC3    H1 7242   1.259   2.746   1.088 -0.4621 -0.4288  1.9771
  483TMC3    H2 7243   1.543   3.003   1.254  0.8646 -0.6895 -0.3958
  483TMC3    C7 7244   1.449   2.786   1.294 -0.2867 -0.2281  0.2757
  483TMC3    C8 7245   1.577   3.147   1.006 -0.7051  0.3180  0.1869
  483TMC3    O1 7246   1.508   2.838   1.383 -0.0839  0.0977 -0.9123
  483TMC3    O2 7247   1.540   3.229   0.923 -0.8406  0.7156  0.2636
  484MPD2     C 7248   3.411   1.218  12.103  0.3877  0.5930 -0.5067
  484MPD2    C1 7249   3.494   1.196  12.211 -0.2269  0.1303  0.7615
  484MPD2    C2 7250   3.626   1.191  12.190 -0.0449 -0.1550  0.0965
  484MPD2    C3 7251   3.672   1.201  12.061  0.1902  0.2545 -0.1100
  484MPD2    C4 7252   3.590   1.218  11.953  0.7441 -0.0155 -0.2927
  484MPD2    C5 7253   3.452   1.229  11.976 -0.0026 -0.3016  0.0293
  484MPD2     H 7254   3.694   1.168  12.272 -0.3499  2.2421  1.0187
  484MPD2    H1 7255   3.637   1.233  11.856  0.1706  1.4633 -0.3339
  484MPD2    H2 7256   3.303   1.212  12.114  0.3800 -0.3558 -1.0675
  484MPD2    H3 7257   3.386   1.261  11.896 -1.3579 -1.4822  0.6772
  484MPD2     N 7258   3.809   1.203  12.030  0.5537  0.2563  0.4620
  484MPD2    H5 7259   3.843   1.237  11.941 -2.1929  0.2537 -0.6169
  484MPD2    N1 7260   3.449   1.162  12.341 -0.7576 -0.0488  0.2642
  484MPD2    H7 7261   3.525   1.139  12.405  0.0332 -1.1527 -1.0572
  485TMC3    C1 7262   4.033   1.164  12.054  0.2951 -0.3923  0.2289
  485TMC3    C2 7263   4.090   1.275  11.994 -0.4331  0.1871 -0.8490
  485TMC3    C3 7264   4.221   1.264  11.951 -0.3607  0.2790 -0.0885
  485TMC3    C4 7265   4.087   1.046  12.063  0.1148 -0.8461 -0.3682
  485TMC3    C5 7266   4.216   1.038  12.012  0.2231 -0.0630 -0.5692
  485TMC3    C6 7267   4.276   1.139  11.950  0.7416  0.3102  0.5214
  485TMC3     C 7268   3.904   1.161  12.114 -0.7353 -0.5803  0.4726
  485TMC3     O 7269   3.900   1.125  12.230  0.1753 -0.1466 -1.1709
  485TMC3     H 7270   4.053   1.375  12.012  0.9206  1.0393 -2.8159
  485TMC3    H1 7271   4.036   0.968  12.117 -0.8506  0.1696  0.1911
  485TMC3    H2 7272   4.366   1.115  11.894  0.2219  0.0897 -0.2178
  485TMC3    C7 7273   4.322   0.971  12.089 -0.5018  0.0894 -0.1163
  485TMC3    C8 7274   4.299   1.375  11.997 -0.3415  0.1412 -0.0206
  485TMC3    O1 7275   4.428   1.033  12.087  0.0925  0.0471 -0.4932
  485TMC3    O2 7276   4.257   1.488  11.984  0.2483  0.1533  0.7072
  486MPD2     C 7277   1.377   4.480  12.859 -0.0585  0.5115 -0.2906
  486MPD2    C1 7278   1.382   4.479  12.726 -0.0331  0.1441 -0.1230
  486MPD2    C2 7279   1.334   4.595  12.661 -0.1991 -0.2739 -0.2615
  486MPD2    C3 7280   1.288   4.706  12.726 -0.0671  0.6357 -0.5502
  486MPD2    C4 7281   1.298   4.706  12.866 -0.5783  0.6113 -0.0737
  486MPD2    C5 7282   1.344   4.592  12.932  0.9649 -1.0993 -0.5598
  486MPD2     H 7283   1.304   4.588  12.557 -1.1532  1.4822 -0.0955
  486MPD2    H1 7284   1.262   0.046  12.935 -0.3753  0.1615  0.5141
  486MPD2    H2 7285   1.404   4.386  12.907  1.1140  0.8076 -0.3711
  486MPD2    H3 7286   1.324   4.577  13.038 -0.1450  0.5806 -0.5405
  486MPD2     N 7287   1.239   0.084  12.655  0.0212 -0.2134  0.0057
  486MPD2    H5 7288   1.256   0.089  12.555 -0.2995  1.0017  0.0114
  486MPD2    N1 7289   1.403   4.352  12.657  0.1510  0.7086  0.1692
  486MPD2    H7 7290   1.411   4.271  12.718  1.3687 -0.6129 -1.7470
  487TMC3    C1 7291   1.422   4.195  12.485 -0.0454  0.2728  0.3953
  487TMC3    C2 7292   1.323   4.134  12.424  0.2206 -0.5785  0.6318
  487TMC3    C3 7293   1.291   4.006  12.453 -0.1859  0.1620 -0.2484
  487TMC3    C4 7294   1.489   4.132  12.583  0.8938 -0.0917 -0.5459
  487TMC3    C5 7295   1.442   4.014  12.626 -0.6881 -0.0810  0.0533
  487TMC3    C6 7296   1.368   3.932  12.544 -0.2577 -0.6236 -0.0980
  487TMC3     C 7297   1.398   4.334  12.521  0.0067  0.6442 -0.1615
  487TMC3     O 7298   1.380   4.416  12.430  0.4314  0.2856  0.5008
  487TMC3     H 7299   1.254   4.203  12.377  0.8077 -0.4028  0.0260
  487TMC3    H1 7300   1.579   4.178  12.622  0.6875  0.6858 -0.9920
  487TMC3    H2 7301   1.325   3.837  12.575 -1.8464  0.6187  1.5521
  487TMC3    C7 7302   1.406   4.030  12.766  0.4603  0.3946 -0.0947
  487TMC3    C8 7303   1.147   3.998  12.484  0.1753 -0.6777  1.2237
  487TMC3    O1 7304   1.443   4.137  12.815  0.8401  0.1767  0.1175
  487TMC3    O2 7305   1.079   4.096  12.510  0.1865 -0.1043  0.7988
  488MPD2     C 7306   1.581   1.707  16.254 -0.5820  0.5951 -0.3047
  488MPD2    C1 7307   1.627   1.813  16.324 -0.4472  0.5460 -0.0637
  488MPD2    C2 7308   1.627   1.806  16.464 -0.0733 -0.1705  0.2062
  488MPD2    C3 7309   1.556   1.708  16.528  0.1088  0.0567 -0.5462
  488MPD2    C4 7310   1.516   1.602  16.457  0.2332  0.1030 -0.8045
  488MPD2    C5 7311   1.531   1.605  16.321 -1.0982 -0.2790 -0.0398
  488MPD2     H 7312   1.671   1.884  16.525  1.2211  0.7610 -1.9160
  488MPD2    H1 7313   1.454   1.525  16.501  0.7508 -0.6058 -1.3154
  488MPD2    H2 7314   1.580   1.713  16.146  2.0536  0.2772 -0.3373
  488MPD2    H3 7315   1.492   1.521  16.263 -1.5902 -1.5692  2.1835
  488MPD2     N 7316   1.544   1.709  16.669  0.0453  0.1836 -0.5524
  488MPD2    H5 7317   1.594   1.779  16.723  0.3360 -0.5868  0.1763
  488MPD2    N1 7318   1.673   1.930  16.260  0.1084  0.5428 -0.2963
  488MPD2    H7 7319   1.699   2.006  16.322 -0.3735  0.2504  0.2571
  489TMC3    C1 7320   1.463   1.692  16.888  0.1882 -0.0815 -0.1072
  489TMC3    C2 7321   1.491   1.826  16.921 -0.0312 -0.6376  0.0961
  489TMC3    C3 7322   1.473   1.875  17.047 -0.1757  0.0599 -0.1734
  489TMC3    C4 7323   1.433   1.608  16.990 -0.1378  0.4669  0.2327
  489TMC3    C5 7324   1.417   1.661  17.114  1.2547  0.4327 -0.1867
  489TMC3    C6 7325   1.441   1.792  17.151  0.2467 -0.4600 -0.3284
  489TMC3     C 7326   1.464   1.640  16.753 -0.2175 -0.3352 -0.0189
  489TMC3     O 7327   1.388   1.551  16.720 -0.0067  0.2062 -0.1795
  489TMC3     H 7328   1.507   1.902  16.846 -0.5415  2.2677  2.9309
  489TMC3    H1 7329   1.425   1.502  16.965  2.9796 -0.2453  2.2831
  489TMC3    H2 7330   1.438   1.816  17.257 -2.3858  2.1335 -0.9835
  489TMC3    C7 7331   1.392   1.567  17.220 -0.0431 -0.3040 -0.9007
  489TMC3    C8 7332   1.544   1.996  17.074  0.0064 -0.2091  0.4969
  489TMC3    O1 7333   1.437   1.592  17.328 -0.0011 -0.1145 -0.2646
  489TMC3    O2 7334   1.634   2.021  16.996  0.3136 -0.0036  0.1589
  490MPD2     C 7335   2.354   1.676  17.229  1.0082 -0.0192 -0.3486
  490MPD2    C1 7336   2.319   1.571  17.308  0.0296  0.1698 -0.1226
  490MPD2    C2 7337   2.368   1.562  17.443 -0.0692 -0.1423  0.0206
  490MPD2    C3 7338   2.447   1.660  17.497 -0.0970 -0.4683  0.4468
  490MPD2    C4 7339   2.487   1.757  17.409 -0.3135 -0.6284  0.1964
  490MPD2    C5 7340   2.438   1.770  17.277  0.2918 -0.3612 -1.2949
  490MPD2     H 7341   2.329   1.479  17.502 -0.6277 -0.8551 -1.3693
  490MPD2    H1 7342   2.541   1.841  17.451 -0.4211  0.2562 -1.4251
  490MPD2    H2 7343   2.332   1.689  17.123 -2.5440  1.3934  0.5824
  490MPD2    H3 7344   2.462   1.860  17.220  0.4171  1.4860  1.6453
  490MPD2     N 7345   2.497   1.649  17.628 -0.1233  0.4748 -0.1835
  490MPD2    H5 7346   2.565   1.719  17.654 -1.4739  1.4331  0.7560
  490MPD2    N1 7347   2.234   1.464  17.265 -0.0728 -0.3150  0.7626
  490MPD2    H7 7348   2.217   1.396  17.339  1.0259  0.1556  1.4487
  491TMC3    C1 7349   2.097   1.328  17.129 -0.3758  0.3166 -0.1731
  491TMC3    C2 7350   2.115   1.222  17.212 -0.1431  0.0047  0.2342
  491TMC3    C3 7351   2.048   1.106  17.188  0.2880 -0.4075 -0.3824
  491TMC3    C4 7352   2.015   1.323  17.024 -0.7637  0.2470 -0.4285
  491TMC3    C5 7353   1.934   1.211  17.014 -0.7544 -0.3855 -0.6391
  491TMC3    C6 7354   1.950   1.112  17.099 -0.5144  0.5589 -0.1458
  491TMC3     C 7355   2.165   1.456  17.145 -0.4444 -0.1284  0.0068
  491TMC3     O 7356   2.164   1.536  17.055 -0.0440 -0.0617 -0.2726
  491TMC3     H 7357   2.189   1.222  17.291  0.5899 -0.9479 -0.4561
  491TMC3    H1 7358   1.998   1.415  16.970  0.5461 -0.6354 -2.3374
  491TMC3    H2 7359   1.893   1.021  17.079  1.2185 -0.2195 -1.5754
  491TMC3    C7 7360   1.876   1.186  16.887 -0.6587 -0.5094  0.0587
  491TMC3    C8 7361   2.064   0.989  17.268 -0.1398 -0.3132 -1.2536
  491TMC3    O1 7362   1.825   1.073  16.872 -0.3579 -0.3558 -0.3506
  491TMC3    O2 7363   1.959   0.938  17.307  0.1072  0.2662 -0.5790
  492MPD2     C 7364   2.483   1.309  11.873 -0.1588  0.1026 -0.3754
  492MPD2    C1 7365   2.435   1.254  11.753  0.1689 -0.9386 -0.2997
  492MPD2    C2 7366   2.385   1.129  11.759  0.2664  0.1276 -0.6036
  492MPD2    C3 7367   2.384   1.050  11.874 -0.4639  0.1680 -0.3879
  492MPD2    C4 7368   2.426   1.113  11.990 -0.8208 -0.5343  0.1256
  492MPD2    C5 7369   2.473   1.238  11.987  0.5767  0.9657 -0.3188
  492MPD2     H 7370   2.352   1.079  11.668 -0.1006 -0.7649  0.0122
  492MPD2    H1 7371   2.428   1.062  12.085  1.3431  1.3958  1.1037
  492MPD2    H2 7372   2.505   1.415  11.873  0.1248  0.0387  0.6525
  492MPD2    H3 7373   2.508   1.274  12.084 -3.6837 -0.1329  1.6461
  492MPD2     N 7374   2.336   0.920  11.884 -0.2297  0.4072 -0.0176
  492MPD2    H5 7375   2.343   0.889  11.980  4.4703 -2.3257 -1.2312
  492MPD2    N1 7376   2.449   1.330  11.632  0.2698 -0.0768  0.3187
  492MPD2    H7 7377   2.518   1.404  11.644  0.5058  0.0308 -1.7532
  493TMC3    C1 7378   2.454   1.361  11.389 -1.1750 -0.3613  0.1508
  493TMC3    C2 7379   2.491   1.490  11.410 -0.0925 -0.3390  0.2170
  493TMC3    C3 7380   2.506   1.573  11.302  0.0944 -0.2231  0.5917
  493TMC3    C4 7381   2.427   1.313  11.266  0.3012  0.0888 -0.3034
  493TMC3    C5 7382   2.444   1.396  11.157 -1.1992 -0.1062  0.4499
  493TMC3    C6 7383   2.474   1.530  11.172 -0.5068 -0.3902  0.3593
  493TMC3     C 7384   2.411   1.288  11.501 -0.0341 -0.4592  0.5241
  493TMC3     O 7385   2.321   1.209  11.483  0.1639  0.1929 -0.8336
  493TMC3     H 7386   2.507   1.536  11.507 -1.2648  1.5968 -0.4923
  493TMC3    H1 7387   2.399   1.212  11.241 -2.1068  0.8928 -0.8302
  493TMC3    H2 7388   2.478   1.596  11.086  2.2809 -1.0506 -0.0126
  493TMC3    C7 7389   2.360   1.363  11.052  0.2782  0.3354 -0.4233
  493TMC3    C8 7390   2.544   1.707  11.338 -0.0850 -0.6475  0.2847
  493TMC3    O1 7391   2.380   1.246  11.003 -0.2191  0.0140  0.3096
  493TMC3    O2 7392   2.538   1.744  11.456  0.0298 -0.5990 -0.3810
  494TMC3    C1 7393   2.706   3.465   0.246  0.3983 -0.1245 -0.4703
  494TMC3    C2 7394   2.746   3.358   0.315  0.1614 -0.2141 -0.6242
  494TMC3    C3 7395   2.863   3.288   0.281  0.8844  0.1707  0.5695
  494TMC3    C4 7396   2.777   3.513   0.144  0.1226  0.3926 -0.3409
  494TMC3    C5 7397   2.900   3.460   0.114 -0.3133 -0.0373 -0.0857
  494TMC3    C6 7398   2.943   3.344   0.188 -0.0230 -0.5940 -0.5532
  494TMC3     C 7399   2.648   3.572   0.331 -0.0977  0.4113  0.1276
  494TMC3     O 7400   2.570   3.522   0.416 -0.2026 -0.0028 -0.4568
  494TMC3     H 7401   2.677   3.325   0.391  0.4653 -1.0265 -0.7044
  494TMC3    H1 7402   2.738   3.597   0.089 -0.6539  0.0477 -0.3230
  494TMC3    H2 7403   3.040   3.302   0.164  0.7965  0.4731  0.8743
  494TMC3    C7 7404   2.990   3.516   0.013 -0.5816  0.2211  0.2041
  494TMC3    C8 7405   2.919   3.175   0.353  0.0716  0.6061 -0.1532
  494TMC3    O1 7406   3.104   3.474   0.007  0.4215  0.0761 -0.5269
  494TMC3    O2 7407   3.039   3.171   0.352  0.1027 -0.6250 -0.3254
  495TMC3    C1 7408   2.088   0.359  14.721  0.2832 -0.0907  0.2551
  495TMC3    C2 7409   2.037   0.369  14.594 -0.2716  0.2625  0.1066
  495TMC3    C3 7410   1.913   0.431  14.567 -0.4581  0.6919 -0.8901
  495TMC3    C4 7411   2.024   0.426  14.821 -0.3685  0.1222 -0.1417
  495TMC3    C5 7412   1.906   0.490  14.799 -0.9128  0.3023 -0.1821
  495TMC3    C6 7413   1.851   0.494  14.678  0.4831 -0.0166 -0.3560
  495TMC3     C 7414   2.089   0.219  14.747 -0.1916  0.1186  0.5293
  495TMC3     O 7415   1.989   0.181  14.809  0.1017  0.0346  0.7131
  495TMC3     H 7416   2.093   0.335  14.508 -0.4488  0.3446 -0.0425
  495TMC3    H1 7417   2.046   0.408  14.926  1.4916  0.3035 -0.5029
  495TMC3    H2 7418   1.768   0.557  14.649 -0.4856 -0.7416  0.8238
  495TMC3    C7 7419   1.822   0.489  14.914 -0.2229 -0.1645  0.3670
  495TMC3    C8 7420   1.817   0.348  14.492  0.3169  0.4323  0.4954
  495TMC3    O1 7421   1.873   0.521  15.025 -0.0227  0.6518  0.5388
  495TMC3    O2 7422   1.699   0.373  14.513 -0.2058  0.1384  0.0955
  496MPD2     C 7423   3.694   0.584  15.136  0.6509  0.2739 -0.2673
  496MPD2    C1 7424   3.755   0.515  15.238  0.4209 -0.1229  0.0402
  496MPD2    C2 7425   3.690   0.409  15.306  0.0701  0.1178 -0.2676
  496MPD2    C3 7426   3.558   0.387  15.298  0.0708 -0.4716  0.3104
  496MPD2    C4 7427   3.491   0.471  15.204 -0.6652  0.3273 -0.2535
  496MPD2    C5 7428   3.556   0.566  15.126 -0.2997 -0.1335  0.3841
  496MPD2     H 7429   3.736   0.346  15.381  2.0637 -0.2338 -1.8072
  496MPD2    H1 7430   3.386   0.460  15.179 -1.0032  3.6014 -0.3374
  496MPD2    H2 7431   3.740   0.664  15.080  3.8187 -0.1680  1.6659
  496MPD2    H3 7432   3.516   0.619  15.040 -0.1299 -0.2586  0.2273
  496MPD2     N 7433   3.506   0.280  15.376  0.1082  0.2115 -0.2489
  496MPD2    H5 7434   3.579   0.226  15.422  1.0381  1.0023 -0.8150
  496MPD2    N1 7435   3.888   0.542  15.268  0.1297  1.0478 -0.0615
  496MPD2    H7 7436   3.932   0.597  15.195  0.9160  1.3370  0.6292
  497TMC3    C1 7437   3.334   0.135  15.467 -0.4233 -0.3972  0.0644
  497TMC3    C2 7438   3.274   0.028  15.408 -0.1926  1.1362 -0.0071
  497TMC3    C3 7439   3.297   4.636  15.449  0.5389  0.4413 -0.7308
  497TMC3    C4 7440   3.412   0.117  15.579  0.2739  0.4024 -0.1237
  497TMC3    C5 7441   3.421   4.725  15.632 -0.0512 -0.1505 -0.0675
  497TMC3    C6 7442   3.362   4.621  15.567 -0.2379 -0.7239 -0.1543
  497TMC3     C 7443   3.368   0.251  15.388 -0.3917  0.0944 -0.1518
  497TMC3     O 7444   3.277   0.309  15.340 -0.1724 -0.2454 -0.2379
  497TMC3     H 7445   3.243   0.046  15.306 -1.0662 -0.3900 -0.0051
  497TMC3    H1 7446   3.453   0.211  15.614  1.4400  0.4331 -1.5664
  497TMC3    H2 7447   3.376   4.520  15.604 -0.1152 -0.6392  0.0323
  497TMC3    C7 7448   3.488   4.711  15.757 -0.2808  0.0244  0.2142
  497TMC3    C8 7449   3.269   4.532  15.355 -0.8839 -0.3186 -0.4426
  497TMC3    O1 7450   3.467   4.613  15.829 -0.6900  0.0270 -0.0318
  497TMC3    O2 7451   3.174   4.559  15.282  0.1446 -0.3301  0.1486
  498MPD2     C 7452   0.333   0.874   9.880  0.3469 -0.2783 -0.5565
  498MPD2    C1 7453   0.272   0.945   9.772  0.3201  0.2559 -0.5261
  498MPD2    C2 7454   0.140   0.960   9.766 -0.5087 -0.1708 -0.4944
  498MPD2    C3 7455   0.053   0.907   9.861  0.2267 -0.2698  0.2452
  498MPD2    C4 7456   0.108   0.826   9.961 -0.5055  0.9893  0.0489
  498MPD2    C5 7457   0.249   0.814   9.968 -0.4986 -0.0053 -0.3577
  498MPD2     H 7458   0.098   1.011   9.679  2.1293  0.7821 -1.2147
  498MPD2    H1 7459   0.052   0.775  10.038 -0.3927 -1.2486 -1.3438
  498MPD2    H2 7460   0.438   0.848   9.870  0.4266 -0.0961 -0.2063
  498MPD2    H3 7461   0.292   0.742  10.036 -0.0287  0.5427 -0.0702
  498MPD2     N 7462   4.648   0.917   9.840  0.5281  0.5214 -0.2026
  498MPD2    H5 7463   4.629   0.951   9.746 -2.9648 -0.8347  0.0248
  498MPD2    N1 7464   0.352   1.013   9.674 -0.1298 -0.5233 -0.2908
  498MPD2    H7 7465   0.300   1.058   9.599 -1.2669 -0.6610  0.4232
  499TMC3    C1 7466   0.536   1.078   9.548 -0.2250 -0.3504  0.2473
  499TMC3    C2 7467   0.658   1.046   9.493 -0.5816 -0.6803 -0.9237
  499TMC3    C3 7468   0.720   1.130   9.406 -0.6285 -0.2947  0.5044
  499TMC3    C4 7469   0.470   1.190   9.510 -0.0562  0.8122  0.1663
  499TMC3    C5 7470   0.526   1.261   9.404 -0.3071  0.6587  0.0270
  499TMC3    C6 7471   0.648   1.237   9.358  0.0504  0.9064  0.2730
  499TMC3     C 7472   0.489   1.000   9.656 -0.2859 -0.1076  0.2934
  499TMC3     O 7473   0.578   0.942   9.721  0.3374 -0.1524 -0.0926
  499TMC3     H 7474   0.705   0.954   9.527 -0.0104 -0.1859 -0.3743
  499TMC3    H1 7475   0.394   1.232   9.575  1.4137  1.4552  1.4855
  499TMC3    H2 7476   0.706   1.307   9.300  0.6143  0.0656 -0.1690
  499TMC3    C7 7477   0.470   1.389   9.379  0.2830 -0.3007 -0.3801
  499TMC3    C8 7478   0.841   1.087   9.336  0.3444  0.4415 -0.6457
  499TMC3    O1 7479   0.548   1.474   9.341 -0.4869  0.0351 -0.1320
  499TMC3    O2 7480   0.844   1.123   9.220  0.3081 -0.3605 -0.4211
  500MPD2     C 7481   1.809   2.052   9.855 -0.0684  0.8033 -0.3523
  500MPD2    C1 7482   1.692   2.066   9.920  0.3397 -0.7344 -0.0161
  500MPD2    C2 7483   1.576   2.017   9.863 -0.4145 -0.5941  0.0074
  500MPD2    C3 7484   1.578   1.951   9.739 -0.1681 -0.8110  0.5863
  500MPD2    C4 7485   1.698   1.946   9.674 -0.7681 -0.4912  0.7695
  500MPD2    C5 7486   1.815   1.987   9.735  0.0860 -0.8243  0.4041
  500MPD2     H 7487   1.482   2.035   9.913 -0.4637  0.6786 -0.5419
  500MPD2    H1 7488   1.706   1.913   9.571 -1.5718 -0.9038  0.8404
  500MPD2    H2 7489   1.898   2.083   9.909  0.8126 -3.3705  0.6434
  500MPD2    H3 7490   1.903   1.989   9.673 -1.0752 -0.5599 -1.2217
  500MPD2     N 7491   1.465   1.903   9.671 -0.1155  0.1571 -0.3705
  500MPD2    H5 7492   1.477   1.875   9.574 -0.8742  2.0082 -0.9875
  500MPD2    N1 7493   1.679   2.127  10.048 -0.3689 -0.0328 -0.3083
  500MPD2    H7 7494   1.584   2.143  10.081 -0.0046  0.7534  0.3591
  501TMC3    C1 7495   1.722   2.236  10.245 -0.3840 -0.2758  0.3787
  501TMC3    C2 7496   1.610   2.309  10.224 -0.3509 -0.1492  0.1287
  501TMC3    C3 7497   1.554   2.369  10.338  0.1957 -0.3908  0.7153
  501TMC3    C4 7498   1.777   2.211  10.370 -0.7515  1.1800 -0.0347
  501TMC3    C5 7499   1.711   2.258  10.481  0.5811  0.3547 -0.6996
  501TMC3    C6 7500   1.591   2.327  10.459 -0.0713  0.6227 -0.0870
  501TMC3     C 7501   1.776   2.174  10.129  0.3984  0.2043 -0.1939
  501TMC3     O 7502   1.897   2.162  10.118 -0.2484  0.1787 -0.5899
  501TMC3     H 7503   1.566   2.333  10.128  4.6546  3.9010 -1.1703
  501TMC3    H1 7504   1.876   2.166  10.381 -0.4653  2.1926  1.4734
  501TMC3    H2 7505   1.541   2.381  10.540 -2.4729 -1.9741  0.1583
  501TMC3    C7 7506   1.799   2.292  10.590  0.3976  0.6064 -0.8654
  501TMC3    C8 7507   1.548   2.517  10.341  0.0655  0.7123  0.0822
  501TMC3    O1 7508   1.883   2.205  10.623 -0.9380  0.1724  0.2998
  501TMC3    O2 7509   1.556   2.571  10.450  0.0169  0.3925  0.0158
  502TMC3    C1 7510   0.935   0.968  14.627 -0.4661  0.3928 -0.2281
  502TMC3    C2 7511   0.876   1.089  14.630  0.4506 -0.1937 -0.5539
  502TMC3    C3 7512   0.754   1.098  14.688 -0.7241  0.2764  0.0649
  502TMC3    C4 7513   0.897   0.871  14.710 -0.1975 -0.2922 -0.6446
  502TMC3    C5 7514   0.783   0.885  14.779 -0.0949  0.6584 -0.4454
  502TMC3    C6 7515   0.702   0.986  14.755  0.3904  0.3041  0.6039
  502TMC3     C 7516   1.077   0.976  14.646 -0.2116 -0.4806  0.0763
  502TMC3     O 7517   1.155   0.928  14.567 -0.0355  0.1012  0.5338
  502TMC3     H 7518   0.920   1.173  14.579 -0.2942 -0.8661 -2.2871
  502TMC3    H1 7519   0.962   0.785  14.724 -0.6343 -0.2690  1.5002
  502TMC3    H2 7520   0.601   0.990  14.792 -0.2184  1.0153 -1.1222
  502TMC3    C7 7521   0.785   0.832  14.912 -0.1175 -0.2894  0.3101
  502TMC3    C8 7522   0.728   1.224  14.752  0.8440  0.4085  0.5302
  502TMC3    O1 7523   0.896   0.798  14.949  0.2545  0.2347  0.3626
  502TMC3    O2 7524   0.782   1.320  14.708 -0.2031 -0.1720 -0.2059
  503MPD2     C 7525   3.327   2.193  16.926 -0.1424  0.0102  0.9110
  503MPD2    C1 7526   3.364   2.241  17.048 -0.0746 -0.1176 -0.4662
  503MPD2    C2 7527   3.418   2.152  17.139 -0.1087 -1.2915  0.5259
  503MPD2    C3 7528   3.448   2.025  17.101  0.3290 -0.1443  0.1993
  503MPD2    C4 7529   3.404   1.983  16.973 -0.2177 -0.0656  0.3228
  503MPD2    C5 7530   3.347   2.069  16.887 -0.0570 -0.4460 -0.5088
  503MPD2     H 7531   3.445   2.182  17.240  0.6570  2.3910 -0.7589
  503MPD2    H1 7532   3.418   1.886  16.929 -0.0079 -0.4045  1.1319
  503MPD2    H2 7533   3.285   2.267  16.860  0.7739 -0.6974 -0.4570
  503MPD2    H3 7534   3.321   2.044  16.785 -1.0057 -0.8821 -0.1693
  503MPD2     N 7535   3.520   1.945  17.188  0.2069  0.8115 -0.4560
  503MPD2    H5 7536   3.556   1.984  17.275 -0.3244  2.7591 -1.0917
  503MPD2    N1 7537   3.360   2.372  17.094 -0.0815 -0.3930 -0.1380
  503MPD2    H7 7538   3.389   2.391  17.189 -0.4055 -1.6278  0.2116
  504TMC3    C1 7539   3.648   1.748  17.265 -0.4220 -0.2019  0.0966
  504TMC3    C2 7540   3.600   1.753  17.398  0.4894 -0.3686  0.5749
  504TMC3    C3 7541   3.642   1.648  17.471  0.0380  0.2527  0.0936
  504TMC3    C4 7542   3.728   1.645  17.223 -0.2667  0.5694 -0.1887
  504TMC3    C5 7543   3.741   1.532  17.299 -0.6376  0.3787 -0.6557
  504TMC3    C6 7544   3.694   1.533  17.423 -0.4579  0.3564 -0.3152
  504TMC3     C 7545   3.566   1.816  17.163  0.4562  0.4260  0.3309
  504TMC3     O 7546   3.568   1.755  17.058  0.0236 -0.8584  0.4573
  504TMC3     H 7547   3.540   1.831  17.442  0.7444 -0.8620  1.8043
  504TMC3    H1 7548   3.767   1.643  17.122 -1.8890  1.1028 -0.8387
  504TMC3    H2 7549   3.723   1.467  17.504  2.4688  0.2098 -1.4854
  504TMC3    C7 7550   3.842   1.443  17.259 -0.5359 -0.7987 -0.4466
  504TMC3    C8 7551   3.655   1.690  17.608 -0.6620  0.7125  0.3014
  504TMC3    O1 7552   3.931   1.487  17.185 -0.3455  0.2907  0.8099
  504TMC3    O2 7553   3.736   1.780  17.624 -0.6511 -0.2066 -0.1565
  505MPD2     C 7554   3.607   1.659  10.300 -0.3317  0.0206 -0.3426
  505MPD2    C1 7555   3.533   1.562  10.244 -0.4822 -0.3166  0.0793
  505MPD2    C2 7556   3.528   1.435  10.306 -0.3911 -0.1344  0.3013
  505MPD2    C3 7557   3.591   1.416  10.432  0.5082  0.2973 -0.0130
  505MPD2    C4 7558   3.672   1.513  10.476  0.0233 -0.0507  0.2240
  505MPD2    C5 7559   3.684   1.636  10.407  0.3070 -0.1286 -0.1743
  505MPD2     H 7560   3.484   1.348  10.259  0.0395 -0.3508  0.3005
  505MPD2    H1 7561   3.740   1.496  10.559  1.0013  0.2344 -0.5101
  505MPD2    H2 7562   3.624   1.755  10.254  0.4151 -0.1301 -0.3879
  505MPD2    H3 7563   3.747   1.713  10.449  1.1446 -0.5102 -0.7275
  505MPD2     N 7564   3.575   1.298  10.513  0.2413  0.1589  0.7080
  505MPD2    H5 7565   3.643   1.269  10.583  0.1271  0.4553  0.9408
  505MPD2    N1 7566   3.472   1.594  10.121 -0.7326 -0.8847 -0.1335
  505MPD2    H7 7567   3.489   1.686  10.081  0.6983 -0.5644  1.1953
  506TMC3    C1 7568   3.334   1.546   9.930  0.4548  0.2277  0.6047
  506TMC3    C2 7569   3.445   1.548   9.856  0.8205  0.3964  0.4822
  506TMC3    C3 7570   3.441   1.472   9.742 -0.2575 -0.1975  0.3969
  506TMC3    C4 7571   3.216   1.482   9.891 -0.4963  0.1102  0.2173
  506TMC3    C5 7572   3.221   1.404   9.779 -0.4271 -1.2050  0.7777
  506TMC3    C6 7573   3.338   1.394   9.709 -0.2362 -0.2464  0.4644
  506TMC3     C 7574   3.365   1.520  10.074 -0.1803  0.3822 -0.1228
  506TMC3     O 7575   3.310   1.426  10.123 -0.2645  0.6077  0.4077
  506TMC3     H 7576   3.530   1.611   9.878  0.8640  0.7821 -0.7964
  506TMC3    H1 7577   3.124   1.494   9.947 -0.3680 -0.6874  0.5995
  506TMC3    H2 7578   3.339   1.329   9.623 -0.4527  0.0676  0.2231
  506TMC3    C7 7579   3.182   1.267   9.812  0.3598 -0.3521 -0.0716
  506TMC3    C8 7580   3.543   1.465   9.642 -0.7885  0.3784 -1.1233
  506TMC3    O1 7581   3.137   1.203   9.717  0.0612  0.0414 -0.2584
  506TMC3    O2 7582   3.504   1.468   9.525  0.2476  0.8937 -0.1952
  507TMC3    C1 7583   0.005   1.345  14.532 -0.1474  0.1789  0.4090
  507TMC3    C2 7584   4.635   1.255  14.526  0.2576 -0.0753 -0.3372
  507TMC3    C3 7585   4.568   1.239  14.405  0.7415  0.0191 -0.2185
  507TMC3    C4 7586   0.040   1.418  14.424 -0.2429  0.5693  0.2880
  507TMC3    C5 7587   4.691   1.418  14.312 -0.3542 -0.7635 -0.3532
  507TMC3    C6 7588   4.591   1.323  14.306  0.2465 -0.4630 -0.4219
  507TMC3     C 7589   0.035   1.401  14.663 -0.5616 -0.2513  0.5901
  507TMC3     O 7590   0.118   1.492  14.665 -0.1584 -0.0753 -0.1459
  507TMC3     H 7591   4.610   1.192  14.611  0.1746  0.1537 -0.1885
  507TMC3    H1 7592   0.120   1.488  14.443  1.0547 -0.4616 -1.3561
  507TMC3    H2 7593   4.525   1.315  14.220  0.7863 -0.0566 -0.8760
  507TMC3    C7 7594   4.660   1.545  14.256  1.0808  0.5284 -0.3982
  507TMC3    C8 7595   4.431   1.236  14.430  0.1399  0.1760 -0.1228
  507TMC3    O1 7596   4.550   1.561  14.207  0.1787  0.2286 -0.1382
  507TMC3    O2 7597   4.391   1.163  14.520  0.3330 -0.0012  0.4247
  508MPD2     C 7598   0.815   3.396  15.624  0.1273 -0.1470 -0.4862
  508MPD2    C1 7599   0.795   3.517  15.691 -0.0239  1.3563 -0.3019
  508MPD2    C2 7600   0.766   3.633  15.620  0.1288 -0.3294  0.3739
  508MPD2    C3 7601   0.773   3.626  15.486  0.0536  0.1748 -0.8933
  508MPD2    C4 7602   0.813   3.509  15.420 -0.1809  0.4599 -0.5499
  508MPD2    C5 7603   0.825   3.395  15.489  0.2642  0.3682 -0.0862
  508MPD2     H 7604   0.759   3.727  15.673 -1.3071  0.4542 -1.2308
  508MPD2    H1 7605   0.838   3.502  15.315 -1.1275 -0.6929 -0.6964
  508MPD2    H2 7606   0.843   3.305  15.675  1.3261 -0.2034 -1.2512
  508MPD2    H3 7607   0.851   3.309  15.429 -0.0843  0.2963 -0.1319
  508MPD2     N 7608   0.774   3.747  15.414  0.2397  0.0735 -0.2829
  508MPD2    H5 7609   0.775   3.827  15.478  0.7246 -2.3716  2.7692
  508MPD2    N1 7610   0.793   3.519  15.831 -0.2175  0.2020  0.8426
  508MPD2    H7 7611   0.832   3.437  15.876  0.3218  0.7388  1.3410
  509TMC3    C1 7612   0.830   4.096  15.138  0.7177  0.1704 -0.2833
  509TMC3    C2 7613   0.869   4.166  15.246 -0.2703  0.0228 -0.2017
  509TMC3    C3 7614   0.907   4.104  15.367 -0.2364  0.2229 -0.1664
  509TMC3    C4 7615   0.825   3.958  15.142 -0.2148  0.2421  0.0424
  509TMC3    C5 7616   0.848   3.898  15.265  0.8173 -0.4413 -0.0087
  509TMC3    C6 7617   0.904   3.964  15.376  0.7809 -0.4317  0.2981
  509TMC3     C 7618   0.744   4.153  15.035 -0.4655 -0.2802 -0.4822
  509TMC3     O 7619   0.736   4.099  14.928  0.2665 -0.1149  0.2717
  509TMC3     H 7620   0.890   4.272  15.239  1.9028 -0.2746  1.7913
  509TMC3    H1 7621   0.793   3.891  15.062  2.1958 -0.1135 -0.6062
  509TMC3    H2 7622   0.924   3.921  15.473  0.4128  1.3035  1.1513
  509TMC3    C7 7623   0.818   3.761  15.287  0.1507  0.0952  0.3027
  509TMC3    C8 7624   0.998   4.167  15.455 -0.1422  1.4357 -0.0997
  509TMC3    O1 7625   0.816   3.691  15.188  0.1328  0.5836  0.5489
  509TMC3    O2 7626   1.060   4.085  15.519  0.1302  0.5660  0.0042
  510MPD2     C 7627   3.362   0.916  14.618 -0.0151 -0.6493  0.0094
  510MPD2    C1 7628   3.397   0.794  14.663  0.4118  0.0531 -0.3235
  510MPD2    C2 7629   3.515   0.742  14.614  0.2298 -0.1451 -0.6897
  510MPD2    C3 7630   3.594   0.807  14.523 -0.2305 -0.2471 -0.4702
  510MPD2    C4 7631   3.552   0.928  14.477 -0.7056  0.1601  0.0253
  510MPD2    C5 7632   3.436   0.981  14.524 -0.4101 -0.5095 -0.1399
  510MPD2     H 7633   3.558   0.650  14.653 -0.1499 -0.6156 -1.4022
  510MPD2    H1 7634   3.605   1.001  14.416  0.1328  0.2929  0.9128
  510MPD2    H2 7635   3.270   0.968  14.640  0.5637  1.3658 -2.3875
  510MPD2    H3 7636   3.414   1.083  14.493 -1.9270 -1.1906 -1.2956
  510MPD2     N 7637   3.719   0.745  14.489 -0.4888  0.2516 -0.1750
  510MPD2    H5 7638   3.736   0.655  14.533 -1.9957 -0.7772 -1.7013
  510MPD2    N1 7639   3.305   0.726  14.750 -0.1102 -0.6846 -0.0057
  510MPD2    H7 7640   3.212   0.765  14.757  0.6471  1.5642 -2.2990
  511TMC3    C1 7641   3.223   0.545  14.872 -0.3987 -0.3469  0.1126
  511TMC3    C2 7642   3.175   0.599  14.988  0.6742 -0.3020  0.1050
  511TMC3    C3 7643   3.123   0.516  15.084 -0.8279  0.2437 -0.2669
  511TMC3    C4 7644   3.226   0.407  14.858 -0.4562 -0.5931  0.1772
  511TMC3    C5 7645   3.162   0.327  14.955 -0.0205  0.6580  0.5049
  511TMC3    C6 7646   3.118   0.380  15.073  0.4798  0.3456  0.1963
  511TMC3     C 7647   3.334   0.607  14.818 -0.3110 -0.2880  0.4929
  511TMC3     O 7648   3.434   0.535  14.832  0.5088 -0.0322 -0.3332
  511TMC3     H 7649   3.195   0.703  15.012 -2.8380  0.6507 -1.1080
  511TMC3    H1 7650   3.277   0.362  14.773  0.2104 -1.3194  0.9559
  511TMC3    H2 7651   3.066   0.332  15.155  0.6180  1.2324  0.8036
  511TMC3    C7 7652   3.164   0.186  14.937 -0.1562  0.1210 -0.1418
  511TMC3    C8 7653   3.077   0.582  15.206  1.0832  0.6883  0.8504
  511TMC3    O1 7654   3.226   0.150  14.837 -0.6208 -0.4943  0.5944
  511TMC3    O2 7655   3.042   0.697  15.189  0.4352  0.4119  0.2578
  512TMC3    C1 7656   2.425   4.208  13.726  0.0796  0.0864  0.1886
  512TMC3    C2 7657   2.482   4.288  13.818  0.3932  0.2168 -0.2090
  512TMC3    C3 7658   2.526   4.413  13.785 -0.2718 -0.9736  0.3060
  512TMC3    C4 7659   2.394   4.252  13.597 -0.0690 -0.1809  0.8970
  512TMC3    C5 7660   2.445   4.376  13.568  0.0244  0.0960  0.2437
  512TMC3    C6 7661   2.507   4.455  13.657 -0.4127 -0.0294  0.1611
  512TMC3     C 7662   2.342   4.102  13.787  0.1602 -0.0833 -0.5422
  512TMC3     O 7663   2.386   4.046  13.885 -0.4560  0.0665 -0.2496
  512TMC3     H 7664   2.509   4.249  13.916  0.6551  3.1049  0.8706
  512TMC3    H1 7665   2.356   4.184  13.522 -0.2885  2.1026 -1.0322
  512TMC3    H2 7666   2.532   4.556  13.626  1.8228 -0.9756 -1.0718
  512TMC3    C7 7667   2.478   4.382  13.426  0.8522 -0.2792  0.0529
  512TMC3    C8 7668   2.640   4.471  13.860  0.5565 -0.4501  0.3816
  512TMC3    O1 7669   2.509   4.271  13.378  0.4226 -0.1577  0.2689
  512TMC3    O2 7670   2.702   4.394  13.933  0.0385  0.2591 -0.3097
  513MPD2     C 7671   3.842   4.452  13.572  0.5039 -0.3330 -1.2246
  513MPD2    C1 7672   3.892   4.517  13.463 -0.2406  0.3038  0.1367
  513MPD2    C2 7673   3.962   4.628  13.474 -0.0391  0.3803 -0.2559
  513MPD2    C3 7674   3.988   4.680  13.601 -0.0070 -0.4413 -0.3443
  513MPD2    C4 7675   3.939   4.619  13.715  0.0639 -0.5055  0.4305
  513MPD2    C5 7676   3.865   4.508  13.691 -0.3412  0.2419  0.0379
  513MPD2     H 7677   4.000   4.689  13.393 -0.6704  0.1315 -0.7497
  513MPD2    H1 7678   3.944   4.661  13.814  1.5072 -1.2402  0.6599
  513MPD2    H2 7679   3.778   4.365  13.567  0.2804 -0.3748  2.8586
  513MPD2    H3 7680   3.830   4.452  13.777 -0.4942 -0.6077 -0.5780
  513MPD2     N 7681   4.075   0.056  13.614 -0.3501 -0.4000 -0.1386
  513MPD2    H5 7682   4.121   0.088  13.529 -0.0004  0.0226  0.2099
  513MPD2    N1 7683   3.835   4.483  13.338 -0.8349  1.0414 -0.5899
  513MPD2    H7 7684   3.776   4.401  13.347  0.6487  0.0359  0.1366
  514TMC3    C1 7685   3.794   4.462  13.115 -0.1782  0.3076  0.3552
  514TMC3    C2 7686   3.771   4.536  12.999 -0.1481  0.6146  0.1700
  514TMC3    C3 7687   3.838   4.505  12.882  0.0289  1.1299  0.3947
  514TMC3    C4 7688   3.881   4.355  13.105  0.1648 -0.2430  0.0833
  514TMC3    C5 7689   3.945   4.324  12.985  0.0972 -0.6034  0.0748
  514TMC3    C6 7690   3.924   4.402  12.875 -0.3366 -0.1998  0.2304
  514TMC3     C 7691   3.835   4.553  13.218  0.2328 -0.0464 -0.1687
  514TMC3     O 7692   3.891   4.659  13.188 -0.0385 -0.4944 -0.3295
  514TMC3     H 7693   3.720   4.631  13.008 -0.8998  0.0542  1.6847
  514TMC3    H1 7694   3.901   4.300  13.197  1.5839 -3.2021 -2.0139
  514TMC3    H2 7695   3.986   4.380  12.788 -2.1108  0.6670 -1.2617
  514TMC3    C7 7696   4.088   4.318  13.014  0.1012  0.9272 -0.7893
  514TMC3    C8 7697   3.809   4.583  12.767  0.2185 -0.4209 -0.0168
  514TMC3    O1 7698   4.167   4.265  12.941  0.1984  0.1854 -0.3720
  514TMC3    O2 7699   3.691   4.620  12.756  0.0554 -0.1181 -0.0670
  515MPD2     C 7700   2.074   1.969  14.441  0.3748 -0.4551  0.6401
  515MPD2    C1 7701   2.138   1.857  14.482 -0.7420  0.8340  0.2771
  515MPD2    C2 7702   2.222   1.868  14.592  0.3249 -0.2150  0.7089
  515MPD2    C3 7703   2.227   1.972  14.677  0.1762 -0.1333  0.5802
  515MPD2    C4 7704   2.155   2.076  14.635  0.0327  0.6714 -0.0444
  515MPD2    C5 7705   2.085   2.081  14.517 -0.1421 -0.1570  0.5977
  515MPD2     H 7706   2.288   1.787  14.620 -0.1094 -1.1869 -1.0255
  515MPD2    H1 7707   2.166   2.165  14.695  0.8020  1.0052 -0.6850
  515MPD2    H2 7708   2.014   1.969  14.351 -0.0372  1.0641  0.9078
  515MPD2    H3 7709   2.035   2.172  14.488  1.8124  1.0991  1.1314
  515MPD2     N 7710   2.308   1.966  14.801 -1.2525  0.4659 -0.4290
  515MPD2    H5 7711   2.374   1.889  14.809  0.4783  1.9150 -0.9242
  515MPD2    N1 7712   2.115   1.739  14.407 -0.7370  0.4310  0.4269
  515MPD2    H7 7713   2.060   1.750  14.322  2.6586 -1.8154 -2.0755
  516TMC3    C1 7714   2.085   1.508  14.376  0.4593 -0.0370  0.2936
  516TMC3    C2 7715   2.026   1.534  14.251  0.0605 -0.0466 -0.3927
  516TMC3    C3 7716   1.980   1.421  14.187 -0.4245  0.4425 -0.5206
  516TMC3    C4 7717   2.095   1.386  14.433 -0.2288 -0.6003  0.5630
  516TMC3    C5 7718   2.036   1.286  14.367  0.6475  0.3845  1.4410
  516TMC3    C6 7719   1.984   1.301  14.245 -0.2060  0.4582 -1.0517
  516TMC3     C 7720   2.148   1.613  14.447  0.1298 -0.9657 -0.1085
  516TMC3     O 7721   2.217   1.581  14.545 -0.2102  0.5105 -0.3442
  516TMC3     H 7722   2.018   1.629  14.200  1.4568  0.3397  0.0900
  516TMC3    H1 7723   2.126   1.376  14.537 -1.5613  1.7046  1.2013
  516TMC3    H2 7724   1.931   1.217  14.202 -1.5699  0.9092 -0.2658
  516TMC3    C7 7725   1.996   1.175  14.454 -0.2072 -0.4500  0.2951
  516TMC3    C8 7726   1.919   1.425  14.053 -0.7875 -0.0258  0.1368
  516TMC3    O1 7727   2.055   1.166  14.558 -0.0338 -0.2045  1.2265
  516TMC3    O2 7728   1.841   1.335  14.024 -0.1600  0.5415  0.0558
  517MPD2     C 7729   1.688   3.155   0.149 -1.1058 -0.2264 -0.0876
  517MPD2    C1 7730   1.812   3.192   0.101  0.3925  0.1509 -0.3534
  517MPD2    C2 7731   1.888   3.284   0.162  0.0378  0.2009  1.1566
  517MPD2    C3 7732   1.846   3.329   0.283  0.2682  0.6053  0.0723
  517MPD2    C4 7733   1.726   3.298   0.330 -0.2700 -0.0030 -0.0365
  517MPD2    C5 7734   1.636   3.219   0.263 -1.0014  0.5095 -0.3014
  517MPD2     H 7735   1.987   3.309   0.125 -0.8898  1.2009 -0.6239
  517MPD2    H1 7736   1.694   3.327   0.430  1.4920 -3.1771  1.4571
  517MPD2    H2 7737   1.622   3.080   0.108 -1.1723 -2.2646  3.7635
  517MPD2    H3 7738   1.538   3.195   0.302 -0.4440 -0.4112  0.5548
  517MPD2     N 7739   1.935   3.396   0.375 -0.4858 -0.5258 -0.4874
  517MPD2    H5 7740   1.898   3.404   0.470  1.2252 -1.2049  0.2429
  517MPD2    N1 7741   1.879   3.124  17.731  0.3832  0.1401 -0.5673
  517MPD2    H7 7742   1.970   3.165  17.710 -1.2257  3.3977 -1.1822
  518TMC3    C1 7743   1.930   2.948  17.583 -0.2649 -0.6959  0.0890
  518TMC3    C2 7744   1.889   2.830  17.528 -0.2287 -0.1711  0.3361
  518TMC3    C3 7745   1.991   2.750  17.480  0.5868  0.3794  0.2373
  518TMC3    C4 7746   2.058   2.992  17.570  0.4440  0.1367  0.3456
  518TMC3    C5 7747   2.154   2.914  17.535 -0.2599 -0.6866 -1.2684
  518TMC3    C6 7748   2.124   2.789  17.479  0.1305 -0.0674  0.5757
  518TMC3     C 7749   1.833   3.010  17.669 -0.4728 -0.3510  0.4447
  518TMC3     O 7750   1.733   2.942  17.688  0.0223  0.4625 -0.4308
  518TMC3     H 7751   1.783   2.806  17.528 -0.2701  0.0116  0.4494
  518TMC3    H1 7752   2.093   3.090  17.600  1.6800 -0.7115  1.6732
  518TMC3    H2 7753   2.199   2.716  17.450 -0.4624 -0.4009 -0.1174
  518TMC3    C7 7754   2.284   2.940  17.581 -0.3212  0.3879  0.3233
  518TMC3    C8 7755   1.963   2.608  17.447 -0.2178  0.4180 -0.1121
  518TMC3    O1 7756   2.286   2.981  17.694 -0.0013 -0.3562  0.1144
  518TMC3    O2 7757   2.035   2.561  17.364 -0.1202 -0.0020 -0.1828
  519MPD2     C 7758   3.469   1.343  14.522 -0.0578 -0.2528 -0.1642
  519MPD2    C1 7759   3.464   1.436  14.419  0.0478 -0.7990  0.0723
  519MPD2    C2 7760   3.577   1.444  14.332  0.0421 -0.3531  0.1196
  519MPD2    C3 7761   3.695   1.381  14.366  0.0309  0.8180  0.9265
  519MPD2    C4 7762   3.696   1.297  14.477  0.1783 -0.3512 -0.3558
  519MPD2    C5 7763   3.586   1.276  14.552 -0.9394  0.2989  0.0793
  519MPD2     H 7764   3.564   1.497  14.238  0.8281  1.5570  1.0959
  519MPD2    H1 7765   3.790   1.254  14.507 -1.2645 -2.0925  1.6810
  519MPD2    H2 7766   3.388   1.310  14.586 -0.1434  2.4437  1.0893
  519MPD2    H3 7767   3.593   1.203  14.633 -0.3479  1.3069  0.9308
  519MPD2     N 7768   3.811   1.387  14.288 -0.5137 -0.0011  0.9743
  519MPD2    H5 7769   3.884   1.317  14.298 -1.6450 -1.1456  1.1278
  519MPD2    N1 7770   3.338   1.487  14.380 -0.0638  0.2674  0.4785
  519MPD2    H7 7771   3.256   1.461  14.433 -0.3932 -0.3598 -0.3371
  520TMC3    C1 7772   3.915   1.433  14.080 -0.0536  0.6040 -0.2179
  520TMC3    C2 7773   3.883   1.470  13.955  0.3177 -0.0307 -0.1460
  520TMC3    C3 7774   3.963   1.426  13.853  0.1028 -0.7624 -0.0259
  520TMC3    C4 7775   4.030   1.368  14.107  0.7198 -0.2967  0.5612
  520TMC3    C5 7776   4.114   1.336  14.003  0.2884 -0.5681 -0.4374
  520TMC3    C6 7777   4.085   1.370  13.876  0.4259 -0.4917  0.0206
  520TMC3     C 7778   3.827   1.477  14.185 -0.1320  0.1673 -0.0748
  520TMC3     O 7779   3.759   1.576  14.156 -0.1579 -0.0317 -0.3899
  520TMC3     H 7780   3.787   1.520  13.940  0.1978 -0.7527 -1.7310
  520TMC3    H1 7781   4.054   1.347  14.211 -2.3630  1.1070  1.5885
  520TMC3    H2 7782   4.143   1.346  13.788  0.8614  0.1789  0.1286
  520TMC3    C7 7783   4.242   1.276  14.043  0.4662 -0.3995 -0.1148
  520TMC3    C8 7784   3.909   1.435  13.716  0.4226  0.6702 -0.2675
  520TMC3    O1 7785   4.255   1.227  14.153 -0.0223 -0.2389 -0.4869
  520TMC3    O2 7786   3.971   1.433  13.613 -0.1134  0.5907 -0.1778
  521MPD2     C 7787   0.062   4.640  17.355 -0.6926  0.4537 -1.2918
  521MPD2    C1 7788   4.734   4.618  17.235  0.4293  0.3623  0.5419
  521MPD2    C2 7789   0.079   4.609  17.125 -0.4937 -0.2347  0.3046
  521MPD2    C3 7790   0.216   4.609  17.127 -0.2581 -0.5200 -0.4991
  521MPD2    C4 7791   0.278   4.631  17.249 -0.1440 -0.3146  0.9118
  521MPD2    C5 7792   0.201   4.641  17.363 -0.4169  0.2022 -0.1025
  521MPD2     H 7793   0.035   4.583  17.029  2.4034  1.2183 -1.4098
  521MPD2    H1 7794   0.386   4.624  17.253 -0.0163 -0.1930 -1.9628
  521MPD2    H2 7795   0.002   4.649  17.445 -1.6728 -2.3452 -1.6845
  521MPD2    H3 7796   0.254   4.655  17.457  0.6315 -3.5641 -0.1501
  521MPD2     N 7797   0.281   4.605  17.005  0.0058  0.0862 -0.2024
  521MPD2    H5 7798   0.214   4.605  16.928 -0.3766 -3.5461  0.1237
  521MPD2    N1 7799   4.592   4.603  17.234 -0.2841  0.1084  0.1042
  521MPD2    H7 7800   4.540   4.616  17.321 -2.7241 -2.4114 -0.9532
  522TMC3    C1 7801   0.460   4.550  16.846 -0.3778  0.6127 -0.5536
  522TMC3    C2 7802   0.549   4.453  16.845  0.9341  0.9948 -0.2979
  522TMC3    C3 7803   0.531   4.351  16.757 -0.1482  0.3817  0.0953
  522TMC3    C4 7804   0.359   4.560  16.757 -0.1619 -0.0803 -0.3086
  522TMC3    C5 7805   0.342   4.455  16.671 -0.4651 -0.6678 -0.2390
  522TMC3    C6 7806   0.424   4.347  16.678  0.2665  0.1725  0.0731
  522TMC3     C 7807   0.422   4.589  16.988 -0.1511 -0.4586 -0.5207
  522TMC3     O 7808   0.517   4.577  17.072  0.2469  0.5758 -0.5871
  522TMC3     H 7809   0.618   4.443  16.928  1.8994  0.7443 -1.1302
  522TMC3    H1 7810   0.296   4.648  16.750 -0.5355 -0.4781 -1.9484
  522TMC3    H2 7811   0.400   4.260  16.618 -1.0640 -0.1034  1.0167
  522TMC3    C7 7812   0.206   4.432  16.639  0.0121 -0.0685 -0.9242
  522TMC3    C8 7813   0.574   4.230  16.814 -0.3357 -0.7117  0.0903
  522TMC3    O1 7814   0.152   4.516  16.571 -0.2446  0.2845 -0.1596
  522TMC3    O2 7815   0.576   4.223  16.937 -0.0709  0.2401  0.3069
  523MPD2     C 7816   1.979   4.455  10.271 -0.1633 -0.3473 -0.0533
  523MPD2    C1 7817   1.938   4.352  10.196 -0.4036 -0.1527 -0.5003
  523MPD2    C2 7818   1.824   4.370  10.122 -0.4217 -0.3259  0.6070
  523MPD2    C3 7819   1.757   4.490  10.119 -0.4808  0.1225 -0.1840
  523MPD2    C4 7820   1.792   4.593  10.206 -0.7916 -0.3378 -0.3735
  523MPD2    C5 7821   1.906   4.573  10.279  0.1640 -0.7185  0.4065
  523MPD2     H 7822   1.778   4.287  10.069 -0.0849 -0.7272  0.9399
  523MPD2    H1 7823   1.733   4.682  10.222 -2.1984 -1.1908 -0.8272
  523MPD2    H2 7824   2.071   4.446  10.328  0.5168 -0.4884 -1.1631
  523MPD2    H3 7825   1.933   4.653  10.346  0.0534 -0.1765 -0.1980
  523MPD2     N 7826   1.648   4.508  10.032 -0.1860 -0.6499  0.2496
  523MPD2    H5 7827   1.595   4.591  10.055  2.2166  1.1791 -0.9166
  523MPD2    N1 7828   1.999   4.228  10.214 -0.2978 -0.2772 -0.0142
  523MPD2    H7 7829   2.070   4.225  10.286  0.0013 -1.1390 -0.3455
  524TMC3    C1 7830   1.503   4.488   9.838  0.3838  0.9242  0.5352
  524TMC3    C2 7831   1.478   4.426   9.721 -0.6932 -0.1387 -0.8349
  524TMC3    C3 7832   1.428   4.511   9.623  0.6604  0.0937 -0.0738
  524TMC3    C4 7833   1.463   4.622   9.859 -0.2479  0.7314  0.3970
  524TMC3    C5 7834   1.396   4.695   9.769  0.4304  0.1950 -0.0407
  524TMC3    C6 7835   1.387   4.639   9.642 -0.0159 -0.2876  0.5256
  524TMC3     C 7836   1.604   4.430   9.923  0.5694 -0.5922 -0.6316
  524TMC3     O 7837   1.646   4.320   9.891 -1.0451 -0.0288 -0.4805
  524TMC3     H 7838   1.531   4.335   9.695  2.5724  0.9444  2.0638
  524TMC3    H1 7839   1.486   4.679   9.948 -1.6074 -0.4738  1.5126
  524TMC3    H2 7840   1.333   4.694   9.566 -0.0626  0.9613  1.4620
  524TMC3    C7 7841   1.356   0.102   9.799  0.4762  0.1845 -0.2270
  524TMC3    C8 7842   1.426   4.458   9.482 -1.1659  0.6498  0.1104
  524TMC3    O1 7843   1.388   0.138   9.913  0.0111 -0.1607  0.0619
  524TMC3    O2 7844   1.371   4.522   9.401  0.1881  0.8166  0.9673
  525MPD2     C 7845   0.795   0.513  14.493 -0.8787 -0.8993  0.0909
  525MPD2    C1 7846   0.716   0.586  14.585 -0.7697 -0.6532 -0.0205
  525MPD2    C2 7847   0.668   0.706  14.544 -0.0370  0.0223  0.1530
  525MPD2    C3 7848   0.710   0.769  14.434 -0.3765  0.1522  0.2896
  525MPD2    C4 7849   0.793   0.698  14.345  0.3972  0.1975  0.2398
  525MPD2    C5 7850   0.826   0.572  14.377  0.2038 -0.4344  0.3551
  525MPD2     H 7851   0.598   0.752  14.614 -0.8716 -0.7026 -0.2046
  525MPD2    H1 7852   0.823   0.728  14.245  0.4243  1.5270  0.6473
  525MPD2    H2 7853   0.816   0.408  14.509  1.3969 -1.1289 -4.3745
  525MPD2    H3 7854   0.883   0.515  14.303 -2.1228  0.4042 -2.0871
  525MPD2     N 7855   0.673   0.903  14.400 -0.2633  0.4329 -0.9402
  525MPD2    H5 7856   0.721   0.944  14.321  2.9544  0.0140  0.7777
  525MPD2    N1 7857   0.689   0.522  14.708  0.0330  0.3448 -0.7324
  525MPD2    H7 7858   0.733   0.431  14.720 -2.1797 -0.8207 -1.3979
  526TMC3    C1 7859   0.634   0.497  14.939 -0.0950  0.3636  0.4638
  526TMC3    C2 7860   0.545   0.513  15.049 -0.0202 -0.3637 -0.2022
  526TMC3    C3 7861   0.583   0.485  15.182  0.1231  0.7424  0.0981
  526TMC3    C4 7862   0.761   0.446  14.958  0.3125 -0.5868  0.3686
  526TMC3    C5 7863   0.794   0.426  15.091  0.3134 -0.5131 -0.4974
  526TMC3    C6 7864   0.709   0.441  15.198  0.0521 -0.3349 -0.5546
  526TMC3     C 7865   0.603   0.557  14.809  0.0913 -0.4112 -0.4854
  526TMC3     O 7866   0.514   0.640  14.814  0.4404  0.1601  0.6392
  526TMC3     H 7867   0.449   0.560  15.027 -0.5977 -1.2539  0.4305
  526TMC3    H1 7868   0.827   0.437  14.872  0.5120 -0.5279  0.5136
  526TMC3    H2 7869   0.742   0.412  15.297  1.0856  1.3266 -0.4023
  526TMC3    C7 7870   0.916   0.347  15.127  0.8881  0.8231  0.6845
  526TMC3    C8 7871   0.510   0.545  15.288  0.2781 -0.5245  0.2496
  526TMC3    O1 7872   0.951   0.339  15.247 -0.0251  0.0468  0.1667
  526TMC3    O2 7873   0.576   0.579  15.390 -0.1862  0.3925 -0.4074
  527MPD2     C 7874   3.088   4.589   1.261  0.0605  0.2582  0.1704
  527MPD2    C1 7875   3.046   4.458   1.237  0.0178 -0.7881  0.5613
  527MPD2    C2 7876   3.113   4.378   1.150  0.0348 -0.3948  0.2973
  527MPD2    C3 7877   3.232   4.419   1.101 -0.1487  0.1353 -0.0476
  527MPD2    C4 7878   3.281   4.542   1.136  0.1324  0.3043 -0.3492
  527MPD2    C5 7879   3.207   4.626   1.212 -0.1522 -0.4307  0.2114
  527MPD2     H 7880   3.083   4.275   1.133 -0.6276 -0.4671  1.8794
  527MPD2    H1 7881   3.369   4.589   1.093  1.1869  0.9723  2.5595
  527MPD2    H2 7882   3.037   4.667   1.318 -1.3777  0.3832 -1.2967
  527MPD2    H3 7883   3.250   4.725   1.229  0.6649 -0.7974  0.2965
  527MPD2     N 7884   3.300   4.334   1.009 -0.1279  0.4163 -0.2748
  527MPD2    H5 7885   3.253   4.246   0.992  0.5686 -0.2798  1.4685
  527MPD2    N1 7886   2.929   4.404   1.295  0.0273 -0.3165  0.7552
  527MPD2    H7 7887   2.905   4.309   1.268 -1.1359  0.0108  0.6373
  528TMC3    C1 7888   2.738   4.397   1.436  0.3593 -0.0681  0.0998
  528TMC3    C2 7889   2.696   4.398   1.567 -1.0186  0.0768  0.3563
  528TMC3    C3 7890   2.572   4.345   1.596 -0.1748  0.4321  0.1802
  528TMC3    C4 7891   2.653   4.353   1.338  0.1606 -0.5475 -0.2797
  528TMC3    C5 7892   2.531   4.318   1.366 -0.1275  0.1299 -0.1073
  528TMC3    C6 7893   2.486   4.303   1.495  0.1051 -0.4476 -0.2154
  528TMC3     C 7894   2.861   4.467   1.402  0.9978  0.0064 -0.3849
  528TMC3     O 7895   2.892   4.558   1.475  0.7197 -0.1131  0.2265
  528TMC3     H 7896   2.762   4.433   1.645 -1.2183 -1.6677  1.3187
  528TMC3    H1 7897   2.680   4.367   1.234 -0.2262  0.7439 -0.1953
  528TMC3    H2 7898   2.396   4.247   1.520  0.3427 -0.0944  1.4282
  528TMC3    C7 7899   2.446   4.292   1.243  0.7587  0.7880  0.1156
  528TMC3    C8 7900   2.518   4.352   1.729 -0.0312 -0.4574 -0.3431
  528TMC3    O1 7901   2.458   4.360   1.142  0.0116 -1.2598  0.4422
  528TMC3    O2 7902   2.600   4.373   1.820 -0.0353 -0.3753 -0.5432
  529MPD2     C 7903   1.171   1.223   1.355  0.3702  0.0414  0.6830
  529MPD2    C1 7904   1.055   1.295   1.399  0.0704 -0.2520  0.1763
  529MPD2    C2 7905   0.973   1.343   1.302 -0.3124 -0.4559  0.3092
  529MPD2    C3 7906   0.978   1.312   1.168  0.3712 -0.3978  0.4943
  529MPD2    C4 7907   1.078   1.224   1.135 -0.0159 -0.3614 -0.1982
  529MPD2    C5 7908   1.176   1.184   1.221  0.2077  0.6906  0.1581
  529MPD2     H 7909   0.898   1.411   1.340  2.9318  2.8872  0.7366
  529MPD2    H1 7910   1.095   1.194   1.032  0.5787  2.0117 -0.8043
  529MPD2    H2 7911   1.246   1.181   1.420 -0.5128 -2.8416 -0.1683
  529MPD2    H3 7912   1.247   1.112   1.182  0.6807  1.4178 -0.3220
  529MPD2     N 7913   0.893   1.381   1.079 -0.3388 -0.1292 -0.0148
  529MPD2    H5 7914   0.917   1.372   0.981  1.3821 -2.8172  0.6463
  529MPD2    N1 7915   1.050   1.341   1.532  0.0622 -0.0042  0.3391
  529MPD2    H7 7916   0.973   1.406   1.543 -0.7311 -1.2636  2.3219
  530TMC3    C1 7917   1.112   1.396   1.751  0.7325  0.8340 -0.1771
  530TMC3    C2 7918   1.222   1.389   1.832 -0.3064 -1.0843  0.4368
  530TMC3    C3 7919   1.234   1.481   1.933 -0.0414  0.2393  1.1420
  530TMC3    C4 7920   1.022   1.496   1.766  0.6045 -0.3928 -0.3814
  530TMC3    C5 7921   1.046   1.598   1.856  0.8775  0.4218 -0.6855
  530TMC3    C6 7922   1.158   1.596   1.932 -0.5438 -0.3498  0.3747
  530TMC3     C 7923   1.135   1.314   1.631 -0.5909 -0.6811  0.2126
  530TMC3     O 7924   1.240   1.251   1.633 -0.3864 -0.4481  0.1697
  530TMC3     H 7925   1.286   1.301   1.834  0.4646 -0.5981 -1.9682
  530TMC3    H1 7926   0.942   1.505   1.693  0.4666 -1.5925 -0.3715
  530TMC3    H2 7927   1.174   1.668   2.011  1.2300  0.9364 -1.1670
  530TMC3    C7 7928   1.031   1.721   1.791  0.2848  0.3133 -0.2576
  530TMC3    C8 7929   1.358   1.489   2.006 -0.7139 -0.4809 -0.5102
  530TMC3    O1 7930   0.925   1.730   1.727  0.4770 -0.1300  0.2601
  530TMC3    O2 7931   1.371   1.562   2.101 -0.0949  0.6725  0.4579
  531MPD2     C 7932   4.500   4.546  13.209 -0.2587  0.6417  0.1030
  531MPD2    C1 7933   4.389   4.608  13.266 -0.2074 -0.0113  0.4199
  531MPD2    C2 7934   4.268   4.548  13.248 -0.1564  0.2776  0.3313
  531MPD2    C3 7935   4.247   4.444  13.159 -0.1102 -0.2788 -0.1431
  531MPD2    C4 7936   4.364   4.385  13.107 -0.0414 -0.0484  0.2792
  531MPD2    C5 7937   4.488   4.438  13.131  0.2295  0.3524  0.9644
  531MPD2     H 7938   4.180   4.600  13.286 -1.4393 -0.6568 -1.3648
  531MPD2    H1 7939   4.359   4.283  13.070 -1.9909 -0.1440  0.8162
  531MPD2    H2 7940   4.594   4.598  13.219 -0.1645  0.1446  1.9177
  531MPD2    H3 7941   4.578   4.380  13.114 -0.3370 -0.5194  0.9014
  531MPD2     N 7942   4.123   4.404  13.115  0.3640  0.3228 -0.0651
  531MPD2    H5 7943   4.044   4.442  13.167  2.4507  0.7185  2.7917
  531MPD2    N1 7944   4.413   4.724  13.344 -0.1068 -1.0390 -0.3615
  531MPD2    H7 7945   4.509   0.020  13.357 -0.4570  0.1361 -0.6171
  532TMC3    C1 7946   4.351   0.160  13.485  0.9579  0.1742  0.6368
  532TMC3    C2 7947   4.239   0.207  13.548 -0.0840  0.1002 -0.1262
  532TMC3    C3 7948   4.236   0.201  13.688 -0.0762 -0.2044  0.4286
  532TMC3    C4 7949   4.458   0.120  13.558 -0.0631  0.6176 -0.1910
  532TMC3    C5 7950   4.460   0.128  13.694 -0.2845 -0.0998  0.6800
  532TMC3    C6 7951   4.348   0.168  13.764 -0.8249 -0.8567  0.3151
  532TMC3     C 7952   4.318   0.082  13.371  0.0828 -0.9771  0.2173
  532TMC3     O 7953   4.209   0.092  13.317 -0.4841 -0.0148  0.0538
  532TMC3     H 7954   4.156   0.244  13.488 -0.4585 -0.4723  0.0411
  532TMC3    H1 7955   4.551   0.081  13.517 -0.2886 -0.1486  0.0172
  532TMC3    H2 7956   4.346   0.154  13.872  1.9326  0.4432  0.5309
  532TMC3    C7 7957   4.582   0.090  13.771  0.2029  0.7093 -0.1045
  532TMC3    C8 7958   4.120   0.117  13.730  0.0405  0.2435  0.5419
  532TMC3    O1 7959   4.630   0.178  13.846  0.1349  0.0434 -0.3159
  532TMC3    O2 7960   4.096   0.092  13.847  0.0117  0.6800 -0.1208
  533TMC3    C1 7961   0.564   1.114  14.428 -0.9420  0.0029 -0.7454
  533TMC3    C2 7962   0.666   1.187  14.372  0.4350  0.1618 -0.1354
  533TMC3    C3 7963   0.669   1.325  14.395 -0.1734 -0.2542 -0.4387
  533TMC3    C4 7964   0.464   1.178  14.494 -1.2590 -0.4916 -0.3419
  533TMC3    C5 7965   0.475   1.310  14.521  0.1115 -0.3406 -0.0624
  533TMC3    C6 7966   0.572   1.389  14.471 -0.2932  0.0340 -0.0550
  533TMC3     C 7967   0.573   0.973  14.461  0.2068  0.2196  0.1009
  533TMC3     O 7968   0.490   0.930  14.541  0.2627  0.1844  0.2810
  533TMC3     H 7969   0.749   1.131  14.333  0.2260  0.3706 -0.8789
  533TMC3    H1 7970   0.369   1.131  14.517 -1.5705 -0.5432 -1.7544
  533TMC3    H2 7971   0.574   1.494  14.501 -0.8317  0.7279 -2.4328
  533TMC3    C7 7972   0.418   1.345  14.649  1.1293  0.1136  0.0506
  533TMC3    C8 7973   0.797   1.397  14.405  0.5493 -0.3426 -0.1293
  533TMC3    O1 7974   0.354   1.255  14.701  0.3495 -0.3099 -0.0944
  533TMC3    O2 7975   0.805   1.509  14.451  0.5021 -0.1281  0.1205
  534MPD2     C 7976   2.536   2.272   1.035 -0.1005 -0.3782 -0.2638
  534MPD2    C1 7977   2.544   2.383   1.114 -0.6049 -0.5690  0.4297
  534MPD2    C2 7978   2.466   2.382   1.230  0.3106 -0.5532  0.4987
  534MPD2    C3 7979   2.376   2.274   1.246  0.1462 -0.4211  0.2451
  534MPD2    C4 7980   2.368   2.168   1.156  0.1253 -0.4106  0.1150
  534MPD2    C5 7981   2.449   2.165   1.049  0.0739  0.3548 -0.0616
  534MPD2     H 7982   2.484   2.461   1.302  0.2375 -1.0609  1.0659
  534MPD2    H1 7983   2.326   2.070   1.173  0.3576 -0.6942 -0.9114
  534MPD2    H2 7984   2.599   2.257   0.949 -0.5290  1.6972 -0.9300
  534MPD2    H3 7985   2.453   2.073   0.993  0.0285  1.0397 -1.1819
  534MPD2     N 7986   2.291   2.274   1.363  0.5101  0.5543 -0.4841
  534MPD2    H5 7987   2.214   2.209   1.359  0.1950  1.1230 -3.2489
  534MPD2    N1 7988   2.631   2.491   1.094 -0.1919  0.1313  0.1722
  534MPD2    H7 7989   2.621   2.573   1.153 -1.0789 -0.8814  1.4379
  535TMC3    C1 7990   2.160   2.375   1.521  0.5098 -0.3497  0.0338
  535TMC3    C2 7991   2.097   2.251   1.532  0.7819  0.0497  0.1012
  535TMC3    C3 7992   1.980   2.233   1.459  0.0067  0.7184 -0.4023
  535TMC3    C4 7993   2.086   2.479   1.467 -0.2207  0.3012 -0.5160
  535TMC3    C5 7994   1.977   2.446   1.381  0.4417 -0.3731  0.0958
  535TMC3    C6 7995   1.923   2.322   1.365 -0.1157 -0.0649 -0.4789
  535TMC3     C 7996   2.293   2.374   1.462  0.0027 -0.1281  0.7040
  535TMC3     O 7997   2.361   2.472   1.481  0.2370 -0.1882  0.5489
  535TMC3     H 7998   2.133   2.176   1.601  0.0497 -0.7990 -0.4269
  535TMC3    H1 7999   2.143   2.570   1.454 -2.3612  1.8857  1.2109
  535TMC3    H2 8000   1.840   2.312   1.295 -0.3417 -0.7214 -0.1118
  535TMC3    C7 8001   1.984   2.516   1.247 -0.3126  0.6013  0.2230
  535TMC3    C8 8002   1.895   2.116   1.485 -0.5739  0.6608 -0.3067
  535TMC3    O1 8003   1.968   2.451   1.145 -0.7916 -1.0853 -0.3695
  535TMC3    O2 8004   1.827   2.074   1.393 -0.1479 -0.1181 -0.0555
  536MPD2     C 8005   1.986   0.960  15.771 -0.2834  0.8770  0.1110
  536MPD2    C1 8006   1.855   0.927  15.800  0.1497  0.0666  0.5379
  536MPD2    C2 8007   1.751   0.988  15.728 -0.6740  0.2724  0.7592
  536MPD2    C3 8008   1.786   1.078  15.627 -0.2647 -0.6339  0.1554
  536MPD2    C4 8009   1.921   1.102  15.592  0.0554  0.5589 -0.1525
  536MPD2    C5 8010   2.021   1.043  15.666  0.1486 -0.7584  0.2624
  536MPD2     H 8011   1.647   0.967  15.751 -0.7320  0.6546  0.8500
  536MPD2    H1 8012   1.951   1.186  15.530  0.9785 -0.3781 -0.9633
  536MPD2    H2 8013   2.057   0.909  15.836 -1.0049  0.4841  0.5904
  536MPD2    H3 8014   2.120   1.058  15.623  0.4809 -0.0154  1.2769
  536MPD2     N 8015   1.690   1.149  15.553  0.2632  0.4740  0.1372
  536MPD2    H5 8016   1.725   1.204  15.476 -1.6768  2.5123  0.7054
  536MPD2    N1 8017   1.832   0.855  15.921 -0.1610  0.0771 -0.0026
  536MPD2    H7 8018   1.918   0.842  15.973 -0.9019  1.1220  1.4747
  537TMC3    C1 8019   1.724   0.774  16.114 -0.6831  0.4503  0.1749
  537TMC3    C2 8020   1.805   0.842  16.199  0.1102  0.9527 -0.0298
  537TMC3    C3 8021   1.800   0.800  16.329  0.0199  0.1548 -0.0691
  537TMC3    C4 8022   1.637   0.673  16.155  0.2798  0.3443  0.3167
  537TMC3    C5 8023   1.650   0.627  16.290 -0.1835 -0.1005  0.9005
  537TMC3    C6 8024   1.732   0.693  16.377  0.1438  0.3289 -0.4505
  537TMC3     C 8025   1.711   0.814  15.974  0.2816  0.2790  0.5655
  537TMC3     O 8026   1.601   0.802  15.923  0.3990 -0.0230  0.3676
  537TMC3     H 8027   1.866   0.927  16.173  0.1821  0.9401  0.0976
  537TMC3    H1 8028   1.573   0.619  16.087 -0.0246  0.2022  0.7217
  537TMC3    H2 8029   1.724   0.679  16.484  1.9445 -0.2574 -0.3814
  537TMC3    C7 8030   1.536   0.555  16.349 -0.3728 -0.2514  0.0797
  537TMC3    C8 8031   1.825   0.902  16.436 -0.0336 -0.1117 -0.5237
  537TMC3    O1 8032   1.425   0.560  16.297 -0.4195 -0.8817 -0.4984
  537TMC3    O2 8033   1.845   0.865  16.550 -0.5469  0.1045  0.9110
  538TMC3    C1 8034   2.377   3.933  11.034 -0.6379 -0.1959  0.4610
  538TMC3    C2 8035   2.504   3.990  11.045 -0.5964 -0.0079 -0.1968
  538TMC3    C3 8036   2.561   4.069  10.948 -0.3624  0.3098 -0.2741
  538TMC3    C4 8037   2.309   3.950  10.917  0.2353 -0.9320 -0.8128
  538TMC3    C5 8038   2.362   4.024  10.816  0.0652  0.3865  0.9142
  538TMC3    C6 8039   2.487   4.078  10.828  0.3426  0.1727 -0.3530
  538TMC3     C 8040   2.310   3.873  11.141  0.4787  0.3185  0.1774
  538TMC3     O 8041   2.187   3.864  11.128 -0.4207  0.1886  0.2279
  538TMC3     H 8042   2.559   3.994  11.138 -0.0178 -1.2742 -0.4784
  538TMC3    H1 8043   2.214   3.900  10.904  0.2072 -1.5626  1.7972
  538TMC3    H2 8044   2.527   4.146  10.753  0.3964  1.1523  0.5771
  538TMC3    C7 8045   2.269   4.069  10.727  0.4696 -0.0995  0.0285
  538TMC3    C8 8046   2.701   4.116  10.962 -0.0113  0.0042  0.2944
  538TMC3    O1 8047   2.175   3.995  10.711 -0.5942  0.1382  0.3641
  538TMC3    O2 8048   2.768   4.069  11.052 -1.0645  0.4173  0.3749
  539MPD2     C 8049   2.585   3.287  11.309 -0.2910  0.3355 -0.1842
  539MPD2    C1 8050   2.477   3.199  11.330  0.5226 -0.4822 -0.3019
  539MPD2    C2 8051   2.349   3.250  11.318  0.3162 -0.7506 -0.2973
  539MPD2    C3 8052   2.331   3.387  11.297 -1.0715  0.2777 -0.7894
  539MPD2    C4 8053   2.436   3.472  11.282 -0.7855 -0.2070 -0.1246
  539MPD2    C5 8054   2.561   3.419  11.285  0.2438 -0.4665  0.2387
  539MPD2     H 8055   2.274   3.176  11.344  1.1118 -1.1448  0.8659
  539MPD2    H1 8056   2.429   3.580  11.275  1.9103 -0.0594 -0.5949
  539MPD2    H2 8057   2.684   3.245  11.300 -0.4343  0.3907 -1.9355
  539MPD2    H3 8058   2.646   3.483  11.266 -1.2838  1.3156 -0.5968
  539MPD2     N 8059   2.202   3.438  11.297  0.4329 -0.3563 -0.8096
  539MPD2    H5 8060   2.183   3.535  11.276  0.4390  0.2268  1.9613
  539MPD2    N1 8061   2.498   3.064  11.347 -0.2089 -0.4946  0.5859
  539MPD2    H7 8062   2.419   3.005  11.323 -0.2875 -0.5421  0.9705
  540TMC3    C1 8063   1.972   3.465  11.342  0.1039  0.3997  0.1920
  540TMC3    C2 8064   1.973   3.577  11.262  0.3672  0.1200 -0.1082
  540TMC3    C3 8065   1.856   3.656  11.265 -0.7741 -0.0473 -0.0273
  540TMC3    C4 8066   1.857   3.428  11.408 -0.1526 -0.9739 -0.6908
  540TMC3    C5 8067   1.743   3.503  11.396 -0.9232  0.9944 -0.3994
  540TMC3    C6 8068   1.746   3.624  11.333 -0.4399  0.1662 -0.5038
  540TMC3     C 8069   2.087   3.381  11.357 -0.2892 -0.2904  0.1048
  540TMC3     O 8070   2.074   3.276  11.422  0.3176 -0.4209  0.1972
  540TMC3     H 8071   2.060   3.606  11.206  1.2192 -0.2117  1.0394
  540TMC3    H1 8072   1.851   3.332  11.459  0.1386 -0.5704  0.0985
  540TMC3    H2 8073   1.656   3.684  11.333  0.5038  1.5774 -0.2965
  540TMC3    C7 8074   1.633   3.488  11.494  0.4208  0.9294  0.1041
  540TMC3    C8 8075   1.839   3.742  11.152 -0.1491 -0.6863  0.1992
  540TMC3    O1 8076   1.532   3.553  11.471 -0.0572 -0.1311  0.8297
  540TMC3    O2 8077   1.752   3.828  11.146  0.1821 -0.4224 -0.0160
  541MPD2     C 8078   0.925   4.496  13.156 -0.1968 -0.3240  0.0132
  541MPD2    C1 8079   0.919   4.395  13.061  0.5167 -0.3398 -0.1091
  541MPD2    C2 8080   0.929   4.434  12.924 -0.5287 -0.1111 -0.3050
  541MPD2    C3 8081   0.941   4.571  12.884 -0.3501  1.2793  1.0375
  541MPD2    C4 8082   0.944   4.665  12.988 -0.7404  0.8032 -1.0083
  541MPD2    C5 8083   0.928   4.625  13.120 -0.1477 -0.0647  0.3472
  541MPD2     H 8084   0.920   4.351  12.856  2.4428 -1.9978  1.5811
  541MPD2    H1 8085   0.949   0.036  12.964  1.9695  0.7816 -0.5483
  541MPD2    H2 8086   0.917   4.471  13.261  0.2980  1.3621  0.4582
  541MPD2    H3 8087   0.922   4.701  13.197 -1.4038  0.1804  0.0129
  541MPD2     N 8088   0.948   4.623  12.753  0.6490 -0.2553 -0.3065
  541MPD2    H5 8089   0.949   4.723  12.738 -1.4810  0.1996  2.5838
  541MPD2    N1 8090   0.892   4.256  13.089 -0.2562  0.6143  0.4552
  541MPD2    H7 8091   0.920   4.192  13.016  1.6831 -0.7189  2.4109
  542TMC3    C1 8092   0.980   4.625  12.528  0.2802  0.0762 -0.7211
  542TMC3    C2 8093   1.051   4.574  12.423 -0.1915 -0.1111 -0.2034
  542TMC3    C3 8094   1.020   4.645  12.303 -0.4477 -0.2300  0.5339
  542TMC3    C4 8095   0.897   4.727  12.513 -0.1750 -0.0006  1.1017
  542TMC3    C5 8096   0.871   0.049  12.392  0.1384 -0.1592  0.3674
  542TMC3    C6 8097   0.938   0.014  12.282  0.1075 -1.0423 -0.7736
  542TMC3     C 8098   0.975   4.546  12.643  0.7020  0.1418 -0.4001
  542TMC3     O 8099   0.996   4.426  12.633 -0.5605 -0.3815 -0.6605
  542TMC3     H 8100   1.103   4.479  12.425  0.3885  0.2037 -0.3052
  542TMC3    H1 8101   0.856   0.044  12.599 -0.0682  0.6305  0.7738
  542TMC3    H2 8102   0.906   0.043  12.183  2.2929  0.5930 -0.9910
  542TMC3    C7 8103   0.764   0.151  12.383 -0.1427 -0.7444 -0.2302
  542TMC3    C8 8104   1.072   4.595  12.180 -0.2171 -0.1561  0.5365
  542TMC3    O1 8105   0.691   0.168  12.480 -0.2422 -0.2328 -0.2027
  542TMC3    O2 8106   0.995   4.591  12.088  0.2246 -0.5156  0.6818
  543TMC3    C1 8107   4.668   1.646  16.812  0.5632  0.0050 -0.2152
  543TMC3    C2 8108   4.678   1.533  16.895  0.7685 -0.8653 -0.1815
  543TMC3    C3 8109   4.604   1.522  17.006 -0.4532 -0.5922 -0.1052
  543TMC3    C4 8110   4.582   1.750  16.845 -1.0014  0.4047 -0.1072
  543TMC3    C5 8111   4.506   1.732  16.963  0.8019 -0.2524 -0.2041
  543TMC3    C6 8112   4.518   1.621  17.045  0.4976 -0.1739 -0.4517
  543TMC3     C 8113   0.040   1.666  16.718  0.1589  0.2457 -0.9641
  543TMC3     O 8114   0.128   1.591  16.716  0.2143 -0.1566  0.1421
  543TMC3     H 8115   0.007   1.449  16.871  0.2675 -1.7872  1.7275
  543TMC3    H1 8116   4.569   1.839  16.784  2.2882  0.1571 -1.1589
  543TMC3    H2 8117   4.449   1.612  17.128 -1.1678 -0.1986 -1.8608
  543TMC3    C7 8118   4.406   1.828  17.000  0.0281 -0.6376 -0.1648
  543TMC3    C8 8119   4.638   1.422  17.098  0.5113 -0.3975  0.5702
  543TMC3    O1 8120   4.312   1.785  17.062  0.1737 -0.3449  0.5838
  543TMC3    O2 8121   4.710   1.330  17.066 -0.4569 -0.3128  0.2714
  544MPD2     C 8122   4.604   1.186  17.568  0.7675 -1.3674  0.6260
  544MPD2    C1 8123   4.682   1.147  17.452  0.5813  0.2487  0.1197
  544MPD2    C2 8124   4.672   1.231  17.339 -0.5643 -0.1617  0.2608
  544MPD2    C3 8125   4.600   1.352  17.336 -0.6497  0.0230  1.0562
  544MPD2    C4 8126   4.538   1.380  17.452 -0.0626  0.4537 -0.1662
  544MPD2    C5 8127   4.538   1.306  17.567 -0.3986  0.3828 -0.2141
  544MPD2     H 8128   4.729   1.196  17.254  0.7474 -0.1252  1.1256
  544MPD2    H1 8129   4.469   1.462  17.447  1.4768  1.8539  1.3636
  544MPD2    H2 8130   4.600   1.121  17.655  0.4614  0.0540  1.6610
  544MPD2    H3 8131   4.471   1.332  17.648  1.8711 -2.5411  2.5966
  544MPD2     N 8132   4.586   1.441  17.224 -0.4683  0.4571 -0.1095
  544MPD2    H5 8133   4.526   1.522  17.237 -2.0086 -0.8039  0.6995
  544MPD2    N1 8134   0.016   1.025  17.452 -0.2251 -0.4932 -0.1351
  544MPD2    H7 8135   4.722   0.957  17.522 -1.1284 -0.3458 -0.3628
  545TMC3    C1 8136   0.141   0.835  17.372  0.1307 -0.0108 -0.2352
  545TMC3    C2 8137   0.173   0.761  17.266 -0.0949 -0.1583  0.0410
  545TMC3    C3 8138   0.221   0.636  17.287  0.2159  0.4355 -0.4447
  545TMC3    C4 8139   0.158   0.785  17.497  0.6041 -0.0905  0.1479
  545TMC3    C5 8140   0.204   0.659  17.519  0.1721  1.2030 -0.9978
  545TMC3    C6 8141   0.227   0.576  17.409  0.3821  0.0545 -0.2768
  545TMC3     C 8142   0.088   0.973  17.349  0.0874  0.3922 -0.5838
  545TMC3     O 8143   0.129   1.027  17.245  0.5853 -0.2703 -0.4609
  545TMC3     H 8144   0.166   0.799  17.165 -0.5453 -0.2885  0.0207
  545TMC3    H1 8145   0.140   0.842  17.588  1.0308 -0.4003  0.4266
  545TMC3    H2 8146   0.260   0.474  17.425 -0.2508 -0.4383 -2.1599
  545TMC3    C7 8147   0.278   0.639  17.645  0.0334  0.7591  0.3615
  545TMC3    C8 8148   0.244   0.559  17.166 -0.7935  0.1580  0.0413
  545TMC3    O1 8149   0.225   0.676   0.013 -0.4680 -0.2542 -0.8025
  545TMC3    O2 8150   0.264   0.621  17.061  0.2914  0.4356  0.8683
  546MPD2     C 8151   1.670   1.160  17.333  0.2635 -0.3486  0.0020
  546MPD2    C1 8152   1.631   1.212  17.214 -0.5949 -0.2523 -0.1550
  546MPD2    C2 8153   1.678   1.337  17.169  0.0891 -0.6967  0.2873
  546MPD2    C3 8154   1.767   1.408  17.252  0.3800 -0.1568  0.6889
  546MPD2    C4 8155   1.797   1.358  17.380  0.2667 -0.0509  0.1283
  546MPD2    C5 8156   1.738   1.240  17.427 -0.9300  0.0593 -0.9769
  546MPD2     H 8157   1.654   1.381  17.073 -0.0214 -0.5941  0.3610
  546MPD2    H1 8158   1.856   1.416  17.450 -0.8339  2.4579 -1.0112
  546MPD2    H2 8159   1.654   1.054  17.350 -1.3816  0.0918  1.1565
  546MPD2    H3 8160   1.769   1.197  17.522 -2.1176  2.6031  0.5679
  546MPD2     N 8161   1.820   1.533  17.216  0.6978 -0.2032 -0.1003
  546MPD2    H5 8162   1.876   1.578  17.288  2.7613 -2.2062 -0.4843
  546MPD2    N1 8163   1.540   1.129  17.145 -0.5022 -0.6012 -0.0170
  546MPD2    H7 8164   1.495   1.050  17.191 -2.6787  1.0131  0.6868
  547TMC3    C1 8165   1.392   1.070  16.967  0.6458  0.3266  0.5047
  547TMC3    C2 8166   1.287   1.136  16.906  0.3957  0.1419  0.1667
  547TMC3    C3 8167   1.166   1.077  16.909  0.4706  0.7956  0.4692
  547TMC3    C4 8168   1.368   0.965  17.043  0.0997 -0.0663 -0.3204
  547TMC3    C5 8169   1.242   0.922  17.069 -0.2223  0.0175  0.5290
  547TMC3    C6 8170   1.137   0.970  16.991 -0.1711 -0.1051  0.1482
  547TMC3     C 8171   1.502   1.155  17.011 -1.0757 -0.1514 -0.2661
  547TMC3     O 8172   1.526   1.249  16.935 -0.1015  0.4762  0.5808
  547TMC3     H 8173   1.298   1.228  16.849  0.1134  1.1992  1.7894
  547TMC3    H1 8174   1.447   0.909  17.091 -0.2541 -0.8332 -0.6394
  547TMC3    H2 8175   1.038   0.925  16.989 -0.3932  0.4031 -0.2570
  547TMC3    C7 8176   1.211   0.854  17.194 -0.3399 -0.2855  0.2016
  547TMC3    C8 8177   1.058   1.132  16.825  0.1752 -0.6336 -0.4460
  547TMC3    O1 8178   1.310   0.842  17.267 -0.1322 -0.1988  0.3737
  547TMC3    O2 8179   1.089   1.225  16.750  0.6848  0.2962  0.0312
  548MPD2     C 8180   1.230   1.759  12.780 -0.4713 -0.8755 -0.3531
  548MPD2    C1 8181   1.207   1.628  12.748  0.5285  0.2745  0.2140
  548MPD2    C2 8182   1.309   1.537  12.744  0.1798 -0.0623  0.4851
  548MPD2    C3 8183   1.435   1.589  12.752  0.4318  0.3520  0.3615
  548MPD2    C4 8184   1.465   1.725  12.773  0.2825  0.3492 -0.5438
  548MPD2    C5 8185   1.358   1.811  12.801 -0.5716  0.4085 -0.0610
  548MPD2     H 8186   1.288   1.431  12.733 -0.2760 -0.1976  2.7031
  548MPD2    H1 8187   1.564   1.768  12.761 -0.5834  2.2900 -0.8585
  548MPD2    H2 8188   1.142   1.821  12.794  0.8662  0.7429  0.9619
  548MPD2    H3 8189   1.377   1.916  12.822 -0.2946  0.4666 -0.6052
  548MPD2     N 8190   1.531   1.493  12.744  0.3664  0.1336 -0.2779
  548MPD2    H5 8191   1.507   1.394  12.741 -0.1515  0.1579  2.9817
  548MPD2    N1 8192   1.073   1.593  12.725 -0.0449  0.1182 -0.1869
  548MPD2    H7 8193   1.009   1.669  12.747 -0.3067 -0.3126  0.5454
  549TMC3    C1 8194   0.884   1.460  12.685 -0.2278  0.0253 -0.1103
  549TMC3    C2 8195   0.811   1.573  12.708  0.5768 -0.0383  0.2662
  549TMC3    C3 8196   0.675   1.562  12.686 -0.8518 -0.4748 -1.1422
  549TMC3    C4 8197   0.835   1.339  12.657 -0.1448 -0.3241  1.0415
  549TMC3    C5 8198   0.698   1.326  12.642  0.0490 -0.1894 -0.1877
  549TMC3    C6 8199   0.620   1.441  12.661  0.1014 -0.7499 -0.4074
  549TMC3     C 8200   1.028   1.470  12.682 -0.3428 -0.9636  0.1311
  549TMC3     O 8201   1.086   1.379  12.627 -0.2043 -0.2663 -0.2737
  549TMC3     H 8202   0.849   1.672  12.731 -0.9908  1.0264 -1.7445
  549TMC3    H1 8203   0.898   1.254  12.635  1.8985  1.4226  0.2248
  549TMC3    H2 8204   0.513   1.441  12.646  0.2284  0.1540 -1.3259
  549TMC3    C7 8205   0.631   1.200  12.642  0.6043  0.3330 -0.0495
  549TMC3    C8 8206   0.599   1.680  12.653 -0.9550  0.4482 -0.1618
  549TMC3    O1 8207   0.515   1.203  12.678 -0.0015 -0.0759 -0.2708
  549TMC3    O2 8208   0.477   1.678  12.681 -0.1965 -0.0704 -0.3344
  550TMC3    C1 8209   0.207   4.133  12.743 -0.1645  0.2663  0.7822
  550TMC3    C2 8210   0.162   4.188  12.856  0.2690 -0.3467  0.1892
  550TMC3    C3 8211   0.189   4.318  12.885 -0.1708  0.0808  0.9763
  550TMC3    C4 8212   0.289   4.203  12.660 -0.0218  0.7110 -0.4940
  550TMC3    C5 8213   0.333   4.326  12.695  0.1637  0.4116 -0.7729
  550TMC3    C6 8214   0.285   4.383  12.811  0.3963  0.1762  1.0572
  550TMC3     C 8215   0.165   4.000  12.703  0.7753 -0.2027  0.8022
  550TMC3     O 8216   0.146   3.923  12.798  0.1534  0.4135 -0.1486
  550TMC3     H 8217   0.083   4.139  12.911 -0.5545  0.2939 -0.4217
  550TMC3    H1 8218   0.331   4.162  12.569 -1.0213  0.8711 -1.0399
  550TMC3    H2 8219   0.311   4.485  12.834  1.2761  0.2310 -0.2203
  550TMC3    C7 8220   0.327   4.412  12.582  0.2594 -0.3839  0.4961
  550TMC3    C8 8221   0.075   4.412  12.911  0.1673  0.0743 -0.1645
  550TMC3    O1 8222   0.284   4.364  12.476  0.1870  0.2052 -0.3032
  550TMC3    O2 8223   0.098   4.528  12.930 -0.0400  0.4629  0.4343
  551TMC3    C1 8224   2.573   2.481  13.323 -0.1418 -0.1833 -0.2415
  551TMC3    C2 8225   2.657   2.386  13.292  0.2432  0.4043 -0.2605
  551TMC3    C3 8226   2.789   2.398  13.332 -0.5705  0.7845  0.3165
  551TMC3    C4 8227   2.609   2.588  13.396 -0.5648 -0.2328 -0.7442
  551TMC3    C5 8228   2.741   2.595  13.438  0.2306  0.4693  0.5988
  551TMC3    C6 8229   2.833   2.502  13.407  0.2436  0.3167  0.4370
  551TMC3     C 8230   2.461   2.493  13.233  0.8828  0.2203 -0.1537
  551TMC3     O 8231   2.419   2.389  13.187  0.2420 -0.0113 -0.1884
  551TMC3     H 8232   2.627   2.293  13.244  0.8078  1.5383 -2.8391
  551TMC3    H1 8233   2.537   2.638  13.459 -0.0433 -0.1465 -0.2222
  551TMC3    H2 8234   2.933   2.506  13.448  0.0835  2.5151  0.6113
  551TMC3    C7 8235   2.784   2.688  13.542  0.0093 -0.5354  0.1053
  551TMC3    C8 8236   2.871   2.376  13.209 -0.2223 -0.2196  0.6577
  551TMC3    O1 8237   2.855   2.644  13.632  0.2914  0.1042 -0.3485
  551TMC3    O2 8238   2.833   2.309  13.117  0.0134  0.1614  0.1904
  552MPD2     C 8239   4.575   4.458  14.046  0.1599  0.5094 -0.2178
  552MPD2    C1 8240   4.506   4.345  14.092  0.0719  0.2224  0.5134
  552MPD2    C2 8241   4.554   4.281  14.202 -0.3833  0.7276  0.1728
  552MPD2    C3 8242   4.673   4.322  14.260  1.1991 -0.5682 -0.1017
  552MPD2    C4 8243   0.005   4.430  14.208  0.1901  0.5162  0.6549
  552MPD2    C5 8244   4.695   4.495  14.099  0.8395  0.4999 -0.2828
  552MPD2     H 8245   4.509   4.189  14.237  1.1794  0.0893  0.5134
  552MPD2    H1 8246   0.105   4.448  14.247  0.9247 -1.3483 -0.3735
  552MPD2    H2 8247   4.547   4.509  13.954 -1.9356 -2.2391 -1.1126
  552MPD2    H3 8248   0.021   4.574  14.057 -1.2971  1.5365 -1.4238
  552MPD2     N 8249   0.009   4.253  14.366  0.0024 -0.4778 -0.3436
  552MPD2    H5 8250   0.090   4.300  14.404 -0.7469  1.2274 -0.8320
  552MPD2    N1 8251   4.386   4.302  14.024 -0.9654  0.1808  0.2440
  552MPD2    H7 8252   4.341   4.218  14.059  0.7327  0.2753  2.6878
  553TMC3    C1 8253   4.214   4.289  13.868 -0.2481 -0.3146 -0.3197
  553TMC3    C2 8254   4.163   4.344  13.756  0.4931 -0.3353 -0.8139
  553TMC3    C3 8255   4.117   4.263  13.655  0.4712 -0.1476 -0.4151
  553TMC3    C4 8256   4.208   4.156  13.894  0.2164 -0.5043 -0.0971
  553TMC3    C5 8257   4.157   4.080  13.795  0.1613 -0.5930  0.5712
  553TMC3    C6 8258   4.099   4.131  13.682  0.8309 -0.6420 -0.2495
  553TMC3     C 8259   4.319   4.375  13.929  0.1843  0.4982 -0.5956
  553TMC3     O 8260   4.329   4.491  13.901  0.5904  0.6818  0.0796
  553TMC3     H 8261   4.169   4.452  13.746  2.8754 -0.2599  1.2421
  553TMC3    H1 8262   4.244   4.105  13.983 -0.4144 -2.9547 -1.2360
  553TMC3    H2 8263   4.054   4.059  13.615  1.9646 -2.5516  1.0658
  553TMC3    C7 8264   4.167   3.939  13.803 -0.7187  0.0138 -0.6733
  553TMC3    C8 8265   4.206   4.278  13.544 -0.2654 -0.3610 -0.0650
  553TMC3    O1 8266   4.060   3.885  13.787  0.3024  0.1089 -0.1155
  553TMC3    O2 8267   4.293   4.355  13.569 -0.1606 -0.2553  0.3858
  554TMC3    C1 8268   1.069   3.161  10.987 -0.5209  0.1338 -0.0668
  554TMC3    C2 8269   1.035   3.112  10.859  0.9321  0.0948  0.0843
  554TMC3    C3 8270   1.112   3.159  10.750 -0.1056 -0.2047  0.0467
  554TMC3    C4 8271   1.172   3.245  11.009  0.4849  0.4746  0.3260
  554TMC3    C5 8272   1.240   3.287  10.899  0.5643  1.0530 -0.2874
  554TMC3    C6 8273   1.214   3.246  10.776  0.6670 -0.3197  0.0739
  554TMC3     C 8274   1.000   3.111  11.101  0.1188 -0.0063  0.1252
  554TMC3     O 8275   0.902   3.045  11.084  0.4781 -0.1334  0.4219
  554TMC3     H 8276   0.955   3.039  10.849  0.3927  0.8047 -0.7706
  554TMC3    H1 8277   1.189   3.279  11.111  1.0518 -2.5176  1.2298
  554TMC3    H2 8278   1.268   3.283  10.689 -0.1159 -0.4015 -0.4522
  554TMC3    C7 8279   1.347   3.383  10.910  0.5296 -0.0371 -0.2101
  554TMC3    C8 8280   1.050   3.168  10.620 -0.0369 -0.3949 -0.3748
  554TMC3    O1 8281   1.410   3.400  10.808  0.1391  0.0802  0.9042
  554TMC3    O2 8282   1.093   3.265  10.552  0.2350 -0.3275  0.5015
  555TMC3    C1 8283   0.356   2.923  15.009 -0.1496 -0.3935 -0.3772
  555TMC3    C2 8284   0.332   3.021  15.103  0.6314  0.6242 -0.4184
  555TMC3    C3 8285   0.411   3.019  15.218 -0.8895  0.4902  0.0189
  555TMC3    C4 8286   0.443   2.820  15.032 -0.2080 -0.2179 -0.2203
  555TMC3    C5 8287   0.517   2.819  15.145 -0.1032 -0.8387 -0.0960
  555TMC3    C6 8288   0.511   2.926  15.235  0.2635  0.2042 -0.5679
  555TMC3     C 8289   0.253   2.892  14.903 -0.4891  0.1363 -0.0110
  555TMC3     O 8290   0.280   2.787  14.843 -0.3983 -0.9197  0.0486
  555TMC3     H 8291   0.248   3.087  15.088  0.1036 -0.3073 -1.5521
  555TMC3    H1 8292   0.460   2.737  14.965 -1.4475  0.3057 -1.1729
  555TMC3    H2 8293   0.573   2.934  15.323  2.2918 -1.8957 -1.8093
  555TMC3    C7 8294   0.580   2.695  15.198  0.2167 -0.5738 -1.0735
  555TMC3    C8 8295   0.377   3.115  15.321 -0.1317 -0.1108 -0.2837
  555TMC3    O1 8296   0.606   2.685  15.315 -0.0976  0.0521 -1.0144
  555TMC3    O2 8297   0.312   3.210  15.287  0.2432 -0.0906 -0.2240
  556MPD2     C 8298   3.367   0.449  10.839 -0.1972  0.3247  0.7936
  556MPD2    C1 8299   3.328   0.327  10.893 -0.0566  0.1949  0.2594
  556MPD2    C2 8300   3.293   0.223  10.806  0.4362  0.6520  0.2055
  556MPD2    C3 8301   3.292   0.241  10.667  0.1090  0.4080  0.8247
  556MPD2    C4 8302   3.326   0.370  10.618 -0.3595  0.2131  0.2673
  556MPD2    C5 8303   3.359   0.475  10.705  0.1504 -0.2753 -0.1489
  556MPD2     H 8304   3.257   0.133  10.854 -1.8932  0.5592 -1.6792
  556MPD2    H1 8305   3.328   0.399  10.514  3.4140  0.9428  0.5245
  556MPD2    H2 8306   3.397   0.533  10.900 -0.0129 -1.0366  2.5761
  556MPD2    H3 8307   3.387   0.573  10.669  1.5331 -0.8835 -0.7194
  556MPD2     N 8308   3.264   0.128  10.586  0.5013 -0.5077 -0.4903
  556MPD2    H5 8309   3.246   0.040  10.633 -1.3796  0.7323  1.0921
  556MPD2    N1 8310   3.311   0.313  11.034 -0.7274  0.4601  0.3863
  556MPD2    H7 8311   3.287   0.221  11.069  0.5627 -0.5104 -1.3183
  557TMC3    C1 8312   3.215   4.735  10.398  0.1331  0.5310 -0.3690
  557TMC3    C2 8313   3.233   4.701  10.271  0.2583  0.0055  0.0682
  557TMC3    C3 8314   3.193   4.586  10.223 -0.3609 -0.6316  0.9331
  557TMC3    C4 8315   3.160   4.645  10.489  0.1424  0.4048 -0.3202
  557TMC3    C5 8316   3.106   4.533  10.429 -0.2410  0.0147 -0.3052
  557TMC3    C6 8317   3.128   4.491  10.305  0.4087 -0.2215 -0.1248
  557TMC3     C 8318   3.264   0.125  10.447 -0.3500  0.1028  1.0051
  557TMC3     O 8319   3.292   0.217  10.371  0.2562  0.0240 -0.5687
  557TMC3     H 8320   3.300   0.024  10.209 -0.7920  0.3287 -0.7706
  557TMC3    H1 8321   3.112   4.681  10.580  1.0311  0.6892  0.0409
  557TMC3    H2 8322   3.077   4.403  10.268 -0.3152 -0.5888  1.7570
  557TMC3    C7 8323   3.029   4.455  10.522  0.1768  0.2415  0.9124
  557TMC3    C8 8324   3.236   4.569  10.085 -0.7622  0.2778  0.8279
  557TMC3    O1 8325   2.918   4.412  10.489 -0.1635 -0.0387 -0.0348
  557TMC3    O2 8326   3.344   4.616  10.055  0.2721  0.2249  0.1252
  558TMC3    C1 8327   1.230   1.849   9.658  0.2707  0.0958  0.2037
  558TMC3    C2 8328   1.125   1.820   9.741 -0.2807 -0.2090  0.1851
  558TMC3    C3 8329   1.010   1.898   9.729 -0.2392 -0.8033 -0.0280
  558TMC3    C4 8330   1.217   1.931   9.558  0.0101  0.2678 -0.0642
  558TMC3    C5 8331   1.095   1.979   9.528  0.7044 -0.1402 -0.4290
  558TMC3    C6 8332   0.993   1.976   9.614  0.4217  0.2381 -1.3970
  558TMC3     C 8333   1.347   1.872   9.737  0.6375 -0.4434  0.3798
  558TMC3     O 8334   1.325   1.872   9.858  0.2156  0.3901  0.3060
  558TMC3     H 8335   1.136   1.750   9.823  1.4824 -0.6972 -0.4728
  558TMC3    H1 8336   1.303   1.973   9.507 -1.6908  1.4481 -1.9630
  558TMC3    H2 8337   0.911   2.047   9.605 -0.6552 -0.9710 -1.1382
  558TMC3    C7 8338   1.086   2.075   9.418  0.2357 -0.5121 -0.5446
  558TMC3    C8 8339   0.943   1.941   9.853 -0.2532  0.2690  0.3926
  558TMC3    O1 8340   1.183   2.101   9.350  0.0680 -0.1170 -0.0572
  558TMC3    O2 8341   0.840   2.002   9.839  1.1357  0.4099 -0.1153
  559MPD2     C 8342   1.172   3.093   9.919 -0.8199 -0.3361  0.0282
  559MPD2    C1 8343   1.112   2.997   9.987 -0.0067  0.4147  0.4029
  559MPD2    C2 8344   1.148   2.969  10.116 -0.7977  0.4388  0.4127
  559MPD2    C3 8345   1.245   3.048  10.183 -0.8125  0.0905  0.2692
  559MPD2    C4 8346   1.307   3.143  10.110  0.1306 -0.7114  1.0626
  559MPD2    C5 8347   1.268   3.171   9.981  0.5982 -0.2669  0.3027
  559MPD2     H 8348   1.102   2.889  10.173 -0.7148  0.0566 -0.0536
  559MPD2    H1 8349   1.387   3.203  10.151  0.1268 -1.0316  1.5289
  559MPD2    H2 8350   1.138   3.124   9.821  1.1657 -0.2590 -0.6379
  559MPD2    H3 8351   1.328   3.249   9.935  0.7382 -0.6961 -0.2296
  559MPD2     N 8352   1.284   3.012  10.317 -0.1872  0.1128  0.6922
  559MPD2    H5 8353   1.239   2.932  10.360  0.0957 -0.6190 -0.3893
  559MPD2    N1 8354   1.004   2.925   9.922  0.1735  0.7285  0.7919
  559MPD2    H7 8355   0.977   2.954   9.829  0.5901 -2.2733 -0.2742
  560TMC3    C1 8356   1.415   3.015  10.516 -0.1955  0.6180 -0.3873
  560TMC3    C2 8357   1.382   2.881  10.528  0.0185  0.4817 -0.2883
  560TMC3    C3 8358   1.421   2.827  10.647  0.4577  0.0895  0.5103
  560TMC3    C4 8359   1.493   3.082  10.604 -0.4955 -0.2397  0.0949
  560TMC3    C5 8360   1.535   3.029  10.718 -0.3211 -0.4933 -0.0517
  560TMC3    C6 8361   1.494   2.898  10.742  0.0757 -0.4420 -0.4366
  560TMC3     C 8362   1.380   3.081  10.391 -0.0724 -0.1010  0.4337
  560TMC3     O 8363   1.419   3.197  10.377 -1.0832 -0.0709  0.3196
  560TMC3     H 8364   1.345   2.825  10.443  0.8119 -0.2137 -0.1741
  560TMC3    H1 8365   1.511   3.189  10.601 -0.8128 -0.1989 -0.3913
  560TMC3    H2 8366   1.534   2.854  10.833  1.7392 -1.1729 -1.5201
  560TMC3    C7 8367   1.669   3.073  10.770 -0.3334  0.1321 -0.1910
  560TMC3    C8 8368   1.388   2.686  10.668  0.8274  0.2868  0.0849
  560TMC3    O1 8369   1.737   3.159  10.714 -0.4688 -0.2321  0.3050
  560TMC3    O2 8370   1.428   2.644  10.775 -0.7478  0.2087 -0.2300
  561TMC3    C1 8371   4.221   1.627  11.051 -0.0283 -0.3198 -0.2841
  561TMC3    C2 8372   4.106   1.578  11.104 -0.3153 -0.2094  0.2316
  561TMC3    C3 8373   3.997   1.662  11.115 -0.5019  0.1956 -0.2233
  561TMC3    C4 8374   4.227   1.751  10.994 -0.0720 -0.7810  0.2853
  561TMC3    C5 8375   4.113   1.829  10.996 -0.2350  0.1620 -1.1070
  561TMC3    C6 8376   3.994   1.789  11.061 -0.2586 -0.0723 -0.3106
  561TMC3     C 8377   4.331   1.536  11.020  0.3682 -0.1085  0.4523
  561TMC3     O 8378   4.303   1.420  10.991 -0.3877 -0.2778  0.6125
  561TMC3     H 8379   4.102   1.473  11.130  0.3087 -0.5460 -1.0387
  561TMC3    H1 8380   4.321   1.792  10.960 -2.2252  0.8895 -3.6037
  561TMC3    H2 8381   3.908   1.852  11.076  2.0845  3.0886 -0.0040
  561TMC3    C7 8382   4.117   1.973  10.967  0.1626  1.2643  0.2000
  561TMC3    C8 8383   3.879   1.599  11.175 -0.4670 -0.5613  0.0887
  561TMC3    O1 8384   4.033   2.042  11.020  0.2787 -0.4826 -0.2403
  561TMC3    O2 8385   3.882   1.479  11.163  0.2530 -0.1954  0.0200
  562TMC3    C1 8386   0.344   3.572  16.741 -0.3990  0.3720 -0.1393
  562TMC3    C2 8387   0.343   3.703  16.691  0.1776  0.5823  0.0048
  562TMC3    C3 8388   0.364   3.721  16.557  0.7572 -0.3929 -0.1946
  562TMC3    C4 8389   0.368   3.469  16.654 -0.3073 -0.3122  0.0605
  562TMC3    C5 8390   0.377   3.490  16.525 -0.6619 -0.5850  0.6581
  562TMC3    C6 8391   0.372   3.619  16.467 -0.2072  0.8663 -0.5465
  562TMC3     C 8392   0.301   3.552  16.877  0.5578 -0.1798  0.5257
  562TMC3     O 8393   0.279   3.654  16.943  0.1735  0.1183  0.4967
  562TMC3     H 8394   0.347   3.784  16.762 -0.6747  0.4475  0.2114
  562TMC3    H1 8395   0.345   3.371  16.693 -1.2922  0.9507  2.6228
  562TMC3    H2 8396   0.377   3.620  16.359 -0.2453  0.9452 -0.5468
  562TMC3    C7 8397   0.361   3.376  16.432  0.2384  0.7670 -0.4319
  562TMC3    C8 8398   0.337   3.859  16.512 -1.5209  0.9341 -0.5594
  562TMC3    O1 8399   0.326   3.399  16.316 -1.0862  1.0178  0.4801
  562TMC3    O2 8400   0.348   3.950  16.593  0.1213 -0.7680  0.2180
  563MPD2     C 8401   2.617   4.613  15.596  0.1214 -0.0073  0.2771
  563MPD2    C1 8402   2.644   4.604  15.733  0.4541 -0.6296 -0.1860
  563MPD2    C2 8403   2.756   4.541  15.784  0.1561 -0.3630  0.1285
  563MPD2    C3 8404   2.842   4.481  15.697  0.5702 -0.9334  0.1156
  563MPD2    C4 8405   2.821   4.496  15.559  0.1033  0.1084  0.1636
  563MPD2    C5 8406   2.714   4.565  15.513 -0.4439 -0.2314  0.1495
  563MPD2     H 8407   2.770   4.527  15.891 -0.2993 -0.5950  0.1543
  563MPD2    H1 8408   2.902   4.467  15.493  0.5552  3.1947 -0.6673
  563MPD2    H2 8409   2.534   4.672  15.559 -0.4648 -0.5779  0.6759
  563MPD2    H3 8410   2.700   4.577  15.406  1.8510  1.2492  0.0208
  563MPD2     N 8411   2.956   4.422  15.754 -0.0805  0.6492 -0.0258
  563MPD2    H5 8412   2.960   4.410  15.855 -1.6452  2.7373  0.2891
  563MPD2    N1 8413   2.545   4.655  15.823  1.1565 -0.0736 -0.1765
  563MPD2    H7 8414   2.447   4.663  15.798  0.9267  0.6679  0.9458
  564TMC3    C1 8415   2.485   4.678  16.058  0.7088 -0.2845 -0.5024
  564TMC3    C2 8416   2.385   4.587  16.039  0.2701 -0.3249  0.1320
  564TMC3    C3 8417   2.336   4.518  16.145 -0.1013  0.7549  0.2441
  564TMC3    C4 8418   2.533   4.695  16.186  0.3150 -0.8512  0.3380
  564TMC3    C5 8419   2.493   4.615  16.293 -0.6397 -0.1609 -0.3432
  564TMC3    C6 8420   2.387   4.532  16.267 -0.6820  0.2338  0.0944
  564TMC3     C 8421   2.582   4.700  15.950  0.0019 -0.6245  0.1196
  564TMC3     O 8422   2.694   0.009  15.978  0.0748 -0.4988 -0.8149
  564TMC3     H 8423   2.346   4.560  15.941  0.1921 -1.3638  0.4469
  564TMC3    H1 8424   2.628   0.010  16.204 -0.7125  1.0355  0.4550
  564TMC3    H2 8425   2.346   4.492  16.359 -0.3143 -1.7850 -0.6183
  564TMC3    C7 8426   2.606   4.540  16.340  0.3822  0.3742 -0.5377
  564TMC3    C8 8427   2.305   4.379  16.128 -1.2547 -0.3407  0.2367
  564TMC3    O1 8428   2.711   4.601  16.363  0.2367 -0.1678  0.0920
  564TMC3    O2 8429   2.343   4.293  16.207  0.6356  0.0752  0.5060
  565TMC3    C1 8430   2.608   1.617   9.983  0.2610  0.0985 -0.6100
  565TMC3    C2 8431   2.616   1.531  10.087  0.5691  0.3839 -0.0369
  565TMC3    C3 8432   2.502   1.463  10.123 -0.1326  0.0556 -0.0426
  565TMC3    C4 8433   2.491   1.651   9.931 -0.1475  0.4036  0.2762
  565TMC3    C5 8434   2.380   1.589   9.977  0.6904  0.2971 -0.2823
  565TMC3    C6 8435   2.381   1.487  10.064 -0.4113  0.0042 -0.0166
  565TMC3     C 8436   2.720   1.702   9.945 -0.2660 -0.1609  0.6775
  565TMC3     O 8437   2.708   1.791   9.861 -0.1896  0.1167  0.1030
  565TMC3     H 8438   2.707   1.505  10.139  2.7507  3.3408 -2.4080
  565TMC3    H1 8439   2.488   1.720   9.848 -2.2425 -1.9854 -1.6369
  565TMC3    H2 8440   2.295   1.460  10.124 -0.3383  1.7248  0.8822
  565TMC3    C7 8441   2.260   1.581   9.895 -0.7544  0.4083  0.0208
  565TMC3    C8 8442   2.516   1.360  10.233  0.1133  0.4120 -0.4419
  565TMC3    O1 8443   2.214   1.472   9.882  0.2421  0.0525 -0.3724
  565TMC3    O2 8444   2.610   1.384  10.311  0.5932  0.1825  0.1116
  566MPD2     C 8445   0.092   2.159  14.094  0.6219  0.0489  0.3591
  566MPD2    C1 8446   0.102   2.276  14.024  0.2351  0.0013  0.0615
  566MPD2    C2 8447   4.725   2.320  13.947 -0.1753 -0.7429 -1.0534
  566MPD2    C3 8448   4.608   2.244  13.941 -0.0582  0.1273  0.1754
  566MPD2    C4 8449   4.611   2.120  14.003  0.0786  0.9315  0.0766
  566MPD2    C5 8450   4.724   2.078  14.070 -0.1737  0.1577 -0.6220
  566MPD2     H 8451   4.725   2.414  13.893  0.6575 -0.3238 -0.3138
  566MPD2    H1 8452   4.525   2.055  14.006  0.5282  0.3537  0.6795
  566MPD2    H2 8453   0.171   2.112  14.151  0.3672  2.8520  3.0218
  566MPD2    H3 8454   4.724   1.977  14.109  0.3174  0.5617  0.4295
  566MPD2     N 8455   4.488   2.273  13.869  0.3519 -0.3405 -0.6191
  566MPD2    H5 8456   4.419   2.199  13.868  0.3126 -0.3014 -0.7583
  566MPD2    N1 8457   0.228   2.349  14.045  0.1101  0.3451 -0.0655
  566MPD2    H7 8458   0.301   2.295  14.091 -0.5474  1.6710  2.5522
  567TMC3    C1 8459   0.386   2.534  14.027  0.3426  0.7173  0.1618
  567TMC3    C2 8460   0.382   2.657  13.969 -0.7335  0.3865  0.0737
  567TMC3    C3 8461   0.376   2.770  14.054 -0.1819 -0.2352 -0.1798
  567TMC3    C4 8462   0.407   2.525  14.165  0.3883 -0.6892  0.1705
  567TMC3    C5 8463   0.425   2.643  14.237  0.6279  0.0212 -0.5489
  567TMC3    C6 8464   0.395   2.761  14.191  0.3220 -0.4034  0.1419
  567TMC3     C 8465   0.262   2.462  13.982  0.4201  0.3687  0.3379
  567TMC3     O 8466   0.187   2.525  13.906 -0.4003  0.1029  0.5788
  567TMC3     H 8467   0.352   2.655  13.865 -0.2095  1.2409 -0.0907
  567TMC3    H1 8468   0.409   2.423  14.203 -0.0972 -0.8786 -0.3218
  567TMC3    H2 8469   0.398   2.845  14.260  1.1205  0.3305 -0.7884
  567TMC3    C7 8470   0.428   2.634  14.385  0.6592  0.0225 -0.1651
  567TMC3    C8 8471   0.312   2.894  13.995 -0.1661 -0.3207 -0.3779
  567TMC3    O1 8472   0.381   2.725  14.453 -0.4449  0.1253  0.0366
  567TMC3    O2 8473   0.243   2.882  13.894 -0.1054 -0.1226  0.2955
  568MPD2     C 8474   2.725   3.145  16.704 -0.8042 -0.8583 -0.1276
  568MPD2    C1 8475   2.619   3.214  16.761 -0.2845 -0.0718 -0.6627
  568MPD2    C2 8476   2.559   3.316  16.686  1.2479  0.0961 -0.0900
  568MPD2    C3 8477   2.604   3.347  16.557 -0.3428  0.0961  0.0195
  568MPD2    C4 8478   2.712   3.275  16.501  0.6380 -0.3516 -0.6249
  568MPD2    C5 8479   2.774   3.181  16.575 -1.0030  0.1920 -0.3419
  568MPD2     H 8480   2.491   3.384  16.735  0.1331  0.1369 -1.7327
  568MPD2    H1 8481   2.758   3.310  16.410 -1.1486 -0.1483 -1.4613
  568MPD2    H2 8482   2.785   3.075  16.761  0.1705  1.2215  1.3766
  568MPD2    H3 8483   2.849   3.121  16.523 -0.5541 -0.1019  0.6533
  568MPD2     N 8484   2.533   3.449  16.489 -1.1925 -0.6671 -0.0501
  568MPD2    H5 8485   2.449   3.491  16.527 -0.4415  2.2223 -1.6182
  568MPD2    N1 8486   2.567   3.164  16.887  0.0811  0.8174  0.1490
  568MPD2    H7 8487   2.617   3.091  16.936 -1.2013 -0.1502  0.0344
  569TMC3    C1 8488   2.444   3.592  16.329 -0.2849 -0.2959  0.3520
  569TMC3    C2 8489   2.368   3.649  16.427 -0.0070  0.3374 -0.9067
  569TMC3    C3 8490   2.269   3.729  16.376  0.0275  0.3418 -0.0572
  569TMC3    C4 8491   2.419   3.602  16.195 -0.2551 -0.0082 -0.5009
  569TMC3    C5 8492   2.304   3.664  16.151  0.2839  0.0380 -0.1993
  569TMC3    C6 8493   2.231   3.728  16.244 -0.0733  0.6260  0.6614
  569TMC3     C 8494   2.552   3.502  16.362  0.3568  0.6627  0.0858
  569TMC3     O 8495   2.630   3.463  16.277  0.4768 -0.3736  0.5542
  569TMC3     H 8496   2.403   3.666  16.529 -2.9056  1.0981 -0.0460
  569TMC3    H1 8497   2.495   3.560  16.130  1.3380 -0.4580  1.6160
  569TMC3    H2 8498   2.142   3.781  16.211  0.0207  0.6860  0.5057
  569TMC3    C7 8499   2.330   3.746  16.035 -0.5195 -0.5733  0.5653
  569TMC3    C8 8500   2.237   3.850  16.442 -0.3038  0.4525 -0.1560
  569TMC3    O1 8501   2.393   3.695  15.945 -1.2600  0.2209 -0.0243
  569TMC3    O2 8502   2.127   3.900  16.426  0.3056 -0.5081  0.0454
  570TMC3    C1 8503   1.747   2.088  16.101  0.1457 -0.3082  0.3123
  570TMC3    C2 8504   1.826   2.109  15.994  0.3395  0.2644 -1.0885
  570TMC3    C3 8505   1.891   2.230  15.988 -0.0090  0.2453  0.7166
  570TMC3    C4 8506   1.715   2.189  16.191  0.0380 -1.0636  0.6689
  570TMC3    C5 8507   1.765   2.315  16.173  0.1535 -0.1340 -0.8219
  570TMC3    C6 8508   1.850   2.341  16.068 -0.0704 -0.1353 -0.4399
  570TMC3     C 8509   1.709   1.948  16.125 -0.2114  0.4302  0.3908
  570TMC3     O 8510   1.709   1.874  16.030  0.6306  0.2087 -0.5014
  570TMC3     H 8511   1.844   2.022  15.932  2.6716 -1.1031  1.4643
  570TMC3    H1 8512   1.644   2.174  16.271 -0.1788  1.4115  0.9475
  570TMC3    H2 8513   1.896   2.436  16.044  2.9042 -1.1985  1.0090
  570TMC3    C7 8514   1.781   2.403  16.290  0.5831 -0.1157  0.4339
  570TMC3    C8 8515   1.999   2.263  15.888 -0.7282  0.4043  0.1795
  570TMC3    O1 8516   1.760   2.341  16.394 -0.6300 -0.1453  0.2208
  570TMC3    O2 8517   2.069   2.362  15.909  0.9260 -0.5192 -0.4078
  571MPD2     C 8518   0.137   4.207  17.480 -0.0426  0.5887 -0.2246
  571MPD2    C1 8519   0.007   4.254  17.514 -0.2359 -0.4739 -0.0175
  571MPD2    C2 8520   0.001   4.363  17.607  0.0374 -0.9070 -0.8662
  571MPD2    C3 8521   0.115   4.416  17.669 -0.2441 -0.0267  0.6162
  571MPD2    C4 8522   0.240   4.366  17.632  0.1563  0.5302 -0.1189
  571MPD2    C5 8523   0.248   4.265  17.543  0.3427  0.2411  0.8086
  571MPD2     H 8524   4.636   4.394  17.638 -0.1488 -2.0036 -0.3676
  571MPD2    H1 8525   0.329   4.401  17.682  0.4842  0.6058 -0.7580
  571MPD2    H2 8526   0.153   4.118  17.421 -0.3736 -0.2871  1.0115
  571MPD2    H3 8527   0.348   4.226  17.526  0.2835  1.5260 -2.5955
  571MPD2     N 8528   0.105   4.515   0.035 -0.3218  0.2037 -0.5727
  571MPD2    H5 8529   0.192   4.523   0.088 -0.7874  1.9434 -0.0801
  571MPD2    N1 8530   4.627   4.189  17.464  0.5322  0.5110  0.3001
  571MPD2    H7 8531   4.639   4.106  17.406  2.8729 -2.0534  4.4353
  572TMC3    C1 8532   0.015   4.677   0.189 -0.1250 -0.9807 -0.4473
  572TMC3    C2 8533   0.105   4.641   0.288 -0.0652 -0.2309 -0.5744
  572TMC3    C3 8534   0.078   4.696   0.409 -0.4489  0.5530  0.1648
  572TMC3    C4 8535   4.654   0.039   0.205 -0.0071  0.1111 -0.4698
  572TMC3    C5 8536   4.643   0.099   0.322 -0.4873 -0.2150  0.4944
  572TMC3    C6 8537   4.722   0.059   0.424  0.5865 -0.1627 -0.0091
  572TMC3     C 8538   4.733   4.591   0.071 -0.2108 -0.9009  0.1353
  572TMC3     O 8539   4.621   4.601   0.022  0.4477  0.4390  0.6329
  572TMC3     H 8540   0.157   4.546   0.288  0.8406  0.2604  1.1047
  572TMC3    H1 8541   4.586   0.064   0.124 -1.7192  0.2792  0.9969
  572TMC3    H2 8542   4.708   0.105   0.522 -0.4162 -0.3022 -0.0965
  572TMC3    C7 8543   4.557   0.211   0.331 -0.0395 -0.6870 -0.2645
  572TMC3    C8 8544   0.134   4.627   0.520 -0.5508  0.7714  0.6045
  572TMC3    O1 8545   4.538   0.278   0.229 -0.8783  0.3075  0.1918
  572TMC3    O2 8546   0.238   4.568   0.498 -0.0292 -0.3843 -0.1710
  573MPD2     C 8547   1.253   4.246   0.364  0.1012  0.1607  0.2414
  573MPD2    C1 8548   1.283   4.382   0.377 -0.3591  0.1560 -0.2441
  573MPD2    C2 8549   1.244   4.459   0.268  0.0657 -0.3063 -0.4719
  573MPD2    C3 8550   1.191   4.406   0.147  0.9572 -0.5030  1.0104
  573MPD2    C4 8551   1.167   4.271   0.140  0.6379 -0.4847 -0.0758
  573MPD2    C5 8552   1.201   4.197   0.246 -0.6906 -0.4185 -0.3519
  573MPD2     H 8553   1.264   4.566   0.260 -1.5436 -0.0082 -0.5524
  573MPD2    H1 8554   1.129   4.222   0.050  1.6992 -1.5022  0.0284
  573MPD2    H2 8555   1.280   4.178   0.444  3.7039 -0.0894 -1.2018
  573MPD2    H3 8556   1.184   4.091   0.234 -1.3884 -0.2679 -0.7004
  573MPD2     N 8557   1.142   4.486   0.039  0.2358 -0.6070  0.1052
  573MPD2    H5 8558   1.085   4.445  17.704  0.6516 -1.4638  0.2510
  573MPD2    N1 8559   1.319   4.426   0.505  0.8588  0.8945  0.3512
  573MPD2    H7 8560   1.320   4.356   0.579 -2.3376 -0.2503 -0.6999
  574TMC3    C1 8561   1.086   4.664  17.654  0.0975 -0.0501 -0.8308
  574TMC3    C2 8562   0.964   4.699  17.680 -0.1719  0.2847  0.0626
  574TMC3    C3 8563   0.915   0.080  17.639  0.0716 -0.2229 -0.8664
  574TMC3    C4 8564   1.166   0.001  17.574 -0.0576  0.0013  0.0238
  574TMC3    C5 8565   1.098   0.100  17.499 -0.0813 -0.5685  0.4452
  574TMC3    C6 8566   0.982   0.152  17.550  1.0702 -0.4332 -0.0898
  574TMC3     C 8567   1.161   4.622   0.027 -0.3085 -0.6680  0.0822
  574TMC3     O 8568   1.207   4.704   0.101  0.1914 -0.3246  0.3517
  574TMC3     H 8569   0.918   4.638   0.019 -1.5987  1.1714 -0.0864
  574TMC3    H1 8570   1.273   4.718  17.563 -0.6967 -3.1636 -1.0824
  574TMC3    H2 8571   0.956   0.253  17.521 -0.2146 -0.2253  1.7575
  574TMC3    C7 8572   1.176   0.204  17.424  0.1816  0.2200 -0.0363
  574TMC3    C8 8573   0.818   0.136  17.726 -0.1399  0.2422  0.2730
  574TMC3    O1 8574   1.293   0.220  17.459 -0.0832  0.3824 -0.3761
  574TMC3    O2 8575   0.820   0.100   0.105 -0.0168  0.5707  0.5018
  575TMC3    C1 8576   2.730   1.139  11.031  0.1743 -0.2995  0.4123
  575TMC3    C2 8577   2.781   1.015  11.038 -0.3636  0.8671  0.7707
  575TMC3    C3 8578   2.757   0.934  10.931  0.3157  1.1134  1.0684
  575TMC3    C4 8579   2.658   1.187  10.925  0.4670 -0.4223  0.0960
  575TMC3    C5 8580   2.641   1.109  10.824 -0.3373  0.0603 -0.3059
  575TMC3    C6 8581   2.681   0.975  10.828 -0.3650  0.0307  0.0605
  575TMC3     C 8582   2.740   1.221  11.149 -0.3675 -0.0229  0.5860
  575TMC3     O 8583   2.736   1.340  11.135  0.5459 -0.3025  0.8835
  575TMC3     H 8584   2.849   0.994  11.119  0.5775 -1.1990 -0.5476
  575TMC3    H1 8585   2.619   1.288  10.931  1.4130 -0.1481  1.7588
  575TMC3    H2 8586   2.677   0.914  10.739  0.1196  1.7040 -1.1036
  575TMC3    C7 8587   2.547   1.154  10.715  0.1997  0.0190  0.1198
  575TMC3    C8 8588   2.816   0.800  10.929  0.0546  0.0951 -0.5612
  575TMC3    O1 8589   2.549   1.273  10.686 -0.1483 -0.6147  0.1421
  575TMC3    O2 8590   2.919   0.778  10.988  0.0046 -0.4122  0.6142
  576MPD2     C 8591   3.468   1.882  12.252 -0.4966  0.6753 -0.3482
  576MPD2    C1 8592   3.343   1.914  12.209 -0.6932  0.3331  0.7752
  576MPD2    C2 8593   3.232   1.914  12.295 -0.1561  0.1453  0.4378
  576MPD2    C3 8594   3.248   1.865  12.426  0.0035  0.0756 -0.1240
  576MPD2    C4 8595   3.375   1.824  12.462  0.2157  0.3314  1.1302
  576MPD2    C5 8596   3.484   1.834  12.376  0.0990  0.1173 -0.3973
  576MPD2     H 8597   3.135   1.938  12.255  0.4210  1.3848 -0.2290
  576MPD2    H1 8598   3.397   1.792  12.563 -0.4187 -1.6927  0.6384
  576MPD2    H2 8599   3.560   1.891  12.195 -1.5925 -1.5023 -2.4663
  576MPD2    H3 8600   3.580   1.803  12.416 -1.0720 -1.2623  1.3594
  576MPD2     N 8601   3.136   1.870  12.513  1.0584  0.1263  0.3839
  576MPD2    H5 8602   3.049   1.913  12.481 -0.0021  0.3589  3.5683
  576MPD2    N1 8603   3.323   1.965  12.077  0.1852  0.0237 -0.0547
  576MPD2    H7 8604   3.232   2.010  12.066 -1.5422 -3.5361 -0.5500
  577TMC3    C1 8605   3.366   2.015  11.854 -0.2738 -0.4019  0.4509
  577TMC3    C2 8606   3.407   1.957  11.742 -0.3473 -0.2960  0.1034
  577TMC3    C3 8607   3.363   2.002  11.619 -0.3344 -0.5331  0.0518
  577TMC3    C4 8608   3.271   2.113  11.845 -0.2610 -0.2070  0.2172
  577TMC3    C5 8609   3.226   2.157  11.724 -0.4441  0.2517  0.1270
  577TMC3    C6 8610   3.274   2.104  11.604  0.6542 -0.0439  0.5392
  577TMC3     C 8611   3.414   1.959  11.977  0.2687  0.2654  0.0031
  577TMC3     O 8612   3.513   1.891  11.964  0.3481 -0.2464 -0.2661
  577TMC3     H 8613   3.495   1.894  11.735  0.2136  0.4445  0.6225
  577TMC3    H1 8614   3.244   2.183  11.924  0.7306  1.4059 -0.8679
  577TMC3    H2 8615   3.238   2.131  11.506  0.7929 -1.2638  0.1534
  577TMC3    C7 8616   3.135   2.261  11.714 -0.0178 -0.1301  0.4333
  577TMC3    C8 8617   3.442   1.944  11.511 -0.2523 -0.3597 -0.7830
  577TMC3    O1 8618   3.152   2.357  11.640 -0.5845  0.4641 -0.1342
  577TMC3    O2 8619   3.499   2.020  11.434  0.3265  0.3174 -0.7869
  578MPD2     C 8620   0.795   1.931   0.939 -0.2609 -0.7787 -0.1386
  578MPD2    C1 8621   0.919   1.920   0.882 -0.5279  0.6228  0.3353
  578MPD2    C2 8622   1.013   1.842   0.949  0.0876  0.2680 -0.2914
  578MPD2    C3 8623   0.987   1.783   1.074 -0.0872  0.6981 -0.3598
  578MPD2    C4 8624   0.862   1.803   1.131 -0.0448  0.1547 -0.0349
  578MPD2    C5 8625   0.766   1.871   1.063  0.6748  0.0767 -0.0362
  578MPD2     H 8626   1.111   1.831   0.904 -0.5112 -3.1140 -0.7756
  578MPD2    H1 8627   0.824   1.771   1.227  1.4972 -0.0925  0.4952
  578MPD2    H2 8628   0.711   1.978   0.889 -0.7900 -0.8590  0.6814
  578MPD2    H3 8629   0.664   1.865   1.100  0.1960 -2.2456 -1.7616
  578MPD2     N 8630   1.092   1.714   1.145  0.5153 -0.2892 -0.1102
  578MPD2    H5 8631   1.181   1.718   1.096  0.7471 -0.2176  0.3105
  578MPD2    N1 8632   0.937   1.984   0.753  0.8199  0.2037 -0.4196
  578MPD2    H7 8633   0.856   2.039   0.725  0.4252  0.5211  1.3682
  579TMC3    C1 8634   1.225   1.629   1.314  0.4052  0.7823  0.1361
  579TMC3    C2 8635   1.265   1.671   1.435  0.3388 -0.2747  0.7584
  579TMC3    C3 8636   1.399   1.635   1.458 -0.3474 -0.4252  0.0612
  579TMC3    C4 8637   1.287   1.534   1.234  0.4062  0.6528  0.0132
  579TMC3    C5 8638   1.414   1.494   1.258  0.3159  0.0177  0.1196
  579TMC3    C6 8639   1.468   1.553   1.371 -0.6996 -0.0915 -0.3344
  579TMC3     C 8640   1.093   1.665   1.270  0.2259 -0.7339 -0.0924
  579TMC3     O 8641   0.999   1.673   1.349 -0.9523 -0.7062 -0.0977
  579TMC3     H 8642   1.209   1.737   1.500  1.0977  0.4565  0.6901
  579TMC3    H1 8643   1.234   1.498   1.147  0.2697 -0.2376  0.4634
  579TMC3    H2 8644   1.568   1.518   1.395 -0.8223 -0.6203 -0.5942
  579TMC3    C7 8645   1.469   1.364   1.207  0.6744  0.2437  1.0880
  579TMC3    C8 8646   1.452   1.672   1.585  0.5122 -0.3550  0.1877
  579TMC3    O1 8647   1.548   1.306   1.288 -0.1131  0.3660  0.2310
  579TMC3    O2 8648   1.369   1.669   1.672  0.0710 -0.4481 -0.1644
  580TMC3    C1 8649   1.291   1.450  12.403 -0.1551  0.6710  0.0271
  580TMC3    C2 8650   1.420   1.500  12.408 -0.1403  0.0599  0.4006
  580TMC3    C3 8651   1.519   1.417  12.377  0.2348  0.4895 -0.1845
  580TMC3    C4 8652   1.261   1.322  12.366 -0.0547 -0.4159  0.6074
  580TMC3    C5 8653   1.374   1.248  12.334  0.4431 -0.0970 -0.7124
  580TMC3    C6 8654   1.502   1.292  12.329 -0.2693  0.6764  0.2084
  580TMC3     C 8655   1.192   1.561  12.373 -0.0435  0.4845 -0.9412
  580TMC3     O 8656   1.229   1.676  12.391 -0.2019 -0.1285  0.5427
  580TMC3     H 8657   1.440   1.604  12.431 -0.1653  0.6752 -2.4143
  580TMC3    H1 8658   1.159   1.286  12.371  0.8607 -2.9225  1.2432
  580TMC3    H2 8659   1.584   1.222  12.323  1.0974  2.4199 -1.5220
  580TMC3    C7 8660   1.350   1.108  12.332  0.1998  0.0668 -0.1186
  580TMC3    C8 8661   1.633   1.496  12.346 -0.3572  0.3436 -0.8372
  580TMC3    O1 8662   1.250   1.077  12.389 -0.1059  0.6843  0.2511
  580TMC3    O2 8663   1.651   1.601  12.407  0.1183 -0.0582  0.6185
  581MPD2     C 8664   3.860   1.783  15.207 -0.1015  0.2283 -0.6956
  581MPD2    C1 8665   3.859   1.678  15.115  0.2689  0.6998 -0.4011
  581MPD2    C2 8666   3.735   1.641  15.064  0.2076 -0.3655 -0.9003
  581MPD2    C3 8667   3.616   1.710  15.101  0.1941 -0.4084  0.2761
  581MPD2    C4 8668   3.627   1.814  15.190 -0.2519 -0.1108 -0.5971
  581MPD2    C5 8669   3.748   1.854  15.242 -0.1311  0.0523  0.9993
  581MPD2     H 8670   3.730   1.555  14.998  1.1662  0.1304 -1.6169
  581MPD2    H1 8671   3.534   1.863  15.216  1.0302  2.0436 -0.0255
  581MPD2    H2 8672   3.956   1.794  15.255 -1.0541  3.7140  0.3780
  581MPD2    H3 8673   3.764   1.933  15.315 -1.5647  0.8356  0.4619
  581MPD2     N 8674   3.487   1.684  15.049 -0.1309  0.8555 -0.4437
  581MPD2    H5 8675   3.415   1.746  15.085 -0.8192  1.4578 -2.9017
  581MPD2    N1 8676   3.985   1.612  15.091  0.7398  0.2212  0.9367
  581MPD2    H7 8677   4.064   1.644  15.146  0.2557 -0.6179  2.1237
  582TMC3    C1 8678   4.107   1.413  15.048  0.1867  0.7463  0.3258
  582TMC3    C2 8679   4.097   1.367  15.180  0.0148 -0.0385 -0.0068
  582TMC3    C3 8680   4.093   1.237  15.199 -0.0453  0.4731  0.1072
  582TMC3    C4 8681   4.119   1.326  14.942 -0.3480  0.3295  0.0512
  582TMC3    C5 8682   4.112   1.193  14.973 -0.5080  1.3791  0.1592
  582TMC3    C6 8683   4.100   1.144  15.096  0.2141 -0.2796  0.2927
  582TMC3     C 8684   4.000   1.502  15.017  0.0627 -0.2449  0.8412
  582TMC3     O 8685   3.932   1.470  14.918 -0.1776  0.3531 -0.2516
  582TMC3     H 8686   4.067   1.432  15.262  0.1153 -0.6997  0.5556
  582TMC3    H1 8687   4.121   1.357  14.838 -2.2259  1.0459  0.2176
  582TMC3    H2 8688   4.089   1.040  15.124 -1.5490  0.6873  3.2786
  582TMC3    C7 8689   4.037   1.108  14.887 -0.8456 -0.4675 -0.2858
  582TMC3    C8 8690   4.018   1.205  15.313 -0.0025 -0.4871 -0.5674
  582TMC3    O1 8691   4.045   0.989  14.908  0.2540  0.2233  0.8386
  582TMC3    O2 8692   3.934   1.283  15.352 -0.0981 -0.0375  0.2854
  583MPD2     C 8693   3.889   2.946  17.001  0.3515  0.0712 -0.5766
  583MPD2    C1 8694   3.881   3.047  16.904 -0.4666  0.6664 -0.1267
  583MPD2    C2 8695   3.835   3.174  16.935  0.6221  0.0490  0.1018
  583MPD2    C3 8696   3.804   3.198  17.070  0.0809 -0.0506 -0.0958
  583MPD2    C4 8697   3.828   3.100  17.168  0.0443 -0.7286 -0.0364
  583MPD2    C5 8698   3.870   2.974  17.134  0.3011 -0.4314  0.0195
  583MPD2     H 8699   3.829   3.253  16.861 -0.1729 -0.8679 -0.8127
  583MPD2    H1 8700   3.813   3.117  17.274 -1.6149 -0.1207 -0.3701
  583MPD2    H2 8701   3.934   2.850  16.981  2.3793  0.5276  1.7895
  583MPD2    H3 8702   3.883   2.897  17.210 -1.6971 -0.3785  0.4299
  583MPD2     N 8703   3.749   3.324  17.104 -0.4583 -0.0370 -0.2939
  583MPD2    H5 8704   3.714   3.375  17.024 -0.4715 -1.8446 -1.4434
  583MPD2    N1 8705   3.924   3.027  16.769 -0.1067  0.6111 -0.0773
  583MPD2    H7 8706   3.922   3.109  16.710  0.4219  1.8599  1.6558
  584TMC3    C1 8707   3.645   3.497  17.222 -0.4234 -0.5865 -0.2266
  584TMC3    C2 8708   3.687   3.598  17.139  0.7747  0.8459  0.1764
  584TMC3    C3 8709   3.628   3.719  17.148 -1.0304  0.4092 -1.0073
  584TMC3    C4 8710   3.560   3.522  17.324  0.2262 -0.2702 -0.1331
  584TMC3    C5 8711   3.503   3.650  17.329  0.6508 -0.5692 -0.9329
  584TMC3    C6 8712   3.530   3.740  17.234  0.0343  0.1822  0.0269
  584TMC3     C 8713   3.716   3.374  17.232 -0.3242  1.0841 -0.3705
  584TMC3     O 8714   3.735   3.331  17.347 -0.3812 -0.1376 -0.2731
  584TMC3     H 8715   3.764   3.571  17.067 -0.1567 -0.6418 -0.2737
  584TMC3    H1 8716   3.532   3.440  17.389 -2.3374  0.6290 -0.0711
  584TMC3    H2 8717   3.473   3.832  17.235 -0.8107 -0.3396  0.3367
  584TMC3    C7 8718   3.383   3.654  17.400  0.0019  0.7345  0.2634
  584TMC3    C8 8719   3.649   3.810  17.039  0.7117 -0.6261 -0.3432
  584TMC3    O1 8720   3.396   3.607  17.515  0.6953 -0.1293 -0.2359
  584TMC3    O2 8721   3.632   3.757  16.931  0.3766 -0.3233  0.4754
  585MPD2     C 8722   2.276   1.993   0.738 -0.2288 -0.7533  0.0787
  585MPD2    C1 8723   2.367   2.036   0.650 -0.0145  0.6710 -0.8019
  585MPD2    C2 8724   2.414   1.942   0.556 -0.3872  0.6506  0.1423
  585MPD2    C3 8725   2.372   1.810   0.562 -0.2074 -0.1455  0.2956
  585MPD2    C4 8726   2.275   1.777   0.654  0.6316  0.0286  0.1229
  585MPD2    C5 8727   2.224   1.869   0.740  0.2344 -0.2680 -0.4089
  585MPD2     H 8728   2.486   1.979   0.483  0.8895 -0.8406  0.6583
  585MPD2    H1 8729   2.233   1.677   0.652 -0.4780  0.4595  1.4806
  585MPD2    H2 8730   2.230   2.061   0.808 -0.0875 -2.3649  1.7385
  585MPD2    H3 8731   2.143   1.844   0.807  0.4982  1.3530  0.5114
  585MPD2     N 8732   2.422   1.702   0.488 -0.5839  0.1370  0.7429
  585MPD2    H5 8733   2.382   1.611   0.506 -1.6431  0.4753  0.0655
  585MPD2    N1 8734   2.425   2.169   0.668 -0.1069 -0.2014  0.4205
  585MPD2    H7 8735   2.375   2.217   0.742 -2.2886  1.8484 -2.4207
  586TMC3    C1 8736   2.568   1.594   0.330 -0.2627 -0.1678  0.2219
  586TMC3    C2 8737   2.705   1.594   0.319  0.0066  0.2613 -0.4273
  586TMC3    C3 8738   2.761   1.559   0.197  0.4015 -0.1914 -0.6712
  586TMC3    C4 8739   2.492   1.574   0.220 -0.0216  0.0233  0.4407
  586TMC3    C5 8740   2.548   1.555   0.098  0.4316 -0.0606 -0.9134
  586TMC3    C6 8741   2.681   1.555   0.085  0.2256 -0.0974 -0.1245
  586TMC3     C 8742   2.530   1.714   0.407  0.5627 -0.1785  0.1044
  586TMC3     O 8743   2.604   1.810   0.413  0.7020 -0.5285  0.2989
  586TMC3     H 8744   2.762   1.599   0.411  0.6923 -0.3049 -0.8180
  586TMC3    H1 8745   2.385   1.587   0.205 -0.0090  1.3433  1.4531
  586TMC3    H2 8746   2.732   1.552  17.728  0.0793  1.5607 -0.2511
  586TMC3    C7 8747   2.460   1.554  17.719  0.5070 -0.0126 -0.1694
  586TMC3    C8 8748   2.894   1.500   0.180  0.8326  0.7325  0.0961
  586TMC3    O1 8749   2.367   1.475  17.725 -0.0507 -0.8304 -0.4945
  586TMC3    O2 8750   2.922   1.452   0.071  0.6592 -0.1552  0.3218
  587TMC3    C1 8751   0.308   0.497  16.154 -0.0722  0.1356  0.4344
  587TMC3    C2 8752   0.239   0.519  16.268 -0.2974 -0.0271 -0.2214
  587TMC3    C3 8753   0.294   0.489  16.389  0.5396 -0.1624  0.2822
  587TMC3    C4 8754   0.428   0.435  16.151 -0.0130 -1.1347  0.4727
  587TMC3    C5 8755   0.481   0.398  16.274 -0.1367  0.2019  0.1603
  587TMC3    C6 8756   0.414   0.424  16.390 -0.1010 -0.4333  0.2508
  587TMC3     C 8757   0.244   0.507  16.023  0.0763  0.4293 -0.3295
  587TMC3     O 8758   0.287   0.439  15.926 -0.3706  0.1783  0.2300
  587TMC3     H 8759   0.133   0.538  16.272 -0.0151  1.9559 -1.8733
  587TMC3    H1 8760   0.478   0.409  16.059 -2.7252  0.4782 -1.4484
  587TMC3    H2 8761   0.460   0.407  16.487  1.5748  0.4884 -0.3763
  587TMC3    C7 8762   0.594   0.314  16.284 -0.2513 -0.4948 -0.1501
  587TMC3    C8 8763   0.240   0.530  16.522  0.0362  1.0444  0.5751
  587TMC3    O1 8764   0.643   0.295  16.392  0.2614 -0.2770  0.7326
  587TMC3    O2 8765   0.287   0.474  16.620 -0.5855 -0.8599  0.1609
  588TMC3    C1 8766   2.529   2.973   9.875  0.2267 -0.0265 -0.0486
  588TMC3    C2 8767   2.503   2.840   9.888 -0.1332 -0.1896  0.4583
  588TMC3    C3 8768   2.565   2.774   9.987  0.8623 -0.0361 -0.4878
  588TMC3    C4 8769   2.620   3.037   9.951  0.8090  0.1197  0.0781
  588TMC3    C5 8770   2.688   2.968  10.042  0.0698  1.0630 -0.6533
  588TMC3    C6 8771   2.662   2.835  10.065 -0.4067  0.0969 -0.2268
  588TMC3     C 8772   2.434   3.057   9.805 -0.6513  0.1345 -0.7226
  588TMC3     O 8773   2.378   3.012   9.707 -0.0521  0.2009  0.9441
  588TMC3     H 8774   2.416   2.798   9.839  0.8436  1.0022 -2.2791
  588TMC3    H1 8775   2.657   3.133   9.917 -2.5214  0.9026 -1.3021
  588TMC3    H2 8776   2.696   2.792  10.159 -2.0820  0.7998  0.6921
  588TMC3    C7 8777   2.778   3.041  10.128  0.5964  0.4237 -0.5717
  588TMC3    C8 8778   2.516   2.645  10.019  0.0868 -0.7920  0.0760
  588TMC3    O1 8779   2.883   3.001  10.173 -0.3535  0.2035 -0.0338
  588TMC3    O2 8780   2.407   2.605   9.974  0.0555 -0.3637 -0.1308
  589TMC3    C1 8781   1.728   0.515   1.080  0.5831  0.1651 -0.4605
  589TMC3    C2 8782   1.766   0.625   1.152 -0.1956 -0.0556 -0.1508
  589TMC3    C3 8783   1.880   0.620   1.224  0.0493  0.3520 -0.1572
  589TMC3    C4 8784   1.813   0.414   1.059 -0.0155  0.6885  0.1634
  589TMC3    C5 8785   1.936   0.415   1.121 -0.6875 -0.0206  0.1541
  589TMC3    C6 8786   1.968   0.518   1.209  0.6176  0.2640  0.0077
  589TMC3     C 8787   1.613   0.524   0.992  0.8724  0.4315  0.2933
  589TMC3     O 8788   1.607   0.447   0.898  0.3796  0.2419  0.0264
  589TMC3     H 8789   1.699   0.707   1.176 -0.1202 -0.4163  1.3215
  589TMC3    H1 8790   1.786   0.336   0.989  2.0849  1.5666 -1.6218
  589TMC3    H2 8791   2.038   0.495   1.288  0.4784  0.7759  0.2828
  589TMC3    C7 8792   1.995   0.280   1.121 -0.0313 -0.7368 -0.3219
  589TMC3    C8 8793   1.920   0.729   1.301 -0.4172 -0.4655  0.3279
  589TMC3    O1 8794   1.927   0.186   1.086 -0.1327 -0.7185  0.1874
  589TMC3    O2 8795   1.827   0.803   1.328 -0.2830 -0.0145  0.0633
  590MPD2     C 8796   1.337   3.311  16.080  0.5871  0.3269  0.9227
  590MPD2    C1 8797   1.293   3.430  16.126  0.1159  0.1169  0.4888
  590MPD2    C2 8798   1.390   3.531  16.147  0.1967  0.7682  0.4968
  590MPD2    C3 8799   1.526   3.518  16.134 -0.0382  0.2186 -0.8862
  590MPD2    C4 8800   1.570   3.387  16.104 -0.2103  0.0987 -0.5500
  590MPD2    C5 8801   1.475   3.288  16.071  0.6307  0.5578 -0.3851
  590MPD2     H 8802   1.345   3.626  16.172 -1.6525 -0.0588  0.3238
  590MPD2    H1 8803   1.674   3.372  16.079  0.2535 -1.8998  2.5106
  590MPD2    H2 8804   1.267   3.232  16.056 -0.8647  2.1787 -0.8564
  590MPD2    H3 8805   1.498   3.189  16.031  3.3403  0.1638  2.1204
  590MPD2     N 8806   1.623   3.619  16.140 -0.6582  0.1085  0.3441
  590MPD2    H5 8807   1.719   3.599  16.115 -1.0404 -1.4870  0.1648
  590MPD2    N1 8808   1.155   3.452  16.140  0.6252 -0.3179  0.2738
  590MPD2    H7 8809   1.092   3.383  16.099  1.7821 -1.3085  0.1633
  591TMC3    C1 8810   1.679   3.844  16.143 -0.9125 -0.6904 -0.6309
  591TMC3    C2 8811   1.735   3.815  16.021  0.3979 -0.3515 -0.4771
  591TMC3    C3 8812   1.755   3.918  15.938 -1.0568 -0.0134 -0.2035
  591TMC3    C4 8813   1.630   3.963  16.174 -1.4361  0.6647 -0.9790
  591TMC3    C5 8814   1.640   4.059  16.079 -0.1046 -0.5021 -0.3552
  591TMC3    C6 8815   1.697   4.041  15.957  0.1490 -0.2673 -0.6183
  591TMC3     C 8816   1.599   3.739  16.197 -0.4205 -0.1110 -1.2500
  591TMC3     O 8817   1.495   3.765  16.261  0.3066  0.2304 -0.1677
  591TMC3     H 8818   1.790   3.724  16.003  0.4855 -0.3618 -0.1704
  591TMC3    H1 8819   1.587   3.987  16.271  1.8856 -2.2227  1.1800
  591TMC3    H2 8820   1.691   4.110  15.874 -1.7314  1.5408  1.0364
  591TMC3    C7 8821   1.563   4.175  16.102 -0.3085  0.3901  0.5185
  591TMC3    C8 8822   1.813   3.878  15.804 -0.3788  0.6052  0.3116
  591TMC3    O1 8823   1.490   4.177  16.200 -0.3197  0.3485 -0.2184
  591TMC3    O2 8824   1.849   3.765  15.778 -0.2089  0.3309 -1.0357
  592MPD2     C 8825   1.967   0.931  11.717 -0.0485 -0.0288 -0.2602
  592MPD2    C1 8826   1.963   0.967  11.847 -0.0992 -0.0245 -0.6451
  592MPD2    C2 8827   1.907   0.874  11.938  0.2793 -0.9785 -0.5307
  592MPD2    C3 8828   1.865   0.750  11.897  0.5688 -0.2757 -0.5884
  592MPD2    C4 8829   1.871   0.715  11.761  0.5140 -0.4385  0.5908
  592MPD2    C5 8830   1.916   0.808  11.669  0.4752  0.2532 -0.9316
  592MPD2     H 8831   1.926   0.884  12.044 -1.0954 -1.8800 -0.2066
  592MPD2    H1 8832   1.826   0.624  11.723 -2.4917  1.1170  0.4022
  592MPD2    H2 8833   2.012   0.996  11.642 -1.6730 -0.4594 -1.6153
  592MPD2    H3 8834   1.915   0.788  11.562  0.3899  1.8885 -1.2493
  592MPD2     N 8835   1.812   0.656  11.993  0.5253  0.2343 -0.1599
  592MPD2    H5 8836   1.780   0.693  12.082  0.1422  0.5045 -0.4084
  592MPD2    N1 8837   2.009   1.104  11.880  0.4969 -0.6257 -0.2336
  592MPD2    H7 8838   2.049   1.164  11.809 -0.2864 -0.0679 -0.1993
  593TMC3    C1 8839   2.026   1.301  12.020 -0.6292 -0.3809  0.6539
  593TMC3    C2 8840   2.067   1.342  12.142  0.0780  0.2733  0.1995
  593TMC3    C3 8841   2.156   1.445  12.139  0.5749 -0.2375  0.1352
  593TMC3    C4 8842   2.057   1.374  11.905  0.3091  0.3685  0.1185
  593TMC3    C5 8843   2.131   1.487  11.917  0.0079  0.8138  0.1360
  593TMC3    C6 8844   2.185   1.523  12.034  0.1126 -0.6636  0.1377
  593TMC3     C 8845   1.984   1.159  12.004 -0.1461  0.3322 -0.4824
  593TMC3     O 8846   1.910   1.123  12.094 -1.0483 -0.0689 -0.0750
  593TMC3     H 8847   2.046   1.281  12.229 -0.5336 -1.6888 -1.3419
  593TMC3    H1 8848   2.014   1.347  11.809 -1.7520  2.3021  0.5035
  593TMC3    H2 8849   2.239   1.617  12.039  1.5913 -1.4492 -1.4237
  593TMC3    C7 8850   2.151   1.580  11.799  0.3966 -0.1405  0.3200
  593TMC3    C8 8851   2.244   1.455  12.262 -0.0403  0.8344 -0.1116
  593TMC3    O1 8852   2.178   1.695  11.825 -0.3716 -0.1606 -0.2557
  593TMC3    O2 8853   2.216   1.410  12.374  0.0724  0.5679 -0.2569
  594MPD2     C 8854   0.535   4.248  14.156  0.3681 -0.1158  0.8206
  594MPD2    C1 8855   0.552   4.236  14.292  0.1354 -0.6304 -0.0328
  594MPD2    C2 8856   0.672   4.283  14.344  0.0857 -0.8184  0.7026
  594MPD2    C3 8857   0.768   4.347  14.261  0.4263 -0.7759  0.7381
  594MPD2    C4 8858   0.747   4.362  14.125 -0.1966 -0.4549  0.3520
  594MPD2    C5 8859   0.626   4.321  14.076  0.5884 -0.0013 -0.1226
  594MPD2     H 8860   0.697   4.262  14.448  0.3655 -3.9014  0.0243
  594MPD2    H1 8861   0.824   4.408  14.065 -0.2939 -0.1979  0.4214
  594MPD2    H2 8862   0.449   4.217  14.098  0.8643  1.5173 -0.8182
  594MPD2    H3 8863   0.610   4.356  13.975  1.7191  1.1852  0.1180
  594MPD2     N 8864   0.889   4.390  14.331  0.1860 -0.6883  0.1849
  594MPD2    H5 8865   0.900   4.368  14.429 -0.3159 -0.5063  0.2822
  594MPD2    N1 8866   0.448   4.166  14.356  0.0872  0.5486 -0.1210
  594MPD2    H7 8867   0.372   4.142  14.292 -0.5077 -1.0862  1.1895
  595TMC3    C1 8868   1.319   4.533  14.391 -0.3627  0.7150  0.0901
  595TMC3    C2 8869   1.220   4.496  14.305  1.2332 -0.1430 -0.0392
  595TMC3    C3 8870   1.098   4.476  14.358  0.3077 -0.0560 -0.1179
  595TMC3    C4 8871   1.293   4.567  14.523  0.2441  0.3510 -0.2470
  595TMC3    C5 8872   1.162   4.553  14.569  0.4225 -0.0935  0.0610
  595TMC3    C6 8873   1.062   4.503  14.491 -0.5486  0.4955  0.0432
  595TMC3     C 8874   1.450   4.549  14.334  0.4001 -0.9267  1.1015
  595TMC3     O 8875   1.482   4.476  14.244  0.0946 -0.2683  0.1547
  595TMC3     H 8876   1.247   4.483  14.201  1.5002  1.9639 -0.2333
  595TMC3    H1 8877   1.368   4.603  14.593 -0.1443 -1.2998  1.0125
  595TMC3    H2 8878   0.965   4.493  14.537 -1.6896  0.5772 -2.3615
  595TMC3    C7 8879   1.117   4.644  14.674  0.5601  0.4276 -0.0070
  595TMC3    C8 8880   0.994   4.454  14.264 -0.1002  0.7005  0.3637
  595TMC3    O1 8881   1.011   4.697  14.665  0.1186  0.5887  0.7678
  595TMC3    O2 8882   1.016   4.491  14.151 -0.0188  0.0143 -0.1310
  596MPD2     C 8883   4.682   2.790  16.938 -0.7820 -0.2968  0.2088
  596MPD2    C1 8884   4.653   2.904  16.864  0.7862  0.0135  0.1954
  596MPD2    C2 8885   4.656   2.896  16.720  0.5999 -0.3128  0.4833
  596MPD2    C3 8886   4.686   2.774  16.658  0.3876  0.3198 -0.9314
  596MPD2    C4 8887   4.734   2.668  16.736 -0.5174  0.6059 -0.2544
  596MPD2    C5 8888   4.731   2.685  16.872 -0.6718  0.0919 -0.8232
  596MPD2     H 8889   4.640   2.981  16.655 -2.8581 -0.3469  1.2834
  596MPD2    H1 8890   0.035   2.580  16.684  5.1682  2.9418 -0.2389
  596MPD2    H2 8891   4.661   2.783  17.045 -0.8481  1.2083  0.3011
  596MPD2    H3 8892   0.009   2.596  16.932 -1.6656  2.1622  2.5089
  596MPD2     N 8893   4.695   2.758  16.519 -0.0672  0.3708 -0.0685
  596MPD2    H5 8894   4.730   2.669  16.483  0.4145 -0.2813  2.0441
  596MPD2    N1 8895   4.628   3.032  16.916  0.0318 -0.1599 -1.2830
  596MPD2    H7 8896   4.626   3.107  16.847  2.2155  0.5024 -0.6407
  597TMC3    C1 8897   4.642   3.212  17.059 -0.4536 -0.5644  0.2002
  597TMC3    C2 8898   4.708   3.282  16.959 -0.2776 -0.0416 -0.1577
  597TMC3    C3 8899   4.652   3.399  16.920 -0.2395  0.0315 -0.4578
  597TMC3    C4 8900   4.527   3.263  17.118  0.2093 -0.0055 -0.3590
  597TMC3    C5 8901   4.484   3.388  17.075  0.3350 -0.6243  0.2637
  597TMC3    C6 8902   4.548   3.461  16.979  0.6056 -0.2908 -0.0169
  597TMC3     C 8903   4.638   3.069  17.046  0.3953 -0.3733 -0.0580
  597TMC3     O 8904   4.655   3.000  17.144 -0.2082 -0.5657 -0.2958
  597TMC3     H 8905   0.057   3.235  16.910  1.6953  1.9853  1.2235
  597TMC3    H1 8906   4.474   3.205  17.193  0.2980  0.1262 -0.1957
  597TMC3    H2 8907   4.504   3.553  16.942  0.2414  0.8088  3.2047
  597TMC3    C7 8908   4.372   3.435  17.149 -0.2262 -0.4687  0.4715
  597TMC3    C8 8909   4.703   3.453  16.790  0.4366 -0.0358 -0.8838
  597TMC3    O1 8910   4.324   3.365  17.240 -0.4789  0.1372 -0.2090
  597TMC3    O2 8911   0.059   3.393  16.734 -0.5148 -0.3279  0.1497
  598TMC3    C1 8912   2.577   4.195  15.377  0.0589  0.6553  0.1703
  598TMC3    C2 8913   2.459   4.219  15.312 -0.5123  0.3296 -0.7642
  598TMC3    C3 8914   2.470   4.255  15.182 -0.4073 -0.8275 -0.4914
  598TMC3    C4 8915   2.694   4.220  15.320 -0.0395 -0.3542 -0.1089
  598TMC3    C5 8916   2.693   4.266  15.193 -0.4676 -0.1920 -0.3718
  598TMC3    C6 8917   2.583   4.298  15.126  0.2565 -0.5803  0.0757
  598TMC3     C 8918   2.569   4.176  15.523 -0.0627 -0.1701  0.5271
  598TMC3     O 8919   2.470   4.214  15.584 -0.0298 -0.4479  0.3571
  598TMC3     H 8920   2.366   4.222  15.367  0.1680 -2.1140  0.5267
  598TMC3    H1 8921   2.789   4.191  15.363 -0.4069  0.3456  1.2011
  598TMC3    H2 8922   2.581   4.344  15.028 -0.8104  0.1607  0.4541
  598TMC3    C7 8923   2.819   4.303  15.132 -0.6423 -0.2018  0.0779
  598TMC3    C8 8924   2.359   4.312  15.116  0.3874 -0.4851  0.1946
  598TMC3    O1 8925   2.909   4.224  15.154 -0.2396  0.0259  0.3826
  598TMC3    O2 8926   2.373   4.423  15.067 -0.6604  0.2774  0.5813
  599MPD2     C 8927   2.701   1.954  15.635 -0.7304  0.6747 -0.2182
  599MPD2    C1 8928   2.704   1.829  15.687 -0.6164  0.4556  0.2699
  599MPD2    C2 8929   2.629   1.800  15.795  0.1779 -0.6235  0.8779
  599MPD2    C3 8930   2.545   1.893  15.854  0.1144 -0.8802 -0.2878
  599MPD2    C4 8931   2.540   2.023  15.799  0.5039  0.3858 -0.0691
  599MPD2    C5 8932   2.626   2.052  15.692 -0.3143 -0.1711  0.4917
  599MPD2     H 8933   2.634   1.702  15.842 -1.8002  0.2068  2.7939
  599MPD2    H1 8934   2.472   2.101  15.832 -2.4662 -2.1921 -0.1864
  599MPD2    H2 8935   2.762   1.978  15.548  0.0726  2.0297  0.7334
  599MPD2    H3 8936   2.609   2.146  15.641 -2.0838  0.9539  3.1083
  599MPD2     N 8937   2.464   1.863  15.966 -0.4511  0.3441 -0.7274
  599MPD2    H5 8938   2.415   1.941  16.010 -0.5196 -0.2075  0.1798
  599MPD2    N1 8939   2.792   1.737  15.629  0.0006 -0.1642  0.4485
  599MPD2    H7 8940   2.856   1.774  15.560  0.4993 -0.2003  0.8922
  600TMC3    C1 8941   2.362   1.749  16.144  0.1598  0.2873  0.4190
  600TMC3    C2 8942   2.300   1.633  16.175  0.5898 -0.0007 -0.0231
  600TMC3    C3 8943   2.233   1.620  16.296 -0.3410 -0.1093  1.3141
  600TMC3    C4 8944   2.381   1.847  16.233  0.0518 -0.4199  0.4881
  600TMC3    C5 8945   2.333   1.822  16.357  0.1488 -0.4983  0.6333
  600TMC3    C6 8946   2.258   1.711  16.389  0.0113  0.0750  0.0292
  600TMC3     C 8947   2.450   1.739  16.033  0.1487 -0.0453  0.3473
  600TMC3     O 8948   2.464   1.628  15.982 -0.6665  0.2274  0.6879
  600TMC3     H 8949   2.264   1.576  16.090 -0.5025 -1.1379  1.2164
  600TMC3    H1 8950   2.443   1.934  16.217 -1.4833  0.9730  2.1846
  600TMC3    H2 8951   2.208   1.706  16.485  1.1206 -0.4953  0.5756
  600TMC3    C7 8952   2.325   1.928  16.458  0.2554 -0.1325  0.2251
  600TMC3    C8 8953   2.104   1.574  16.282  0.1754 -0.0507  0.3124
  600TMC3    O1 8954   2.225   1.925  16.530  0.0532  0.1206 -0.8687
  600TMC3    O2 8955   2.013   1.657  16.301 -0.2834  0.0909  0.3380
  601MPD2     C 8956   4.106   0.398   0.476  0.3797  0.2856 -0.5680
  601MPD2    C1 8957   4.200   0.442   0.386  0.2595 -0.5099  0.4205
  601MPD2    C2 8958   4.317   0.383   0.382  0.2345  0.4880 -0.1460
  601MPD2    C3 8959   4.350   0.270   0.456 -0.5501  0.2179  0.0009
  601MPD2    C4 8960   4.253   0.227   0.542 -0.5061  0.3571 -0.1725
  601MPD2    C5 8961   4.129   0.291   0.555 -0.7608 -1.5184 -0.2165
  601MPD2     H 8962   4.394   0.424   0.317  2.4476 -0.1150  2.0582
  601MPD2    H1 8963   4.287   0.151   0.613  0.8384 -0.3906 -1.6199
  601MPD2    H2 8964   4.005   0.437   0.477  0.7585  1.2516 -0.4959
  601MPD2    H3 8965   4.055   0.256   0.627 -2.5213 -0.6538 -1.6023
  601MPD2     N 8966   4.479   0.203   0.441  0.3255 -0.2561 -0.8631
  601MPD2    H5 8967   4.495   0.125   0.504  0.9770 -0.1658 -0.9171
  601MPD2    N1 8968   4.175   0.548   0.297  0.4803  0.0555  0.2968
  601MPD2    H7 8969   4.243   0.565   0.224 -0.8571  1.9886 -0.4944
  602TMC3    C1 8970   4.052   0.687   0.162 -0.3192  0.6897  0.1996
  602TMC3    C2 8971   3.980   0.801   0.150  1.0129 -0.0774  0.2111
  602TMC3    C3 8972   3.957   0.860   0.031 -0.1913 -0.1905  0.3405
  602TMC3    C4 8973   4.103   0.627   0.052  0.1133 -0.2390  0.0270
  602TMC3    C5 8974   4.083   0.684  17.666 -0.2934  0.1052 -1.0803
  602TMC3    C6 8975   4.005   0.796  17.656  0.0777  0.2482 -0.0595
  602TMC3     C 8976   4.070   0.633   0.291 -0.5157  0.4785 -0.1002
  602TMC3     O 8977   3.985   0.652   0.375 -0.1979  0.3734 -0.5507
  602TMC3     H 8978   3.936   0.843   0.239 -0.3080 -0.0838 -0.4441
  602TMC3    H1 8979   4.149   0.529   0.042 -3.7362 -2.1605  1.2508
  602TMC3    H2 8980   3.990   0.845  17.560  1.1021 -2.6399 -1.7141
  602TMC3    C7 8981   4.131   0.615  17.548  0.6187  0.7692 -0.5815
  602TMC3    C8 8982   3.849   0.958   0.030 -0.0295  0.1857  0.5993
  602TMC3    O1 8983   4.237   0.561  17.550 -0.1945  0.0318 -0.0053
  602TMC3    O2 8984   3.826   1.029   0.131 -0.1495 -0.5193  0.0971
  603TMC3    C1 8985   2.872   0.432  11.232 -0.3274 -0.1749  0.6527
  603TMC3    C2 8986   2.894   0.421  11.369 -0.5568 -0.7185 -0.1118
  603TMC3    C3 8987   2.855   0.519  11.445  0.0633 -0.4700  0.3618
  603TMC3    C4 8988   2.793   0.533  11.184  1.0016 -0.2773  0.1100
  603TMC3    C5 8989   2.769   0.638  11.267 -0.6775  1.1849 -0.0191
  603TMC3    C6 8990   2.811   0.642  11.399 -0.3587  0.8001 -0.5836
  603TMC3     C 8991   2.900   0.309  11.155 -0.3911 -0.1632  0.3879
  603TMC3     O 8992   2.980   0.226  11.200 -0.3663  0.2429  0.1412
  603TMC3     H 8993   2.955   0.343  11.411  0.8349  1.2421  1.5190
  603TMC3    H1 8994   2.778   0.541  11.077  2.0268  0.7377  0.0401
  603TMC3    H2 8995   2.770   0.720  11.462  0.4298 -1.4308  2.6804
  603TMC3    C7 8996   2.672   0.740  11.231  0.7042  0.6704 -0.0055
  603TMC3    C8 8997   2.832   0.478  11.582  0.0905  0.1365  0.2045
  603TMC3    O1 8998   2.689   0.852  11.276  0.4035  1.0292  0.5985
  603TMC3    O2 8999   2.873   0.366  11.613  0.5125 -0.2223 -0.1305
  604MPD2     C 9000   3.833   4.235  16.433  0.5341 -0.2093  0.6403
  604MPD2    C1 9001   3.719   4.174  16.381 -0.0992  0.6894 -0.2825
  604MPD2    C2 9002   3.723   4.114  16.256 -0.1147  0.5775  0.0501
  604MPD2    C3 9003   3.843   4.110  16.187 -0.0635  0.1724 -0.8004
  604MPD2    C4 9004   3.953   4.183  16.239  0.4945  1.0818 -0.1481
  604MPD2    C5 9005   3.948   4.234  16.364  0.1652 -0.4733  0.2893
  604MPD2     H 9006   3.635   4.067  16.214  0.5660 -0.7560  0.1222
  604MPD2    H1 9007   4.049   4.186  16.189  0.7286  1.3055  0.3144
  604MPD2    H2 9008   3.841   4.286  16.528 -0.3135 -1.8405  1.6055
  604MPD2    H3 9009   4.036   4.282  16.407 -0.9318  1.9529 -0.1872
  604MPD2     N 9010   3.855   4.036  16.070  0.4362 -0.0501  0.0252
  604MPD2    H5 9011   3.769   3.986  16.047 -0.4161  0.9419  1.0443
  604MPD2    N1 9012   3.603   4.181  16.455 -0.1153 -0.0061  0.3292
  604MPD2    H7 9013   3.614   4.248  16.530 -0.8412 -0.0252  0.4522
  605TMC3    C1 9014   3.390   4.156  16.525 -0.8417 -0.2426 -0.1532
  605TMC3    C2 9015   3.440   4.230  16.633  0.3201  0.6472  0.5346
  605TMC3    C3 9016   3.396   4.360  16.656 -0.1396  0.4121 -0.2611
  605TMC3    C4 9017   3.291   4.203  16.450  1.7605 -0.6275  0.7245
  605TMC3    C5 9018   3.234   4.330  16.477  0.0370 -0.0254  0.3143
  605TMC3    C6 9019   3.283   4.407  16.582  0.5694 -0.5239  0.2355
  605TMC3     C 9020   3.499   4.091  16.448 -0.0361 -0.2455  0.3672
  605TMC3     O 9021   3.460   4.014  16.360  0.6776  0.7326 -0.0442
  605TMC3     H 9022   3.524   4.189  16.688 -1.2599  1.2009  3.3586
  605TMC3    H1 9023   3.266   4.151  16.358  1.8115  0.4529  0.1051
  605TMC3    H2 9024   3.251   4.506  16.612 -0.7460 -0.7376 -0.4463
  605TMC3    C7 9025   3.101   4.348  16.444 -0.1679  0.5848 -0.5539
  605TMC3    C8 9026   3.514   4.445  16.674 -0.4342  0.3815 -0.4348
  605TMC3    O1 9027   3.053   4.454  16.465  0.4413 -0.4219  0.3157
  605TMC3    O2 9028   3.622   4.383  16.683  0.4553  0.5457  0.3259
  606TMC3    C1 9029   4.498   2.288   0.776 -0.5361 -0.4256  0.3478
  606TMC3    C2 9030   4.586   2.201   0.830 -0.7489 -0.6336 -0.7715
  606TMC3    C3 9031   4.556   2.070   0.868  0.1178  0.2130  0.2723
  606TMC3    C4 9032   4.369   2.241   0.760 -0.0825 -0.8195 -0.4873
  606TMC3    C5 9033   4.346   2.115   0.788 -0.3209 -0.3681  0.0177
  606TMC3    C6 9034   4.436   2.023   0.840 -0.2436 -0.2389 -0.5520
  606TMC3     C 9035   4.531   2.428   0.759  0.1639  0.7101  0.0565
  606TMC3     O 9036   4.640   2.461   0.801 -0.1594  0.3341  0.5353
  606TMC3     H 9037   4.687   2.238   0.842 -1.1232  0.0250  0.3572
  606TMC3    H1 9038   4.284   2.304   0.734 -0.0604 -0.0401  1.3089
  606TMC3    H2 9039   4.415   1.916   0.847 -0.8572 -0.2781 -2.9594
  606TMC3    C7 9040   4.221   2.063   0.735 -0.2332 -0.1158 -0.0349
  606TMC3    C8 9041   4.669   1.980   0.898  0.4974 -0.4796 -0.4113
  606TMC3    O1 9042   4.183   1.964   0.793 -0.8900 -0.3431 -0.6144
  606TMC3    O2 9043   0.052   2.007   0.869  0.0875  0.0328  0.4773
  607MPD2     C 9044   2.077   0.131  11.570  0.5517 -0.2925 -0.0954
  607MPD2    C1 9045   2.018   0.180  11.685  0.8316 -0.2523 -1.1438
  607MPD2    C2 9046   1.954   0.098  11.776 -0.0837  0.6280  0.2195
  607MPD2    C3 9047   1.954   4.698  11.759  0.8106  0.0970  0.6217
  607MPD2    C4 9048   2.022   4.645  11.654  0.2213  0.8663  0.5425
  607MPD2    C5 9049   2.079   4.729  11.556 -0.0676 -0.4025  0.1270
  607MPD2     H 9050   1.904   0.149  11.858  0.0209 -0.4906  0.9689
  607MPD2    H1 9051   2.026   4.538  11.637  1.6144  0.9412  0.3770
  607MPD2    H2 9052   2.127   0.188  11.493 -1.3223 -0.7032 -1.6156
  607MPD2    H3 9053   2.125   4.682  11.470  0.2949  0.1590  0.0199
  607MPD2     N 9054   1.883   4.623  11.851 -0.4454  0.0163  0.5532
  607MPD2    H5 9055   1.840   4.667  11.932 -1.0220  0.2301  0.1305
  607MPD2    N1 9056   2.031   0.316  11.721  0.6121 -0.2529 -0.2314
  607MPD2    H7 9057   1.980   0.333  11.806 -0.5664 -0.7503 -0.8356
  608TMC3    C1 9058   2.150   0.501  11.771  0.5878  0.6050 -0.5000
  608TMC3    C2 9059   2.163   0.465  11.899  0.2278  0.0100  0.4907
  608TMC3    C3 9060   2.196   0.558  11.994 -0.1711 -0.8164  0.0060
  608TMC3    C4 9061   2.213   0.614  11.730  0.8951 -0.0100  0.5924
  608TMC3    C5 9062   2.247   0.709  11.826 -0.2824  0.0839 -0.5339
  608TMC3    C6 9063   2.245   0.679  11.965 -0.0848  0.0927 -0.1072
  608TMC3     C 9064   2.129   0.397  11.673  0.4069  0.0879 -0.2397
  608TMC3     O 9065   2.196   0.392  11.571 -0.0150  0.1078  0.3855
  608TMC3     H 9066   2.173   0.360  11.926 -1.6150 -0.6261 -1.2516
  608TMC3    H1 9067   2.217   0.620  11.622  0.9357  1.9628  0.7096
  608TMC3    H2 9068   2.254   0.753  12.044  0.3657  0.2526 -0.3063
  608TMC3    C7 9069   2.295   0.842  11.779 -1.1303 -0.0470 -0.4635
  608TMC3    C8 9070   2.127   0.549  12.125 -0.0853  0.3157  0.7664
  608TMC3    O1 9071   2.301   0.865  11.659 -0.2450  0.0790 -0.4861
  608TMC3    O2 9072   2.128   0.639  12.209 -0.4075  0.3038 -0.4026
  609TMC3    C1 9073   0.272   0.239   9.276 -0.3106  0.3090 -0.1725
  609TMC3    C2 9074   0.206   0.293   9.164 -0.1398 -0.0358  1.1228
  609TMC3    C3 9075   0.240   0.242   9.045  0.1739  0.0719  0.3004
  609TMC3    C4 9076   0.358   0.127   9.265 -0.1133  0.2049 -0.3020
  609TMC3    C5 9077   0.385   0.077   9.138 -0.2350  0.1254 -0.2708
  609TMC3    C6 9078   0.341   0.150   9.028  0.1411  0.1458 -0.6684
  609TMC3     C 9079   0.224   0.282   9.409 -0.2813  0.0905  0.4087
  609TMC3     O 9080   0.249   0.205   9.497 -0.0970 -0.0706  0.3166
  609TMC3     H 9081   0.148   0.385   9.168  0.3539  0.2563  1.5619
  609TMC3    H1 9082   0.391   0.068   9.350 -0.5567 -1.3157 -1.2013
  609TMC3    H2 9083   0.383   0.127   8.931 -0.3758  1.1429 -1.1196
  609TMC3    C7 9084   0.486   4.707   9.120 -0.2467  0.1851  0.0081
  609TMC3    C8 9085   0.208   0.321   8.921  0.9930  0.3582 -0.2008
  609TMC3    O1 9086   0.552   4.683   9.223  0.3988 -0.7836 -0.7380
  609TMC3    O2 9087   0.252   0.272   8.816  0.1721 -0.0264 -0.2685
  610TMC3    C1 9088   2.234   0.077  12.591  0.2729 -0.4069 -0.1905
  610TMC3    C2 9089   2.230   0.128  12.462 -0.0155 -0.2600  0.2066
  610TMC3    C3 9090   2.323   0.226  12.428  0.3146 -0.1115  0.2233
  610TMC3    C4 9091   2.331   0.120  12.679  0.4032 -0.6295 -0.5046
  610TMC3    C5 9092   2.433   0.203  12.634  0.0927 -0.2094 -0.0704
  610TMC3    C6 9093   2.427   0.256  12.512 -0.6731 -0.1073  0.1788
  610TMC3     C 9094   2.109   0.024  12.656  0.0757 -0.1710  0.8367
  610TMC3     O 9095   2.112   0.035  12.780 -0.1101  1.2842 -0.3637
  610TMC3     H 9096   2.150   0.118  12.389  0.0019  1.5933 -0.0522
  610TMC3    H1 9097   2.336   0.080  12.780 -2.1482  1.8989  0.6512
  610TMC3    H2 9098   2.515   0.311  12.479 -1.8357  0.8787 -1.2333
  610TMC3    C7 9099   2.561   0.210  12.695  0.7442  0.8717 -0.2617
  610TMC3    C8 9100   2.347   0.271  12.290 -0.5193  0.1936 -0.1240
  610TMC3    O1 9101   2.654   0.230  12.619  0.0861  0.0413  0.6040
  610TMC3    O2 9102   2.362   0.390  12.276 -0.3665 -0.3248  0.5911
  611MPD2     C 9103   1.143   0.701  10.733  0.5414 -0.1293 -0.5422
  611MPD2    C1 9104   1.197   0.630  10.627 -0.4066 -0.2888  0.3751
  611MPD2    C2 9105   1.336   0.594  10.640 -0.1119 -0.4216  1.0135
  611MPD2    C3 9106   1.412   0.633  10.750 -0.6939  0.7396  0.1107
  611MPD2    C4 9107   1.350   0.703  10.852 -0.2221  0.0786 -0.4526
  611MPD2    C5 9108   1.214   0.729  10.845 -0.6707 -0.2374  0.2515
  611MPD2     H 9109   1.376   0.540  10.555  1.7342  1.7352  0.5070
  611MPD2    H1 9110   1.397   0.717  10.949  0.2824  0.5769 -0.7735
  611MPD2    H2 9111   1.037   0.723  10.731  0.7159  0.7459 -0.1042
  611MPD2    H3 9112   1.160   0.772  10.929  1.3509  4.0181 -0.6626
  611MPD2     N 9113   1.544   0.596  10.771 -0.7385 -0.4728 -0.4330
  611MPD2    H5 9114   1.585   0.632  10.856 -0.9377 -1.1567 -0.0480
  611MPD2    N1 9115   1.111   0.598  10.518 -0.1810  0.5038  0.4119
  611MPD2    H7 9116   1.018   0.634  10.535 -0.4335 -0.4689  1.1062
  612TMC3    C1 9117   1.754   0.488  10.759 -0.0561 -0.1190  0.2337
  612TMC3    C2 9118   1.810   0.590  10.836 -0.5571 -0.6369 -0.5383
  612TMC3    C3 9119   1.945   0.583  10.862 -0.2391  0.2201 -0.2240
  612TMC3    C4 9120   1.817   0.384  10.707 -0.5761 -0.5843 -1.1223
  612TMC3    C5 9121   1.953   0.383  10.726 -0.0593 -0.2866  0.5279
  612TMC3    C6 9122   2.013   0.480  10.805  0.7209 -0.2894 -0.1514
  612TMC3     C 9123   1.621   0.502  10.695  0.2828 -0.3637 -0.2323
  612TMC3     O 9124   1.605   0.439  10.590  0.4663 -0.0279 -0.0502
  612TMC3     H 9125   1.755   0.684  10.840  1.5963  0.6924 -1.8418
  612TMC3    H1 9126   1.765   0.302  10.659 -1.1583  0.6878 -2.6900
  612TMC3    H2 9127   2.121   0.478  10.811  0.7174  0.7121  0.1411
  612TMC3    C7 9128   2.048   0.281  10.678 -0.1069 -0.1220  0.0318
  612TMC3    C8 9129   2.011   0.683  10.929 -0.8167  0.4535  0.2162
  612TMC3    O1 9130   2.154   0.270  10.741  0.1591 -0.1175 -0.0787
  612TMC3    O2 9131   1.947   0.789  10.939  0.4895 -0.0044  0.3583
  613MPD2     C 9132   0.847   3.129  16.672  0.1395 -0.4355  0.1072
  613MPD2    C1 9133   0.816   3.036  16.578 -0.1990 -0.1269  0.1228
  613MPD2    C2 9134   0.749   2.915  16.612  0.0781  0.3946 -0.4089
  613MPD2    C3 9135   0.711   2.886  16.738  0.5580  0.0757  0.0042
  613MPD2    C4 9136   0.735   2.975  16.835 -0.1976  0.3950 -0.3784
  613MPD2    C5 9137   0.796   3.099  16.799 -0.0704 -0.4721  0.0904
  613MPD2     H 9138   0.715   2.853  16.530 -0.9452 -0.8614  0.9907
  613MPD2    H1 9139   0.714   2.948  16.937 -0.6979 -0.1633 -0.6313
  613MPD2    H2 9140   0.902   3.222  16.662  1.5666 -1.1903  0.8497
  613MPD2    H3 9141   0.814   3.163  16.885 -2.0882 -0.6223  0.6028
  613MPD2     N 9142   0.646   2.758  16.757 -0.4873 -0.3924 -0.0393
  613MPD2    H5 9143   0.641   2.699  16.674  1.5851 -0.2888 -0.2375
  613MPD2    N1 9144   0.845   3.049  16.443  0.1616 -0.3266  0.2203
  613MPD2    H7 9145   0.811   2.965  16.398 -1.1762  0.7796 -0.8168
  614TMC3    C1 9146   0.857   3.143  16.230 -0.0154  0.1379 -0.1665
  614TMC3    C2 9147   0.860   3.016  16.184 -0.4508 -0.3274 -0.4360
  614TMC3    C3 9148   0.754   2.955  16.117  0.3544  0.0327  0.6207
  614TMC3    C4 9149   0.756   3.217  16.176 -0.0109  0.7866  0.0839
  614TMC3    C5 9150   0.658   3.164  16.093 -0.2368  0.6907 -0.4314
  614TMC3    C6 9151   0.651   3.029  16.076  0.3235 -0.4338 -0.5239
  614TMC3     C 9152   0.879   3.166  16.378  0.1394  0.1820  0.4853
  614TMC3     O 9153   0.886   3.281  16.419 -0.1270  0.0440  0.3528
  614TMC3     H 9154   0.945   2.960  16.223  2.4158  3.9248 -0.5034
  614TMC3    H1 9155   0.746   3.321  16.202 -0.5958  0.6669  0.3293
  614TMC3    H2 9156   0.572   2.978  16.022 -1.0626  1.2897 -0.1200
  614TMC3    C7 9157   0.577   3.240  16.005  0.2745  0.1418  0.5878
  614TMC3    C8 9158   0.729   2.820  16.168  0.5204  1.0172  0.1357
  614TMC3    O1 9159   0.544   3.352  16.035  0.0582  0.1839  0.2641
  614TMC3    O2 9160   0.761   2.814  16.284  0.3696  0.0865 -0.3697
  615MPD2     C 9161   0.511   4.303  15.970 -0.2582 -0.4920 -0.0458
  615MPD2    C1 9162   0.436   4.418  15.955 -0.2682  0.2356  0.7759
  615MPD2    C2 9163   0.352   4.426  15.852 -0.3978  0.3211  0.7053
  615MPD2    C3 9164   0.348   4.328  15.752  0.2457 -0.7692  0.1141
  615MPD2    C4 9165   0.430   4.221  15.764 -0.3758  0.4129 -0.5242
  615MPD2    C5 9166   0.514   4.208  15.870 -0.0371  0.6835  0.0989
  615MPD2     H 9167   0.290   4.515  15.851 -0.0843  0.5446  2.0347
  615MPD2    H1 9168   0.425   4.141  15.691  0.1349  0.4419 -0.5947
  615MPD2    H2 9169   0.582   4.290  16.051  0.4138 -1.2255 -0.7401
  615MPD2    H3 9170   0.594   4.134  15.868 -1.2490 -0.6001 -0.8326
  615MPD2     N 9171   0.264   4.350  15.637  0.0656  0.0549 -0.3921
  615MPD2    H5 9172   0.214   4.438  15.624 -1.9909 -1.1147 -0.4880
  615MPD2    N1 9173   0.431   4.514  16.059 -0.3649  0.5367  0.3574
  615MPD2    H7 9174   0.373   4.596  16.043 -0.0836  0.6447 -0.1193
  616TMC3    C1 9175   0.483   4.629  16.265 -0.1528  0.1134 -0.7962
  616TMC3    C2 9176   0.577   4.655  16.362 -0.3793  0.3878  0.9371
  616TMC3    C3 9177   0.540   4.733  16.465 -0.1032  0.3660  0.7411
  616TMC3    C4 9178   0.353   4.678  16.271 -0.3738 -0.1616  0.3709
  616TMC3    C5 9179   0.324   0.029  16.379  0.0578  0.6656 -0.3911
  616TMC3    C6 9180   0.414   0.058  16.478 -0.1860 -0.2300  0.3997
  616TMC3     C 9181   0.510   4.514  16.174 -0.3262  0.4161  0.3263
  616TMC3     O 9182   0.612   4.454  16.193 -0.0599  0.4499  0.5839
  616TMC3     H 9183   0.676   4.613  16.349 -0.6049 -0.2736  1.3868
  616TMC3    H1 9184   0.277   4.651  16.198 -0.6182 -1.2833  1.0418
  616TMC3    H2 9185   0.389   0.126  16.558  1.5244 -0.0371  0.7635
  616TMC3    C7 9186   0.192   0.098  16.392  0.1417 -0.5941 -0.3669
  616TMC3    C8 9187   0.630   0.020  16.578 -0.3328 -0.0221  0.4118
  616TMC3    O1 9188   0.162   0.170  16.486  0.0928 -0.1991  0.7977
  616TMC3    O2 9189   0.586   0.087  16.673 -0.0226  0.0381 -0.2542
  617MPD2     C 9190   3.554   2.277  13.526  0.6679  1.3268 -0.4006
  617MPD2    C1 9191   3.561   2.301  13.659  0.1861 -0.5375 -0.4851
  617MPD2    C2 9192   3.442   2.294  13.738 -0.2638  0.3688 -0.1020
  617MPD2    C3 9193   3.324   2.263  13.685 -0.4649  0.5173  0.5112
  617MPD2    C4 9194   3.319   2.245  13.549 -0.0308 -0.4289  0.4472
  617MPD2    C5 9195   3.427   2.251  13.471  0.0333  0.5410 -0.0282
  617MPD2     H 9196   3.445   2.313  13.845 -0.1210  1.0448 -0.2295
  617MPD2    H1 9197   3.224   2.219  13.504  0.4415  0.2059 -0.9018
  617MPD2    H2 9198   3.636   2.291  13.458  0.6401  1.2281 -0.4538
  617MPD2    H3 9199   3.425   2.239  13.363 -1.5274  0.6966 -0.0149
  617MPD2     N 9200   3.199   2.238  13.748  0.0455  0.6193  0.1947
  617MPD2    H5 9201   3.121   2.195  13.698  1.0444 -0.9331 -0.0258
  617MPD2    N1 9202   3.680   2.347  13.718 -0.2438  0.4225 -0.6887
  617MPD2    H7 9203   3.754   2.397  13.671  1.1646 -0.5990  0.4408
  618TMC3    C1 9204   3.820   2.339  13.899  0.0622 -0.5626 -0.0420
  618TMC3    C2 9205   3.900   2.244  13.953  0.6637 -0.1218 -0.2892
  618TMC3    C3 9206   4.018   2.288  14.010 -0.2524 -0.1121  0.2928
  618TMC3    C4 9207   3.863   2.465  13.871 -0.3282 -0.0751  0.3813
  618TMC3    C5 9208   3.991   2.499  13.901  0.3133  0.2697 -0.2338
  618TMC3    C6 9209   4.068   2.416  13.980 -0.5353  0.3340  0.3882
  618TMC3     C 9210   3.699   2.296  13.842 -0.2094 -0.5024 -0.0052
  618TMC3     O 9211   3.653   2.190  13.887 -0.1697 -0.1932  0.4193
  618TMC3     H 9212   3.875   2.140  13.975 -0.3128 -0.0610 -1.1247
  618TMC3    H1 9213   3.803   2.540  13.819 -2.8711 -1.9764  0.5616
  618TMC3    H2 9214   4.171   2.441  14.003  0.1779 -2.3016 -0.0106
  618TMC3    C7 9215   4.056   2.630  13.869 -0.4757  0.2511 -0.1045
  618TMC3    C8 9216   4.115   2.183  14.054  0.0393  0.4038  0.4633
  618TMC3    O1 9217   4.114   2.674  13.969  0.3029  0.5662  0.3814
  618TMC3    O2 9218   4.237   2.214  14.037 -0.0126  0.4460  0.1855
  619MPD2     C 9219   4.697   3.623  13.773 -0.0917  0.2208  0.7289
  619MPD2    C1 9220   4.645   3.701  13.668 -0.3538  0.6509 -0.5805
  619MPD2    C2 9221   4.513   3.687  13.629  0.2683 -0.4557  0.0458
  619MPD2    C3 9222   4.439   3.591  13.696  0.4767  0.5670  0.3530
  619MPD2    C4 9223   4.494   3.512  13.793 -0.1761 -0.0352  0.6706
  619MPD2    C5 9224   4.621   3.531  13.833  1.0158  0.2373 -0.5168
  619MPD2     H 9225   4.473   3.763  13.563 -0.0468  0.4055  1.2339
  619MPD2    H1 9226   4.442   3.427  13.834 -0.9445  0.1306  0.0399
  619MPD2    H2 9227   0.066   3.636  13.802 -0.1412 -1.3878  1.6732
  619MPD2    H3 9228   4.662   3.473  13.914 -1.4780  0.9174  1.1928
  619MPD2     N 9229   4.302   3.568  13.672  0.1221 -0.1864  0.5768
  619MPD2    H5 9230   4.258   3.497  13.730  2.4691 -1.9292  0.2249
  619MPD2    N1 9231   4.721   3.801  13.604 -0.3301 -0.4239 -0.3710
  619MPD2    H7 9232   4.672   3.846  13.528 -1.6859 -3.0591 -1.0463
  620TMC3    C1 9233   0.163   3.950  13.544  0.1833  0.3354 -0.9869
  620TMC3    C2 9234   0.094   3.981  13.432 -0.3615  0.0407  0.1176
  620TMC3    C3 9235   0.117   4.102  13.379  0.1860 -0.1155  0.0244
  620TMC3    C4 9236   0.255   4.038  13.605 -0.4577  0.3121 -0.1687
  620TMC3    C5 9237   0.269   4.164  13.550 -0.2135 -0.8802  0.1450
  620TMC3    C6 9238   0.203   4.193  13.435 -0.0563  0.5406  0.2878
  620TMC3     C 9239   0.123   3.836  13.625  0.6804 -0.1352  0.6645
  620TMC3     O 9240   0.199   3.794  13.718  0.1213 -0.0262  0.2315
  620TMC3     H 9241   0.024   3.910  13.389  1.1442 -0.8808 -0.8281
  620TMC3    H1 9242   0.298   4.015  13.702 -1.4727  2.2819  0.7598
  620TMC3    H2 9243   0.212   4.295  13.398  1.8908  0.3784  0.3444
  620TMC3    C7 9244   0.288   4.266  13.651 -0.2834 -0.3332  0.2762
  620TMC3    C8 9245   4.729   4.177  13.347 -0.1796 -0.3970  0.3950
  620TMC3    O1 9246   0.399   4.270  13.712 -0.1094  0.2588 -0.0575
  620TMC3    O2 9247   4.717   4.289  13.391  0.0312 -0.0129 -0.0431
  621MPD2     C 9248   4.457   4.174   9.727 -0.0943  0.7596 -0.3036
  621MPD2    C1 9249   4.564   4.137   9.796  0.6860 -0.5175 -0.2458
  621MPD2    C2 9250   4.681   4.203   9.775  0.1530  0.2885  0.0084
  621MPD2    C3 9251   4.685   4.313   9.688  0.1407 -0.0837 -0.6941
  621MPD2    C4 9252   4.569   4.366   9.640 -0.3681  0.3151  0.5573
  621MPD2    C5 9253   4.455   4.300   9.663  0.3537 -0.4797 -0.0342
  621MPD2     H 9254   0.043   4.167   9.811  0.9293  3.0018  0.6431
  621MPD2    H1 9255   4.565   4.456   9.579  1.6166 -1.4399 -2.1328
  621MPD2    H2 9256   4.363   4.119   9.731  0.0744  0.4211 -1.0722
  621MPD2    H3 9257   4.362   4.339   9.623 -0.3872 -2.2459 -0.0400
  621MPD2     N 9258   0.076   4.369   9.664 -0.3472  0.4594 -0.0377
  621MPD2    H5 9259   0.157   4.327   9.708  0.0589 -0.0989 -1.3358
  621MPD2    N1 9260   4.567   4.008   9.840  0.1154 -0.4841 -0.0429
  621MPD2    H7 9261   4.659   3.977   9.869  0.2496 -0.9530 -0.9737
  622TMC3    C1 9262   4.496   3.799   9.921 -0.7594  0.1351  0.4117
  622TMC3    C2 9263   4.571   3.818  10.039  0.3694 -0.4349  0.1672
  622TMC3    C3 9264   4.603   3.706  10.105  0.7117  0.5244  0.1015
  622TMC3    C4 9265   4.443   3.678   9.893  0.7437  0.5504 -0.0996
  622TMC3    C5 9266   4.460   3.569   9.970 -0.5460  0.7291 -0.0212
  622TMC3    C6 9267   4.550   3.580  10.072  0.1225  0.0028  0.5291
  622TMC3     C 9268   4.465   3.914   9.838  0.7326  0.2114 -0.7514
  622TMC3     O 9269   4.357   3.907   9.779 -0.3613  0.8224  0.7467
  622TMC3     H 9270   4.605   3.914  10.076  2.1955 -1.2393  0.5508
  622TMC3    H1 9271   4.397   3.665   9.796 -0.7938 -1.4005  0.8898
  622TMC3    H2 9272   4.578   3.493  10.131  0.5842  0.4556  0.9786
  622TMC3    C7 9273   4.409   3.440   9.934  1.2402  0.6922 -0.6348
  622TMC3    C8 9274   4.640   3.727  10.241 -0.4334 -0.3810  0.1493
  622TMC3    O1 9275   4.444   3.338   9.992 -0.0510  0.4185  0.0473
  622TMC3    O2 9276   0.017   3.705  10.278 -0.2077  0.4051 -0.0443
  623MPD2     C 9277   3.830   4.268  15.741  0.0760  0.8710  0.2479
  623MPD2    C1 9278   3.757   4.345  15.831 -0.3496 -0.1975  0.4001
  623MPD2    C2 9279   3.831   4.427  15.909  0.1069  0.2634  0.0272
  623MPD2    C3 9280   3.964   4.424  15.919 -0.2962  0.7095  0.0090
  623MPD2    C4 9281   4.035   4.342  15.832  0.2373 -0.0892 -0.5108
  623MPD2    C5 9282   3.968   4.266  15.741 -0.0290 -0.5265  0.3256
  623MPD2     H 9283   3.777   4.482  15.986 -1.3552 -0.2578 -0.6196
  623MPD2    H1 9284   4.142   4.325  15.836  0.2020 -0.6659 -1.7850
  623MPD2    H2 9285   3.777   4.210  15.665  1.9978 -4.6315  3.1304
  623MPD2    H3 9286   4.025   4.199  15.677  1.4062 -0.2463  1.3060
  623MPD2     N 9287   4.024   4.497  16.025 -0.0541 -0.7368  0.4807
  623MPD2    H5 9288   3.964   4.537  16.097  0.3059  0.2433  0.2364
  623MPD2    N1 9289   3.616   4.352  15.833  0.3022  0.4260  0.5890
  623MPD2    H7 9290   3.559   4.428  15.870  0.3076  0.3221  0.8125
  624TMC3    C1 9291   4.318   4.504  16.380 -0.7313 -0.8305 -0.5762
  624TMC3    C2 9292   4.226   4.562  16.463  0.5430 -0.4416 -0.0566
  624TMC3    C3 9293   4.119   4.619  16.403 -0.1201 -0.5778  1.0482
  624TMC3    C4 9294   4.306   4.505  16.244  0.2643 -0.2630 -0.4093
  624TMC3    C5 9295   4.186   4.551  16.187  0.0512 -0.4163 -0.7082
  624TMC3    C6 9296   4.098   4.608  16.266  0.1010  0.1201  0.2919
  624TMC3     C 9297   4.441   4.454  16.445  0.1547 -0.4097  0.2991
  624TMC3     O 9298   4.539   4.471  16.377 -0.6218 -0.2072 -0.2862
  624TMC3     H 9299   4.244   4.567  16.570  0.5122 -0.6845 -0.0391
  624TMC3    H1 9300   4.379   4.451  16.184  1.1161 -0.9717  1.2656
  624TMC3    H2 9301   4.005   4.643  16.223 -0.0334  0.8703  1.2009
  624TMC3    C7 9302   4.157   4.509  16.051 -0.9942  0.7163  0.5782
  624TMC3    C8 9303   3.990   4.607  16.475  0.0090  0.1523 -0.6355
  624TMC3    O1 9304   4.253   4.474  15.987 -0.0782  0.0346  0.3874
  624TMC3    O2 9305   3.989   4.522  16.566 -0.2670 -0.3453  0.6895
  625MPD2     C 9306   4.241   0.962   0.906 -0.6004  0.1854 -0.0594
  625MPD2    C1 9307   4.242   1.037   0.791 -1.0770  0.4995 -0.0889
  625MPD2    C2 9308   4.358   1.112   0.761 -0.9100  0.0926 -0.1341
  625MPD2    C3 9309   4.477   1.088   0.832 -0.0737  0.3910 -0.3882
  625MPD2    C4 9310   4.476   1.000   0.934 -0.2979  0.3040  0.0862
  625MPD2    C5 9311   4.360   0.948   0.978 -0.2461 -0.2329  0.0710
  625MPD2     H 9312   4.351   1.180   0.677  1.7730 -0.2714 -0.6547
  625MPD2    H1 9313   4.563   0.959   0.984 -1.7915 -0.4126  2.0897
  625MPD2    H2 9314   4.158   0.904   0.943  1.9790 -3.2895  0.2421
  625MPD2    H3 9315   4.363   0.879   1.061  1.3321  1.8302  1.7159
  625MPD2     N 9316   4.600   1.143   0.791 -0.1344  0.4620 -0.5473
  625MPD2    H5 9317   4.607   1.228   0.735  1.1486  0.3992 -0.4874
  625MPD2    N1 9318   4.122   1.066   0.718  0.3816 -0.4999 -0.0648
  625MPD2    H7 9319   4.111   1.155   0.672 -1.3071 -0.9276 -0.5145
  626TMC3    C1 9320   3.890   1.029   0.663 -0.0226 -0.7724  0.0776
  626TMC3    C2 9321   3.895   1.087   0.541 -0.4325  0.2149 -0.3569
  626TMC3    C3 9322   3.785   1.140   0.486  0.0306  0.4375  0.3697
  626TMC3    C4 9323   3.773   1.016   0.741 -0.2472  0.7487 -0.2551
  626TMC3    C5 9324   3.663   1.083   0.684  0.5905 -0.7381 -0.3622
  626TMC3    C6 9325   3.667   1.139   0.560  0.0630  0.7308  0.0445
  626TMC3     C 9326   4.011   0.983   0.727  0.0431 -0.0568 -0.3908
  626TMC3     O 9327   4.016   0.867   0.766  0.3032  0.0025 -0.0678
  626TMC3     H 9328   3.988   1.088   0.485  0.3521  4.1907  1.0278
  626TMC3    H1 9329   3.772   0.962   0.835 -0.8245 -1.1206 -1.3411
  626TMC3    H2 9330   3.582   1.201   0.535 -0.8412 -1.0018 -1.1740
  626TMC3    C7 9331   3.540   1.079   0.763  0.8111 -0.6705  0.5673
  626TMC3    C8 9332   3.810   1.270   0.428  0.2830  0.4521 -0.5861
  626TMC3    O1 9333   3.511   0.975   0.825  0.1452 -0.2636 -0.5586
  626TMC3    O2 9334   3.920   1.324   0.445  0.0660 -0.6611 -0.2317
  627MPD2     C 9335   2.852   1.310  14.554  0.2684  0.2859  0.2537
  627MPD2    C1 9336   2.901   1.264  14.674  0.6561 -0.4257 -0.0493
  627MPD2    C2 9337   2.832   1.155  14.729 -0.0377 -0.0301  0.9542
  627MPD2    C3 9338   2.741   1.076  14.652 -0.2698 -0.4550 -0.3549
  627MPD2    C4 9339   2.715   1.109  14.526  0.6583  0.2752 -0.6994
  627MPD2    C5 9340   2.766   1.229  14.479  0.3017 -0.3365 -0.3012
  627MPD2     H 9341   2.845   1.138  14.835  1.8808 -0.1567  0.6979
  627MPD2    H1 9342   2.657   1.056  14.451 -0.2089 -3.3129  2.5238
  627MPD2    H2 9343   2.885   1.405  14.514 -0.1526  0.9299  1.4395
  627MPD2    H3 9344   2.732   1.264  14.383 -2.0541 -0.7516  0.3924
  627MPD2     N 9345   2.680   0.967  14.714  0.1542  0.3579  0.6317
  627MPD2    H5 9346   2.701   0.950  14.812  2.4526  2.3604  0.5009
  627MPD2    N1 9347   2.991   1.338  14.750  0.1770  0.1404  0.2116
  627MPD2    H7 9348   3.010   1.298  14.841 -0.5406 -3.0963 -1.0627
  628TMC3    C1 9349   3.112   1.521  14.823 -0.4019 -0.2504 -0.1878
  628TMC3    C2 9350   3.241   1.491  14.857 -0.3481 -0.2928  0.8648
  628TMC3    C3 9351   3.305   1.599  14.921 -0.7079  0.7966  0.4246
  628TMC3    C4 9352   3.055   1.646  14.828 -0.0752  0.0346 -0.6084
  628TMC3    C5 9353   3.124   1.744  14.886 -0.8902  0.8278 -0.6316
  628TMC3    C6 9354   3.245   1.721  14.945 -0.2314 -0.0140 -0.2437
  628TMC3     C 9355   3.055   1.454  14.710 -1.1672  0.9850  0.3766
  628TMC3     O 9356   3.061   1.519  14.604 -0.8068 -0.0674 -0.0240
  628TMC3     H 9357   3.289   1.396  14.836  0.5379 -0.2824  2.8719
  628TMC3    H1 9358   2.957   1.657  14.783 -0.2652 -0.0510 -0.2168
  628TMC3    H2 9359   3.311   1.807  14.950  1.5149 -1.3373 -0.6574
  628TMC3    C7 9360   3.094   1.882  14.856  0.1816  0.8819 -0.0222
  628TMC3    C8 9361   3.448   1.579  14.961  0.5317  0.4329  0.2169
  628TMC3    O1 9362   3.123   1.964  14.941 -0.2879 -0.4774 -0.5015
  628TMC3    O2 9363   3.506   1.473  14.946  0.2056 -0.0860  0.4177
  629MPD2     C 9364   1.064   4.693  16.823  0.6408 -0.1438 -0.7051
  629MPD2    C1 9365   1.091   4.692  16.688  0.2081 -0.1700  0.0836
  629MPD2    C2 9366   0.990   4.697  16.602  0.1799  0.2734 -0.9445
  629MPD2    C3 9367   0.858   4.704  16.651 -0.3414  0.0261 -0.5307
  629MPD2    C4 9368   0.834   4.696  16.779 -0.0199 -0.0669 -0.6032
  629MPD2    C5 9369   0.938   4.690  16.862  0.3676  0.7607 -0.2528
  629MPD2     H 9370   1.002   4.698  16.495  2.3570  1.9888 -0.6757
  629MPD2    H1 9371   0.731   4.699  16.812  0.4842  2.0981  0.7157
  629MPD2    H2 9372   1.150   4.688  16.889 -0.0911  0.1050  0.2588
  629MPD2    H3 9373   0.916   4.681  16.967 -0.6583  0.2226 -0.5099
  629MPD2     N 9374   0.756   4.708  16.556 -0.3121  0.2825 -0.2125
  629MPD2    H5 9375   0.777   4.694  16.458  0.3589  0.6396 -0.1200
  629MPD2    N1 9376   1.229   4.705  16.646  0.7088  0.7812 -0.8577
  629MPD2    H7 9377   1.298   4.702  16.721  0.0271  0.7298 -0.2277
  630TMC3    C1 9378   1.417   4.721  16.518 -0.2850 -0.0445  0.3579
  630TMC3    C2 9379   1.472   0.007  16.396  0.2890  0.0840  0.2260
  630TMC3    C3 9380   1.607   0.033  16.388  0.1882 -0.3928  0.5414
  630TMC3    C4 9381   1.489   4.711  16.636 -0.2220  0.3033 -0.8722
  630TMC3    C5 9382   1.621   4.725  16.624 -0.8427 -0.2447  0.1095
  630TMC3    C6 9383   1.682   0.009  16.499  0.4164  0.0652  1.2860
  630TMC3     C 9384   1.275   4.696  16.519  0.2404 -0.9064 -0.2554
  630TMC3     O 9385   1.218   4.709  16.410 -0.2922 -0.0920  0.4883
  630TMC3     H 9386   1.425   4.725  16.300  0.1912  0.1037  0.2698
  630TMC3    H1 9387   1.452   4.676  16.731 -0.8276  0.4562 -1.0514
  630TMC3    H2 9388   1.789   0.003  16.487  0.7493  2.0209  3.4711
  630TMC3    C7 9389   1.692   0.037  16.743 -0.6258 -0.3861 -0.0033
  630TMC3    C8 9390   1.646   0.136  16.297  0.0485  0.0903  0.0790
  630TMC3    O1 9391   1.657   4.720  16.850  0.4380 -0.3189 -0.0793
  630TMC3    O2 9392   1.765   0.168  16.304 -0.8017 -0.2379 -0.0388
  631MPD2     C 9393   4.178   4.734  15.598 -0.3204 -0.0661  0.2807
  631MPD2    C1 9394   4.272   0.069  15.537  0.0354  0.1730  0.2288
  631MPD2    C2 9395   4.388   0.005  15.507  0.8210 -0.1759 -0.4988
  631MPD2    C3 9396   4.396   4.607  15.525  0.4241  0.8850 -0.7003
  631MPD2    C4 9397   4.296   4.535  15.587  0.1600  0.3280 -0.1275
  631MPD2    C5 9398   4.179   4.600  15.612  0.8788  0.6201  0.8214
  631MPD2     H 9399   4.470   0.045  15.449  0.6504 -0.1626 -0.7309
  631MPD2    H1 9400   4.296   4.428  15.600 -1.7626  0.1990 -1.1636
  631MPD2    H2 9401   4.088   0.053  15.626 -0.4578  0.0155 -0.3349
  631MPD2    H3 9402   4.091   4.560  15.661 -0.6030  1.4205 -1.1737
  631MPD2     N 9403   4.506   4.548  15.472 -0.7154 -0.0243 -0.4584
  631MPD2    H5 9404   4.553   4.613  15.409 -0.9590  0.8734  0.2791
  631MPD2    N1 9405   4.253   0.206  15.511 -0.0293 -0.2643 -0.4804
  631MPD2    H7 9406   4.156   0.230  15.492  0.0478  1.0456  0.8060
  632TMC3    C1 9407   4.309   0.410  15.429  0.4714  0.0364  0.4314
  632TMC3    C2 9408   4.178   0.436  15.454  0.0750 -0.0472 -0.1401
  632TMC3    C3 9409   4.102   0.490  15.352 -0.4466  0.2361  0.3599
  632TMC3    C4 9410   4.370   0.458  15.315  0.2288 -0.2794 -0.1401
  632TMC3    C5 9411   4.293   0.508  15.213  0.4681 -0.3952  0.5669
  632TMC3    C6 9412   4.159   0.515  15.227  0.1394 -0.0682 -0.0709
  632TMC3     C 9413   4.355   0.286  15.476  0.8713  0.0025  0.1602
  632TMC3     O 9414   4.474   0.270  15.474  0.6952 -0.5364 -0.2682
  632TMC3     H 9415   4.129   0.403  15.545 -0.4976  4.1551  1.0985
  632TMC3    H1 9416   4.476   0.442  15.300  0.0310  0.3181 -2.0709
  632TMC3    H2 9417   4.094   0.543  15.145  0.8758 -2.8774 -1.6346
  632TMC3    C7 9418   4.354   0.514  15.088  0.2390  0.4198 -0.1950
  632TMC3    C8 9419   3.961   0.486  15.371  0.4020  0.1185 -0.3058
  632TMC3    O1 9420   4.287   0.464  14.998 -0.3036 -0.0615 -0.5896
  632TMC3    O2 9421   3.919   0.439  15.476 -0.2832 -0.6511  0.2687
  633MPD2     C 9422   4.130   2.884  17.559  0.5244  0.4275 -0.1725
  633MPD2    C1 9423   4.146   2.804  17.446 -0.1374  0.7813  0.7520
  633MPD2    C2 9424   4.128   2.664  17.467 -0.4745  0.1122  0.2843
  633MPD2    C3 9425   4.117   2.607  17.591  0.1310  0.2207  0.7743
  633MPD2    C4 9426   4.096   2.691  17.695 -0.1974  0.1076 -0.1505
  633MPD2    C5 9427   4.099   2.828  17.677  0.0507 -0.5562  0.3543
  633MPD2     H 9428   4.135   2.596  17.383 -2.4706 -1.7089  1.5774
  633MPD2    H1 9429   4.080   2.649   0.056 -1.0262 -0.7199 -0.6430
  633MPD2    H2 9430   4.145   2.991  17.552 -0.2467  0.4408 -1.7376
  633MPD2    H3 9431   4.087   2.895   0.024  1.1665 -2.1265  1.7517
  633MPD2     N 9432   4.094   2.466  17.611  0.5194  0.0197 -0.2204
  633MPD2    H5 9433   4.055   2.441  17.701 -0.4249 -0.3959 -0.7468
  633MPD2    N1 9434   4.181   2.853  17.318 -0.4043  0.6168  0.2456
  633MPD2    H7 9435   4.158   2.786  17.245  0.0353  0.4938  0.2221
  634TMC3    C1 9436   4.230   3.006  17.143  0.3026  0.6232 -0.1018
  634TMC3    C2 9437   4.294   2.902  17.083  0.3969 -0.3060 -0.3874
  634TMC3    C3 9438   4.335   2.908  16.950 -0.2739 -0.1582  0.1025
  634TMC3    C4 9439   4.216   3.123  17.078 -0.0086 -0.6218 -0.0297
  634TMC3    C5 9440   4.241   3.128  16.946 -0.1393 -0.2613  0.2802
  634TMC3    C6 9441   4.309   3.025  16.884 -0.1035  0.4283 -0.9100
  634TMC3     C 9442   4.191   2.989  17.278 -0.0388  0.3621  0.2741
  634TMC3     O 9443   4.167   3.090  17.339 -0.1644 -0.8427  0.1532
  634TMC3     H 9444   4.320   2.812  17.137  1.2997  0.1805 -0.0077
  634TMC3    H1 9445   4.166   3.206  17.128  0.2385  0.0244 -0.8607
  634TMC3    H2 9446   4.349   3.032  16.784 -0.7529  3.1489 -0.9671
  634TMC3    C7 9447   4.190   3.234  16.865 -0.2499  0.1201 -0.6874
  634TMC3    C8 9448   4.327   2.775  16.885 -0.0483  0.4359 -0.0383
  634TMC3    O1 9449   4.224   3.229  16.748 -0.3618  0.6198  0.1480
  634TMC3    O2 9450   4.306   2.682  16.960  0.1597 -0.8603  0.3529
  635TMC3    C1 9451   4.401   4.136  17.425 -0.4606 -0.1517  0.0600
  635TMC3    C2 9452   4.420   4.005  17.459  0.4658  0.4452 -0.2920
  635TMC3    C3 9453   4.320   3.919  17.477 -0.0227  0.4642 -1.1503
  635TMC3    C4 9454   4.280   4.189  17.404 -0.2691  0.9505 -0.5691
  635TMC3    C5 9455   4.180   4.103  17.429  0.6379 -0.1344 -0.1994
  635TMC3    C6 9456   4.192   3.974  17.470 -0.7142  0.2458 -1.0373
  635TMC3     C 9457   4.498   4.229  17.489  0.4298 -0.0235 -0.0845
  635TMC3     O 9458   4.455   4.320  17.555 -0.2167  0.0786  0.8667
  635TMC3     H 9459   4.523   3.972  17.470 -0.3475 -2.2693 -0.7678
  635TMC3    H1 9460   4.274   4.291  17.370 -0.1040  1.5025  1.0910
  635TMC3    H2 9461   4.099   3.918  17.466 -2.3991  2.7877  2.1648
  635TMC3    C7 9462   4.053   4.165  17.435 -0.4347 -0.0552  0.7841
  635TMC3    C8 9463   4.338   3.777  17.507  0.4448  0.2105  0.4369
  635TMC3    O1 9464   4.031   4.228  17.333  0.8076 -0.8504 -0.0287
  635TMC3    O2 9465   4.449   3.728  17.495 -0.0840 -0.2884 -0.2690
  636MPD2     C 9466   0.342   3.104  16.306  0.2413  0.1979  0.7049
  636MPD2    C1 9467   0.376   3.122  16.436 -0.0036 -0.0573 -0.3521
  636MPD2    C2 9468   0.387   3.014  16.518 -0.3483  0.1701  0.4594
  636MPD2    C3 9469   0.341   2.890  16.480 -0.2454 -0.0820 -0.0583
  636MPD2    C4 9470   0.310   2.865  16.347 -0.5634  0.1583  0.1403
  636MPD2    C5 9471   0.312   2.976  16.264 -0.1269  0.1050 -0.3229
  636MPD2     H 9472   0.410   3.032  16.623 -0.1515  0.5671  0.3462
  636MPD2    H1 9473   0.270   2.770  16.314 -2.1992  0.1197  2.2265
  636MPD2    H2 9474   0.336   3.176  16.225 -0.9835 -0.3405  0.3198
  636MPD2    H3 9475   0.265   2.961  16.167 -2.0504 -2.2586  0.9635
  636MPD2     N 9476   0.346   2.795  16.587  0.2704 -0.1418  0.5291
  636MPD2    H5 9477   0.368   2.830  16.680  0.8369  1.8856 -0.3830
  636MPD2    N1 9478   0.395   3.253  16.483 -0.1505 -0.0908 -0.0897
  636MPD2    H7 9479   0.434   3.261  16.576  0.1954 -1.7549 -0.0848
  637TMC3    C1 9480   0.324   2.577  16.674 -0.0109  0.1200  0.1703
  637TMC3    C2 9481   0.377   2.628  16.788 -0.0907 -0.4921  0.2798
  637TMC3    C3 9482   0.506   2.595  16.827  0.0461  0.5024  0.3508
  637TMC3    C4 9483   0.383   2.461  16.619 -0.1574 -0.3083 -0.0552
  637TMC3    C5 9484   0.515   2.440  16.640  0.4962 -0.9322  0.6649
  637TMC3    C6 9485   0.576   2.500  16.751  0.2963  0.2832  0.2965
  637TMC3     C 9486   0.291   2.673  16.569 -0.5100 -0.0645  0.5369
  637TMC3     O 9487   0.244   2.616  16.471  0.2033  0.1579  0.4735
  637TMC3     H 9488   0.329   2.701  16.852 -1.7946 -0.4988 -0.9901
  637TMC3    H1 9489   0.348   2.424  16.524  0.5180 -1.2644  0.0729
  637TMC3    H2 9490   0.681   2.494  16.775 -0.4281 -1.9952  2.8327
  637TMC3    C7 9491   0.590   2.476  16.516 -0.0570  0.5737  0.2600
  637TMC3    C8 9492   0.582   2.718  16.866 -0.5954  0.3561  0.1985
  637TMC3    O1 9493   0.654   2.579  16.526 -0.2011  0.4367  0.3122
  637TMC3    O2 9494   0.554   2.773  16.975  0.4223 -0.3550  0.5677
  638MPD2     C 9495   0.561   1.569  14.904  0.6118 -0.4045 -0.2680
  638MPD2    C1 9496   0.471   1.477  14.847  0.2956  0.0178 -0.9434
  638MPD2    C2 9497   0.372   1.434  14.928  0.2191 -0.8358 -0.2495
  638MPD2    C3 9498   0.373   1.454  15.065 -0.5311  1.0665 -0.1653
  638MPD2    C4 9499   0.469   1.526  15.122  0.0277 -0.1883 -0.3903
  638MPD2    C5 9500   0.559   1.588  15.045  0.4694  0.7995  0.0779
  638MPD2     H 9501   0.294   1.372  14.885  0.8630 -2.2822  0.6672
  638MPD2    H1 9502   0.480   1.530  15.230 -1.4029  0.6291 -0.2661
  638MPD2    H2 9503   0.644   1.605  14.846  0.4424 -1.1093 -0.9332
  638MPD2    H3 9504   0.647   1.633  15.089 -0.1748  2.6201 -0.5115
  638MPD2     N 9505   0.272   1.390  15.146 -0.0335  0.6051  0.3107
  638MPD2    H5 9506   0.210   1.326  15.098 -0.8126  0.2443  1.7907
  638MPD2    N1 9507   0.479   1.445  14.716  0.5136 -0.0150 -0.7077
  638MPD2    H7 9508   0.551   1.483  14.655  0.2968 -0.9741 -1.5655
  639TMC3    C1 9509   0.172   1.308  15.333  0.2110  0.2360  0.6750
  639TMC3    C2 9510   0.082   1.249  15.257  0.5706  0.7915  0.2200
  639TMC3    C3 9511   0.058   1.114  15.259 -0.2137 -0.3053 -0.2372
  639TMC3    C4 9512   0.230   1.232  15.434  0.2840 -0.0375  0.4376
  639TMC3    C5 9513   0.220   1.098  15.432  0.0212 -0.3337 -0.2951
  639TMC3    C6 9514   0.140   1.039  15.341 -0.0021 -0.3317  0.5617
  639TMC3     C 9515   0.247   1.414  15.276 -0.1042 -0.4443  0.2256
  639TMC3     O 9516   0.296   1.489  15.360  0.6849  0.2364 -0.3421
  639TMC3     H 9517   0.014   1.306  15.195  0.1583  1.5033  1.3250
  639TMC3    H1 9518   0.315   1.266  15.493  0.1428  1.4589 -0.2313
  639TMC3    H2 9519   0.142   0.932  15.323 -0.5667 -0.2627  0.0753
  639TMC3    C7 9520   0.347   1.033  15.453  0.2005  0.5094 -0.0956
  639TMC3    C8 9521   0.055   1.057  15.125 -0.1849  0.0273  0.3735
  639TMC3    O1 9522   0.394   1.027  15.567 -0.5602 -0.4284 -0.4669
  639TMC3    O2 9523   0.167   1.045  15.069  0.4786  0.0166  0.2067
  640MPD2     C 9524   0.528   0.534  10.213  0.3220  0.4746  0.5541
  640MPD2    C1 9525   0.594   0.576  10.100  0.3761 -0.8140 -0.0820
  640MPD2    C2 9526   0.606   0.717  10.096  0.4899  0.5406  0.1109
  640MPD2    C3 9527   0.541   0.811  10.173  0.3115  0.6090  0.1456
  640MPD2    C4 9528   0.471   0.760  10.282 -0.2479 -0.7805 -0.3900
  640MPD2    C5 9529   0.473   0.626  10.306 -0.8457 -0.9531  0.2442
  640MPD2     H 9530   0.659   0.759  10.012  1.3106  0.3127  0.5173
  640MPD2    H1 9531   0.423   0.830  10.350 -0.0520 -0.7532 -0.2788
  640MPD2    H2 9532   0.520   0.428  10.233 -1.9785  0.2131 -1.8384
  640MPD2    H3 9533   0.424   0.587  10.395 -1.0055 -1.1656  0.0631
  640MPD2     N 9534   0.523   0.952  10.138  0.2030  0.2692 -0.5456
  640MPD2    H5 9535   0.454   1.009  10.185  1.3571  0.7986  0.4914
  640MPD2    N1 9536   0.636   0.482  10.007  0.8867  0.4954  0.0717
  640MPD2    H7 9537   0.616   0.385  10.028 -0.4572  0.7110 -0.2757
  641TMC3    C1 9538   0.693   0.407   9.782  0.4985  0.3678  0.7464
  641TMC3    C2 9539   0.726   0.270   9.801  0.3530 -0.7572  0.2236
  641TMC3    C3 9540   0.719   0.187   9.696  0.3732 -0.0801  0.0575
  641TMC3    C4 9541   0.649   0.461   9.668 -0.2292 -0.0311  0.1002
  641TMC3    C5 9542   0.635   0.370   9.566  0.3892  0.4721  0.0492
  641TMC3    C6 9543   0.675   0.240   9.576  1.2937  0.4782 -0.7204
  641TMC3     C 9544   0.704   0.508   9.889  0.3848 -0.1584 -0.0657
  641TMC3     O 9545   0.759   0.614   9.858 -0.2682 -0.0418  0.3182
  641TMC3     H 9546   0.758   0.241   9.900  1.4469 -0.9698 -0.2007
  641TMC3    H1 9547   0.609   0.560   9.684 -3.1837 -1.2199  0.0054
  641TMC3    H2 9548   0.672   0.172   9.491  1.2646 -0.9163  0.4120
  641TMC3    C7 9549   0.617   0.434   9.441 -0.1688  0.5362  0.1874
  641TMC3    C8 9550   0.762   0.049   9.696  0.1074 -0.0294 -0.4563
  641TMC3    O1 9551   0.563   0.543   9.456 -0.3123 -0.1840 -0.2136
  641TMC3    O2 9552   0.708   4.703   9.619  0.2707 -0.5248  0.3228
  642TMC3    C1 9553   1.760   1.414  12.704  0.3091  0.5721 -0.1605
  642TMC3    C2 9554   1.894   1.432  12.733  0.4892  0.1812  0.1857
  642TMC3    C3 9555   1.988   1.343  12.684 -0.3724  0.3412 -0.7013
  642TMC3    C4 9556   1.711   1.306  12.635 -0.5297 -0.1647  0.0067
  642TMC3    C5 9557   1.809   1.232  12.577 -0.2356  0.1017  0.5038
  642TMC3    C6 9558   1.943   1.240  12.607  0.9170  0.2396  0.3304
  642TMC3     C 9559   1.665   1.515  12.756  0.0762 -0.1126  0.8230
  642TMC3     O 9560   1.724   1.618  12.789 -0.5477 -0.0484  0.5659
  642TMC3     H 9561   1.922   1.516  12.794 -0.7388  0.5383  0.2545
  642TMC3    H1 9562   1.611   1.295  12.593 -0.5678 -1.8413  0.5104
  642TMC3    H2 9563   2.003   1.165  12.556  1.4521  0.9099 -0.0163
  642TMC3    C7 9564   1.763   1.105  12.521  0.2829  0.2319  0.3373
  642TMC3    C8 9565   2.125   1.339  12.738  0.3267  0.1999  0.5186
  642TMC3    O1 9566   1.840   1.049  12.445 -0.2250  0.4793 -0.0886
  642TMC3    O2 9567   2.179   1.225  12.746  0.5941 -0.3788  0.1418
  643TMC3    C1 9568   1.352   0.584   0.202 -0.3569  0.1457  1.0255
  643TMC3    C2 9569   1.247   0.524   0.263  0.0603 -0.3928 -0.0671
  643TMC3    C3 9570   1.173   0.434   0.186 -0.9131  0.0076  0.2647
  643TMC3    C4 9571   1.393   0.570   0.071 -0.3708  0.5777 -0.4595
  643TMC3    C5 9572   1.319   0.477   0.001 -0.7173 -0.5684 -0.2879
  643TMC3    C6 9573   1.227   0.401   0.063  0.4919  0.9612 -0.1739
  643TMC3     C 9574   1.395   0.710   0.266 -0.0207 -0.0556  0.3070
  643TMC3     O 9575   1.405   0.797   0.182 -0.6406 -0.3182  0.0396
  643TMC3     H 9576   1.226   0.541   0.368  0.4277 -0.0986 -0.0390
  643TMC3    H1 9577   1.464   0.639   0.026 -0.7651  1.4894  0.3155
  643TMC3    H2 9578   1.180   0.329  17.734 -0.6504  0.2865  1.3603
  643TMC3    C7 9579   1.282   0.523  17.610 -0.0212  0.5018 -0.7758
  643TMC3    C8 9580   1.034   0.476   0.165 -0.5183  0.2733 -1.0643
  643TMC3    O1 9581   1.359   0.597  17.549  0.0702  0.1499  0.0221
  643TMC3    O2 9582   0.980   0.416   0.077  0.5621 -0.0040 -0.3256
  644MPD2     C 9583   0.342   0.786   9.433  0.7666 -0.0550 -0.0474
  644MPD2    C1 9584   0.415   0.832   9.324 -0.4535 -0.0839 -0.3404
  644MPD2    C2 9585   0.360   0.931   9.245 -0.4124  0.1611  1.2111
  644MPD2    C3 9586   0.236   0.987   9.269  0.2843 -0.3417  0.3881
  644MPD2    C4 9587   0.166   0.940   9.380 -0.2693 -0.7229 -0.2203
  644MPD2    C5 9588   0.221   0.834   9.455 -0.0308  0.1518 -0.0178
  644MPD2     H 9589   0.415   0.965   9.158 -2.0526  2.3821  1.0508
  644MPD2    H1 9590   0.067   0.971   9.412 -0.8329 -1.1326 -1.5655
  644MPD2    H2 9591   0.375   0.707   9.499 -0.2596 -1.7215 -1.5199
  644MPD2    H3 9592   0.163   0.778   9.528  0.4295 -2.9389 -2.0168
  644MPD2     N 9593   0.196   1.094   9.186 -0.0337  0.2096 -0.4355
  644MPD2    H5 9594   0.248   1.120   9.103 -2.2177 -1.4714 -2.3437
  644MPD2    N1 9595   0.545   0.776   9.298  0.3857  0.7977 -0.2520
  644MPD2    H7 9596   0.576   0.704   9.362 -1.0153  0.4233 -0.0077
  645TMC3    C1 9597   0.091   1.283   9.100  0.2273 -0.0933  0.5206
  645TMC3    C2 9598   0.209   1.336   9.054 -0.2453 -0.0059 -0.1705
  645TMC3    C3 9599   0.199   1.459   8.998 -0.2889 -0.5068 -0.0833
  645TMC3    C4 9600   4.710   1.354   9.102 -0.1946 -0.1282  0.2230
  645TMC3    C5 9601   4.704   1.469   9.039  0.0931 -0.1185  0.4870
  645TMC3    C6 9602   0.088   1.534   8.997 -0.3237 -0.2138  0.4272
  645TMC3     C 9603   0.090   1.177   9.198  0.5632 -0.5539  1.0998
  645TMC3     O 9604   0.017   1.185   9.296 -0.2423 -0.2344  0.6988
  645TMC3     H 9605   0.304   1.285   9.064  0.3222  0.4650 -3.2875
  645TMC3    H1 9606   4.618   1.318   9.147  2.5752 -3.0511  3.5860
  645TMC3    H2 9607   0.092   1.641   8.978  0.5144 -0.3552 -0.1735
  645TMC3    C7 9608   4.583   1.549   9.031 -0.0195 -0.2620  0.1082
  645TMC3    C8 9609   0.330   1.531   8.981 -0.1837 -0.1434  0.7711
  645TMC3    O1 9610   4.480   1.498   9.078  0.4271 -0.2682  0.4596
  645TMC3    O2 9611   0.424   1.482   9.043  0.3213 -0.0007 -0.1299
  646MPD2     C 9612   0.594   0.189  14.469 -0.0696 -0.0613  0.2699
  646MPD2    C1 9613   0.525   0.240  14.575 -0.2304 -0.0972 -0.4280
  646MPD2    C2 9614   0.446   0.354  14.555  0.1576  0.1294 -0.0977
  646MPD2    C3 9615   0.427   0.406  14.426 -0.4366 -0.4121  0.2791
  646MPD2    C4 9616   0.500   0.345  14.330 -0.3287  0.8281  0.4457
  646MPD2    C5 9617   0.586   0.239  14.347 -0.4134 -0.4292 -0.7216
  646MPD2     H 9618   0.403   0.406  14.640  0.1332 -2.2447  1.3336
  646MPD2    H1 9619   0.502   0.378  14.227 -1.0895  0.3123  0.2576
  646MPD2    H2 9620   0.667   0.110  14.486  2.2889  2.3651  1.5452
  646MPD2    H3 9621   0.649   0.192  14.272  0.8109  0.0022  0.0327
  646MPD2     N 9622   0.339   0.514  14.407  0.4209  0.2112 -0.3292
  646MPD2    H5 9623   0.270   0.534  14.479 -0.0894  0.4171 -0.8768
  646MPD2    N1 9624   0.547   0.177  14.703  0.2016 -0.4870 -0.0086
  646MPD2    H7 9625   0.603   0.092  14.706  2.1602  0.8263  0.9906
  647TMC3    C1 9626   0.521   0.145  14.944  0.4099  0.8752 -0.5063
  647TMC3    C2 9627   0.426   0.139  15.038  0.0297 -0.0600  0.3724
  647TMC3    C3 9628   0.454   0.088  15.159 -0.1749 -0.5915 -0.1222
  647TMC3    C4 9629   0.651   0.113  14.976 -0.3348 -0.0910  0.4013
  647TMC3    C5 9630   0.676   0.080  15.106 -0.1442  1.0255 -0.3524
  647TMC3    C6 9631   0.581   0.076  15.202  0.1451  1.0259 -0.1578
  647TMC3     C 9632   0.485   0.214  14.817 -0.1304 -0.6297  0.0818
  647TMC3     O 9633   0.392   0.292  14.827 -0.4370 -0.0499  0.2741
  647TMC3     H 9634   0.318   0.142  15.025  0.0599 -1.5079 -0.2721
  647TMC3    H1 9635   0.729   0.119  14.901  1.2103  1.2500  2.1043
  647TMC3    H2 9636   0.612   0.043  15.301 -0.4806  1.3262  0.1431
  647TMC3    C7 9637   0.779   4.718  15.135  1.1505 -0.5339  0.0372
  647TMC3    C8 9638   0.391   4.696  15.178 -0.0477  0.7219  0.2450
  647TMC3    O1 9639   0.817   4.705  15.253  0.0216 -1.0255  0.2569
  647TMC3    O2 9640   0.441   4.635  15.272  0.0272 -0.0344  0.0687
  648TMC3    C1 9641   4.660   2.800  16.289  0.7926  0.3180 -0.0991
  648TMC3    C2 9642   4.703   2.672  16.258  0.2153 -0.3918 -1.0110
  648TMC3    C3 9643   4.674   2.626  16.135 -0.4594  0.6984  0.2309
  648TMC3    C4 9644   4.600   2.878  16.200  0.4444 -0.6933  0.2942
  648TMC3    C5 9645   4.584   2.833  16.072 -0.2659 -0.4716 -0.2980
  648TMC3    C6 9646   4.618   2.703  16.035 -0.4802  0.8590  0.7260
  648TMC3     C 9647   4.650   2.844  16.428 -0.2028 -0.4463 -0.7451
  648TMC3     O 9648   4.589   2.950  16.443  0.4401  0.2463  0.3570
  648TMC3     H 9649   0.000   2.595  16.327  2.4251  1.7745  0.3589
  648TMC3    H1 9650   4.577   2.978  16.235  0.2053 -0.8297  0.5260
  648TMC3    H2 9651   4.595   2.669  15.935 -0.9490  1.2272  0.7082
  648TMC3    C7 9652   4.556   2.929  15.965  0.4675 -0.0736 -0.5124
  648TMC3    C8 9653   4.671   2.481  16.123  0.3150 -0.2597  0.3758
  648TMC3    O1 9654   4.581   2.896  15.850  0.6970 -0.0164 -0.6035
  648TMC3    O2 9655   4.619   2.421  16.216  0.0698  0.1407  0.1017
  649TMC3    C1 9656   3.326   3.517  12.890  0.5409 -0.3893  0.6281
  649TMC3    C2 9657   3.445   3.488  12.957  0.2368 -0.0189  0.2720
  649TMC3    C3 9658   3.435   3.413  13.068 -0.1660  0.5132 -0.6412
  649TMC3    C4 9659   3.208   3.461  12.932  0.0591 -0.4749  0.4620
  649TMC3    C5 9660   3.202   3.366  13.036  0.8315  0.2930 -0.2231
  649TMC3    C6 9661   3.322   3.348  13.104  0.2768  0.8171 -0.3428
  649TMC3     C 9662   3.320   3.600  12.770 -0.2748 -0.3302 -0.3600
  649TMC3     O 9663   3.208   3.632  12.731  0.7565  0.4872  0.0240
  649TMC3     H 9664   3.539   3.539  12.936  1.1452 -1.0244  1.9266
  649TMC3    H1 9665   3.110   3.485  12.893  0.4321  0.3396  0.0387
  649TMC3    H2 9666   3.318   3.268  13.177  1.2568 -0.1409 -1.3393
  649TMC3    C7 9667   3.104   3.399  13.139  0.5065 -0.8098  0.3971
  649TMC3    C8 9668   3.561   3.371  13.133  0.2977 -0.1706 -0.8934
  649TMC3    O1 9669   3.132   3.491  13.218 -0.4167  0.3356 -0.6591
  649TMC3    O2 9670   3.548   3.294  13.224 -0.0376 -0.6080 -0.0107
  650TMC3    C1 9671   1.111   0.275  12.627  0.3514 -0.3849  0.4338
  650TMC3    C2 9672   0.986   0.327  12.645 -0.1411  1.4466 -0.1217
  650TMC3    C3 9673   0.959   0.445  12.578  0.4664  0.1660 -0.4284
  650TMC3    C4 9674   1.199   0.330  12.532  0.3715 -0.7316  0.4428
  650TMC3    C5 9675   1.153   0.437  12.462 -0.2472  0.5155  0.3142
  650TMC3    C6 9676   1.038   0.505  12.489 -0.7661  0.1015 -0.4078
  650TMC3     C 9677   1.159   0.174  12.714  0.2738 -0.5209  0.0090
  650TMC3     O 9678   1.111   0.184  12.825 -0.4870  0.2128 -0.6035
  650TMC3     H 9679   0.911   0.289  12.714  1.0693  0.4959  0.6552
  650TMC3    H1 9680   1.296   0.284  12.517  1.8314  2.1742  1.1212
  650TMC3    H2 9681   1.008   0.585  12.424 -0.3160 -0.0421 -0.7949
  650TMC3    C7 9682   1.226   0.482  12.352 -0.0196  0.2184 -0.0471
  650TMC3    C8 9683   0.830   0.499  12.589 -0.6225  0.0148  0.4037
  650TMC3    O1 9684   1.276   0.393  12.285  0.0300  0.3440  0.3027
  650TMC3    O2 9685   0.747   0.436  12.653  0.2379  0.5625 -0.0667
  651MPD2     C 9686   0.369   2.116  10.058  0.3914  0.3986 -0.0892
  651MPD2    C1 9687   0.319   2.246  10.062 -0.3683 -0.2230 -0.5427
  651MPD2    C2 9688   0.383   2.341   9.989  0.3685 -0.0586  0.5956
  651MPD2    C3 9689   0.498   2.317   9.923  0.3610  0.0250  0.4008
  651MPD2    C4 9690   0.553   2.197   9.928  0.0298 -0.1188  0.6162
  651MPD2    C5 9691   0.486   2.095   9.991  0.2044  0.4200  0.3456
  651MPD2     H 9692   0.341   2.441   9.996  0.3719 -0.1889  2.3528
  651MPD2    H1 9693   0.654   2.177   9.895 -0.1395  0.3823 -0.1944
  651MPD2    H2 9694   0.342   2.028  10.116  0.0561  0.1205 -0.6639
  651MPD2    H3 9695   0.530   1.997  10.003 -1.5668 -0.3873  0.1410
  651MPD2     N 9696   0.557   2.430   9.864 -0.1826 -0.1762  0.4178
  651MPD2    H5 9697   0.516   2.520   9.888 -2.2980 -1.2555  0.8670
  651MPD2    N1 9698   0.198   2.282  10.132  0.4649  0.3221  0.2013
  651MPD2    H7 9699   0.181   2.380  10.150  2.0869  0.5221  0.7089
  652TMC3    C1 9700   0.828   2.768   9.878 -0.4420 -0.5458  0.7885
  652TMC3    C2 9701   0.823   2.632   9.869 -0.3163  0.6227  0.3808
  652TMC3    C3 9702   0.720   2.580   9.800  0.2466  0.1480  0.3388
  652TMC3    C4 9703   0.738   2.850   9.807  0.4058  0.1612 -0.4512
  652TMC3    C5 9704   0.641   2.792   9.726  0.6994  0.4542 -0.1272
  652TMC3    C6 9705   0.627   2.656   9.726  0.2127 -1.1709  0.9422
  652TMC3     C 9706   0.931   2.820   9.970 -0.1989 -0.1236  0.7225
  652TMC3     O 9707   0.964   2.746  10.063 -0.4051  0.0107 -0.0297
  652TMC3     H 9708   0.897   2.566   9.915  0.4967  0.4977 -1.1078
  652TMC3    H1 9709   0.754   2.957   9.792 -1.8466  1.0633  3.8219
  652TMC3    H2 9710   0.535   2.619   9.681  0.4068  0.7063 -1.0212
  652TMC3    C7 9711   0.518   2.871   9.728 -0.3588 -0.2516  0.1186
  652TMC3    C8 9712   0.689   2.439   9.817 -0.4946  1.1375 -0.0810
  652TMC3    O1 9713   0.420   2.808   9.684 -0.2802  0.1062  0.1179
  652TMC3    O2 9714   0.785   2.364   9.828 -0.6298  0.1860  0.4396
  653MPD2     C 9715   3.802   3.003  17.706  0.4750 -0.1777  0.1941
  653MPD2    C1 9716   3.769   3.089  17.605  0.5230  0.3115  0.1869
  653MPD2    C2 9717   3.724   3.036  17.488  0.3020 -0.6588  0.2526
  653MPD2    C3 9718   3.705   2.895  17.479  0.5533 -0.3416 -0.4661
  653MPD2    C4 9719   3.745   2.815  17.581 -0.0975  0.5259  0.7921
  653MPD2    C5 9720   3.783   2.868  17.700 -1.1501  0.3398  0.9141
  653MPD2     H 9721   3.679   3.097  17.410 -2.6277  1.7771  3.8517
  653MPD2    H1 9722   3.726   2.709  17.585  0.6474  0.3239 -1.0821
  653MPD2    H2 9723   3.837   3.045   0.061  0.7701  0.5335 -0.2367
  653MPD2    H3 9724   3.811   2.800   0.042  0.3028  2.0485  1.8815
  653MPD2     N 9725   3.631   2.852  17.366  0.2729 -0.0079  0.6653
  653MPD2    H5 9726   3.577   2.920  17.313 -1.8338 -1.5274  0.8975
  653MPD2    N1 9727   3.780   3.226  17.619 -0.3673  0.1389 -0.8801
  653MPD2    H7 9728   3.764   3.285  17.538  0.4503  1.6642  0.0701
  654TMC3    C1 9729   3.483   2.710  17.249 -0.4086 -0.4385 -0.6292
  654TMC3    C2 9730   3.388   2.806  17.251  0.6717 -0.1115  0.6619
  654TMC3    C3 9731   3.287   2.811  17.156 -0.1079  0.0729 -0.8649
  654TMC3    C4 9732   3.472   2.601  17.167 -0.3658 -0.9386  0.3637
  654TMC3    C5 9733   3.373   2.608  17.068 -0.8560 -0.1845  0.3893
  654TMC3    C6 9734   3.284   2.717  17.059 -0.4416  0.7330  0.3194
  654TMC3     C 9735   3.604   2.719  17.337 -0.0609  1.0331  0.4991
  654TMC3     O 9736   3.661   2.613  17.360 -0.6370  0.5564  0.4229
  654TMC3     H 9737   3.398   2.888  17.321 -1.9334  0.2214  0.6647
  654TMC3    H1 9738   3.547   2.523  17.176  0.3932 -0.5305 -2.4819
  654TMC3    H2 9739   3.201   2.718  16.988  0.1851  0.1281 -0.4344
  654TMC3    C7 9740   3.338   2.481  17.012  0.6505  0.4745 -0.8038
  654TMC3    C8 9741   3.175   2.893  17.196  0.3959  0.1293  0.4431
  654TMC3    O1 9742   3.287   2.480  16.900  0.2532 -0.2720  0.3569
  654TMC3    O2 9743   3.080   2.883  17.116 -0.1564 -0.1881 -0.0731
  655MPD2     C 9744   0.358   2.790  15.679 -0.3627 -0.3319 -0.5406
  655MPD2    C1 9745   0.260   2.866  15.630  0.6222 -0.4019 -0.2739
  655MPD2    C2 9746   0.210   2.829  15.504  0.0295 -0.2564 -0.1156
  655MPD2    C3 9747   0.259   2.722  15.434 -0.1740  0.2802 -0.3868
  655MPD2    C4 9748   0.344   2.638  15.497 -0.9216  0.2830  0.7828
  655MPD2    C5 9749   0.394   2.670  15.623  0.6929  0.2768  0.1637
  655MPD2     H 9750   0.136   2.900  15.467  1.5775  1.5559  0.2710
  655MPD2    H1 9751   0.374   2.544  15.453 -1.5995  0.1834  0.5355
  655MPD2    H2 9752   0.407   2.824  15.769 -2.6889 -1.8040  1.2795
  655MPD2    H3 9753   0.463   2.603  15.674  0.9539  1.1561  0.9643
  655MPD2     N 9754   0.197   2.679  15.311 -0.9670  0.5804 -0.1543
  655MPD2    H5 9755   0.235   2.596  15.268 -0.4892  0.5655  0.3014
  655MPD2    N1 9756   0.195   2.972  15.697 -0.4683  0.1532 -0.7350
  655MPD2    H7 9757   0.128   3.029  15.646 -1.2170 -1.0081 -1.0319
  656TMC3    C1 9758   0.146   3.132  15.866  0.4218  0.7634  0.0656
  656TMC3    C2 9759   0.096   3.144  15.998 -1.0003 -0.3140 -0.8865
  656TMC3    C3 9760   0.020   3.254  16.017  1.4302  0.2597 -0.4973
  656TMC3    C4 9761   0.104   3.219  15.768 -0.0434  0.8368  0.0824
  656TMC3    C5 9762   0.021   3.324  15.794 -0.1856  0.5954 -0.2153
  656TMC3    C6 9763   4.715   3.350  15.923 -0.1560 -0.2944  0.0286
  656TMC3     C 9764   0.207   3.005  15.831 -0.0939 -0.0601 -0.4799
  656TMC3     O 9765   0.257   2.931  15.917  0.0245 -0.3480 -0.1996
  656TMC3     H 9766   0.118   3.065  16.069  0.0848  0.7741 -0.0200
  656TMC3    H1 9767   0.147   3.217  15.669  1.6329 -0.0463  0.8332
  656TMC3    H2 9768   4.649   3.431  15.950 -0.8696 -0.4469 -1.2670
  656TMC3    C7 9769   4.717   3.414  15.691 -0.2187  0.4543  0.5614
  656TMC3    C8 9770   4.698   3.265  16.148 -0.3560  0.1064  0.7303
  656TMC3    O1 9771   0.059   3.435  15.601 -0.7725 -0.0285  0.2561
  656TMC3    O2 9772   4.721   3.175  16.227  0.5874 -0.5819 -0.3001
  657TMC3    C1 9773   3.808   2.267  15.192 -0.3692 -0.5804  0.0285
  657TMC3    C2 9774   3.878   2.267  15.306  0.2541 -0.2608 -0.0713
  657TMC3    C3 9775   3.806   2.312  15.418 -0.1626  0.1112 -0.4558
  657TMC3    C4 9776   3.679   2.299  15.182  1.1623  0.8144 -0.0879
  657TMC3    C5 9777   3.608   2.336  15.298 -0.1400  1.1333 -0.2320
  657TMC3    C6 9778   3.672   2.331  15.418  0.2397 -0.5417  0.4333
  657TMC3     C 9779   3.862   2.199  15.078  0.9098 -0.3022  0.2238
  657TMC3     O 9780   3.780   2.146  15.000  0.0860  0.2339  0.2169
  657TMC3     H 9781   3.984   2.245  15.310  0.9102  2.4184 -2.1656
  657TMC3    H1 9782   3.625   2.300  15.088 -0.7052  0.2373  0.9870
  657TMC3    H2 9783   3.618   2.365  15.506  0.5505  0.6547  0.1696
  657TMC3    C7 9784   3.478   2.405  15.300 -0.3440  0.1673  0.6686
  657TMC3    C8 9785   3.875   2.351  15.538 -0.0201  0.5439  0.1369
  657TMC3    O1 9786   3.461   2.500  15.377  0.4313  0.1573 -0.2881
  657TMC3    O2 9787   3.817   2.436  15.606 -0.3692 -0.6221  0.1571
  658MPD2     C 9788   0.499   2.368  14.818  0.2653 -0.0163  0.2187
  658MPD2    C1 9789   0.396   2.450  14.779 -0.2121  0.4697  0.0954
  658MPD2    C2 9790   0.395   2.501  14.656 -0.1071  0.2733  0.7615
  658MPD2    C3 9791   0.494   2.474  14.565  0.7537 -0.2612 -0.4194
  658MPD2    C4 9792   0.592   2.378  14.592  0.4903  1.2713  0.2652
  658MPD2    C5 9793   0.598   2.331  14.722 -0.3700 -0.4911  0.0470
  658MPD2     H 9794   0.331   2.584  14.626  0.6766 -0.0712 -1.8300
  658MPD2    H1 9795   0.668   2.352  14.519 -0.7811 -2.1195  0.1282
  658MPD2    H2 9796   0.497   2.328  14.919  2.8222 -2.4280 -0.6911
  658MPD2    H3 9797   0.675   2.259  14.749 -0.6762 -1.1345 -0.7783
  658MPD2     N 9798   0.494   2.524  14.429  0.7088 -0.0360  0.5799
  658MPD2    H5 9799   0.561   2.480  14.367 -0.4890 -0.2959 -0.5204
  658MPD2    N1 9800   0.285   2.467  14.872 -0.4291  0.9065 -0.3430
  658MPD2    H7 9801   0.296   2.449  14.972  0.2863  1.6765 -0.2821
  659TMC3    C1 9802   0.075   2.528  14.945 -0.5302  0.5351 -0.3128
  659TMC3    C2 9803   0.124   2.598  15.050  0.4254 -0.5310 -0.5816
  659TMC3    C3 9804   0.039   2.660  15.137 -0.5735  0.0685 -1.0514
  659TMC3    C4 9805   4.678   2.516  14.919 -0.7135  0.9025  0.2715
  659TMC3    C5 9806   4.599   2.586  15.007 -0.7319 -0.7697 -0.6810
  659TMC3    C6 9807   4.640   2.657  15.112 -0.0862  0.3644 -0.1068
  659TMC3     C 9808   0.156   2.490  14.834 -0.2161 -0.5203  0.5983
  659TMC3     O 9809   0.108   2.492  14.720  0.6119 -0.0277 -0.3076
  659TMC3     H 9810   0.230   2.614  15.065 -0.1404  1.8196  0.9792
  659TMC3    H1 9811   4.637   2.452  14.841  2.9753 -0.0468 -0.9176
  659TMC3    H2 9812   4.575   2.701  15.187 -2.9616 -0.7064 -1.9726
  659TMC3    C7 9813   4.459   2.580  14.995  0.0925 -0.2284 -0.7889
  659TMC3    C8 9814   0.090   2.739  15.243  0.0839 -0.4897  0.4940
  659TMC3    O1 9815   4.393   2.617  15.089 -0.2077  0.2976 -0.0403
  659TMC3    O2 9816   0.028   2.836  15.277 -0.6619  0.4846 -0.0549
  660MPD2     C 9817   3.642   1.507  12.392 -0.3889  0.1023 -0.3025
  660MPD2    C1 9818   3.512   1.481  12.421 -0.0496 -0.0764  0.1166
  660MPD2    C2 9819   3.466   1.447  12.546 -0.0349  0.4395  0.2381
  660MPD2    C3 9820   3.552   1.427  12.650 -0.1521 -0.1003 -0.3126
  660MPD2    C4 9821   3.686   1.449  12.628 -0.0022  0.1027  0.3189
  660MPD2    C5 9822   3.727   1.484  12.505 -0.4625  0.4205 -0.3773
  660MPD2     H 9823   3.361   1.421  12.550  0.4239 -1.3019  1.3257
  660MPD2    H1 9824   3.754   1.426  12.709 -2.7103 -2.7634  1.7394
  660MPD2    H2 9825   3.685   1.534  12.295 -0.6266  1.9241  0.1015
  660MPD2    H3 9826   3.833   1.497  12.488 -0.4254  0.5534 -0.0429
  660MPD2     N 9827   3.512   1.381  12.782 -0.2494  0.5814  0.5816
  660MPD2    H5 9828   3.589   1.365  12.846  0.9941  0.2084 -1.0096
  660MPD2    N1 9829   3.405   1.496  12.328 -0.0888  0.5587 -0.5246
  660MPD2    H7 9830   3.308   1.492  12.355  0.1859 -0.6277  0.2696
  661TMC3    C1 9831   3.282   1.576  12.154 -0.7101  0.7515  0.0444
  661TMC3    C2 9832   3.273   1.621  12.026  0.2298 -0.5343 -0.2612
  661TMC3    C3 9833   3.152   1.682  11.988  0.3082 -0.0948 -0.7961
  661TMC3    C4 9834   3.181   1.586  12.238  0.2732  0.4299 -0.0387
  661TMC3    C5 9835   3.061   1.639  12.196  0.8785 -0.0812 -0.0790
  661TMC3    C6 9836   3.042   1.694  12.072 -0.5463 -0.4222 -0.5040
  661TMC3     C 9837   3.416   1.542  12.205  0.7797 -0.2452 -0.1184
  661TMC3     O 9838   3.519   1.550  12.137 -0.1254  0.0200  0.6905
  661TMC3     H 9839   3.358   1.610  11.960  1.1519  0.6870  0.7195
  661TMC3    H1 9840   3.194   1.581  12.345 -3.3471  1.0872  0.4127
  661TMC3    H2 9841   2.951   1.748  12.046 -1.6243 -0.9648  2.0710
  661TMC3    C7 9842   2.949   1.622  12.286 -0.0940 -0.0219 -0.6565
  661TMC3    C8 9843   3.153   1.724  11.849  0.3287  0.7271  0.6409
  661TMC3    O1 9844   2.983   1.613  12.406 -0.2389 -0.6434  0.0474
  661TMC3    O2 9845   3.247   1.695  11.776 -0.7511  0.0928 -0.2578
  662MPD2     C 9846   3.360   1.372   0.344 -0.2764  0.1694 -0.0038
  662MPD2    C1 9847   3.277   1.321   0.243  0.1706 -0.2066 -0.7388
  662MPD2    C2 9848   3.155   1.376   0.215 -1.1693  0.0477  0.5252
  662MPD2    C3 9849   3.100   1.464   0.310  0.0874 -0.7722  0.5385
  662MPD2    C4 9850   3.174   1.506   0.419  0.0649 -0.1774  0.1911
  662MPD2    C5 9851   3.307   1.467   0.433  0.4400  0.5689  0.6887
  662MPD2     H 9852   3.098   1.339   0.130 -0.3404 -1.0721  0.4524
  662MPD2    H1 9853   3.152   1.578   0.497 -1.7384 -2.3077  1.6197
  662MPD2    H2 9854   3.465   1.345   0.346 -0.5135 -0.7142  0.4047
  662MPD2    H3 9855   3.373   1.513   0.505  0.2809  2.2270 -0.2146
  662MPD2     N 9856   2.971   1.514   0.292  0.3330 -0.0175 -0.0727
  662MPD2    H5 9857   2.939   1.563   0.375  0.0140  0.9124 -0.7473
  662MPD2    N1 9858   3.317   1.216   0.160  0.3100 -0.3379  0.3746
  662MPD2    H7 9859   3.253   1.186   0.087  1.2569 -1.2353 -0.0874
  663TMC3    C1 9860   3.417   1.013   0.101 -0.4880 -0.0991 -0.3156
  663TMC3    C2 9861   3.475   0.890   0.135 -0.6081 -0.0503 -0.3549
  663TMC3    C3 9862   3.470   0.780   0.055 -0.2224 -0.0469  0.0144
  663TMC3    C4 9863   3.337   1.020  17.729 -0.2977  0.1134 -0.2072
  663TMC3    C5 9864   3.314   0.904  17.664 -0.1282  0.4647 -0.7922
  663TMC3    C6 9865   3.377   0.792  17.695  0.4994 -0.0830 -0.2490
  663TMC3     C 9866   3.421   1.128   0.188  0.4717  0.4108 -0.3268
  663TMC3     O 9867   3.492   1.123   0.285  0.0591 -0.7495  0.6669
  663TMC3     H 9868   3.553   0.891   0.210 -0.8035 -1.2553 -0.1332
  663TMC3    H1 9869   3.308   1.113  17.682  1.0663  1.4282  1.5481
  663TMC3    H2 9870   3.336   0.704  17.646 -1.2185  0.8141 -0.4269
  663TMC3    C7 9871   3.217   0.917  17.553  0.0444 -0.0663  0.4957
  663TMC3    C8 9872   3.459   0.665   0.136  0.2234 -0.1462  0.4367
  663TMC3    O1 9873   3.141   1.011  17.560  0.5966 -0.5110 -0.4325
  663TMC3    O2 9874   3.567   0.615   0.165  0.3074 -0.1666  0.5028
  664MPD2     C 9875   1.360   4.486  17.426 -0.0418  0.4962 -0.1723
  664MPD2    C1 9876   1.468   4.563  17.466 -0.0644  0.8609  0.6129
  664MPD2    C2 9877   1.531   4.526  17.592  0.5846  0.0047 -0.3552
  664MPD2    C3 9878   1.492   4.415  17.660 -0.5264  0.4649 -0.0409
  664MPD2    C4 9879   1.399   4.328  17.605  0.5204  0.5611  0.2675
  664MPD2    C5 9880   1.331   4.367  17.491 -0.3138  0.1053 -0.7327
  664MPD2     H 9881   1.618   4.574  17.635  0.9531 -1.3677  0.4215
  664MPD2    H1 9882   1.364   4.236  17.650 -1.0317  0.1601 -1.7672
  664MPD2    H2 9883   1.308   4.506  17.333 -2.6521  0.1990  1.2463
  664MPD2    H3 9884   1.253   4.300  17.457  0.3672 -1.2409  0.4104
  664MPD2     N 9885   1.552   4.381   0.049 -0.0178  0.8055  0.1074
  664MPD2    H5 9886   1.623   4.444   0.085  1.3688 -1.0218  0.5673
  664MPD2    N1 9887   1.517   4.672  17.388 -0.6108  0.3524  0.0169
  664MPD2    H7 9888   1.609   4.710  17.410  0.0511 -1.4095  0.2988
  665TMC3    C1 9889   1.611   4.270   0.250 -0.0033 -0.1219  0.0931
  665TMC3    C2 9890   1.618   4.153   0.322  0.0419  0.1981  0.3847
  665TMC3    C3 9891   1.652   4.149   0.451 -0.7010 -0.0957  0.2234
  665TMC3    C4 9892   1.620   4.385   0.314 -0.1114  0.2261  0.3057
  665TMC3    C5 9893   1.657   4.377   0.446  0.3831  0.2663  0.5438
  665TMC3    C6 9894   1.681   4.261   0.515 -0.3388  0.1453  0.0131
  665TMC3     C 9895   1.542   4.263   0.123 -0.2220  0.7307  0.3072
  665TMC3     O 9896   1.500   4.154   0.085  0.6887  0.1181 -0.1316
  665TMC3     H 9897   1.593   4.059   0.275  0.4153 -0.1704  0.9295
  665TMC3    H1 9898   1.578   4.477   0.274  2.7056  2.9367  3.5630
  665TMC3    H2 9899   1.723   4.258   0.615 -1.5769  1.0472  0.5568
  665TMC3    C7 9900   1.651   4.499   0.528  0.4199  0.7191 -0.0574
  665TMC3    C8 9901   1.568   4.065   0.538  0.4618  0.6315 -0.1427
  665TMC3    O1 9902   1.663   4.477   0.647  0.1106  0.1356  0.2535
  665TMC3    O2 9903   1.505   4.128   0.626 -0.4664 -0.4582  0.1314
  666TMC3    C1 9904   0.251   4.526   9.585  0.5959  0.3704 -0.6812
  666TMC3    C2 9905   0.328   4.417   9.610 -0.3810 -0.4887 -0.3257
  666TMC3    C3 9906   0.442   4.436   9.680  0.4113  0.5649  0.0252
  666TMC3    C4 9907   0.276   4.651   9.626  0.3287 -0.5770 -0.9012
  666TMC3    C5 9908   0.394   4.670   9.695  0.5997  0.0519  0.0446
  666TMC3    C6 9909   0.477   4.564   9.725  0.4114  0.4893  0.0652
  666TMC3     C 9910   0.110   4.485   9.592 -0.2013 -0.6867 -0.1829
  666TMC3     O 9911   0.031   4.568   9.554  0.1610  0.2622  0.4585
  666TMC3     H 9912   0.294   4.322   9.569 -1.0492 -0.2548 -0.3082
  666TMC3    H1 9913   0.208   4.731   9.601 -1.0423 -1.5546 -0.2920
  666TMC3    H2 9914   0.567   4.584   9.782  0.8157 -1.8697  0.2252
  666TMC3    C7 9915   0.395   0.030   9.804 -0.3661  0.6750 -0.1492
  666TMC3    C8 9916   0.505   4.321   9.736  0.5828 -0.0914 -0.0790
  666TMC3    O1 9917   0.434   4.727   9.912  0.0768 -0.5993  0.6391
  666TMC3    O2 9918   0.444   4.218   9.724 -0.1410  1.1569  0.1069
  667MPD2     C 9919   2.625   4.298  14.648  0.4848  0.6535 -0.2936
  667MPD2    C1 9920   2.502   4.330  14.703 -0.1497  0.4526 -0.1330
  667MPD2    C2 9921   2.390   4.256  14.667 -0.7711 -0.0188  0.0787
  667MPD2    C3 9922   2.406   4.135  14.603 -0.2173  0.2034  0.2719
  667MPD2    C4 9923   2.535   4.092  14.573 -0.0691 -0.5162  0.6785
  667MPD2    C5 9924   2.645   4.171  14.596  0.2698 -0.1079  1.3929
  667MPD2     H 9925   2.293   4.292  14.700 -0.8787  0.1913 -0.4695
  667MPD2    H1 9926   2.556   3.992  14.537  3.0252 -0.3688  2.0375
  667MPD2    H2 9927   2.712   4.362  14.654  0.9437 -0.1235  1.3409
  667MPD2    H3 9928   2.742   4.133  14.564  0.5697  0.9439  1.0670
  667MPD2     N 9929   2.296   4.053  14.586  0.3682  0.3179  0.8116
  667MPD2    H5 9930   2.306   3.956  14.557 -0.7498  0.9093 -1.5703
  667MPD2    N1 9931   2.484   4.453  14.773  0.3740  0.3676 -0.6317
  667MPD2    H7 9932   2.394   4.462  14.819  0.6832  1.8765 -0.3058
  668TMC3    C1 9933   2.505   4.676  14.836  0.0764  0.1803 -0.1923
  668TMC3    C2 9934   2.584   0.053  14.848  0.2499  0.2731 -0.0070
  668TMC3    C3 9935   2.530   0.153  14.926 -0.5539  1.0786 -0.1335
  668TMC3    C4 9936   2.378   4.667  14.888 -0.0466  0.3184  0.3920
  668TMC3    C5 9937   2.335   0.036  14.962 -0.6144  0.2532  0.1248
  668TMC3    C6 9938   2.409   0.146  14.983 -0.0709  0.5441 -0.1120
  668TMC3     C 9939   2.571   4.564  14.784  0.2525 -0.0311 -1.0543
  668TMC3     O 9940   2.689   4.573  14.749  0.5045  0.6369  0.5157
  668TMC3     H 9941   2.683   0.063  14.805  0.4655 -0.3135  0.3577
  668TMC3    H1 9942   2.325   4.573  14.893 -0.5155  0.6145  1.0259
  668TMC3    H2 9943   2.370   0.229  15.041 -0.5970 -0.3681  0.8217
  668TMC3    C7 9944   2.220   4.734  15.043 -0.1121 -0.3979  0.6725
  668TMC3    C8 9945   2.620   0.251  14.974  0.2962 -0.4076  0.3916
  668TMC3    O1 9946   2.131   4.673  14.985  0.4567  0.3777 -0.2871
  668TMC3    O2 9947   2.606   0.279  15.093 -0.2891 -0.0628  0.1180
  669TMC3    C1 9948   0.182   4.024  14.719 -0.1178  0.1304 -0.3520
  669TMC3    C2 9949   0.068   4.054  14.652 -0.6390  0.2763  0.3062
  669TMC3    C3 9950   0.081   4.100  14.526  0.0253  0.6533 -0.1047
  669TMC3    C4 9951   0.306   4.033  14.664  0.8531 -0.0254  0.6232
  669TMC3    C5 9952   0.319   4.072  14.531  0.1601  0.5751 -0.0933
  669TMC3    C6 9953   0.207   4.110  14.462 -0.4424  0.5528  0.2866
  669TMC3     C 9954   0.168   4.007  14.862 -0.2795  0.0659  0.3928
  669TMC3     O 9955   0.072   4.059  14.919 -0.2573 -0.0620 -0.3809
  669TMC3     H 9956   4.708   4.041  14.702 -0.0573 -3.4868  0.4367
  669TMC3    H1 9957   0.402   3.998  14.701  1.1037  1.3904  1.2995
  669TMC3    H2 9958   0.211   4.142  14.359 -1.6450  0.5465  0.2446
  669TMC3    C7 9959   0.443   4.133  14.491  0.2324 -0.7947  0.5326
  669TMC3    C8 9960   4.706   4.145  14.443 -0.2755  0.6196  0.1817
  669TMC3    O1 9961   0.525   4.147  14.579  0.4878 -0.5403 -0.1443
  669TMC3    O2 9962   4.599   4.089  14.461  0.3158 -0.4983 -0.2304
  670MPD2     C 9963   3.313   1.854  13.561  0.1632 -0.0339  0.6573
  670MPD2    C1 9964   3.396   1.868  13.665  0.0964 -0.0329 -0.6343
  670MPD2    C2 9965   3.352   1.854  13.791 -0.3608 -0.3845 -0.4492
  670MPD2    C3 9966   3.215   1.838  13.814  0.4374 -0.0957  0.4861
  670MPD2    C4 9967   3.129   1.838  13.704  0.3570 -0.3292 -0.3953
  670MPD2    C5 9968   3.179   1.843  13.579 -0.1421 -0.5810  0.7769
  670MPD2     H 9969   3.425   1.857  13.871  0.4793  1.1452 -1.2805
  670MPD2    H1 9970   3.022   1.818  13.710  0.2296  0.7618  1.1429
  670MPD2    H2 9971   3.337   1.865  13.456 -2.2477  0.5760  0.1673
  670MPD2    H3 9972   3.114   1.836  13.493  0.8670  1.2888 -0.1436
  670MPD2     N 9973   3.174   1.816  13.948  0.0863 -0.1376 -0.4840
  670MPD2    H5 9974   3.250   1.788  14.009 -0.5306 -1.1115 -0.1698
  670MPD2    N1 9975   3.541   1.880  13.657 -0.2694 -0.6191  1.0472
  670MPD2    H7 9976   3.589   1.886  13.747  0.1128  0.4006  0.7720
  671TMC3    C1 9977   3.048   1.738  14.123  0.1620 -0.5475  0.3656
  671TMC3    C2 9978   3.168   1.709  14.178  0.6960  0.4266 -0.5774
  671TMC3    C3 9979   3.175   1.600  14.255  0.2373 -0.5949  0.2972
  671TMC3    C4 9980   2.939   1.664  14.145  0.3164 -0.4933 -0.5228
  671TMC3    C5 9981   2.947   1.554  14.230  0.4512 -0.2082  0.0472
  671TMC3    C6 9982   3.069   1.516  14.279  0.5437 -0.2077  0.2426
  671TMC3     C 9983   3.048   1.794  13.990  0.0601 -0.7186  0.4366
  671TMC3     O 9984   2.944   1.785  13.928  0.2012  0.4565 -0.2376
  671TMC3     H 9985   3.242   1.788  14.185  1.8757 -0.7319  0.1401
  671TMC3    H1 9986   2.845   1.698  14.104  1.2959  0.9012 -1.6266
  671TMC3    H2 9987   3.069   1.417  14.323  0.5444  0.4926  1.7848
  671TMC3    C7 9988   2.861   1.441  14.206  0.0495  0.1553  0.2486
  671TMC3    C8 9989   3.310   1.573  14.280  0.3450  0.4683 -0.4747
  671TMC3    O1 9990   2.743   1.475  14.210  0.1835 -0.2128  0.3839
  671TMC3    O2 9991   3.391   1.623  14.201 -0.2940 -0.1105 -0.5309
  672MPD2     C 9992   3.524   3.236   0.503  0.0172 -0.2838 -0.4398
  672MPD2    C1 9993   3.615   3.141   0.563  0.6968 -1.1476 -0.3205
  672MPD2    C2 9994   3.746   3.182   0.593  0.4526 -0.3942  0.7321
  672MPD2    C3 9995   3.783   3.309   0.547  0.5134  0.2153 -0.3242
  672MPD2    C4 9996   3.694   3.395   0.488 -0.3903  0.3553 -0.7144
  672MPD2    C5 9997   3.566   3.361   0.468 -0.6110 -0.7210  0.2644
  672MPD2     H 9998   3.815   3.103   0.618 -0.4784 -2.2738 -2.6520
  672MPD2    H1 9999   3.722   3.494   0.453  0.6624  0.0000 -0.8887
  672MPD2    H210000   3.419   3.208   0.497  0.4224 -1.7580 -0.7194
  672MPD2    H310001   3.499   3.439   0.432  0.7350  0.0751 -0.4830
  672MPD2     N10002   3.908   3.363   0.575 -0.7522 -0.9071  1.0184
  672MPD2    H510003   3.926   3.462   0.570 -2.5717 -0.5657  1.1967
  672MPD2    N110004   3.562   3.013   0.589 -0.2477 -0.2896 -0.0281
  672MPD2    H710005   3.465   3.002   0.561 -0.0011 -0.3273 -0.8745
  673TMC3    C110006   3.550   2.785   0.641  0.2813  0.0791  0.3029
  673TMC3    C210007   3.619   2.666   0.652  0.0660 -0.2066  0.1448
  673TMC3    C310008   3.547   2.557   0.670 -0.4042  0.5228 -0.2782
  673TMC3    C410009   3.419   2.795   0.657 -0.4727  0.0122  1.0280
  673TMC3    C510010   3.348   2.681   0.677 -0.1058 -0.3761 -0.7011
  673TMC3    C610011   3.412   2.559   0.684  0.1859 -0.5090 -0.5481
  673TMC3     C10012   3.633   2.907   0.635 -0.3345  0.2338 -0.3386
  673TMC3     O10013   3.752   2.893   0.654 -0.5919  0.0464  0.2143
  673TMC3     H10014   3.725   2.653   0.631 -0.0611 -0.3774 -0.4045
  673TMC3    H110015   3.375   2.894   0.658 -1.2422 -0.2879 -2.4097
  673TMC3    H210016   3.359   2.465   0.695 -0.7982 -0.1851 -2.4744
  673TMC3    C710017   3.200   2.691   0.686 -0.0425 -0.4472  0.3408
  673TMC3    C810018   3.614   2.427   0.697  0.1941  0.0190  0.0115
  673TMC3    O110019   3.134   2.600   0.738  0.5632  0.3148 -0.3005
  673TMC3    O210020   3.553   2.325   0.674 -0.3033 -0.2769  0.5541
  674MPD2     C10021   3.133   2.773   0.202  0.0683  0.5863 -0.6117
  674MPD2    C110022   3.155   2.659   0.273  0.4665  0.1349  0.0437
  674MPD2    C210023   3.044   2.600   0.329  0.3851  0.0481 -0.4500
  674MPD2    C310024   2.914   2.644   0.313  0.2566  0.4349 -0.4948
  674MPD2    C410025   2.894   2.746   0.220  0.2374  0.1599  0.1697
  674MPD2    C510026   3.004   2.811   0.170 -0.6380 -0.2656 -0.1151
  674MPD2     H10027   3.061   2.517   0.396 -0.8603 -0.5279 -0.8568
  674MPD2    H110028   2.798   2.793   0.202  1.3568  1.8804 -1.3275
  674MPD2    H210029   3.215   2.839   0.176  0.8127 -0.8797 -1.9423
  674MPD2    H310030   2.991   2.902   0.111 -0.9855  0.2511  0.7499
  674MPD2     N10031   2.804   2.582   0.387  0.0759  0.3192  0.3715
  674MPD2    H510032   2.830   2.525   0.467 -0.9987 -0.9240 -0.1696
  674MPD2    N110033   3.286   2.606   0.304 -0.0170  0.3304 -0.3838
  674MPD2    H710034   3.289   2.508   0.330  3.6130 -0.1528 -2.5802
  675TMC3    C110035   3.519   2.579   0.297  0.4069 -0.0409 -0.0729
  675TMC3    C210036   3.509   2.439   0.288 -0.1478 -0.3306 -0.3068
  675TMC3    C310037   3.623   2.368   0.320  0.0080  0.1011  0.6041
  675TMC3    C410038   3.642   2.640   0.309 -0.0730 -0.4778 -0.0238
  675TMC3    C510039   3.754   2.567   0.330  0.2376 -0.0315  0.0762
  675TMC3    C610040   3.747   2.429   0.339  0.2783 -0.3463  0.4996
  675TMC3     C10041   3.408   2.668   0.280  0.0599 -0.3414  0.1637
  675TMC3     O10042   3.435   2.789   0.260 -0.1336  0.0338 -0.0135
  675TMC3     H10043   3.420   2.381   0.264 -0.1352  0.2114 -1.6817
  675TMC3    H110044   3.652   2.748   0.307 -1.5749 -0.3781 -2.0253
  675TMC3    H210045   3.836   2.371   0.361 -0.1139 -1.1877 -0.1166
  675TMC3    C710046   3.887   2.630   0.381  0.4294 -0.4609 -0.4944
  675TMC3    C810047   3.613   2.221   0.321 -0.6222 -1.2017 -0.1474
  675TMC3    O110048   3.967   2.551   0.425 -0.2084  0.7703 -0.3873
  675TMC3    O210049   3.645   2.159   0.219  0.0451  0.1709  0.2261
  676MPD2     C10050   0.766   0.843  11.122  0.8204 -0.2712  0.3100
  676MPD2    C110051   0.780   0.733  11.210 -0.2449 -0.4289  0.3382
  676MPD2    C210052   0.793   0.606  11.153 -0.0820  0.0910  0.1041
  676MPD2    C310053   0.792   0.583  11.012  0.6362  0.2749  0.1952
  676MPD2    C410054   0.786   0.691  10.927 -0.0641  0.1807 -0.1129
  676MPD2    C510055   0.770   0.817  10.980 -0.6305  0.1101  0.1348
  676MPD2     H10056   0.792   0.521  11.221 -0.4120 -0.7884 -1.0068
  676MPD2    H110057   0.792   0.667  10.822 -2.0329  1.2123 -0.4425
  676MPD2    H210058   0.744   0.945  11.150 -0.8972  0.1720 -2.6206
  676MPD2    H310059   0.757   0.900  10.912 -0.7852 -0.1023 -0.0965
  676MPD2     N10060   0.802   0.452  10.949 -0.3973 -0.4674  0.0597
  676MPD2    H510061   0.821   0.443  10.849  1.8055  0.4282  0.3933
  676MPD2    N110062   0.782   0.742  11.353 -0.5661 -0.0172 -0.2684
  676MPD2    H710063   0.766   0.661  11.411  0.4655 -0.8853 -1.1927
  677TMC3    C110064   0.822   0.855  11.557 -0.4675 -0.2408 -0.2533
  677TMC3    C210065   0.877   0.735  11.608 -0.6057  0.5079 -0.3497
  677TMC3    C310066   0.930   0.755  11.739  0.1655 -0.2524 -0.3042
  677TMC3    C410067   0.810   0.966  11.627  0.4400  0.2629  0.0771
  677TMC3    C510068   0.846   0.964  11.760  0.0136  0.0137  0.1933
  677TMC3    C610069   0.917   0.866  11.815  0.7734 -0.0460  0.7944
  677TMC3     C10070   0.802   0.864  11.416  0.0104 -0.5099  0.2371
  677TMC3     O10071   0.829   0.976  11.373  0.6263  0.6068  0.2237
  677TMC3     H10072   0.907   0.649  11.548  0.2148 -0.1593  1.0294
  677TMC3    H110073   0.777   1.059  11.583  2.4953  1.1991  0.5243
  677TMC3    H210074   0.945   0.876  11.919  1.2897 -1.4657  0.7943
  677TMC3    C710075   0.860   1.098  11.816 -0.0501 -0.6010 -0.3487
  677TMC3    C810076   1.012   0.650  11.797  0.3855 -0.1686 -0.2233
  677TMC3    O110077   0.809   1.116  11.927  0.5408 -0.1352 -0.2570
  677TMC3    O210078   1.100   0.687  11.879 -1.1740 -0.3232 -0.6870
  678MPD2     C10079   2.227   1.078   1.480  0.4284  0.5184  0.1576
  678MPD2    C110080   2.311   0.976   1.439  0.2653 -0.5822 -0.6494
  678MPD2    C210081   2.256   0.860   1.387  0.1060  0.0026  0.1919
  678MPD2    C310082   2.117   0.861   1.373  0.8071 -0.4334  0.5834
  678MPD2    C410083   2.043   0.972   1.408  0.1339 -0.9826  0.5585
  678MPD2    C510084   2.094   1.083   1.468  0.0703  0.8834 -0.4539
  678MPD2     H10085   2.325   0.780   1.363 -1.6039 -1.1444 -0.9136
  678MPD2    H110086   1.936   0.977   1.396  0.0368 -2.1996  0.9754
  678MPD2    H210087   2.272   1.158   1.538 -1.2745  1.1073  0.6689
  678MPD2    H310088   2.037   1.172   1.490 -2.3328 -0.6013 -0.6434
  678MPD2     N10089   2.056   0.745   1.315 -0.0328 -0.0065 -0.0011
  678MPD2    H510090   2.114   0.683   1.259 -0.2203 -0.4398  0.2823
  678MPD2    N110091   2.455   0.972   1.462 -0.1017 -0.0534 -0.2474
  678MPD2    H710092   2.498   0.886   1.430 -0.6605 -0.3265 -0.2808
  679TMC3    C110093   2.876   0.966   1.562 -0.8263 -0.1067 -0.1569
  679TMC3    C210094   2.751   1.015   1.583  0.1433 -0.3524 -0.2257
  679TMC3    C310095   2.666   1.018   1.478  0.1133  0.4249  0.4622
  679TMC3    C410096   2.916   0.919   1.446  0.2348  0.0359  0.7582
  679TMC3    C510097   2.823   0.904   1.344  0.2903  0.2795 -0.1465
  679TMC3    C610098   2.699   0.961   1.353  0.3260  0.4954  0.1136
  679TMC3     C10099   2.948   0.903   1.675  0.5304  0.3088  0.3829
  679TMC3     O10100   3.053   0.845   1.655  0.3413  0.1475 -0.0499
  679TMC3     H10101   2.717   1.042   1.682 -0.9831 -0.1584 -0.6654
  679TMC3    H110102   3.011   0.871   1.424 -1.5603 -3.2031 -0.0723
  679TMC3    H210103   2.628   0.955   1.272  1.6937  1.8560 -1.1661
  679TMC3    C710104   2.843   0.825   1.219  0.2723 -0.2204 -0.0372
  679TMC3    C810105   2.535   1.073   1.495  0.0327  0.1137  0.5874
  679TMC3    O110106   2.748   0.818   1.141  0.5153  0.2596  0.0963
  679TMC3    O210107   2.521   1.181   1.553 -0.2441  0.2341  0.2871
  680MPD2     C10108   2.832   4.291  13.541  0.0137 -0.3294 -0.1421
  680MPD2    C110109   2.883   4.218  13.646 -0.0828 -0.0134 -0.2391
  680MPD2    C210110   2.980   4.272  13.723 -0.1533 -0.3611  0.2187
  680MPD2    C310111   3.031   4.394  13.696  0.1019 -0.0906  0.0979
  680MPD2    C410112   2.975   4.468  13.596 -0.4990 -0.6023  0.0288
  680MPD2    C510113   2.872   4.414  13.519 -0.0295  0.5226  0.0280
  680MPD2     H10114   3.016   4.214  13.807  1.6063  1.2239  0.5607
  680MPD2    H110115   3.008   4.570  13.578  0.5218 -0.8079  0.7487
  680MPD2    H210116   2.757   4.244  13.479  0.1245 -0.3727 -0.2438
  680MPD2    H310117   2.827   4.476  13.443  0.3440 -0.9390 -1.3878
  680MPD2     N10118   3.136   4.458  13.767 -0.8122 -0.6909  0.7137
  680MPD2    H510119   3.153   4.555  13.742  0.5233 -1.0495  0.2460
  680MPD2    N110120   2.843   4.085  13.683  0.1217 -0.1108  0.1167
  680MPD2    H710121   2.903   4.033  13.746  2.3600  0.8094 -1.2815
  681TMC3    C110122   2.749   3.862  13.665  0.9153 -1.0601 -0.7764
  681TMC3    C210123   2.732   3.840  13.799 -0.2297 -0.5830 -0.2145
  681TMC3    C310124   2.664   3.731  13.847 -0.3008  0.1403 -0.3560
  681TMC3    C410125   2.704   3.771  13.579  0.1959 -0.0056 -0.2716
  681TMC3    C510126   2.632   3.669  13.633 -0.0128 -0.2730  0.5903
  681TMC3    C610127   2.605   3.647  13.766 -0.2873  0.1267  0.2794
  681TMC3     C10128   2.765   3.997  13.607 -0.6658 -0.0497  0.9653
  681TMC3     O10129   2.710   4.024  13.500 -0.2964 -0.2208 -0.3867
  681TMC3     H10130   2.768   3.917  13.867  0.3940 -1.7003  0.7188
  681TMC3    H110131   2.703   3.809  13.477 -0.0132 -0.3112 -0.3831
  681TMC3    H210132   2.537   3.571  13.801 -0.8950 -1.0132 -3.3673
  681TMC3    C710133   2.616   3.554  13.550 -0.1866 -0.0474  0.0817
  681TMC3    C810134   2.644   3.726  13.990 -0.6223  0.8709  0.1192
  681TMC3    O110135   2.524   3.476  13.577  0.4903  0.3238  0.2076
  681TMC3    O210136   2.530   3.722  14.040 -0.2979  0.3048  0.9947
  682MPD2     C10137   0.021   0.689  10.992 -0.3682  0.8591  1.2719
  682MPD2    C110138   0.068   0.561  10.990 -0.1871 -1.1293  0.2670
  682MPD2    C210139   0.092   0.498  11.113 -0.0215 -0.0293 -0.2526
  682MPD2    C310140   0.067   0.560  11.233  0.5083 -0.0252  0.5314
  682MPD2    C410141   0.015   0.688  11.226  0.1735  0.2398  0.3984
  682MPD2    C510142   0.008   0.755  11.109 -0.1209 -0.0574  0.1667
  682MPD2     H10143   0.133   0.399  11.099 -0.5267 -0.1687 -0.7408
  682MPD2    H110144   4.732   0.757  11.308 -0.8011 -1.9602  2.0301
  682MPD2    H210145   4.720   0.745  10.906  0.2221 -0.9354 -0.1595
  682MPD2    H310146   4.678   0.842  11.101 -2.5504 -1.8949 -0.0484
  682MPD2     N10147   0.083   0.495  11.354  0.1184 -0.6818  0.4471
  682MPD2    H510148   0.050   0.544  11.437 -1.0234 -1.2085  0.3030
  682MPD2    N110149   0.079   0.475  10.877  0.5448 -0.1825 -0.2832
  682MPD2    H710150   0.110   0.382  10.904 -0.3831 -0.0359  1.2433
  683TMC3    C110151   0.170   0.393  11.745 -0.1376  0.1493  0.5322
  683TMC3    C210152   0.145   0.268  11.795 -0.5109 -0.1397 -0.0961
  683TMC3    C310153   0.124   0.177  11.702  0.5423  0.0348  0.7100
  683TMC3    C410154   0.140   0.428  11.618  0.1670 -0.3216 -0.5091
  683TMC3    C510155   0.125   0.334  11.523  0.4028 -0.7245 -0.0122
  683TMC3    C610156   0.115   0.203  11.566  0.1538 -0.6090 -0.3757
  683TMC3     C10157   0.244   0.481  11.835  0.7625 -0.0587 -0.1390
  683TMC3     O10158   0.235   0.461  11.956 -0.0089  0.1063 -0.2343
  683TMC3     H10159   0.172   0.242  11.897 -0.0909  2.9650  0.5789
  683TMC3    H110160   0.158   0.532  11.593  0.9719 -0.7799 -1.8096
  683TMC3    H210161   0.120   0.117  11.501  1.0422  0.0171 -1.1237
  683TMC3    C710162   0.128   0.371  11.380  0.3332 -0.3923  0.0431
  683TMC3    C810163   0.123   0.037  11.742  0.1494 -0.4112 -0.1159
  683TMC3    O110164   0.151   0.284  11.300 -0.6745  0.4119  0.4815
  683TMC3    O210165   0.090   4.686  11.658 -0.3223  0.4382 -0.4757
  684MPD2     C10166   3.304   4.675  16.296  0.2265  0.1686 -0.3427
  684MPD2    C110167   3.321   4.682  16.161  0.6721 -0.3999  0.9818
  684MPD2    C210168   3.337   0.072  16.103  0.6048  0.6216 -0.0537
  684MPD2    C310169   3.347   0.182  16.182 -0.0156 -0.2869  0.0038
  684MPD2    C410170   3.315   0.174  16.317 -0.6024  0.0639  0.4858
  684MPD2    C510171   3.301   0.049  16.378 -0.1355 -1.1757  0.0800
  684MPD2     H10172   3.358   0.078  15.996 -1.5680 -0.8305 -0.5613
  684MPD2    H110173   3.319   0.258  16.385 -0.2586  0.0362  0.5003
  684MPD2    H210174   3.288   4.580  16.345 -0.8130  1.4028  1.6731
  684MPD2    H310175   3.288   0.042  16.486 -1.9711 -1.5151 -0.1670
  684MPD2     N10176   3.393   0.307  16.146 -0.4875 -0.8247 -0.0212
  684MPD2    H510177   3.411   0.377  16.218 -4.3784 -0.4265  0.5435
  684MPD2    N110178   3.295   4.578  16.072  0.5256 -0.1115  0.0124
  684MPD2    H710179   3.283   4.602  15.974 -1.7242 -0.4947  0.2001
  685TMC3    C110180   3.269   4.365  16.001 -0.6742  0.4895 -0.3534
  685TMC3    C210181   3.169   4.398  15.913  0.8655 -0.0894 -0.3686
  685TMC3    C310182   3.173   4.348  15.782  0.9465 -0.7070  0.1543
  685TMC3    C410183   3.386   4.310  15.948 -0.2368 -0.3895 -0.8607
  685TMC3    C510184   3.396   4.282  15.819 -0.0587  0.4639  0.2736
  685TMC3    C610185   3.288   4.294  15.738 -0.3009  0.1825  0.2787
  685TMC3     C10186   3.289   4.449  16.112  0.9381 -0.4910  0.2739
  685TMC3     O10187   3.342   4.384  16.204 -0.4925  0.3104 -0.1109
  685TMC3     H10188   3.077   4.436  15.956 -0.7418 -1.3068 -2.7571
  685TMC3    H110189   3.468   4.281  16.013  0.7716  0.8874 -1.5731
  685TMC3    H210190   3.297   4.266  15.634  2.9853 -2.8820  1.3719
  685TMC3    C710191   3.531   4.270  15.766  0.0758 -0.1621  0.1032
  685TMC3    C810192   3.064   4.375  15.691 -1.2411 -0.5781 -0.3668
  685TMC3    O110193   3.547   4.205  15.664  0.2893  0.5531  0.8758
  685TMC3    O210194   3.085   4.360  15.572  0.0254  0.0118  0.2915
  686MPD2     C10195   4.712   0.212  15.306  0.8662 -0.0228  0.1885
  686MPD2    C110196   0.033   0.103  15.371 -0.4079 -0.1403 -0.4006
  686MPD2    C210197   0.071   4.732  15.294  0.1413 -0.1124 -0.3992
  686MPD2    C310198   0.035   4.726  15.152 -0.4403  0.7406  0.4023
  686MPD2    C410199   4.714   0.104  15.098 -0.0966  0.0352 -0.2928
  686MPD2    C510200   4.687   0.216  15.172  0.4533  0.2527  0.1378
  686MPD2     H10201   0.132   4.653  15.338  0.0955 -0.2494 -0.5806
  686MPD2    H110202   4.687   0.108  14.993  1.2865 -1.3168 -0.7027
  686MPD2    H210203   4.689   0.293  15.375 -1.9881 -2.1272  1.7562
  686MPD2    H310204   4.643   0.303  15.124  2.6389  1.5572  0.4589
  686MPD2     N10205   0.056   4.610  15.071  0.4096  0.2381  0.2560
  686MPD2    H510206   0.035   4.624  14.973 -2.7631  0.4914  0.9791
  686MPD2    N110207   0.019   0.095  15.513 -0.3212  0.2842  0.4518
  686MPD2    H710208   4.703   0.168  15.561 -1.0391  0.3770 -0.4500
  687TMC3    C110209   0.081   4.443  15.240  0.3591 -0.2742  0.8094
  687TMC3    C210210   4.691   4.454  15.299 -0.8936 -0.2880 -0.0705
  687TMC3    C310211   4.663   4.395  15.417  0.2190 -0.2484 -0.5324
  687TMC3    C410212   0.181   4.379  15.310 -0.8259 -0.4846  0.1192
  687TMC3    C510213   0.155   4.335  15.434 -0.6996 -0.6096 -0.2051
  687TMC3    C610214   0.035   4.344  15.494  0.2467 -0.2030  0.6874
  687TMC3     C10215   0.096   4.484  15.107 -0.3577  0.5031 -0.8025
  687TMC3     O10216   0.129   4.397  15.027 -0.4737 -0.4157  0.3259
  687TMC3     H10217   4.608   4.506  15.252  0.0062 -0.8507 -2.2635
  687TMC3    H110218   0.273   4.348  15.262 -0.4636  1.8597 -0.7299
  687TMC3    H210219   0.016   4.299  15.591  0.0526 -0.7211  0.4044
  687TMC3    C710220   0.261   4.282  15.518 -0.4552 -0.9552  0.5767
  687TMC3    C810221   4.547   4.423  15.493 -0.3037  0.2951  0.1860
  687TMC3    O110222   0.324   4.181  15.489 -0.3545 -0.8405 -0.1598
  687TMC3    O210223   4.504   4.339  15.572 -0.0249  0.0790  0.2192
  688MPD2     C10224   4.016   3.804  17.254  0.0515 -0.0657 -0.0805
  688MPD2    C110225   4.041   3.682  17.312  0.4561 -0.9494 -0.7015
  688MPD2    C210226   4.151   3.602  17.269  0.0853  1.0514  0.3791
  688MPD2    C310227   4.239   3.641  17.168 -0.3894  0.9106 -0.4399
  688MPD2    C410228   4.219   3.772  17.124  0.2583  0.3076  0.5955
  688MPD2    C510229   4.116   3.845  17.167  0.5100  0.0052 -0.0369
  688MPD2     H10230   4.166   3.504  17.313  0.7905  1.0933  0.2325
  688MPD2    H110231   4.277   3.811  17.040  0.3203  1.9956  1.4351
  688MPD2    H210232   3.928   3.862  17.280  0.0596 -0.9747  2.0452
  688MPD2    H310233   4.116   3.945  17.126  2.3482 -0.6049 -1.4923
  688MPD2     N10234   4.345   3.566  17.122 -0.3709  0.6408  0.7989
  688MPD2    H510235   4.402   3.616  17.054  0.7593 -1.3749  0.2578
  688MPD2    N110236   3.962   3.621  17.424 -0.5293  0.1765 -0.1496
  688MPD2    H710237   3.994   3.527  17.447 -1.4757 -0.1511 -0.1900
  689TMC3    C110238   3.802   3.617  17.605  0.0789  0.1144  0.2864
  689TMC3    C210239   3.701   3.683  17.671 -0.2181 -0.5328 -0.3092
  689TMC3    C310240   3.645   3.624   0.038 -0.0292 -0.4291 -0.5482
  689TMC3    C410241   3.832   3.490  17.638 -0.2203 -0.3845 -0.5675
  689TMC3    C510242   3.764   3.428   0.004 -0.3070  0.8173 -0.1919
  689TMC3    C610243   3.678   3.498   0.075  0.6197 -0.3533  0.4462
  689TMC3     C10244   3.870   3.688  17.496  0.3018  0.0507 -0.8035
  689TMC3     O10245   3.828   3.801  17.475 -0.2582  0.0628 -0.2185
  689TMC3     H10246   3.679   3.786  17.643  0.3537 -0.1610  0.6145
  689TMC3    H110247   3.907   3.432  17.586  4.0197  2.6010  2.1745
  689TMC3    H210248   3.628   3.456   0.161  2.2682 -2.9483  0.1620
  689TMC3    C710249   3.764   3.285   0.005  0.4267  0.1102 -0.1478
  689TMC3    C810250   3.568   3.708   0.121 -0.5520 -0.2095  0.4930
  689TMC3    O110251   3.722   3.241   0.111  0.6911 -0.2895 -0.3378
  689TMC3    O210252   3.612   3.819   0.150 -0.2602 -0.0479 -0.6213
  690MPD2     C10253   1.113   0.702  15.282  0.3122 -0.2352  0.0033
  690MPD2    C110254   1.209   0.622  15.339 -0.0490 -0.2790  0.4316
  690MPD2    C210255   1.341   0.630  15.296 -0.0126  0.4455  0.6181
  690MPD2    C310256   1.372   0.729  15.202 -0.4847  0.4979  0.5616
  690MPD2    C410257   1.279   0.807  15.140 -0.7149 -0.4280 -0.9779
  690MPD2    C510258   1.151   0.793  15.181 -0.1237  0.0222  0.3284
  690MPD2     H10259   1.413   0.560  15.338  2.4244  2.8623  0.4528
  690MPD2    H110260   1.310   0.897  15.088  0.3078 -0.0307  0.3197
  690MPD2    H210261   1.011   0.697  15.319 -0.2881 -1.3415 -1.8131
  690MPD2    H310262   1.083   0.858  15.128  1.0299  0.3875 -0.7015
  690MPD2     N10263   1.507   0.756  15.176  0.5294 -0.1855  0.2975
  690MPD2    H510264   1.529   0.804  15.089 -0.1237 -1.2042 -0.4363
  690MPD2    N110265   1.194   0.532  15.447  0.3778 -0.3421  0.2578
  690MPD2    H710266   1.275   0.478  15.477 -0.7704 -0.7410  2.5957
  691TMC3    C110267   1.099   0.435  15.624  0.5689  0.2814 -0.2476
  691TMC3    C210268   1.056   0.481  15.751 -0.0897  0.1225  0.1909
  691TMC3    C310269   1.081   0.402  15.861  0.3081  0.1059 -0.2319
  691TMC3    C410270   1.135   0.306  15.601  0.1071 -0.1865  0.1268
  691TMC3    C510271   1.130   0.219  15.710 -0.0634  0.3445  0.3570
  691TMC3    C610272   1.117   0.273  15.838 -0.1416 -0.4632  0.1092
  691TMC3     C10273   1.073   0.513  15.509  0.0049 -0.1750  0.3853
  691TMC3     O10274   0.974   0.578  15.495  0.1343 -0.8636 -0.0590
  691TMC3     H10275   1.027   0.585  15.753 -0.0100  0.2039 -2.0510
  691TMC3    H110276   1.167   0.274  15.502  0.8886 -3.5587  1.4688
  691TMC3    H210277   1.135   0.217  15.928  0.6709 -1.2824 -0.5640
  691TMC3    C710278   1.196   0.097  15.693  0.0979 -0.2892 -0.2876
  691TMC3    C810279   1.026   0.435  15.991 -0.4609 -0.3301  0.0461
  691TMC3    O110280   1.289   0.081  15.770 -0.0257 -0.6851 -0.2464
  691TMC3    O210281   1.074   0.382  16.090 -0.2767  0.0161 -0.3708
  692TMC3    C110282   2.932   1.552  15.616  0.2197 -0.5255 -0.1938
  692TMC3    C210283   3.045   1.628  15.644 -0.3136  0.8679  0.3075
  692TMC3    C310284   3.172   1.570  15.660  0.2107  1.2509  0.3676
  692TMC3    C410285   2.945   1.418  15.584  0.1453 -1.0245 -0.3790
  692TMC3    C510286   3.067   1.363  15.599 -0.6440  0.3691 -0.1328
  692TMC3    C610287   3.184   1.434  15.633 -0.3217  0.9867 -0.4513
  692TMC3     C10288   2.806   1.606  15.660  0.6252 -0.2089  0.0162
  692TMC3     O10289   2.747   1.533  15.746  0.0982  0.1187 -0.3021
  692TMC3     H10290   3.025   1.724  15.691  1.0958  1.3268 -0.0239
  692TMC3    H110291   2.864   1.357  15.546  0.8199 -1.2251 -1.5140
  692TMC3    H210292   3.273   1.379  15.658 -1.2612 -1.1055 -1.6399
  692TMC3    C710293   3.090   1.231  15.539 -0.5324 -1.2184  0.4776
  692TMC3    C810294   3.233   1.600  15.786 -0.3774  0.8212 -0.3784
  692TMC3    O110295   3.031   1.201  15.434 -0.1570 -0.4976  0.7588
  692TMC3    O210296   3.239   1.502  15.858 -0.0510 -0.2791  0.1308
  693MPD2     C10297   1.961   4.432  10.583  0.4181  0.7874  0.1061
  693MPD2    C110298   1.950   4.298  10.566 -0.0179 -0.2335 -0.7568
  693MPD2    C210299   2.055   4.223  10.594 -0.1974 -0.5427  0.1313
  693MPD2    C310300   2.180   4.270  10.635  0.5284 -0.8545  0.2763
  693MPD2    C410301   2.198   4.407  10.630 -0.1248 -0.0572 -0.2435
  693MPD2    C510302   2.089   4.483  10.618  0.9757  0.3408 -0.3449
  693MPD2     H10303   2.040   4.116  10.581 -0.0330 -0.4704 -0.6821
  693MPD2    H110304   2.291   4.451  10.662 -0.1630  0.3774 -0.7447
  693MPD2    H210305   1.874   4.494  10.564 -1.2248 -1.5347  0.0977
  693MPD2    H310306   2.101   4.590  10.622  1.9302  0.1514  2.1292
  693MPD2     N10307   2.284   4.198  10.691 -0.7864 -0.3106 -0.0378
  693MPD2    H510308   2.362   4.257  10.719 -2.0574  1.9575 -1.1999
  693MPD2    N110309   1.828   4.252  10.525 -0.1638 -0.0300 -0.0687
  693MPD2    H710310   1.752   4.320  10.524 -0.7266 -0.6922 -1.2753
  694TMC3    C110311   1.652   4.110  10.495 -1.0019 -0.5014 -0.6625
  694TMC3    C210312   1.586   4.028  10.404  0.3774 -0.4242  0.0193
  694TMC3    C310313   1.478   3.956  10.449  0.2495  0.0366  0.3091
  694TMC3    C410314   1.620   4.113  10.624 -0.4661 -0.1907 -0.2464
  694TMC3    C510315   1.516   4.037  10.667  0.6109  1.0625  0.0073
  694TMC3    C610316   1.448   3.952  10.583  0.1063  0.2360  0.0910
  694TMC3     C10317   1.796   4.120  10.484 -0.0645 -0.4188  0.3795
  694TMC3     O10318   1.856   4.016  10.481 -0.0144  0.4940 -0.9085
  694TMC3     H10319   1.631   4.010  10.307  1.6071 -1.4328  0.7712
  694TMC3    H110320   1.682   4.164  10.697 -2.5040  1.6051  0.2255
  694TMC3    H210321   1.371   3.881  10.609 -0.6548  2.4436  3.8269
  694TMC3    C710322   1.512   4.001  10.806  0.4443 -0.3226 -0.4240
  694TMC3    C810323   1.368   3.918  10.359 -0.1661  0.4326  0.0918
  694TMC3    O110324   1.567   4.080  10.881  0.5518  0.5412 -0.5056
  694TMC3    O210325   1.270   3.858  10.395 -0.8843 -0.5172 -0.7538
  695MPD2     C10326   3.717   1.531  13.504 -0.2125 -0.1968  0.3046
  695MPD2    C110327   3.686   1.453  13.619  0.0680  0.0871  0.4361
  695MPD2    C210328   3.554   1.407  13.633  0.3414  0.2472  0.0338
  695MPD2    C310329   3.449   1.454  13.550  0.0109  0.3142  0.7435
  695MPD2    C410330   3.481   1.545  13.447  0.3971 -0.3215 -0.0050
  695MPD2    C510331   3.617   1.576  13.424 -0.1265  0.1872  0.1515
  695MPD2     H10332   3.532   1.332  13.707 -3.3099  1.8898  0.5900
  695MPD2    H110333   3.407   1.597  13.387  0.3353 -1.0768 -0.5673
  695MPD2    H210334   3.819   1.557  13.479 -1.0497  0.4992 -2.4092
  695MPD2    H310335   3.636   1.636  13.336 -0.9477 -1.7366 -1.3244
  695MPD2     N10336   3.315   1.408  13.572  0.0950  1.0706 -0.4427
  695MPD2    H510337   3.303   1.340  13.647 -1.8321  0.3084 -1.4395
  695MPD2    N110338   3.771   1.418  13.721  0.1931 -0.1304 -0.2520
  695MPD2    H710339   3.726   1.397  13.810 -2.5473 -0.0150 -1.5926
  696TMC3    C110340   3.079   1.354  13.528 -0.1209  0.1181  0.4511
  696TMC3    C210341   3.103   1.225  13.565  0.7225  0.0577 -0.1115
  696TMC3    C310342   2.991   1.151  13.581  0.0447 -0.3229 -0.0895
  696TMC3    C410343   2.960   1.414  13.498  0.0904 -0.4740  0.0204
  696TMC3    C510344   2.851   1.331  13.518  0.1940 -0.2776 -0.4030
  696TMC3    C610345   2.863   1.197  13.548 -0.3911  0.1583 -1.0264
  696TMC3     C10346   3.202   1.440  13.502 -0.2355 -0.1654  0.2050
  696TMC3     O10347   3.183   1.540  13.431 -0.9972  0.2136 -0.3112
  696TMC3     H10348   3.201   1.180  13.580  0.8878  0.3918 -0.1789
  696TMC3    H110349   2.960   1.521  13.483  1.5437 -0.4938 -0.0842
  696TMC3    H210350   2.782   1.126  13.536  0.9822 -1.1382 -2.5666
  696TMC3    C710351   2.734   1.383  13.571 -0.5623 -0.3126 -0.3984
  696TMC3    C810352   2.990   1.080  13.710  0.0431  0.1024 -0.0667
  696TMC3    O110353   2.654   1.305  13.623  0.2458 -0.2741 -0.5898
  696TMC3    O210354   3.086   1.068  13.782 -0.0378 -0.7877 -0.3848
  697MPD2     C10355   2.375   3.322  15.552  0.5803 -0.1470 -0.5009
  697MPD2    C110356   2.443   3.251  15.460  0.2907  0.9279  0.8842
  697MPD2    C210357   2.502   3.316  15.361 -0.3552  0.0219 -0.0867
  697MPD2    C310358   2.506   3.452  15.356  0.5332  0.0182  0.5467
  697MPD2    C410359   2.434   3.523  15.448  0.5120 -0.3635  0.1754
  697MPD2    C510360   2.365   3.456  15.548  0.4906  0.0323  0.3931
  697MPD2     H10361   2.535   3.256  15.277  0.4183  0.5795 -0.1860
  697MPD2    H110362   2.448   3.631  15.449 -3.8154  0.1959 -0.0184
  697MPD2    H210363   2.337   3.257  15.631  1.7318 -0.5024 -0.2427
  697MPD2    H310364   2.307   3.514  15.618 -1.2763  0.5884 -1.5477
  697MPD2     N10365   2.560   3.506  15.237  0.6701 -0.3297 -0.0854
  697MPD2    H510366   2.609   3.443  15.174  1.1016  0.4473 -0.5288
  697MPD2    N110367   2.460   3.108  15.445  0.2951 -0.0802  0.0924
  697MPD2    H710368   2.494   3.073  15.357 -0.1526  0.6437 -0.3731
  698TMC3    C110369   2.621   3.659  15.068  0.7016  0.5931 -0.3849
  698TMC3    C210370   2.693   3.773  15.064 -0.6356 -0.4924  0.0584
  698TMC3    C310371   2.800   3.778  14.979 -0.0022 -0.8340 -0.2820
  698TMC3    C410372   2.647   3.551  14.982 -0.6364  0.0634 -0.4744
  698TMC3    C510373   2.740   3.569  14.887 -0.0088 -0.7107 -0.2247
  698TMC3    C610374   2.829   3.681  14.885  0.8500 -0.4944 -0.2806
  698TMC3     C10375   2.558   3.637  15.195 -0.5881  0.1148  0.3008
  698TMC3     O10376   2.506   3.733  15.254  0.3416 -0.2876 -0.1030
  698TMC3     H10377   2.654   3.858  15.118 -2.1360 -0.4836 -1.0338
  698TMC3    H110378   2.589   3.459  14.981  1.6590 -1.3909  0.3061
  698TMC3    H210379   2.906   3.705  14.812  0.5332  1.4188  0.0253
  698TMC3    C710380   2.714   3.514  14.756 -0.4559  0.1446  0.4064
  698TMC3    C810381   2.830   3.919  14.935 -0.1509  0.7295  0.4411
  698TMC3    O110382   2.599   3.528  14.708  0.0561 -0.2719  0.2976
  698TMC3    O210383   2.738   3.999  14.931 -0.6058 -0.4261 -0.0478
  699TMC3    C110384   3.367   1.360  12.963 -0.1838  0.0623  0.1506
  699TMC3    C210385   3.448   1.274  13.030  0.3925 -0.3864  0.4880
  699TMC3    C310386   3.411   1.259  13.165 -0.6639  0.1382  0.4754
  699TMC3    C410387   3.258   1.425  13.018  0.1822 -0.1365  0.3196
  699TMC3    C510388   3.221   1.391  13.144  0.3559  0.4761  0.1394
  699TMC3    C610389   3.296   1.311  13.221 -0.4738 -0.0684 -0.5581
  699TMC3     C10390   3.381   1.371  12.819 -0.4187 -0.0233  0.2712
  699TMC3     O10391   3.275   1.382  12.756  0.1125 -0.5087 -0.4411
  699TMC3     H10392   3.527   1.217  12.983  1.5029  0.3899  1.4327
  699TMC3    H110393   3.196   1.494  12.962  0.4978  0.2324  0.4268
  699TMC3    H210394   3.261   1.269  13.315  0.6262  0.3618  0.0398
  699TMC3    C710395   3.082   1.371  13.157  0.0207 -0.2546  0.5172
  699TMC3    C810396   3.422   1.130  13.224  0.5421 -0.8379  0.3429
  699TMC3    O110397   2.999   1.446  13.113 -0.3475  0.2263 -0.2460
  699TMC3    O210398   3.311   1.081  13.222  0.4090  0.6366  0.2288
  700TMC3    C110399   1.713   4.037  17.525 -0.5139  0.3973  0.1958
  700TMC3    C210400   1.723   3.896  17.509 -0.4400 -0.0845  1.1521
  700TMC3    C310401   1.801   3.835  17.607  0.7447  0.0627 -0.6384
  700TMC3    C410402   1.771   4.108  17.625  0.3929 -0.5973 -0.1305
  700TMC3    C510403   1.856   4.048  17.709  0.4609  0.4651  0.4420
  700TMC3    C610404   1.870   3.907  17.698  0.1486  0.0261 -0.1831
  700TMC3     C10405   1.638   4.111  17.424 -0.1576  0.4519  0.1369
  700TMC3     O10406   1.555   4.048  17.357  0.0681  0.3385 -0.2662
  700TMC3     H10407   1.675   3.844  17.427  0.3263 -0.0523  0.6848
  700TMC3    H110408   1.732   4.209  17.638  1.6187  0.1512 -2.2583
  700TMC3    H210409   1.942   3.866   0.030 -0.5378  0.0156  0.5185
  700TMC3    C710410   1.909   4.118   0.086  0.2996  0.9265 -0.3094
  700TMC3    C810411   1.855   3.705  17.573 -0.2761  0.2359 -0.2822
  700TMC3    O110412   1.955   4.052   0.179 -0.4010  0.2092 -0.0078
  700TMC3    O210413   1.965   3.683  17.623 -0.1959 -1.0369 -0.4069
  701TMC3    C110414   1.800   2.415  15.599  0.1749 -0.1160 -0.9301
  701TMC3    C210415   1.792   2.336  15.481  0.3747  0.7209 -0.5597
  701TMC3    C310416   1.874   2.371  15.377 -0.7073  0.3033  0.4633
  701TMC3    C410417   1.888   2.520  15.609  0.4029 -0.1919  0.3714
  701TMC3    C510418   1.949   2.558  15.494  0.2054 -0.4941  0.5650
  701TMC3    C610419   1.948   2.488  15.379 -0.6059  1.1631  0.3279
  701TMC3     C10420   1.714   2.383  15.707  0.5659  0.9473  0.5035
  701TMC3     O10421   1.699   2.474  15.784 -0.1353 -0.5488 -0.5320
  701TMC3     H10422   1.719   2.256  15.474  0.1693  0.5313  3.6841
  701TMC3    H110423   1.901   2.568  15.705  2.5551 -0.2241  0.0999
  701TMC3    H210424   2.012   2.520  15.298 -3.2026  0.7720 -1.8938
  701TMC3    C710425   1.989   2.700  15.472 -1.2043 -0.0396 -0.4731
  701TMC3    C810426   1.918   2.275  15.270  0.8736  0.1587 -0.7607
  701TMC3    O110427   2.001   2.746  15.360 -0.1909  0.8273 -0.1532
  701TMC3    O210428   2.018   2.303  15.204 -0.0931 -0.1197 -0.1074
  702MPD2     C10429   1.118   4.661  10.375 -0.1205 -0.1319 -0.4076
  702MPD2    C110430   1.076   0.044  10.426  0.0930  0.2582  0.2457
  702MPD2    C210431   1.093   0.159  10.351  0.0712 -0.4864 -0.0118
  702MPD2    C310432   1.161   0.157  10.234 -0.1875 -0.9199  0.3143
  702MPD2    C410433   1.204   0.039  10.180  0.3870  0.0158 -0.0379
  702MPD2    C510434   1.190   4.658  10.254  0.2298 -0.8450 -0.5273
  702MPD2     H10435   1.049   0.252  10.385  0.4085 -0.0121 -0.8795
  702MPD2    H110436   1.239   0.042  10.077 -2.0688 -1.5018 -0.9155
  702MPD2    H210437   1.099   4.563  10.418  4.4280 -0.7355  0.1810
  702MPD2    H310438   1.222   4.563  10.211  0.6042 -0.2197 -1.6418
  702MPD2     N10439   1.162   0.275  10.161 -1.0159  0.1293  0.8530
  702MPD2    H510440   1.171   0.354  10.224 -0.1656  1.2043 -0.6101
  702MPD2    N110441   1.001   0.047  10.545 -0.0821 -0.2179  0.2283
  702MPD2    H710442   0.962   4.697  10.585  1.5950 -1.4829 -0.8225
  703TMC3    C110443   0.994   0.404  10.113 -0.4643  0.3407 -0.0574
  703TMC3    C210444   0.870   0.367  10.163  0.1724 -0.1253  0.5064
  703TMC3    C310445   0.824   0.417  10.284  0.0364 -0.3632  0.0436
  703TMC3    C410446   1.077   0.490  10.179  0.0875 -0.1534  0.3180
  703TMC3    C510447   1.040   0.526  10.308  0.3804 -0.1685  0.1434
  703TMC3    C610448   0.915   0.490  10.361 -0.5724  0.3719 -0.2326
  703TMC3     C10449   1.063   0.284  10.065 -0.7746  0.2837 -0.2971
  703TMC3     O10450   0.997   0.186  10.027 -0.4829  0.5387  0.1271
  703TMC3     H10451   0.795   0.313  10.106  0.6423  0.5052 -0.7224
  703TMC3    H110452   1.175   0.516  10.140  0.4768 -0.4125  1.1201
  703TMC3    H210453   0.896   0.496  10.467  1.9011 -0.2147  0.2379
  703TMC3    C710454   1.149   0.549  10.400 -0.2564  0.5819  0.2041
  703TMC3    C810455   0.732   0.329  10.356  0.1114  0.1887  0.1961
  703TMC3    O110456   1.262   0.507  10.361  0.7683 -0.3293 -0.0141
  703TMC3    O210457   0.700   0.229  10.298 -0.2847 -0.3070  0.0012
  704TMC3    C110458   3.535   3.149  11.928  0.8411 -0.0475 -0.2504
  704TMC3    C210459   3.576   3.141  11.799 -0.2584  0.0855 -0.2441
  704TMC3    C310460   3.673   3.051  11.765  0.9903  0.4722  0.3376
  704TMC3    C410461   3.603   3.100  12.033 -0.1033 -0.1742  0.8919
  704TMC3    C510462   3.715   3.024  11.995 -0.0803 -0.4444 -0.4553
  704TMC3    C610463   3.747   2.994  11.865  0.0772  0.4725  0.3280
  704TMC3     C10464   3.424   3.234  11.960  0.1332 -0.3187 -0.0229
  704TMC3     O10465   3.377   3.223  12.076  0.2837  0.3410  0.1666
  704TMC3     H10466   3.526   3.179  11.710 -0.5249 -1.5109 -0.7807
  704TMC3    H110467   3.576   3.116  12.137 -2.4290  1.4222  0.0201
  704TMC3    H210468   3.825   2.926  11.834 -0.4810  0.4213 -0.9838
  704TMC3    C710469   3.786   2.944  12.089 -0.7286  0.2985 -0.1231
  704TMC3    C810470   3.718   3.037  11.624  0.7019 -0.2216 -0.2788
  704TMC3    O110471   3.870   2.865  12.048 -0.4552 -0.3134  0.7188
  704TMC3    O210472   3.672   3.113  11.540  0.4173  0.7661 -0.0638
  705MPD2     C10473   3.236   0.869  16.311 -0.3672 -0.7842 -0.1267
  705MPD2    C110474   3.213   0.989  16.244  1.1417  0.1118  0.2506
  705MPD2    C210475   3.092   1.055  16.274  0.0613  0.5477  0.6670
  705MPD2    C310476   3.004   1.003  16.369  0.6043  0.0712  0.3466
  705MPD2    C410477   3.040   0.897  16.451  0.2508 -0.1271 -0.2638
  705MPD2    C510478   3.150   0.830  16.412 -0.4450  0.1401 -0.3749
  705MPD2     H10479   3.076   1.149  16.223  0.0138  1.0357  1.5912
  705MPD2    H110480   2.976   0.859  16.530 -1.1500  0.6685 -1.0217
  705MPD2    H210481   3.319   0.801  16.298 -1.0759 -1.3417 -1.6683
  705MPD2    H310482   3.180   0.743  16.469 -2.4516 -0.4825 -0.2592
  705MPD2     N10483   2.886   1.066  16.388  0.1512  0.2804  0.1587
  705MPD2    H510484   2.857   1.131  16.315  0.2769  0.5686  0.3657
  705MPD2    N110485   3.320   1.049  16.179  0.4327 -0.0262 -0.4966
  705MPD2    H710486   3.389   0.981  16.149  0.8087  0.4641 -0.7474
  706TMC3    C110487   3.656   1.176  15.971 -0.5447  0.6937  0.5786
  706TMC3    C210488   3.666   1.311  15.946  0.0229 -0.1787  1.2051
  706TMC3    C310489   3.581   1.400  16.001 -0.9296 -0.2105  0.0084
  706TMC3    C410490   3.542   1.133  16.035  0.2692  0.9496 -0.1260
  706TMC3    C510491   3.461   1.222  16.095  0.0340 -0.4786 -0.2580
  706TMC3    C610492   3.479   1.356  16.079 -0.5850 -0.0441 -0.2640
  706TMC3     C10493   3.739   1.081  15.901 -0.1358 -0.1661  0.0543
  706TMC3     O10494   3.762   0.981  15.964 -0.1910 -0.1195  0.2701
  706TMC3     H10495   3.754   1.347  15.895 -0.4192 -2.4767 -1.1909
  706TMC3    H110496   3.517   1.028  16.048  0.5444  0.4986 -3.3756
  706TMC3    H210497   3.410   1.424  16.128  0.7945  1.8666 -0.9971
  706TMC3    C710498   3.330   1.179  16.144  0.1259  0.0361  0.0406
  706TMC3    C810499   3.608   1.542  15.995  0.6090  0.3993  0.7871
  706TMC3    O110500   3.244   1.265  16.156  0.3413 -0.2516 -0.0620
  706TMC3    O210501   3.674   1.578  15.900 -0.6064  0.2355  0.2426
  707TMC3    C110502   0.462   4.720   1.073 -0.1752 -0.0196  0.4006
  707TMC3    C210503   0.475   4.596   1.133  0.5416 -0.3151  0.6727
  707TMC3    C310504   0.361   4.537   1.187 -0.1872 -0.1418  0.2155
  707TMC3    C410505   0.337   0.031   1.041 -0.1964  0.4239 -0.8756
  707TMC3    C510506   0.232   4.707   1.106 -0.5238 -0.5886 -0.5337
  707TMC3    C610507   0.236   4.595   1.181 -0.6923  0.7957 -0.7723
  707TMC3     C10508   0.590   0.027   1.020  0.1453 -0.7642  0.0619
  707TMC3     O10509   0.695   4.719   1.072  0.4048 -0.4618  0.2826
  707TMC3     H10510   0.572   4.549   1.145 -0.5079 -1.8815  2.8971
  707TMC3    H110511   0.328   0.124   0.986 -2.1405 -0.1993 -1.6171
  707TMC3    H210512   0.149   4.550   1.228  1.0305  1.2141  2.7418
  707TMC3    C710513   0.096   0.036   1.090  0.3897  0.2576  0.1472
  707TMC3    C810514   0.375   4.423   1.280  0.1963 -1.1724  0.7042
  707TMC3    O110515   0.014   4.719   1.164 -0.3214 -0.1800  0.0217
  707TMC3    O210516   0.276   4.395   1.350  0.2485  0.3281  0.3309
  708MPD2     C10517   1.852   4.366  13.718  0.1275 -0.2616  0.4592
  708MPD2    C110518   1.735   4.328  13.780  0.3598  0.4573  0.5506
  708MPD2    C210519   1.733   4.311  13.918  0.3472  0.6075 -0.1175
  708MPD2    C310520   1.850   4.323  13.992 -0.8286 -1.0689  0.0649
  708MPD2    C410521   1.966   4.367  13.925  0.0591  0.8050  0.0795
  708MPD2    C510522   1.965   4.394  13.788  0.3376 -0.3900  0.1783
  708MPD2     H10523   1.636   4.280  13.957  2.0297 -0.9979  2.8105
  708MPD2    H110524   2.064   4.387  13.966 -1.0774 -1.0193  3.6510
  708MPD2    H210525   1.844   4.402  13.616 -0.6290  0.6499  0.8389
  708MPD2    H310526   2.047   4.439  13.734 -0.2333 -2.7654 -2.6492
  708MPD2     N10527   1.862   4.288  14.127  0.2321 -0.5652 -0.1993
  708MPD2    H510528   1.959   4.281  14.156  0.6551  0.7602 -1.3433
  708MPD2    N110529   1.608   4.313  13.718  0.5508 -0.6853  0.5445
  708MPD2    H710530   1.540   4.283  13.788 -1.6573  1.2919 -0.7581
  709TMC3    C110531   1.439   4.298  13.575  0.0127 -0.7105 -0.5115
  709TMC3    C210532   1.401   4.207  13.485 -0.4589 -0.7150  0.3924
  709TMC3    C310533   1.283   4.139  13.509 -0.7062  0.0221  0.5341
  709TMC3    C410534   1.362   4.326  13.682  0.3327  0.4146 -0.8703
  709TMC3    C510535   1.257   4.244  13.717 -0.6485  0.1039 -0.5360
  709TMC3    C610536   1.213   4.153  13.631  0.1240 -0.2430 -0.7030
  709TMC3     C10537   1.577   4.306  13.589  0.4603  0.2093  0.5465
  709TMC3     O10538   1.651   4.311  13.489  0.5866  0.7459 -0.1045
  709TMC3     H10539   1.466   4.181  13.402 -0.7670 -1.5081  0.3975
  709TMC3    H110540   1.396   4.413  13.738 -0.5889  0.0515  0.2667
  709TMC3    H210541   1.131   4.090  13.662 -0.0653  0.8008  0.8878
  709TMC3    C710542   1.304   4.198  13.848  1.2772 -0.5450 -0.3273
  709TMC3    C810543   1.231   4.044  13.410 -0.0783  0.6936  0.2000
  709TMC3    O110544   1.422   4.201  13.876  0.5989  0.2875  0.0230
  709TMC3    O210545   1.127   3.979  13.440 -0.4058 -0.3373 -0.3497
  710TMC3    C110546   2.560   0.501   0.501  0.5399  0.3044  0.3241
  710TMC3    C210547   2.645   0.469   0.398 -0.1481  0.4964  0.2628
  710TMC3    C310548   2.773   0.429   0.435 -0.1639  0.3529  0.4507
  710TMC3    C410549   2.594   0.495   0.637  0.7352 -0.2879 -0.5146
  710TMC3    C510550   2.726   0.461   0.661 -0.7153  0.1781 -0.7531
  710TMC3    C610551   2.817   0.427   0.567  0.2908  0.6886  0.8356
  710TMC3     C10552   2.445   0.585   0.477 -0.2296 -0.0226 -0.2795
  710TMC3     O10553   2.385   0.566   0.371  0.4956  0.3705 -0.1696
  710TMC3     H10554   2.613   0.492   0.297  1.5022 -0.1778 -0.4247
  710TMC3    H110555   2.520   0.534   0.707  0.2376  1.5546 -2.0692
  710TMC3    H210556   2.924   0.424   0.582  0.4850 -0.8497 -0.7816
  710TMC3    C710557   2.773   0.505   0.792  0.4447  0.5708  0.0993
  710TMC3    C810558   2.880   0.455   0.338  0.5483 -0.0724 -0.4642
  710TMC3    O110559   2.689   0.560   0.866  0.6980  0.5494 -0.5035
  710TMC3    O210560   2.862   0.533   0.249 -0.0512 -0.6797  0.2507
  711TMC3    C110561   2.401   2.033  15.014 -0.0630  0.5887 -0.4541
  711TMC3    C210562   2.424   2.140  15.095 -0.3401  0.1965 -0.3645
  711TMC3    C310563   2.515   2.128  15.199 -0.3586  0.1275  0.2114
  711TMC3    C410564   2.452   1.909  15.040 -0.2684  0.6425  0.5527
  711TMC3    C510565   2.537   1.900  15.143 -0.3890  0.7920 -0.9973
  711TMC3    C610566   2.577   2.006  15.227 -0.1313 -0.5037 -0.3679
  711TMC3     C10567   2.315   2.060  14.900 -0.1878 -0.4050  0.4362
  711TMC3     O10568   2.263   2.174  14.907 -0.1867 -0.2804 -0.4989
  711TMC3     H10569   2.385   2.240  15.077 -0.3867 -0.0108 -1.4154
  711TMC3    H110570   2.414   1.819  14.993  1.0163  0.3852 -0.0129
  711TMC3    H210571   2.654   1.998  15.303  0.4243  0.2175 -0.8443
  711TMC3    C710572   2.596   1.778  15.177 -0.1385  0.1229  0.2534
  711TMC3    C810573   2.559   2.244  15.268  0.4916  0.8822 -0.2762
  711TMC3    O110574   2.664   1.772  15.276  0.1000  0.1253 -0.0376
  711TMC3    O210575   2.494   2.346  15.247 -0.2787 -1.0530 -0.0823
  712MPD2     C10576   3.750   2.890  13.869 -0.0901  0.2613  0.1222
  712MPD2    C110577   3.716   2.917  13.742 -0.3482 -0.4008 -0.3268
  712MPD2    C210578   3.777   3.027  13.686  0.5685  0.3924  0.9389
  712MPD2    C310579   3.877   3.103  13.742 -0.0916  0.6959 -0.8971
  712MPD2    C410580   3.930   3.054  13.859 -0.3904  0.6967 -0.2519
  712MPD2    C510581   3.860   2.953  13.923  0.6426 -0.6646  0.6603
  712MPD2     H10582   3.758   3.051  13.582 -5.0055 -2.8677  1.1704
  712MPD2    H110583   4.009   3.107  13.912  0.2458  0.1910 -0.6989
  712MPD2    H210584   3.696   2.815  13.927 -1.7809  0.7449 -0.8152
  712MPD2    H310585   3.893   2.924  14.022 -2.4569 -0.3164  1.7726
  712MPD2     N10586   3.925   3.222  13.681 -0.1733  0.1108  0.1687
  712MPD2    H510587   4.004   3.271  13.722 -0.8337  0.7574  0.6650
  712MPD2    N110588   3.618   2.843  13.671 -0.1455 -0.3024 -0.1524
  712MPD2    H710589   3.601   2.876  13.577 -0.2547 -1.5875 -0.5926
  713TMC3    C110590   3.918   3.433  13.569 -1.2574  0.1351 -0.0781
  713TMC3    C210591   4.051   3.458  13.600 -0.6269  0.5688  0.3897
  713TMC3    C310592   4.093   3.591  13.579  0.0731 -0.3216 -0.3470
  713TMC3    C410593   3.838   3.527  13.511  0.3234 -0.7418 -0.5590
  713TMC3    C510594   3.885   3.653  13.494 -0.1687  0.4596  0.2122
  713TMC3    C610595   4.004   3.686  13.536 -0.7901  0.3530  0.1357
  713TMC3     C10596   3.859   3.300  13.596  0.8487  0.2933 -0.3727
  713TMC3     O10597   3.752   3.282  13.540 -0.2069 -0.0996  0.1759
  713TMC3     H10598   4.114   3.372  13.622 -0.7322  1.0723  2.7122
  713TMC3    H110599   3.733   3.501  13.495 -0.2731  0.5560  1.2008
  713TMC3    H210600   4.044   3.786  13.525  0.5497 -0.0366  1.4023
  713TMC3    C710601   3.783   3.763  13.488 -0.6950 -0.0313 -0.2023
  713TMC3    C810602   4.228   3.635  13.586  0.1548 -0.4130  0.6621
  713TMC3    O110603   3.679   3.743  13.427 -0.6384 -0.2982 -0.1105
  713TMC3    O210604   4.255   3.740  13.523  0.3569  0.3086  0.1850
  714MPD2     C10605   1.858   1.560   1.948  0.2575  0.1162  0.1381
  714MPD2    C110606   1.803   1.558   1.824 -0.4378  0.0045  0.0378
  714MPD2    C210607   1.670   1.524   1.813 -0.0658 -0.3091  0.4028
  714MPD2    C310608   1.592   1.500   1.925 -0.0072 -0.8143  0.3276
  714MPD2    C410609   1.654   1.484   2.046  0.1585 -0.5066  0.0772
  714MPD2    C510610   1.785   1.519   2.055  0.0291 -0.3183  1.0092
  714MPD2     H10611   1.626   1.523   1.714  0.0514  0.0709  0.3477
  714MPD2    H110612   1.609   1.456   2.140  1.5051 -0.0693  0.8401
  714MPD2    H210613   1.963   1.580   1.965 -0.3014  0.5722  2.9887
  714MPD2    H310614   1.822   1.514   2.157  2.0988 -0.3195  0.2499
  714MPD2     N10615   1.455   1.460   1.911  0.1135  0.6942  0.1064
  714MPD2    H510616   1.426   1.439   1.817  0.3397 -0.8675  0.3989
  714MPD2    N110617   1.888   1.602   1.714  0.0057 -0.1347 -0.3931
  714MPD2    H710618   1.970   1.654   1.742 -0.3271  0.3861 -0.3855
  715TMC3    C110619   1.969   1.610   1.494 -0.6709  0.5637 -0.4929
  715TMC3    C210620   2.001   1.514   1.403  0.2428 -0.2878  0.7455
  715TMC3    C310621   2.121   1.523   1.334  0.0785 -0.4272 -0.5247
  715TMC3    C410622   2.054   1.713   1.526 -0.3016 -0.3171 -0.1265
  715TMC3    C510623   2.169   1.717   1.447 -0.4913  0.2953 -0.3268
  715TMC3    C610624   2.205   1.627   1.351  0.3748  0.2703 -0.8652
  715TMC3     C10625   1.857   1.580   1.583  0.4692  0.0036 -0.2757
  715TMC3     O10626   1.773   1.511   1.526 -0.4019 -0.0264 -0.4239
  715TMC3     H10627   1.934   1.433   1.375 -0.7518  1.1972 -1.0951
  715TMC3    H110628   2.030   1.791   1.597 -0.7538 -1.1534  0.6405
  715TMC3    H210629   2.292   1.642   1.288 -0.1490  2.8223 -0.9840
  715TMC3    C710630   2.269   1.822   1.469 -0.2411 -0.2434 -0.2347
  715TMC3    C810631   2.158   1.419   1.249  0.1723  0.6417 -0.3118
  715TMC3    O110632   2.322   1.866   1.366 -0.5111  0.4387  0.5472
  715TMC3    O210633   2.070   1.354   1.193  0.4222 -0.0887  0.2762
  716MPD2     C10634   1.045   4.636   9.887  0.4804 -0.2013  0.4137
  716MPD2    C110635   0.955   4.651   9.782 -0.9013 -0.0983 -0.3192
  716MPD2    C210636   0.954   4.555   9.685 -0.0495 -0.4450  0.7577
  716MPD2    C310637   1.050   4.451   9.681  0.0388 -0.6888 -0.4658
  716MPD2    C410638   1.137   4.435   9.787  0.2974 -0.2393 -0.2755
  716MPD2    C510639   1.121   4.521   9.890 -0.2287 -0.2842  0.1461
  716MPD2     H10640   0.883   4.567   9.604  1.4382  0.5323 -0.3899
  716MPD2    H110641   1.202   4.348   9.789  0.7650  0.0885 -1.0815
  716MPD2    H210642   1.064   4.712   9.962 -0.4592 -0.5973  1.0610
  716MPD2    H310643   1.172   4.500   9.983  0.8163 -1.7775 -0.7708
  716MPD2     N10644   1.041   4.359   9.572 -0.1559  0.0502  0.8034
  716MPD2    H510645   0.962   4.366   9.507 -0.9494 -0.1967  1.7437
  716MPD2    N110646   0.872   0.027   9.778  0.7533 -0.3777 -0.3454
  716MPD2    H710647   0.899   0.098   9.845 -0.3462 -1.3312  1.1103
  717TMC3    C110648   1.112   4.218   9.403  0.5414 -0.7724  0.2905
  717TMC3    C210649   1.066   4.317   9.325  0.2519  0.2360  0.1022
  717TMC3    C310650   1.025   4.282   9.201  0.1516 -0.4227  0.0156
  717TMC3    C410651   1.104   4.085   9.368  0.0971 -0.0345 -0.1755
  717TMC3    C510652   1.084   4.058   9.237 -0.2011  0.4866 -0.0944
  717TMC3    C610653   1.035   4.155   9.155  0.7297 -0.0301  0.4557
  717TMC3     C10654   1.121   4.251   9.546 -0.0951  0.0344  0.2253
  717TMC3     O10655   1.217   4.196   9.602 -0.7060 -0.5724  0.4859
  717TMC3     H10656   1.070   4.423   9.348 -2.6100  0.5523 -0.9133
  717TMC3    H110657   1.133   4.005   9.436 -2.0911 -0.8972 -0.2738
  717TMC3    H210658   1.029   4.138   9.049  2.2502  0.4155  0.2952
  717TMC3    C710659   1.194   3.980   9.179  0.3003 -0.2721  0.2020
  717TMC3    C810660   0.929   4.364   9.138 -0.6615  0.9116 -0.1584
  717TMC3    O110661   1.250   4.020   9.074 -0.1175 -0.0338  0.4937
  717TMC3    O210662   0.922   4.480   9.186 -0.1798  0.3132  0.0705
  718MPD2     C10663   4.725   3.365  12.731  0.7783  0.1030  0.0974
  718MPD2    C110664   0.010   3.229  12.714 -0.6100  0.1026 -0.3182
  718MPD2    C210665   0.045   3.161  12.825 -0.1833  0.3231 -0.4869
  718MPD2    C310666   0.068   3.217  12.946 -0.6183 -0.8022 -0.2346
  718MPD2    C410667   0.045   3.356  12.964  0.4495  0.0675 -0.6084
  718MPD2    C510668   0.007   3.430  12.852 -0.5866 -0.4297 -0.5194
  718MPD2     H10669   0.055   3.054  12.811 -0.6514  0.2043  0.0941
  718MPD2    H110670   0.054   3.401  13.062  0.4030 -1.8058  0.2541
  718MPD2    H210671   4.696   3.429  12.649  0.8736 -1.3977 -1.1050
  718MPD2    H310672   4.720   3.536  12.861  1.8784  0.0272  0.2211
  718MPD2     N10673   0.127   3.135  13.047 -0.4667 -0.1767 -0.0578
  718MPD2    H510674   0.138   3.036  13.028  0.0756 -0.1756  0.2523
  718MPD2    N110675   4.716   3.167  12.585  0.4506  0.5793  0.1333
  718MPD2    H710676   4.684   3.228  12.512 -0.6957  0.7951  0.8176
  719TMC3    C110677   0.005   2.996  12.415  0.0282 -0.3591  0.7444
  719TMC3    C210678   0.017   2.860  12.402 -0.6443  0.0463 -0.1328
  719TMC3    C310679   0.107   2.805  12.321  0.3501 -1.1433  0.3244
  719TMC3    C410680   0.085   3.079  12.333  0.6992  0.0008  0.2653
  719TMC3    C510681   0.170   3.017  12.247 -0.0493 -0.4991  0.1138
  719TMC3    C610682   0.186   2.877  12.236  0.0573  0.3138  0.2563
  719TMC3     C10683   4.715   3.029  12.555 -0.4562 -0.3552 -0.8903
  719TMC3     O10684   4.729   2.934  12.631 -0.7106 -0.4319 -0.1197
  719TMC3     H10685   4.690   2.790  12.457 -2.8965 -0.7274 -3.7064
  719TMC3    H110686   0.080   3.187  12.342  0.3267 -0.1548  2.1319
  719TMC3    H210687   0.255   2.835  12.164  1.0974 -0.4255  1.6963
  719TMC3    C710688   0.264   3.090  12.173  0.0176 -0.1021  0.0516
  719TMC3    C810689   0.186   2.706  12.395  0.0298 -0.5207  0.1723
  719TMC3    O110690   0.356   3.037  12.113  0.2022 -0.4705 -0.4286
  719TMC3    O210691   0.276   2.656  12.334 -0.4585 -0.0777 -0.2332
  720MPD2     C10692   4.049   0.455  13.900 -0.0411 -0.1108 -0.3827
  720MPD2    C110693   4.174   0.473  13.842 -0.0652 -0.6106 -0.1618
  720MPD2    C210694   4.290   0.434  13.901  0.7684  0.0799  0.0467
  720MPD2    C310695   4.276   0.387  14.028  0.2589 -0.0311  0.1885
  720MPD2    C410696   4.155   0.364  14.087 -1.2092 -0.1864 -0.0667
  720MPD2    C510697   4.043   0.399  14.024 -0.3220  0.1839  1.2530
  720MPD2     H10698   4.387   0.455  13.859  0.7668 -0.6803 -0.3253
  720MPD2    H110699   4.146   0.331  14.190  0.9412  1.8707  0.7925
  720MPD2    H210700   3.955   0.471  13.848 -0.5970 -0.3748  0.5269
  720MPD2    H310701   3.948   0.378  14.072 -0.4387 -1.2402  0.4041
  720MPD2     N10702   4.397   0.363  14.098  0.0899  0.2979  0.1139
  720MPD2    H510703   4.479   0.401  14.051  0.1715  1.4718  1.1987
  720MPD2    N110704   4.188   0.536  13.714 -0.4050  0.6926 -0.1302
  720MPD2    H710705   4.276   0.528  13.664  0.1749 -0.1845  1.0325
  721TMC3    C110706   4.553   0.351  14.262  0.3870  0.1430 -0.1501
  721TMC3    C210707   4.573   0.369  14.395  0.0755  0.3980 -0.5581
  721TMC3    C310708   4.698   0.354  14.440  0.8304 -0.1911  0.2555
  721TMC3    C410709   4.649   0.332  14.171 -0.7208  0.3635 -0.1902
  721TMC3    C510710   0.041   0.324  14.223  0.5262  0.8475  0.2683
  721TMC3    C610711   0.063   0.324  14.358  0.2544  0.2617  0.2518
  721TMC3     C10712   4.413   0.330  14.227 -0.8747 -0.4251 -0.2438
  721TMC3     O10713   4.335   0.301  14.316 -0.0758  0.3542 -0.0998
  721TMC3     H10714   4.487   0.402  14.452  0.9057  1.2384  0.2040
  721TMC3    H110715   4.632   0.308  14.067  1.4307 -0.9787 -0.2431
  721TMC3    H210716   0.165   0.338  14.393 -0.2742 -2.3309  2.7709
  721TMC3    C710717   0.154   0.289  14.141  0.3835 -0.3712 -0.5477
  721TMC3    C810718   0.002   0.419  14.568 -0.2823 -0.5808  0.4263
  721TMC3    O110719   0.162   0.333  14.026  0.2477  0.0603  0.0163
  721TMC3    O210720   0.124   0.428  14.593 -0.4542  0.3293  0.2655
  722MPD2     C10721   2.908   3.765  13.093 -0.2265  0.6512 -0.2735
  722MPD2    C110722   2.855   3.887  13.125  0.3362 -0.8712  0.3591
  722MPD2    C210723   2.749   3.939  13.059  0.2923 -0.6210 -0.3389
  722MPD2    C310724   2.695   3.877  12.951  0.2941 -0.2467 -0.2190
  722MPD2    C410725   2.737   3.745  12.924  0.3140 -0.5483  0.6247
  722MPD2    C510726   2.842   3.698  12.995  0.6954  0.1351  0.5913
  722MPD2     H10727   2.719   4.041  13.075 -1.8732 -1.4631  0.8966
  722MPD2    H110728   2.693   3.687  12.843  0.8417 -0.0699  0.0000
  722MPD2    H210729   2.994   3.725  13.147 -1.9947 -0.9515  1.3736
  722MPD2    H310730   2.879   3.596  12.984  1.2547  0.1748  2.0131
  722MPD2     N10731   2.595   3.953  12.886  0.3635 -0.0225  0.8779
  722MPD2    H510732   2.566   4.038  12.933  1.7667  0.6300  0.5698
  722MPD2    N110733   2.903   3.974  13.230 -0.9502  0.2516 -0.2196
  722MPD2    H710734   2.844   4.057  13.239 -0.1310  0.7591  0.4547
  723TMC3    C110735   2.429   3.999  12.718  0.8151 -0.0498 -0.5674
  723TMC3    C210736   2.320   3.950  12.653 -0.0069 -1.5209  0.3975
  723TMC3    C310737   2.220   4.036  12.629  0.4939  0.0178  0.0256
  723TMC3    C410738   2.430   4.130  12.752 -0.1072 -0.0773 -0.0673
  723TMC3    C510739   2.323   4.211  12.732  1.2093 -0.7084  0.0054
  723TMC3    C610740   2.214   4.167  12.671 -0.0462 -0.6881 -1.0088
  723TMC3     C10741   2.530   3.907  12.772  0.3050 -0.6333 -0.0337
  723TMC3     O10742   2.558   3.808  12.702 -0.1137  0.1750  0.3531
  723TMC3     H10743   2.314   3.853  12.604  0.9987 -1.3673 -0.0346
  723TMC3    H110744   2.517   4.172  12.801 -0.3773 -0.4801  0.7660
  723TMC3    H210745   2.123   4.225  12.658  0.5101 -0.0718 -2.1100
  723TMC3    C710746   2.330   4.340  12.793 -0.6021 -0.5372  0.1516
  723TMC3    C810747   2.084   3.978  12.593  0.3673 -0.4418 -0.9792
  723TMC3    O110748   2.253   4.421  12.751 -0.1452 -0.2680  0.1707
  723TMC3    O210749   2.012   4.057  12.530  0.3334  0.4306  0.2441
  724TMC3    C110750   2.692   2.000  10.164 -0.4665 -0.0147  0.0278
  724TMC3    C210751   2.674   2.072  10.050 -0.2173  0.8802 -0.4057
  724TMC3    C310752   2.761   2.170  10.023 -1.1713 -0.0410  0.0773
  724TMC3    C410753   2.814   1.999  10.241 -0.2298  0.1698 -0.0094
  724TMC3    C510754   2.905   2.096  10.206  0.4056 -0.0046  0.5173
  724TMC3    C610755   2.877   2.184  10.098 -0.0113  0.0566  0.2588
  724TMC3     C10756   2.593   1.903  10.207  0.0666 -0.5399  0.3621
  724TMC3     O10757   2.508   1.882  10.125  0.0468 -0.0957 -0.6673
  724TMC3     H10758   2.573   2.090  10.014 -0.3970 -1.1785 -0.9525
  724TMC3    H110759   2.835   1.940  10.329  0.1477 -0.5033 -0.5474
  724TMC3    H210760   2.954   2.253  10.065  0.4966  0.3676  2.1290
  724TMC3    C710761   3.013   2.130  10.296  0.0174 -0.3702  0.4548
  724TMC3    C810762   2.718   2.264   9.919  0.4443  0.4421 -0.1683
  724TMC3    O110763   3.082   2.225  10.257  0.1331 -0.1157  0.4103
  724TMC3    O210764   2.628   2.234   9.846  0.0454 -0.3574  0.7808
  725TMC3    C110765   4.675   0.376  12.569  0.2793 -0.1983  0.1472
  725TMC3    C210766   4.634   0.422  12.445 -0.2809  0.3411 -0.7424
  725TMC3    C310767   4.521   0.370  12.397 -0.5404  0.3174  0.3601
  725TMC3    C410768   4.597   0.305  12.655  0.0334 -0.4354  0.2539
  725TMC3    C510769   4.478   0.262  12.596 -0.4198  0.1542  0.2109
  725TMC3    C610770   4.441   0.292  12.474  0.2001  0.3553  0.9855
  725TMC3     C10771   0.043   0.458  12.634  0.0665  0.2307 -0.0531
  725TMC3     O10772   0.055   0.577  12.590  0.0603  0.0133  0.1092
  725TMC3     H10773   4.697   0.493  12.392  1.9925 -0.6316  0.6389
  725TMC3    H110774   4.612   0.299  12.762 -3.3629 -0.8115  0.7245
  725TMC3    H210775   4.342   0.260  12.442  0.3841 -1.3568  2.0820
  725TMC3    C710776   4.413   0.147  12.650 -0.4674  0.0479  0.1685
  725TMC3    C810777   4.459   0.428  12.285  0.1125  0.2126 -0.3504
  725TMC3    O110778   4.293   0.142  12.624 -0.7472  0.1141 -0.2563
  725TMC3    O210779   4.344   0.388  12.258  0.5279  0.0000 -0.4084
  726MPD2     C10780   2.508   2.322  10.851  0.1135 -0.7481 -0.1995
  726MPD2    C110781   2.468   2.345  10.721  0.3441  0.8372  0.3851
  726MPD2    C210782   2.384   2.252  10.658 -0.1792  0.0026  0.0466
  726MPD2    C310783   2.359   2.131  10.714  0.2522  0.5199 -0.1247
  726MPD2    C410784   2.416   2.105  10.835  0.1273 -0.9698  0.5674
  726MPD2    C510785   2.479   2.198  10.905 -0.1494  0.2528  1.0980
  726MPD2     H10786   2.349   2.283  10.560 -0.0168  1.4948  0.4513
  726MPD2    H110787   2.399   2.005  10.874 -1.8443 -1.3102 -1.1665
  726MPD2    H210788   2.563   2.391  10.913 -1.3679  2.4992 -2.5054
  726MPD2    H310789   2.503   2.166  11.006  0.5940 -1.0416  0.5167
  726MPD2     N10790   2.284   2.028  10.657  0.1595  0.5216  0.0699
  726MPD2    H510791   2.270   1.939  10.704 -0.6361  0.9818  0.7223
  726MPD2    N110792   2.505   2.466  10.652 -1.0148 -0.6212  0.6410
  726MPD2    H710793   2.451   2.492  10.570 -0.5834  0.3420  0.6600
  727TMC3    C110794   2.605   2.679  10.621  0.0196 -0.0884 -0.3471
  727TMC3    C210795   2.683   2.774  10.663  0.1025 -0.3303 -0.0920
  727TMC3    C310796   2.697   2.888  10.590  0.0011 -0.6236 -0.1915
  727TMC3    C410797   2.532   2.693  10.501 -0.0752  0.5450 -0.4588
  727TMC3    C510798   2.536   2.819  10.435  0.4287 -0.5094 -0.1702
  727TMC3    C610799   2.628   2.916  10.476 -0.3094 -0.1490  0.6012
  727TMC3     C10800   2.598   2.554  10.701  0.3336 -0.0128 -0.3015
  727TMC3     O10801   2.687   2.539  10.786  0.8547  0.0975 -0.0260
  727TMC3     H10802   2.740   2.769  10.755  0.5827 -0.5681 -0.4009
  727TMC3    H110803   2.478   2.613  10.450  0.0021 -0.8552  1.6369
  727TMC3    H210804   2.643   3.005  10.417 -1.4169  0.1455  0.7459
  727TMC3    C710805   2.444   2.866  10.337  0.3452 -0.0346  0.7559
  727TMC3    C810806   2.806   2.980  10.632  0.0807  0.8472  0.0066
  727TMC3    O110807   2.469   2.978  10.295  0.4975 -0.3452  0.1290
  727TMC3    O210808   2.900   2.928  10.696  0.2665  0.5212  0.2223
  728TMC3    C110809   1.738   0.784  15.213 -0.0970  0.1209 -0.3230
  728TMC3    C210810   1.826   0.844  15.303  0.1965  0.7205 -0.4374
  728TMC3    C310811   1.938   0.910  15.255  0.4759  0.5211  0.5701
  728TMC3    C410812   1.764   0.786  15.079 -0.5874  0.0753 -0.0087
  728TMC3    C510813   1.885   0.854  15.036 -0.8488 -0.1208  0.2216
  728TMC3    C610814   1.969   0.914  15.124 -0.1292 -0.1454 -0.4543
  728TMC3     C10815   1.612   0.738  15.265 -0.7453  0.3650  0.4544
  728TMC3     O10816   1.611   0.699  15.380  0.0586 -0.7607 -0.1199
  728TMC3     H10817   1.807   0.833  15.409  2.0154  0.2430 -0.1632
  728TMC3    H110818   1.695   0.746  15.006 -1.9141  1.3209  0.5822
  728TMC3    H210819   2.074   0.924  15.100 -0.5591  1.4354 -1.6707
  728TMC3    C710820   1.915   0.869  14.895  0.0489  0.5528  0.3554
  728TMC3    C810821   2.063   0.892  15.335 -0.3029 -0.3654 -0.1510
  728TMC3    O110822   2.028   0.912  14.865 -0.0737 -0.1999 -0.3090
  728TMC3    O210823   2.145   0.983  15.328  0.7037 -0.1083 -0.2418
  729MPD2     C10824   3.735   2.248  16.884  0.4981  0.1601 -0.6142
  729MPD2    C110825   3.802   2.134  16.917 -0.3517  0.0364  0.8427
  729MPD2    C210826   3.809   2.097  17.049 -0.1653  0.1648 -0.2152
  729MPD2    C310827   3.774   2.185  17.149  0.2725 -0.2218  0.3035
  729MPD2    C410828   3.712   2.300  17.110 -0.8602  0.0803 -0.0283
  729MPD2    C510829   3.690   2.329  16.979  0.0582  0.0846 -0.1728
  729MPD2     H10830   3.856   2.005  17.080  0.7073  1.0415  1.0872
  729MPD2    H110831   3.688   2.377  17.182 -0.2007 -0.3249  0.6206
  729MPD2    H210832   3.723   2.281  16.781  1.3107 -0.5817 -0.9507
  729MPD2    H310833   3.640   2.422  16.955  0.0954  0.0417 -0.4144
  729MPD2     N10834   3.819   2.166  17.278  0.4770  0.4916 -0.3325
  729MPD2    H510835   3.813   2.245  17.340  0.0211 -0.1151  0.3948
  729MPD2    N110836   3.884   2.077  16.823  0.5891 -0.2102  0.0147
  729MPD2    H710837   3.903   2.137  16.743  0.0007 -0.1756 -0.0994
  730TMC3    C110838   3.962   2.082  17.443  0.1234  0.1692  1.0996
  730TMC3    C210839   3.921   2.046  17.562 -0.7039  0.1032  0.0042
  730TMC3    C310840   3.969   2.103  17.680 -0.1060  0.4384 -0.1248
  730TMC3    C410841   4.056   2.183  17.436 -0.1909 -0.1610 -0.4894
  730TMC3    C510842   4.103   2.243  17.552  0.5848 -0.2109 -0.0096
  730TMC3    C610843   4.057   2.207  17.676 -0.2052 -0.5382 -0.1504
  730TMC3     C10844   3.883   2.059  17.324  0.4995  0.2771 -0.0246
  730TMC3     O10845   3.886   1.942  17.286 -0.1720 -0.4435  0.1779
  730TMC3     H10846   3.841   1.973  17.561 -0.6534  0.0307  1.4578
  730TMC3    H110847   4.089   2.230  17.344  2.9530 -0.6333  0.4047
  730TMC3    H210848   4.087   2.267   0.023 -0.4689  0.7680 -0.9828
  730TMC3    C710849   4.159   2.373  17.531  0.5715  0.5554 -0.3978
  730TMC3    C810850   3.920   2.059   0.074 -0.1268 -0.4859  0.0501
  730TMC3    O110851   4.233   2.401  17.434 -0.0354  0.0625  0.4149
  730TMC3    O210852   3.837   1.970   0.078 -0.0479  0.0160  0.1786
  731MPD2     C10853   3.925   0.011  12.302  0.1105  0.1114 -0.2046
  731MPD2    C110854   4.047   4.710  12.367  0.4133  0.4212  0.0345
  731MPD2    C210855   4.044   4.663  12.496 -0.3981  0.1683  0.0408
  731MPD2    C310856   3.921   4.643  12.556 -0.2960  0.2951 -0.3908
  731MPD2    C410857   3.800   4.657  12.488  0.1922 -0.6121  0.3243
  731MPD2    C510858   3.805   4.705  12.359  0.4376  0.2969 -0.2821
  731MPD2     H10859   4.134   4.628  12.545  0.2086 -1.1624 -2.0402
  731MPD2    H110860   3.700   4.628  12.516 -1.2195  0.7618 -3.1991
  731MPD2    H210861   3.925   0.062  12.206 -1.4301  0.1736 -0.1687
  731MPD2    H310862   3.709   4.720  12.310  0.2995  1.2069  0.2637
  731MPD2     N10863   3.919   4.585  12.683 -0.0608  0.3408 -0.7682
  731MPD2    H510864   4.011   4.567  12.721  0.2190  1.8069 -0.7554
  731MPD2    N110865   4.166   0.006  12.298  0.3614  0.4822  0.0234
  731MPD2    H710866   4.154   0.058  12.211  1.0516  1.0428  0.2605
  732TMC3    C110867   4.392   0.012  12.231 -0.0286 -0.1154 -0.5325
  732TMC3    C210868   4.338   0.061  12.115 -0.4507  0.5522  0.0538
  732TMC3    C310869   4.425   0.141  12.042  0.3174  0.4790  0.2682
  732TMC3    C410870   4.515   0.031  12.274  0.1050 -0.2773 -0.1023
  732TMC3    C510871   4.598   0.097  12.195 -0.5279 -0.0003  0.1137
  732TMC3    C610872   4.554   0.142  12.071  0.5335 -0.5652 -0.5593
  732TMC3     C10873   4.298   4.691  12.323  0.4198 -0.5840 -0.2129
  732TMC3     O10874   4.340   4.620  12.411 -0.4268 -0.2003  0.4006
  732TMC3     H10875   4.248   0.014  12.076 -0.7227  0.9033  0.2591
  732TMC3    H110876   4.537   0.018  12.379  1.7353  2.2835 -0.1341
  732TMC3    H210877   4.620   0.207  12.014 -0.0260  1.9831  1.7015
  732TMC3    C710878   4.735   0.130  12.238  1.0175 -0.0013  0.7618
  732TMC3    C810879   4.386   0.202  11.913  0.1315 -0.2618  0.2563
  732TMC3    O110880   0.049   0.232  12.194 -0.2638  0.5611 -0.0057
  732TMC3    O210881   4.478   0.230  11.833 -0.2321 -0.1568  0.1165
  733TMC3    C110882   0.260   2.899  13.408  0.8347 -0.5065 -1.1236
  733TMC3    C210883   0.232   3.029  13.360 -0.3471  0.6118  0.3209
  733TMC3    C310884   0.255   3.065  13.230 -0.1087  0.2059  0.4120
  733TMC3    C410885   0.328   2.817  13.317  0.0875  0.0500  0.2864
  733TMC3    C510886   0.358   2.862  13.195 -0.1000  0.4650 -0.6158
  733TMC3    C610887   0.322   2.986  13.143 -0.8599  0.4821  0.8109
  733TMC3     C10888   0.143   2.843  13.478 -0.2842  0.0595 -0.4031
  733TMC3     O10889   0.052   2.923  13.501  0.0480 -0.0845 -0.3882
  733TMC3     H10890   0.185   3.103  13.425  1.8674  0.8664  1.6370
  733TMC3    H110891   0.371   2.723  13.350 -1.2504 -0.4234  0.6497
  733TMC3    H210892   0.347   3.013  13.041  0.0225 -0.8090  0.6747
  733TMC3    C710893   0.386   2.760  13.096  0.5723 -0.4741  0.4030
  733TMC3    C810894   0.174   3.175  13.168 -0.8482  0.2925  0.1351
  733TMC3    O110895   0.434   2.657  13.127 -0.1030 -0.3286 -0.0061
  733TMC3    O210896   0.152   3.276  13.233 -0.1376  0.5404 -0.0252
  734MPD2     C10897   1.898   0.222  12.460 -0.4151 -0.2797  0.1515
  734MPD2    C110898   1.871   0.187  12.327 -0.5353 -0.4365  0.3450
  734MPD2    C210899   1.938   0.251  12.228 -0.7069  0.0651 -0.0961
  734MPD2    C310900   2.009   0.366  12.250 -0.1739 -0.3480 -0.2527
  734MPD2    C410901   2.017   0.412  12.381  0.1792  0.5441 -0.6274
  734MPD2    C510902   1.975   0.330  12.486  0.1814  0.1445 -0.3628
  734MPD2     H10903   1.924   0.223  12.124 -2.1176  0.5602 -0.0410
  734MPD2    H110904   2.060   0.508  12.406  0.6403 -0.4110  2.2353
  734MPD2    H210905   1.860   0.167  12.545 -0.0421 -1.2633 -0.3212
  734MPD2    H310906   1.987   0.362  12.588  1.2750 -0.2078 -0.3779
  734MPD2     N10907   2.063   0.431  12.135 -0.2646  0.0511  0.4008
  734MPD2    H510908   2.070   0.370  12.055  2.5301  0.7171  0.1499
  734MPD2    N110909   1.793   0.069  12.307 -0.1866 -0.1150  0.4346
  734MPD2    H710910   1.755   0.029  12.391 -2.2844  0.1989 -0.3637
  735TMC3    C110911   1.760   4.599  12.186 -0.4881  0.2780  0.4231
  735TMC3    C210912   1.756   4.547  12.054 -0.0935 -0.1481 -0.0346
  735TMC3    C310913   1.840   4.452  12.001 -0.2774 -0.4125  0.2045
  735TMC3    C410914   1.841   4.534  12.274  0.1469  0.0329  0.3044
  735TMC3    C510915   1.928   4.440  12.220  0.8350 -1.1272 -0.5993
  735TMC3    C610916   1.924   4.384  12.092 -0.4684 -0.2099 -0.8249
  735TMC3     C10917   1.757   0.008  12.189  0.1245 -0.2951  0.8743
  735TMC3     O10918   1.754   0.052  12.074 -0.6127  0.3525 -0.2604
  735TMC3     H10919   1.690   4.595  11.983 -1.5214  1.4052  2.3127
  735TMC3    H110920   1.862   4.573  12.373 -0.1424 -0.3781  0.5263
  735TMC3    H210921   2.016   4.335  12.062  0.8026  1.1589  0.8855
  735TMC3    C710922   2.063   4.454  12.266 -1.0028 -0.5485  0.1103
  735TMC3    C810923   1.904   4.489  11.876  0.3599 -0.1216 -0.5038
  735TMC3    O110924   2.090   4.564  12.307  0.0966 -0.2785  0.1652
  735TMC3    O210925   1.982   4.412  11.822  0.2105 -0.1016 -0.3079
  736MPD2     C10926   2.288   4.173  12.332  0.2267 -0.0429  0.0587
  736MPD2    C110927   2.249   4.300  12.312 -0.3327 -0.3820 -0.2046
  736MPD2    C210928   2.341   4.406  12.331 -0.2005 -0.6702  1.0726
  736MPD2    C310929   2.474   4.378  12.361  0.6543  0.3844  0.4920
  736MPD2    C410930   2.514   4.244  12.369 -0.0448 -0.7746 -0.8955
  736MPD2    C510931   2.418   4.143  12.361  0.3266  0.0381 -0.2285
  736MPD2     H10932   2.306   4.504  12.304  2.0881 -0.4777 -1.1561
  736MPD2    H110933   2.619   4.220  12.380  0.3599  0.8266 -1.2581
  736MPD2    H210934   2.215   4.093  12.324 -1.0904  1.0193  1.4308
  736MPD2    H310935   2.450   4.040  12.374 -0.4482 -0.0689  0.7637
  736MPD2     N10936   2.578   4.474  12.351 -0.6579  0.3619 -0.4973
  736MPD2    H510937   2.674   4.440  12.357 -0.7599  0.0329 -0.7374
  736MPD2    N110938   2.115   4.328  12.276  0.6079  0.6273  0.3382
  736MPD2    H710939   2.053   4.250  12.256  0.9476 -0.6614  4.1723
  737TMC3    C110940   2.689   4.678  12.284  0.2980  0.2512 -0.1097
  737TMC3    C210941   2.691   0.083  12.299 -0.3607 -0.4256  1.1136
  737TMC3    C310942   2.795   0.152  12.242  0.3610  0.1297 -0.0709
  737TMC3    C410943   2.788   4.610  12.221  0.1969  0.5203  0.1332
  737TMC3    C510944   2.895   4.684  12.184  0.2420  0.1834  0.1286
  737TMC3    C610945   2.902   0.083  12.193 -0.2582  0.2049  0.3691
  737TMC3     C10946   2.563   4.609  12.319 -0.2439  0.1503 -0.0983
  737TMC3     O10947   2.467   4.685  12.341 -0.0743  0.1177 -0.4314
  737TMC3     H10948   2.605   0.132  12.344 -3.3998 -3.5416 -1.2958
  737TMC3    H110949   2.790   4.507  12.187  1.1087  1.1784 -1.8027
  737TMC3    H210950   2.997   0.132  12.176 -1.0175  1.4696 -0.2585
  737TMC3    C710951   2.996   4.621  12.103 -0.1927 -0.0442  0.5143
  737TMC3    C810952   2.760   0.284  12.211  0.0901 -0.4395  0.6185
  737TMC3    O110953   3.011   4.499  12.113  0.6180 -0.6020 -0.7271
  737TMC3    O210954   2.694   0.347  12.287  0.5230 -0.1800  0.4063
  738MPD2     C10955   2.942   4.158  14.802 -0.0872  0.5165 -0.7368
  738MPD2    C110956   3.015   4.043  14.839  0.9654 -0.1682 -0.1106
  738MPD2    C210957   3.153   4.039  14.819 -0.4334 -0.0982 -0.1403
  738MPD2    C310958   3.218   4.152  14.780  0.5720 -0.1765 -0.2387
  738MPD2    C410959   3.144   4.257  14.736  0.3355  0.0860  0.6515
  738MPD2    C510960   3.008   4.255  14.734  0.1220  0.2178  0.0224
  738MPD2     H10961   3.210   3.954  14.853 -0.6522  0.1499  0.8647
  738MPD2    H110962   3.182   4.355  14.711 -0.4653  0.2592  0.1053
  738MPD2    H210963   2.835   4.173  14.809 -0.1234  0.2068 -0.6378
  738MPD2    H310964   2.962   4.349  14.707  1.6248  0.1019 -2.9293
  738MPD2     N10965   3.356   4.168  14.773  0.3014 -0.0287  0.0791
  738MPD2    H510966   3.394   4.260  14.756  1.6573 -0.7377 -0.7374
  738MPD2    N110967   2.958   3.924  14.886 -0.1698 -0.3103 -0.1252
  738MPD2    H710968   3.016   3.843  14.904  1.3698  1.0562  1.0922
  739TMC3    C110969   3.578   4.129  14.829 -0.2418  1.0994 -0.3091
  739TMC3    C210970   3.613   4.184  14.718 -0.0168 -0.0501  0.0877
  739TMC3    C310971   3.736   4.242  14.720  0.3964  0.1323  0.6372
  739TMC3    C410972   3.658   4.119  14.936 -0.0911  0.3953  0.6922
  739TMC3    C510973   3.781   4.174  14.935  0.1345 -0.5226 -0.6600
  739TMC3    C610974   3.822   4.246  14.830  0.3814  0.1005 -0.0906
  739TMC3     C10975   3.445   4.078  14.829 -0.5870 -0.4474  0.8945
  739TMC3     O10976   3.441   3.973  14.892  0.2387 -0.2551  0.6058
  739TMC3     H10977   3.558   4.176  14.625 -0.5759 -2.5497  0.6277
  739TMC3    H110978   3.625   4.056  15.018 -1.2287  0.9106  0.6209
  739TMC3    H210979   3.920   4.292  14.821 -0.0849  0.6956 -2.1611
  739TMC3    C710980   3.855   4.175  15.056  0.3098 -0.4526  0.0274
  739TMC3    C810981   3.759   4.318  14.601  0.1186 -0.5871 -0.7308
  739TMC3    O110982   3.826   4.096  15.144  0.1298 -0.2175  0.2116
  739TMC3    O210983   3.710   4.275  14.501  0.1266 -0.8764  0.4582
  740TMC3    C110984   3.946   0.714  14.423  0.4728 -0.1682 -0.0202
  740TMC3    C210985   3.961   0.627  14.528  0.0816 -0.1209 -0.2006
  740TMC3    C310986   4.056   0.529  14.519 -0.6365  0.4441 -0.3258
  740TMC3    C410987   4.039   0.716  14.321  0.2741 -0.6189 -0.4186
  740TMC3    C510988   4.141   0.626  14.315 -0.1520 -0.0022  0.5580
  740TMC3    C610989   4.148   0.537  14.415 -0.5214  0.6397 -0.1349
  740TMC3     C10990   3.824   0.799  14.415  0.2948  0.7638 -0.1663
  740TMC3     O10991   3.828   0.893  14.335  0.5600  0.4320 -0.1711
  740TMC3     H10992   3.891   0.622  14.610  2.6745 -1.4039  1.9332
  740TMC3    H110993   4.032   0.781  14.235  0.2802 -1.6479 -1.1965
  740TMC3    H210994   4.240   0.481  14.424 -2.2111 -2.0875  0.1868
  740TMC3    C710995   4.265   0.670  14.253  0.0332  0.2985 -0.0313
  740TMC3    C810996   4.038   0.405  14.591 -0.0563 -1.1058 -0.8861
  740TMC3    O110997   4.371   0.654  14.316  0.3255  0.5892  0.5316
  740TMC3    O210998   4.133   0.327  14.591 -0.4055 -0.4323 -0.1264
  741TMC3    C110999   3.391   0.070  14.418 -0.0649 -0.4511  0.2364
  741TMC3    C211000   3.318   4.726  14.336  0.3175 -0.3514  0.8057
  741TMC3    C311001   3.299   4.591  14.378 -0.6155 -0.1909 -0.6128
  741TMC3    C411002   3.455   0.023  14.530 -0.1325 -0.4070  0.1956
  741TMC3    C511003   3.438   4.625  14.565 -0.3953 -0.7404  0.1576
  741TMC3    C611004   3.363   4.547  14.490 -0.3790 -0.0440 -0.5109
  741TMC3     C11005   3.384   0.215  14.413 -0.9461  0.1672 -0.7350
  741TMC3     O11006   3.458   0.280  14.489  0.4581  0.0949 -0.3539
  741TMC3     H11007   3.254   0.030  14.258  1.0590  3.7712  2.2430
  741TMC3    H111008   3.501   0.098  14.594 -0.5645  1.4804 -1.7210
  741TMC3    H211009   3.365   4.444  14.523 -0.2563  0.0629 -0.1836
  741TMC3    C711010   3.484   4.568  14.689 -0.4816  0.0197  0.3398
  741TMC3    C811011   3.182   4.529  14.317  0.1242  0.4382  0.5497
  741TMC3    O111012   3.458   4.452  14.709  0.6963  0.6766 -0.3030
  741TMC3    O211013   3.109   4.594  14.247 -0.0900 -0.1736  0.2002
  742TMC3    C111014   3.076   3.410  15.381  0.2214 -0.0444  0.2835
  742TMC3    C211015   3.011   3.387  15.261 -0.2794  0.5107  0.3704
  742TMC3    C311016   3.080   3.321  15.162 -0.1952 -0.2128  0.3650
  742TMC3    C411017   3.206   3.375  15.408 -0.2657 -0.4436  0.3389
  742TMC3    C511018   3.269   3.317  15.304 -0.3564 -0.6574 -0.4613
  742TMC3    C611019   3.210   3.289  15.182 -0.1760  0.4042  0.6650
  742TMC3     C11020   3.001   3.465  15.494  0.0941 -0.7455 -0.4957
  742TMC3     O11021   3.032   3.422  15.605  0.0447  0.2625  0.3370
  742TMC3     H11022   2.903   3.391  15.269 -0.2561 -0.0879  1.1050
  742TMC3    H111023   3.243   3.385  15.509  1.0304  0.9640 -0.2666
  742TMC3    H211024   3.272   3.244  15.105  0.9901  1.1394  1.1807
  742TMC3    C711025   3.374   3.221  15.344 -0.0234 -0.1827  0.3680
  742TMC3    C811026   3.018   3.286  15.036  0.1143  0.4152  0.0254
  742TMC3    O111027   3.391   3.124  15.271  0.1681  0.3191 -0.0615
  742TMC3    O211028   3.093   3.276  14.938  0.1628 -0.3457 -0.1579
  743MPD2     C11029   0.986   3.434   1.546  0.1101  0.5833  0.7064
  743MPD2    C111030   1.079   3.507   1.479  0.7449 -0.2704  0.2267
  743MPD2    C211031   1.212   3.519   1.527 -0.0328 -0.4453  0.9975
  743MPD2    C311032   1.250   3.447   1.629  0.4641 -0.0757  0.1005
  743MPD2    C411033   1.158   3.362   1.687 -0.6693 -0.0842  0.1276
  743MPD2    C511034   1.025   3.356   1.649 -0.1849  0.5320  0.2915
  743MPD2     H11035   1.282   3.582   1.473  0.3951 -0.8647  1.0620
  743MPD2    H111036   1.185   3.316   1.781  0.8380 -0.6904 -0.6040
  743MPD2    H211037   0.884   3.431   1.511  0.3601  1.7660 -0.1199
  743MPD2    H311038   0.956   3.295   1.707 -0.0500 -0.9524 -1.1013
  743MPD2     N11039   1.384   3.449   1.674 -0.2827  0.0609 -0.0916
  743MPD2    H511040   1.438   3.529   1.643 -1.2231 -0.2914 -2.6148
  743MPD2    N111041   1.046   3.573   1.364  0.2980 -0.1759 -0.1070
  743MPD2    H711042   0.946   3.583   1.351 -0.3848 -2.7245  3.1615
  744TMC3    C111043   1.075   3.720   1.176 -0.0066  0.0261  0.0151
  744TMC3    C211044   0.990   3.816   1.220 -0.2889  0.5651 -0.2235
  744TMC3    C311045   0.976   3.933   1.143  0.0815 -0.2854  0.5494
  744TMC3    C411046   1.137   3.731   1.052 -0.3322 -0.6682 -0.2038
  744TMC3    C511047   1.100   3.839   0.971 -0.0060  0.4189  0.5978
  744TMC3    C611048   1.022   3.939   1.018 -0.3785  0.2163  0.3031
  744TMC3     C11049   1.136   3.621   1.270  0.7109 -0.6027  0.4190
  744TMC3     O11050   1.255   3.599   1.260  0.5227 -0.2036  0.3589
  744TMC3     H11051   0.942   3.799   1.315  0.2515 -0.5765 -0.1643
  744TMC3    H111052   1.191   3.648   1.008  1.7702  0.9460 -0.6661
  744TMC3    H211053   0.995   4.021   0.952 -0.5453  0.7473  1.0268
  744TMC3    C711054   1.176   3.857   0.854 -0.8858  0.0087 -0.1799
  744TMC3    C811055   0.881   4.040   1.176  0.2696  0.7662  0.0688
  744TMC3    O111056   1.188   3.970   0.815  0.9695  0.2686  0.5208
  744TMC3    O211057   0.872   4.134   1.095  0.3800  0.3343  0.1734
  745TMC3    C111058   3.477   2.664  13.603 -0.1761 -0.3123  0.0092
  745TMC3    C211059   3.349   2.625  13.627  0.3227  1.4707  0.1971
  745TMC3    C311060   3.270   2.584  13.522 -0.3931  0.8881 -0.7062
  745TMC3    C411061   3.532   2.654  13.479  0.2413 -0.2898 -0.7473
  745TMC3    C511062   3.454   2.597  13.380 -0.3134 -0.4101 -0.3599
  745TMC3    C611063   3.322   2.553  13.401 -1.0982 -0.5654 -0.0100
  745TMC3     C11064   3.556   2.727  13.713 -1.2635  0.2424 -0.7928
  745TMC3     O11065   3.547   2.676  13.826 -0.0139  0.1663  0.0514
  745TMC3     H11066   3.314   2.616  13.730  0.8031  0.8555  0.3106
  745TMC3    H111067   3.639   2.670  13.476  0.6800 -2.8664  0.9217
  745TMC3    H211068   3.267   2.528  13.311  1.0757  1.0737 -1.7810
  745TMC3    C711069   3.508   2.539  13.255  0.8809  0.5575 -0.3725
  745TMC3    C811070   3.167   2.678  13.495  0.1976 -0.2669 -0.0592
  745TMC3    O111071   3.454   2.435  13.215 -0.5848  0.2299  0.6109
  745TMC3    O211072   3.100   2.663  13.392 -0.4567  0.5891  0.4349
  746TMC3    C111073   0.812   0.222  10.924 -0.4242 -0.0649  0.6743
  746TMC3    C211074   0.879   0.245  10.806  0.2521 -0.0656  0.4567
  746TMC3    C311075   0.875   0.144  10.713  0.5028 -0.0775  0.4738
  746TMC3    C411076   0.756   0.104  10.955  0.0788  0.4400  0.3968
  746TMC3    C511077   0.753   0.011  10.855  0.6788 -0.0773  0.2752
  746TMC3    C611078   0.817   0.022  10.736  0.0630 -0.3961 -0.1514
  746TMC3     C11079   0.792   0.329  11.015  0.5097  0.0680 -0.9120
  746TMC3     O11080   0.762   0.305  11.130  0.4459  0.0168  0.2322
  746TMC3     H11081   0.940   0.335  10.797 -0.3766  0.6137  2.9768
  746TMC3    H111082   0.697   0.094  11.045 -1.0722  0.7024 -0.3337
  746TMC3    H211083   0.790   4.692  10.653  0.9789  0.5088 -1.1409
  746TMC3    C711084   0.655   4.639  10.867 -0.2058 -0.1157 -0.0453
  746TMC3    C811085   0.976   0.165  10.614  0.1793  0.1592 -1.0730
  746TMC3    O111086   0.625   4.584  10.762 -0.4419  0.1135  0.4886
  746TMC3    O211087   1.021   0.282  10.603  0.3128  0.4877  0.2494
  747TMC3    C111088   3.272   0.380  11.259 -0.3127 -0.0197  0.3624
  747TMC3    C211089   3.295   0.249  11.298  0.3087 -0.0563 -0.0646
  747TMC3    C311090   3.266   0.219  11.428  0.2255 -0.2564  0.1427
  747TMC3    C411091   3.226   0.473  11.348  1.1701  0.0766  0.1073
  747TMC3    C511092   3.211   0.438  11.477 -0.2509 -0.1209  0.3157
  747TMC3    C611093   3.225   0.313  11.524  0.0162 -0.4323 -1.0357
  747TMC3     C11094   3.297   0.423  11.122  0.4359 -0.0843  0.3446
  747TMC3     O11095   3.293   0.541  11.101 -0.1678  0.4796 -0.2326
  747TMC3     H11096   3.329   0.171  11.232 -1.2915  0.6981 -1.7837
  747TMC3    H111097   3.216   0.577  11.321  0.3890 -0.4959 -1.7499
  747TMC3    H211098   3.229   0.290  11.630 -0.7575 -3.3635 -1.6526
  747TMC3    C711099   3.166   0.533  11.581 -0.0730 -0.1096  0.0847
  747TMC3    C811100   3.273   0.084  11.469  0.0160  0.4738 -0.1021
  747TMC3    O111101   3.164   0.486  11.698  0.3522  0.4033 -0.1342
  747TMC3    O211102   3.344   0.006  11.407  0.2999 -0.2385  0.0617
  748MPD2     C11103   4.546   0.825   1.348 -0.2635 -0.2281 -0.1743
  748MPD2    C111104   4.605   0.933   1.290  0.1137 -0.2234  0.1820
  748MPD2    C211105   0.003   0.923   1.257  0.2936  0.4762 -0.2520
  748MPD2    C311106   0.066   0.803   1.286  0.0788  0.2824 -0.7787
  748MPD2    C411107   0.005   0.697   1.343 -0.9311 -0.2424 -0.0538
  748MPD2    C511108   4.609   0.709   1.370 -0.2810  0.4227  0.5193
  748MPD2     H11109   0.061   1.005   1.214 -2.1869  2.6140  0.4481
  748MPD2    H111110   0.054   0.602   1.364  0.2933  0.6002  0.8990
  748MPD2    H211111   4.446   0.835   1.389  0.1932 -0.5968  1.0453
  748MPD2    H311112   4.551   0.627   1.409 -0.1190 -0.5634 -1.3322
  748MPD2     N11113   0.202   0.790   1.251 -0.4018  0.0853 -0.0291
  748MPD2    H511114   0.243   0.872   1.207 -1.0672  1.6833  2.2868
  748MPD2    N111115   4.521   1.045   1.267 -0.0975 -0.0066  0.3176
  748MPD2    H711116   4.424   1.040   1.298  0.8502 -1.6280  3.0306
  749TMC3    C111117   0.424   0.728   1.253  0.2669 -0.3104 -0.0348
  749TMC3    C211118   0.519   0.696   1.347  0.0180 -0.0278  0.1049
  749TMC3    C311119   0.642   0.667   1.304  0.2513  0.2725  0.3012
  749TMC3    C411120   0.444   0.730   1.120 -1.1470  0.6543  0.1367
  749TMC3    C511121   0.568   0.684   1.075 -0.3848 -0.5900  0.6068
  749TMC3    C611122   0.667   0.657   1.169 -0.4686 -0.1997  0.6955
  749TMC3     C11123   0.288   0.702   1.302 -0.2127  0.2073 -0.3736
  749TMC3     O11124   0.283   0.642   1.408  0.0563  0.5308 -0.5289
  749TMC3     H11125   0.502   0.693   1.454 -1.9267 -2.2898 -0.2670
  749TMC3    H111126   0.361   0.736   1.051  0.0311  0.6460 -1.2806
  749TMC3    H211127   0.751   0.606   1.123 -1.1102  0.7684 -1.5430
  749TMC3    C711128   0.606   0.698   0.938  0.6637  0.1726 -0.1942
  749TMC3    C811129   0.755   0.657   1.396 -0.0388 -0.1915 -0.7254
  749TMC3    O111130   0.566   0.797   0.876 -0.3567 -0.2056 -0.2338
  749TMC3    O211131   0.734   0.698   1.508  0.6894 -0.3929  0.0417
  750MPD2     C11132   1.358   2.068  11.416  1.0670  0.0707  0.4731
  750MPD2    C111133   1.276   1.987  11.501 -0.0349 -0.3213  0.3819
  750MPD2    C211134   1.234   1.863  11.461  0.2096 -0.4167 -0.3894
  750MPD2    C311135   1.253   1.830  11.328  0.7121 -0.3637 -0.0174
  750MPD2    C411136   1.324   1.909  11.241  0.2590  0.1988  0.2961
  750MPD2    C511137   1.370   2.034  11.280  0.0804 -0.3475  0.8007
  750MPD2     H11138   1.174   1.798  11.525  0.7539  1.9694  2.5733
  750MPD2    H111139   1.336   1.877  11.138 -0.2332  0.1988  0.2403
  750MPD2    H211140   1.410   2.158  11.447 -0.9343  1.7978 -1.1742
  750MPD2    H311141   1.423   2.100  11.213  0.1109  0.5870  1.7385
  750MPD2     N11142   1.196   1.714  11.257  0.4204 -0.0985  0.2670
  750MPD2    H511143   1.232   1.695  11.165 -0.1196 -3.2267  0.7141
  750MPD2    N111144   1.231   2.039  11.621  0.3103 -0.1015  0.2608
  750MPD2    H711145   1.254   2.134  11.650 -1.7835  0.7487 -0.8896
  751TMC3    C111146   1.066   1.521  11.243 -0.1376 -0.4327 -0.0177
  751TMC3    C211147   0.946   1.463  11.272 -0.1163 -0.0822 -0.1830
  751TMC3    C311148   0.907   1.350  11.215 -0.1250 -0.2606 -0.0682
  751TMC3    C411149   1.154   1.457  11.163 -0.1738 -0.8030  0.2435
  751TMC3    C511150   1.109   1.343  11.105  0.1557 -1.1273  0.5455
  751TMC3    C611151   0.989   1.286  11.124 -0.0250 -0.2016 -0.2210
  751TMC3     C11152   1.083   1.654  11.303 -0.1042  0.0395 -0.0516
  751TMC3     O11153   1.006   1.686  11.393 -0.6145 -0.5052  0.1831
  751TMC3     H11154   0.873   1.526  11.322 -0.4905 -1.1886  0.6675
  751TMC3    H111155   1.241   1.511  11.127 -0.1258 -0.8476  0.2927
  751TMC3    H211156   0.968   1.185  11.089 -0.5910  0.1327 -0.8571
  751TMC3    C711157   1.197   1.302  10.997 -0.4742 -0.4114 -0.0772
  751TMC3    C811158   0.776   1.292  11.236  0.2045 -0.3804  0.1758
  751TMC3    O111159   1.314   1.334  11.007  0.1547  0.2196  0.5030
  751TMC3    O211160   0.744   1.221  11.145 -0.1031  0.3777 -0.0915
  752TMC3    C111161   4.380   1.069  17.151  0.6166  0.3510 -0.3774
  752TMC3    C211162   4.454   0.961  17.183 -0.6886  0.7248  0.4748
  752TMC3    C311163   4.405   0.888  17.288  0.6075  0.4235  0.0924
  752TMC3    C411164   4.278   1.121  17.235  0.2297 -0.0088 -0.2140
  752TMC3    C511165   4.255   1.056  17.353  0.4591 -0.4512  0.1990
  752TMC3    C611166   4.309   0.935  17.374 -0.9981  0.1096 -0.1420
  752TMC3     C11167   4.402   1.114  17.016  0.6513  0.1531  0.1595
  752TMC3     O11168   4.461   1.034  16.947 -0.0655 -1.0486  0.4650
  752TMC3     H11169   4.534   0.921  17.122  1.4822  2.8769  1.8977
  752TMC3    H111170   4.214   1.200  17.198 -1.3207 -0.9689  0.4329
  752TMC3    H211171   4.295   0.881  17.466  0.3668  1.8325  1.0762
  752TMC3    C711172   4.171   1.108  17.456 -0.2011  0.9188  0.1091
  752TMC3    C811173   4.472   0.763  17.329  0.4196 -0.7001 -0.1529
  752TMC3    O111174   4.160   1.040  17.559  0.1589  0.1894  0.1069
  752TMC3    O211175   4.457   0.723  17.446 -0.3755  0.4775  0.5990
  753TMC3    C111176   1.893   2.812  13.125  0.8054 -0.1931  0.3994
  753TMC3    C211177   1.967   2.806  13.242 -0.2462  0.4623 -0.4474
  753TMC3    C311178   1.992   2.683  13.293 -0.4459  0.1845  0.3391
  753TMC3    C411179   1.833   2.706  13.062 -1.1224  0.3696  0.8808
  753TMC3    C511180   1.849   2.589  13.127 -0.2463 -0.4360 -0.0282
  753TMC3    C611181   1.934   2.570  13.231  0.2547  0.8625  0.1926
  753TMC3     C11182   1.870   2.950  13.076  0.2730  0.6143  0.1622
  753TMC3     O11183   1.945   3.034  13.119  0.1087  0.4665 -0.4317
  753TMC3     H11184   1.991   2.899  13.291  1.0982  0.6198 -1.4373
  753TMC3    H111185   1.785   2.710  12.965 -0.3309 -2.9075  0.3482
  753TMC3    H211186   1.954   2.474  13.278  0.4449  0.4956 -0.6308
  753TMC3    C711187   1.792   2.469  13.059 -0.5492  0.8543 -0.6104
  753TMC3    C811188   2.090   2.668  13.399  0.7563  0.1017 -0.5628
  753TMC3    O111189   1.731   2.481  12.951  0.4274 -0.5591  0.5517
  753TMC3    O211190   2.103   2.551  13.425 -0.0462  0.1454  0.0803
  754MPD2     C11191   1.109   1.430  13.034  0.2551 -0.0120  0.7054
  754MPD2    C111192   1.111   1.290  13.021 -0.0634  0.6348 -0.2575
  754MPD2    C211193   0.994   1.223  12.990  0.0752 -0.2696  0.0263
  754MPD2    C311194   0.874   1.299  12.981 -0.7737 -0.8012  0.5695
  754MPD2    C411195   0.882   1.440  13.006  0.7384 -0.2693  0.8734
  754MPD2    C511196   1.001   1.507  13.016  0.3479  0.4164 -0.4352
  754MPD2     H11197   1.008   1.117  12.978 -0.4718 -0.2990 -0.3305
  754MPD2    H111198   0.796   1.506  13.002  1.0710  0.0443 -1.3951
  754MPD2    H211199   1.200   1.485  13.055  0.2505  0.7152 -1.1547
  754MPD2    H311200   1.003   1.613  13.038 -3.9993 -0.5396  4.3563
  754MPD2     N11201   0.744   1.245  12.985  0.0090  0.1216  0.2828
  754MPD2    H511202   0.661   1.303  12.988 -0.9120 -1.1007 -2.0063
  754MPD2    N111203   1.234   1.223  13.039 -0.5488 -0.1481 -0.5100
  754MPD2    H711204   1.311   1.288  13.037 -0.0833 -0.6939 -0.2015
  755MPD2     C11205   4.594   1.519  13.267  0.3861  0.0091  0.1535
  755MPD2    C111206   4.718   1.506  13.333  0.2513  0.1069  0.4279
  755MPD2    C211207   0.081   1.422  13.286 -0.0310  0.6134  0.2763
  755MPD2    C311208   0.059   1.354  13.164 -0.0429 -0.8545 -1.2259
  755MPD2    C411209   4.680   1.377  13.096  0.4306 -0.5815  0.3543
  755MPD2    C511210   4.583   1.466  13.145 -0.1218 -0.5291  0.1374
  755MPD2     H11211   0.176   1.406  13.335  2.6647 -2.6310 -6.0456
  755MPD2    H111212   4.654   1.326  13.004 -0.1937 -1.6722  1.1510
  755MPD2    H211213   4.516   1.575  13.319  0.5898  0.2488  0.2001
  755MPD2    H311214   4.495   1.470  13.082  1.7265  2.5183 -2.2646
  755MPD2     N11215   0.156   1.271  13.105 -0.4347  0.4675  0.5614
  755MPD2    H511216   0.138   1.235  13.011  1.1499  0.5219  0.2434
  755MPD2    N111217   0.008   1.557  13.464 -0.1060  0.9261 -0.1224
  755MPD2    H711218   0.092   1.525  13.512 -0.8465  2.2560  2.0532
  756MPD2     C11219   0.988   2.250   9.205  0.3047 -0.6632  0.3065
  756MPD2    C111220   0.907   2.156   9.271  0.6999  0.5689  0.0106
  756MPD2    C211221   0.780   2.134   9.236 -0.3600 -0.0903  0.5270
  756MPD2    C311222   0.732   2.186   9.116  0.3824 -0.2029 -0.4342
  756MPD2    C411223   0.817   2.265   9.037  0.2417  0.2175  0.2403
  756MPD2    C511224   0.944   2.290   9.079  1.1802  0.2404 -0.4820
  756MPD2     H11225   0.725   2.060   9.292 -1.0276 -0.1784 -0.2503
  756MPD2    H111226   0.793   2.299   8.937  0.0368 -0.7956 -0.0596
  756MPD2    H211227   1.082   2.286   9.244  0.7362 -1.3509 -0.0934
  756MPD2    H311228   1.013   2.344   9.015  2.0952 -1.6277 -1.0817
  756MPD2     N11229   0.597   2.145   9.074  0.8219  0.1903  0.4746
  756MPD2    H511230   0.552   2.072   9.129  1.4778 -2.0400 -1.9452
  756MPD2    N111231   0.954   2.091   9.381  0.0278  0.6612 -0.2922
  756MPD2    H711232   0.884   2.037   9.430  0.1679 -0.5529 -1.4612
  757MPD2     C11233   0.124   1.513   9.409 -0.1095  0.5386  0.0611
  757MPD2    C111234   0.256   1.511   9.372  0.7197 -0.0979  0.6223
  757MPD2    C211235   0.294   1.621   9.300  0.3779  0.1388 -0.4683
  757MPD2    C311236   0.213   1.718   9.251 -0.5945 -0.5758 -0.4018
  757MPD2    C411237   0.078   1.705   9.282 -0.2249  0.3290  1.0987
  757MPD2    C511238   0.036   1.610   9.370 -0.3936  0.3328 -0.4501
  757MPD2     H11239   0.396   1.621   9.264  1.3565  2.0387  2.3371
  757MPD2    H111240   0.007   1.784   9.261 -0.7793 -0.5952 -0.4592
  757MPD2    H211241   0.075   1.427   9.452  1.2023 -0.1314  0.2079
  757MPD2    H311242   4.663   1.607   9.386 -0.2384 -0.2834  0.4823
  757MPD2     N11243   0.253   1.807   9.153 -0.3997 -0.2836  0.4243
  757MPD2    H511244   0.349   1.815   9.120 -0.4260  1.1978  0.6969
  757MPD2    N111245   0.338   1.395   9.404 -0.8760 -0.9362 -0.0096
  757MPD2    H711246   0.286   1.314   9.439 -0.6008 -0.8964  0.4916
  758MPD2     C11247   0.942   1.699  15.514 -0.6056  0.0476 -0.6908
  758MPD2    C111248   1.000   1.588  15.580 -0.6467 -0.5929 -0.6115
  758MPD2    C211249   0.954   1.559  15.709 -0.2695  0.4100  0.2620
  758MPD2    C311250   0.855   1.640  15.774  0.3743  0.4315 -0.1742
  758MPD2    C411251   0.809   1.753  15.705 -0.7421  0.2907  0.5351
  758MPD2    C511252   0.851   1.781  15.579 -0.3670 -0.2495 -0.2220
  758MPD2     H11253   0.981   1.465  15.754  0.8807  1.7482  2.3390
  758MPD2    H111254   0.746   1.825  15.757 -2.3784 -0.8186  0.0948
  758MPD2    H211255   0.972   1.722  15.412  1.6645  0.5679  0.0964
  758MPD2    H311256   0.810   1.872  15.536 -2.0952 -0.1075  1.7377
  758MPD2     N11257   0.804   1.614  15.898 -0.2576  0.6926  0.0466
  758MPD2    H511258   0.741   1.686  15.930  0.9434  2.2777 -1.1550
  758MPD2    N111259   1.103   1.514  15.517  0.0152  0.4583 -0.0943
  758MPD2    H711260   1.117   1.522  15.417 -1.8789 -0.0108 -0.3934
  759MPD2     C11261   4.084   4.732  10.678  0.6016  0.6785 -0.9694
  759MPD2    C111262   4.144   4.624  10.630 -0.5193 -0.0321 -1.0242
  759MPD2    C211263   4.249   4.645  10.534  0.1192 -0.0085 -0.3506
  759MPD2    C311264   4.272   0.038  10.481  0.8173 -0.2461 -0.0107
  759MPD2    C411265   4.211   0.146  10.539  0.7255  0.1269 -0.4326
  759MPD2    C511266   4.113   0.119  10.631 -0.5645 -0.2171  0.3751
  759MPD2     H11267   4.307   4.568  10.484 -3.2679 -1.4049 -2.1496
  759MPD2    H111268   4.229   0.250  10.514  3.3020 -0.7619 -2.3226
  759MPD2    H211269   4.014   4.735  10.761  1.3185 -0.3955 -0.3408
  759MPD2    H311270   4.069   0.207  10.678 -0.9634 -0.1750 -0.0701
  759MPD2     N11271   4.355   0.043  10.365  0.2804 -0.0522  0.4027
  759MPD2    H511272   4.407   4.692  10.347 -0.3979 -0.9301  2.6286
  759MPD2    N111273   4.118   4.493  10.665  0.1465 -0.5923  0.4564
  759MPD2    H711274   4.190   4.432  10.627  0.6523  1.9370 -2.6580
  760MPD2     C11275   4.202   1.416  11.481 -0.0780 -0.1244  0.1969
  760MPD2    C111276   4.297   1.507  11.527  0.3715  0.0796 -0.1911
  760MPD2    C211277   4.400   1.465  11.607  0.1138 -0.2401  0.4416
  760MPD2    C311278   4.410   1.328  11.645 -0.0914 -0.0774 -0.0266
  760MPD2    C411279   4.313   1.245  11.591 -0.4867  0.0935  0.0352
  760MPD2    C511280   4.210   1.285  11.513  0.1535  0.1722 -0.3396
  760MPD2     H11281   4.478   1.531  11.642 -1.7459  1.0096  2.2279
  760MPD2    H111282   4.323   1.140  11.614 -0.3662 -0.3629 -2.1554
  760MPD2    H211283   4.107   1.438  11.433  0.0237  1.8091  0.8782
  760MPD2    H311284   4.137   1.210  11.484 -0.5250  0.8897 -0.4793
  760MPD2     N11285   4.519   1.270  11.710  0.0465 -0.5721  0.7543
  760MPD2    H511286   4.521   1.169  11.718  1.6075 -0.6714 -0.7394
  760MPD2    N111287   4.300   1.638  11.479  0.4671  0.5089 -0.2331
  760MPD2    H711288   4.381   1.698  11.497 -0.4670  1.7706 -0.2304
  761MPD2     C11289   0.434   1.071  11.552  0.9775  0.3692 -0.5434
  761MPD2    C111290   0.470   1.048  11.421  0.5997  0.7179  0.5075
  761MPD2    C211291   0.575   1.119  11.365  0.3430  0.6117 -0.0045
  761MPD2    C311292   0.628   1.227  11.428 -0.6603  0.3508  0.7814
  761MPD2    C411293   0.592   1.253  11.565 -0.2551  0.3848 -0.8175
  761MPD2    C511294   0.496   1.171  11.623  0.0138 -0.9374 -0.3829
  761MPD2     H11295   0.617   1.091  11.269  1.6068  1.9697  0.1514
  761MPD2    H111296   0.629   1.332  11.630  0.0152  1.7460 -2.6231
  761MPD2    H211297   0.359   1.008  11.598  1.4438  1.7735  2.1621
  761MPD2    H311298   0.468   1.185  11.727  0.4973 -0.1790 -0.3514
  761MPD2     N11299   0.732   1.300  11.369  0.0880 -0.0997  0.7337
  761MPD2    H511300   0.777   1.364  11.434  1.6670  0.7936 -1.2404
  761MPD2    N111301   0.407   0.938  11.351 -0.9132 -0.2714  0.1657
  761MPD2    H711302   0.351   0.875  11.407 -1.6522  0.1806 -0.0585
  762MPD2     C11303   0.417   0.225  10.740  0.0158 -0.1252  0.3678
  762MPD2    C111304   0.467   0.352  10.764  0.8626  0.6800 -0.7649
  762MPD2    C211305   0.566   0.398  10.674 -0.2524  0.0620  0.3378
  762MPD2    C311306   0.606   0.318  10.569 -0.5816  0.5436  0.7226
  762MPD2    C411307   0.572   0.184  10.561 -0.3799  0.0194  0.2372
  762MPD2    C511308   0.466   0.143  10.641  0.6688 -0.0421 -0.2099
  762MPD2     H11309   0.600   0.501  10.675  3.4326 -1.1489  0.0575
  762MPD2    H111310   0.613   0.115  10.488  2.6954  0.1150  1.8700
  762MPD2    H211311   0.338   0.178  10.798  0.1485 -2.0577 -0.9941
  762MPD2    H311312   0.433   0.042  10.621  2.2423 -0.4954 -0.5154
  762MPD2     N11313   0.695   0.380  10.476 -0.3404 -0.0966  0.7261
  762MPD2    H511314   0.697   0.482  10.480  1.4823 -0.0289 -1.3657
  762MPD2    N111315   0.432   0.414  10.884 -0.8479  0.4682 -0.0670
  762MPD2    H711316   0.377   0.362  10.951 -1.6996 -1.5818 -2.3704
  763MPD2     C11317   2.794   1.467  16.236 -0.1985  0.0505 -0.4938
  763MPD2    C111318   2.802   1.496  16.105  0.1601 -0.4044  0.6543
  763MPD2    C211319   2.797   1.628  16.071 -0.1437 -0.1068  1.0354
  763MPD2    C311320   2.793   1.725  16.163 -0.5834 -0.3759  0.2238
  763MPD2    C411321   2.791   1.692  16.298  0.6482  0.1655 -0.3981
  763MPD2    C511322   2.791   1.563  16.333  0.1577  0.3761  0.4090
  763MPD2     H11323   2.792   1.663  15.968  0.9300 -2.2704  0.2576
  763MPD2    H111324   2.774   1.762  16.380  1.4124  0.5613 -0.5751
  763MPD2    H211325   2.795   1.363  16.268 -1.6403  0.2056  0.0438
  763MPD2    H311326   2.767   1.534  16.435  0.6392  0.3272  0.5061
  763MPD2     N11327   2.773   1.851  16.120 -0.5071 -0.2686  0.2494
  763MPD2    H511328   2.790   1.869  16.022  0.1562 -0.2284  0.3707
  763MPD2    N111329   2.792   1.398  16.005 -0.0758  0.1612  0.0131
  763MPD2    H711330   2.771   1.426  15.910  2.3628 -1.1416 -0.9225
  764MPD2     C11331   0.892   1.763   0.189  0.0713  0.0300  0.2508
  764MPD2    C111332   0.759   1.799   0.220  0.8856  0.1032  0.3155
  764MPD2    C211333   0.721   1.757   0.347  0.2555  0.4934 -0.7239
  764MPD2    C311334   0.807   1.696   0.435  0.0452  0.4468  0.5273
  764MPD2    C411335   0.937   1.688   0.412  0.3091  0.9319 -0.5808
  764MPD2    C511336   0.980   1.725   0.286 -0.7255 -0.2925  0.1044
  764MPD2     H11337   0.619   1.776   0.379  1.3728  3.5504  1.0824
  764MPD2    H111338   1.007   1.662   0.491 -0.8907 -0.8368 -0.0950
  764MPD2    H211339   0.938   1.772   0.092 -1.9323  3.1767 -0.4137
  764MPD2    H311340   1.086   1.719   0.262  0.0145  0.1498  3.2429
  764MPD2     N11341   0.758   1.664   0.558 -0.3665  0.1103 -0.8137
  764MPD2    H511342   0.663   1.695   0.575 -0.0213  1.0400 -0.6338
  764MPD2    N111343   0.679   1.845   0.111 -0.0760 -0.1825 -0.4436
  764MPD2    H711344   0.719   1.842   0.017 -1.6012  2.4962 -1.1475
  765MPD2     C11345   0.681   0.690  16.250  0.5907  0.4488 -0.3051
  765MPD2    C111346   0.639   0.698  16.120  0.1611 -0.8503  0.2845
  765MPD2    C211347   0.717   0.629  16.028  0.3040 -0.0452  0.5625
  765MPD2    C311348   0.821   0.550  16.074 -0.2854  0.0545 -0.5023
  765MPD2    C411349   0.857   0.553  16.207 -0.0332 -0.8039  0.1522
  765MPD2    C511350   0.788   0.624  16.294  0.2680  0.0268 -0.9033
  765MPD2     H11351   0.705   0.635  15.921  1.0644  0.3595  0.5065
  765MPD2    H111352   0.941   0.491  16.237 -2.0141 -1.9000  3.3865
  765MPD2    H211353   0.633   0.751  16.325 -0.6227  1.2519 -1.7382
  765MPD2    H311354   0.805   0.613  16.400  1.1306  1.1100 -0.9188
  765MPD2     N11355   0.912   0.504  15.977 -0.2351 -0.6231  0.5878
  765MPD2    H511356   0.883   0.519  15.881  1.3286 -1.2567  0.0103
  765MPD2    N111357   0.534   0.785  16.084  0.1330  0.1327 -0.7547
  765MPD2    H711358   0.483   0.832  16.158  1.1469  1.6386 -1.0112
  766MPD2     C11359   0.055   0.695  15.483  0.5294 -0.5537  0.4859
  766MPD2    C111360   0.185   0.723  15.522 -0.1674 -0.0563 -0.6861
  766MPD2    C211361   0.293   0.660  15.457  0.0043 -0.1346  0.0871
  766MPD2    C311362   0.270   0.593  15.338  0.3493 -0.5395  0.3541
  766MPD2    C411363   0.144   0.581  15.294 -0.1384 -0.2020  0.0950
  766MPD2    C511364   0.038   0.634  15.362 -0.4460  1.2208 -0.1676
  766MPD2     H11365   0.392   0.688  15.492 -0.3827  0.4337  0.7226
  766MPD2    H111366   0.124   0.523  15.205 -4.0559  0.0133  0.8495
  766MPD2    H211367   4.700   0.718  15.540  0.9803 -0.8004  1.2972
  766MPD2    H311368   4.674   0.610  15.324  0.3033 -2.0532 -0.1041
  766MPD2     N11369   0.377   0.540  15.266 -0.3229 -0.0258 -0.0958
  766MPD2    H511370   0.355   0.486  15.183  1.8739 -2.2918  0.8228
  766MPD2    N111371   0.212   0.806  15.636 -0.2759 -0.0099 -0.2156
  766MPD2    H711372   0.308   0.803  15.671 -0.0721 -0.9863 -0.8683
  767MPD2     C11373   4.477   0.998  14.927  0.3983  0.0413 -0.6224
  767MPD2    C111374   4.613   1.011  14.952 -0.0449 -1.8847  0.9856
  767MPD2    C211375   4.696   0.979  14.853  0.0035 -0.2245  0.2744
  767MPD2    C311376   4.654   0.927  14.728 -0.2358 -0.0066 -0.1828
  767MPD2    C411377   4.519   0.934  14.701 -0.2910  0.0051  0.1219
  767MPD2    C511378   4.433   0.965  14.801 -0.9274 -0.2663  0.4106
  767MPD2     H11379   0.068   0.980  14.876  0.3098 -0.8724 -1.0966
  767MPD2    H111380   4.474   0.922  14.603  2.5405 -1.7234 -0.9548
  767MPD2    H211381   4.404   1.015  15.006  0.4867 -3.0031  0.0966
  767MPD2    H311382   4.327   0.969  14.777 -0.3108 -0.6716 -2.3648
  767MPD2     N11383   0.014   0.881  14.639  0.0295  0.6260 -0.6898
  767MPD2    H511384   0.113   0.890  14.659 -0.1938 -0.9505  1.1632
  767MPD2    N111385   4.659   1.058  15.079  0.4517  0.3099 -0.1846
  767MPD2    H711386   4.587   1.083  15.145 -0.3201  0.0588 -0.9339
  768MPD2     C11387   0.452   4.185  10.329 -0.3727  0.1257  0.8190
  768MPD2    C111388   0.428   4.102  10.433 -0.0373 -0.4618  0.4542
  768MPD2    C211389   0.535   4.035  10.491 -0.3414 -0.4873  0.0681
  768MPD2    C311390   0.662   4.035  10.436 -0.5175 -0.0460 -0.3468
  768MPD2    C411391   0.684   4.123  10.326  0.4449  0.3348  0.0442
  768MPD2    C511392   0.579   4.195  10.279 -0.2296  0.0663 -0.4984
  768MPD2     H11393   0.514   3.963  10.569 -2.1377  1.8470  1.7104
  768MPD2    H111394   0.780   4.117  10.276  0.7953 -1.5506  0.9356
  768MPD2    H211395   0.374   4.241  10.281  1.2678  1.6130 -0.1195
  768MPD2    H311396   0.589   4.265  10.196 -2.8443 -0.7721 -1.5348
  768MPD2     N11397   0.773   3.951  10.493  0.5090 -0.1785  0.4492
  768MPD2    H511398   0.857   3.942  10.438 -0.2083 -0.3703 -0.6247
  768MPD2    N111399   0.313   4.091  10.507  0.0651  0.1887  0.5783
  768MPD2    H711400   0.323   4.042  10.596 -1.1105 -0.2472  0.4757
  769MPD2     C11401   1.895   1.844  14.982 -0.2792  0.6916 -0.2494
  769MPD2    C111402   1.765   1.874  15.036  0.2921 -0.0386  0.6244
  769MPD2    C211403   1.751   1.993  15.114  0.0618  0.2389 -0.0695
  769MPD2    C311404   1.857   2.071  15.146  0.0493  0.1341 -0.9174
  769MPD2    C411405   1.983   2.040  15.090  0.4664 -0.1439 -0.2484
  769MPD2    C511406   2.001   1.932  15.005  0.0100  0.0915  0.1959
  769MPD2     H11407   1.652   2.025  15.145 -1.2256 -0.9996 -2.9193
  769MPD2    H111408   2.065   2.110  15.104 -0.1379  0.4569  0.2703
  769MPD2    H211409   1.907   1.753  14.924 -3.2157  0.0658  0.1272
  769MPD2    H311410   2.096   1.911  14.958  0.7611  1.0309  1.2898
  769MPD2     N11411   1.837   2.171  15.241 -0.4875  0.2420 -0.1936
  769MPD2    H511412   1.744   2.167  15.283 -0.7538  1.6500 -0.6604
  769MPD2    N111413   1.655   1.787  15.012  0.1297 -0.1970 -0.6750
  769MPD2    H711414   1.682   1.704  14.960 -0.6608 -0.7133 -0.2592
  770MPD2     C11415   0.712   1.237  15.117  0.0726 -0.5582  0.4125
  770MPD2    C111416   0.752   1.271  14.991 -0.1913 -0.6864  0.4959
  770MPD2    C211417   0.857   1.362  14.978 -0.6521  0.8141 -1.1762
  770MPD2    C311418   0.926   1.415  15.080  0.1402  0.0222 -0.2898
  770MPD2    C411419   0.875   1.388  15.204  0.3389  0.1264 -0.7238
  770MPD2    C511420   0.768   1.300  15.224  0.0565  1.4622 -0.2219
  770MPD2     H11421   0.888   1.394  14.879 -3.2249 -0.0222 -2.2716
  770MPD2    H111422   0.914   1.442  15.289 -0.2909 -0.7564  0.1270
  770MPD2    H211423   0.634   1.166  15.141  0.4456 -1.3339 -0.6809
  770MPD2    H311424   0.731   1.279  15.323  0.4203 -1.2613 -0.6603
  770MPD2     N11425   1.031   1.503  15.048 -0.3725 -0.0556 -0.2630
  770MPD2    H511426   1.051   1.508  14.948 -1.0481  2.7330 -0.2520
  770MPD2    N111427   0.694   1.202  14.881 -0.1359 -0.7205 -0.3497
  770MPD2    H711428   0.639   1.124  14.914 -1.8248  1.1926  1.3662
  771MPD2     C11429   3.001   0.109  13.914 -0.5217  0.1619 -0.0836
  771MPD2    C111430   2.908   0.151  13.825  0.1751  0.0881 -0.3219
  771MPD2    C211431   2.799   0.071  13.801 -0.6799 -0.2223  0.3493
  771MPD2    C311432   2.789   4.673  13.855 -0.1754  0.1519 -0.3758
  771MPD2    C411433   2.896   4.622  13.928 -0.0125 -0.1466  0.4816
  771MPD2    C511434   2.995   4.714  13.957 -0.3337  0.1810  0.9030
  771MPD2     H11435   2.715   0.105  13.741 -1.9160 -0.0975  2.1525
  771MPD2    H111436   2.901   4.520  13.964  0.0419  0.1799  1.4067
  771MPD2    H211437   3.082   0.169  13.954 -0.6285 -0.1815  0.6561
  771MPD2    H311438   3.069   4.686  14.031  0.3856 -2.1037 -0.6570
  771MPD2     N11439   2.673   4.595  13.824  0.5993  0.4452  0.1705
  771MPD2    H511440   2.603   4.646  13.769 -0.6625 -0.6341  0.7623
  771MPD2    N111441   2.913   0.274  13.764  0.2739 -0.0891 -0.5330
  771MPD2    H711442   2.832   0.303  13.709 -2.4232 -0.4567  3.2468
  772MPD2     C11443   2.431   0.786  13.522 -0.2913  0.6918  0.9109
  772MPD2    C111444   2.471   0.659  13.568 -0.8572 -0.5484  0.6197
  772MPD2    C211445   2.370   0.566  13.576 -0.3577  0.3832 -0.7017
  772MPD2    C311446   2.256   0.589  13.495 -0.2105 -0.4272  0.6198
  772MPD2    C411447   2.226   0.710  13.441 -0.2413 -0.0083  0.0804
  772MPD2    C511448   2.312   0.807  13.452  0.0098 -0.4486  0.2101
  772MPD2     H11449   2.392   0.470  13.619 -0.2196 -0.1878 -2.0400
  772MPD2    H111450   2.132   0.733  13.392 -0.9001 -1.7084  0.5491
  772MPD2    H211451   2.505   0.863  13.503  2.7420 -2.2503  0.9328
  772MPD2    H311452   2.304   0.898  13.392  0.5928  0.4316  1.4632
  772MPD2     N11453   2.141   0.505  13.490  0.4727  0.0742  0.1722
  772MPD2    H511454   2.059   0.543  13.445 -0.0858 -2.9515 -1.4172
  772MPD2    N111455   2.600   0.631  13.615 -0.0405  0.0891  0.4945
  772MPD2    H711456   2.629   0.537  13.639 -0.4909 -0.9397 -3.0522
  773MPD2     C11457   1.516   1.406   0.277 -0.4593  0.5594  0.2229
  773MPD2    C111458   1.457   1.312   0.198  0.1049 -0.6689  0.0804
  773MPD2    C211459   1.529   1.196   0.170 -0.2776  0.4699  0.4516
  773MPD2    C311460   1.652   1.167   0.226 -0.5328 -0.2758 -0.6791
  773MPD2    C411461   1.707   1.266   0.301  0.0504 -0.0904 -0.3781
  773MPD2    C511462   1.641   1.384   0.333  0.1870  0.0427 -0.1578
  773MPD2     H11463   1.487   1.124   0.100 -0.0871  2.0129 -1.2522
  773MPD2    H111464   1.799   1.245   0.354  0.7628  0.2045 -1.5269
  773MPD2    H211465   1.464   1.496   0.307  0.1508  0.6220  1.0876
  773MPD2    H311466   1.678   1.458   0.402  2.8116 -0.5107 -0.9603
  773MPD2     N11467   1.720   1.046   0.196  0.0224  0.3161  0.1545
  773MPD2    H511468   1.668   0.978   0.141 -0.2862  2.3884 -2.1358
  773MPD2    N111469   1.335   1.327   0.128  0.2676  0.4078 -0.1986
  773MPD2    H711470   1.315   1.254   0.060  3.2726 -1.2887  0.7151
  774MPD2     C11471   0.802   0.253  13.131 -0.5296 -0.6417 -0.2205
  774MPD2    C111472   0.813   0.298  13.259  0.2019 -0.0473 -0.8967
  774MPD2    C211473   0.842   0.426  13.281  0.5945 -0.6451 -0.4729
  774MPD2    C311474   0.869   0.509  13.178 -0.1002  0.0526 -0.1025
  774MPD2    C411475   0.840   0.468  13.052  0.0455 -0.4171  0.1304
  774MPD2    C511476   0.812   0.335  13.025 -0.4214  0.0814  0.5328
  774MPD2     H11477   0.856   0.461  13.382  0.6487  1.7160 -1.2927
  774MPD2    H111478   0.859   0.530  12.965 -0.1017 -0.3597  0.1388
  774MPD2    H211479   0.776   0.150  13.109 -0.3289  0.0622 -3.7471
  774MPD2    H311480   0.797   0.298  12.924 -2.0259 -1.3187  1.2760
  774MPD2     N11481   0.920   0.636  13.207  0.0340  0.3008  0.0352
  774MPD2    H511482   0.932   0.655  13.306  1.8670 -2.4919  0.3268
  774MPD2    N111483   0.815   0.200  13.364  0.1945 -0.2785  0.2164
  774MPD2    H711484   0.808   0.102  13.340  0.4614  0.0284 -1.1421
  775MPD2     C11485   2.071   2.100  15.563 -0.5807 -0.5820  0.3132
  775MPD2    C111486   2.078   2.199  15.656 -1.0094 -0.9153 -0.2716
  775MPD2    C211487   2.158   2.312  15.628  1.1300  1.1887 -0.3900
  775MPD2    C311488   2.238   2.319  15.507  0.5153  0.0018  0.3290
  775MPD2    C411489   2.222   2.220  15.418  0.0126 -1.0123 -0.6109
  775MPD2    C511490   2.149   2.109  15.449 -0.4557  0.0710 -0.3881
  775MPD2     H11491   2.154   2.386  15.707  0.8018 -1.7897  2.3972
  775MPD2    H111492   2.270   2.218  15.321  3.2728 -0.0734  0.9836
  775MPD2    H211493   2.006   2.014  15.571 -1.0628 -0.5013 -2.9750
  775MPD2    H311494   2.130   2.025  15.383  1.2841 -0.7134  0.1147
  775MPD2     N11495   2.310   2.434  15.471 -0.0120  0.1121  0.0935
  775MPD2    H511496   2.363   2.431  15.385 -0.0027 -0.0898  0.1067
  775MPD2    N111497   1.995   2.188  15.777 -0.6002  0.0362 -0.2539
  775MPD2    H711498   1.937   2.104  15.775 -1.6954  0.7957 -0.2213
  776MPD2     C11499   0.571   2.522  11.633  0.1569 -0.1077  0.4293
  776MPD2    C111500   0.706   2.484  11.624  0.3021  0.3783 -0.7610
  776MPD2    C211501   0.777   2.528  11.516 -0.0045 -0.2901  0.2817
  776MPD2    C311502   0.729   2.622  11.426 -0.0228  0.1578  0.1086
  776MPD2    C411503   0.594   2.664  11.443  0.0609  0.1817  0.3265
  776MPD2    C511504   0.520   2.617  11.552 -0.3901  0.2666 -0.2577
  776MPD2     H11505   0.871   2.481  11.488 -2.0075 -2.3313 -2.9259
  776MPD2    H111506   0.554   2.739  11.376 -1.3789  0.0691  1.0496
  776MPD2    H211507   0.504   2.494  11.713 -2.1438  0.8040 -1.1752
  776MPD2    H311508   0.415   2.638  11.566 -0.4222 -0.2661  0.2999
  776MPD2     N11509   0.799   2.679  11.317 -0.4344 -0.9828 -0.5786
  776MPD2    H511510   0.751   2.748  11.260 -1.6731 -1.2527  0.1228
  776MPD2    N111511   0.747   2.375  11.708  0.1119 -0.1189  0.4861
  776MPD2    H711512   0.673   2.325  11.756  0.1242 -0.7894 -0.2023
  777MPD2     C11513   1.683   0.250   0.645  0.0392 -0.3253  0.2279
  777MPD2    C111514   1.633   0.144   0.719 -0.1012  0.0071  0.0031
  777MPD2    C211515   1.621   0.025   0.660 -0.5246  0.2194 -0.0557
  777MPD2    C311516   1.664   0.007   0.529  0.7558 -0.1196  0.6996
  777MPD2    C411517   1.699   0.117   0.458 -0.4358 -0.1961 -0.2723
  777MPD2    C511518   1.706   0.242   0.513  0.5432 -0.0707  0.3244
  777MPD2     H11519   1.596   4.674   0.721 -0.1801 -0.8710 -1.4497
  777MPD2    H111520   1.718   0.107   0.351  0.7753  1.3655 -0.2041
  777MPD2    H211521   1.699   0.343   0.697 -1.2538  0.5162 -0.8568
  777MPD2    H311522   1.737   0.332   0.461  0.8412 -0.9521 -1.0225
  777MPD2     N11523   1.670   4.617   0.462  0.4219  0.0671  0.0197
  777MPD2    H511524   1.710   4.606   0.369 -2.2734  0.3922 -1.1872
  777MPD2    N111525   1.596   0.164   0.852  0.7869 -0.0379 -0.2515
  777MPD2    H711526   1.573   0.259   0.877  0.3799 -0.2885  0.3454
  778MPD2     C11527   2.768   0.519  14.999 -0.1720  0.0408  0.2638
  778MPD2    C111528   2.768   0.440  14.884  0.3276 -0.2081 -0.5104
  778MPD2    C211529   2.807   0.504  14.769 -0.6576 -0.4288  0.3575
  778MPD2    C311530   2.873   0.622  14.773 -0.5108  0.7072 -0.6074
  778MPD2    C411531   2.875   0.697  14.886 -0.6283  0.2710 -0.6943
  778MPD2    C511532   2.818   0.643  14.998  0.0909  0.2679  0.1193
  778MPD2     H11533   2.801   0.453  14.673 -2.2023 -0.4533  0.4710
  778MPD2    H111534   2.910   0.800  14.890  1.2668 -0.3905 -0.1963
  778MPD2    H211535   2.725   0.490  15.095  1.1990 -0.9251  0.5865
  778MPD2    H311536   2.809   0.708  15.084 -0.5619  2.1040 -1.3158
  778MPD2     N11537   2.923   0.670  14.650 -0.7163  0.2586 -0.0737
  778MPD2    H511538   2.925   0.610  14.569  1.1635 -0.1528  0.2740
  778MPD2    N111539   2.700   0.311  14.874 -0.6029  1.1250  0.2818
  778MPD2    H711540   2.695   0.267  14.783  1.7907 -0.0173  0.6944
  779MPD2     C11541   2.065   3.748  14.187 -0.7092 -0.6631  0.2325
  779MPD2    C111542   2.197   3.754  14.143 -0.2500  0.2559 -0.3571
  779MPD2    C211543   2.265   3.868  14.171 -0.6959  0.3219  0.1579
  779MPD2    C311544   2.212   3.989  14.218 -0.0350  0.1261 -0.2580
  779MPD2    C411545   2.081   3.988  14.242  0.1044 -0.1142 -0.8798
  779MPD2    C511546   2.013   3.865  14.236 -0.4842  0.2250 -0.0824
  779MPD2     H11547   2.368   3.876  14.137 -0.1948 -3.7375  0.6743
  779MPD2    H111548   2.027   4.074  14.281  0.4037 -0.4206  0.2168
  779MPD2    H211549   1.992   3.669  14.170 -1.3384  0.0967 -0.6153
  779MPD2    H311550   1.907   3.871  14.257 -0.5180 -1.2965  0.1340
  779MPD2     N11551   2.285   4.111  14.214  0.2807 -0.4041 -0.5395
  779MPD2    H511552   2.385   4.110  14.202  0.5138 -0.5503  1.2973
  779MPD2    N111553   2.268   3.648  14.093 -0.4581 -0.2545  0.0079
  779MPD2    H711554   2.367   3.663  14.080 -0.0201 -1.6421  1.8740
  780MPD2     C11555   1.934   3.166   1.123  0.1471  0.4989  0.0755
  780MPD2    C111556   1.818   3.202   1.054  0.3776  0.3733  0.0978
  780MPD2    C211557   1.831   3.304   0.959 -0.2683 -0.3436  0.9679
  780MPD2    C311558   1.949   3.375   0.948 -0.6890 -0.0668  0.2475
  780MPD2    C411559   2.058   3.348   1.031  0.7891  0.2799  0.4992
  780MPD2    C511560   2.052   3.236   1.111 -0.7290  0.4091 -0.0379
  780MPD2     H11561   1.753   3.342   0.895 -1.2778 -3.3076  0.4160
  780MPD2    H111562   2.154   3.398   1.029  1.0967 -0.3212  0.0809
  780MPD2    H211563   1.939   3.086   1.196 -2.1377  2.2735  2.1991
  780MPD2    H311564   2.138   3.212   1.172 -1.1832  0.6441  0.7011
  780MPD2     N11565   1.970   3.469   0.843  0.4199 -0.0740  0.0480
  780MPD2    H511566   1.894   3.468   0.776 -0.7698  0.3431  1.3914
  780MPD2    N111567   1.695   3.123   1.068 -0.7788 -0.2830 -0.7788
  780MPD2    H711568   1.710   3.059   1.145  1.7917 -1.5541 -2.3343
  781MPD2     C11569   3.301   0.586  12.810  0.0084  0.1797 -0.2621
  781MPD2    C111570   3.364   0.642  12.700  0.6466 -0.0306  0.0309
  781MPD2    C211571   3.289   0.705  12.607  0.3262  0.2212  0.8035
  781MPD2    C311572   3.159   0.720  12.621  0.2591  0.2262  0.3018
  781MPD2    C411573   3.102   0.673  12.741 -0.1703 -0.1265 -0.3819
  781MPD2    C511574   3.167   0.593  12.830  0.0979  0.2812  0.0446
  781MPD2     H11575   3.351   0.750  12.530  1.2683 -1.0031  0.8488
  781MPD2    H111576   2.996   0.689  12.761  0.3954  1.4362  1.3616
  781MPD2    H211577   3.362   0.555  12.895 -1.9554  0.3096  1.1955
  781MPD2    H311578   3.123   0.563  12.924 -1.4260 -2.9099 -1.6782
  781MPD2     N11579   3.069   0.786  12.531 -0.2328  0.9658  0.3055
  781MPD2    H511580   2.972   0.768  12.555  0.3469  0.7534  2.5346
  781MPD2    N111581   3.501   0.618  12.664  0.7116 -0.1139 -1.1544
  781MPD2    H711582   3.529   0.663  12.577  2.5259 -1.6577 -1.3521
  782MPD2     C11583   2.015   1.189  10.182 -1.1423  0.1931 -0.8870
  782MPD2    C111584   2.025   1.196  10.316  0.3471 -0.5382  0.1514
  782MPD2    C211585   2.037   1.319  10.378  0.4162 -0.1354 -0.1681
  782MPD2    C311586   2.034   1.436  10.302  0.7020 -0.2665 -0.1290
  782MPD2    C411587   2.026   1.428  10.164 -0.0196 -0.2618  0.8550
  782MPD2    C511588   2.019   1.302  10.107 -0.1348  0.1186 -0.1081
  782MPD2     H11589   2.028   1.331  10.485 -1.5236 -1.7691 -0.1545
  782MPD2    H111590   2.007   1.515  10.102  1.6999 -0.2681  0.3166
  782MPD2    H211591   1.995   1.096  10.129 -0.7663  0.3409 -1.2887
  782MPD2    H311592   2.015   1.304   9.999 -0.1001  1.0339 -0.0893
  782MPD2     N11593   2.023   1.564  10.364 -0.7660  0.4272 -0.3205
  782MPD2    H511594   2.022   1.569  10.466 -1.8475 -0.1265 -0.3038
  782MPD2    N111595   2.024   1.080  10.402  0.5597 -0.3427 -0.1251
  782MPD2    H711596   2.044   1.097  10.500  0.9609  0.5074 -0.3497
  783MPD2     C11597   1.112   1.118  10.691  0.1768  0.0173  0.5793
  783MPD2    C111598   1.195   1.163  10.791 -0.1045 -0.9745  0.0180
  783MPD2    C211599   1.329   1.121  10.789  0.1315 -0.1800 -0.2082
  783MPD2    C311600   1.380   1.052  10.683 -0.2626  0.1389  0.1862
  783MPD2    C411601   1.298   1.019  10.576  0.1600  0.0017 -0.2106
  783MPD2    C511602   1.166   1.049  10.585  0.0567 -0.7288 -0.2171
  783MPD2     H11603   1.392   1.156  10.870 -0.1887 -0.4981  0.1845
  783MPD2    H111604   1.323   0.956  10.491 -1.8944  0.0576 -0.8748
  783MPD2    H211605   1.006   1.133  10.676  0.2658 -1.3793 -1.4048
  783MPD2    H311606   1.108   1.018  10.499 -2.5896  2.2918  0.4755
  783MPD2     N11607   1.520   1.026  10.681  0.4920  0.3415 -0.3778
  783MPD2    H511608   1.567   1.073  10.757  2.0615 -2.6145  0.4921
  783MPD2    N111609   1.136   1.232  10.899 -0.2643  0.2141 -0.5818
  783MPD2    H711610   1.035   1.223  10.893 -0.2380 -0.6970  0.2517
  784MPD2     C11611   4.014   2.179   0.931 -0.6538 -0.3432  0.0607
  784MPD2    C111612   4.033   2.315   0.944 -0.0638  0.0391  0.0415
  784MPD2    C211613   3.937   2.400   0.888  0.1953  0.0814  0.9136
  784MPD2    C311614   3.822   2.352   0.827  0.2976  0.1636  0.0996
  784MPD2    C411615   3.811   2.221   0.804  0.6451 -0.2425 -0.7213
  784MPD2    C511616   3.901   2.135   0.861 -0.6918 -0.5185 -0.5681
  784MPD2     H11617   3.953   2.505   0.912  0.1258  0.0874  0.9349
  784MPD2    H111618   3.726   2.175   0.755 -0.2269  1.6037 -0.9464
  784MPD2    H211619   4.072   2.095   0.968  0.2112  0.8769  1.4807
  784MPD2    H311620   3.895   2.028   0.847 -1.4469 -0.4266 -0.9112
  784MPD2     N11621   3.732   2.446   0.769  0.3795  0.1027 -0.0896
  784MPD2    H511622   3.757   2.543   0.787 -0.4183 -0.1515  2.3577
  784MPD2    N111623   4.141   2.370   1.017  0.6016  0.8099  0.1058
  784MPD2    H711624   4.137   2.470   1.032  0.4986  0.8166  0.0288
  785MPD2     C11625   3.120   0.891  10.157 -0.4505  0.1057  0.0684
  785MPD2    C111626   3.211   0.980  10.207 -0.5772  0.2293 -0.5209
  785MPD2    C211627   3.231   1.098  10.138  0.4469  0.3220  0.4055
  785MPD2    C311628   3.173   1.116  10.009  0.3802 -0.0999  0.3571
  785MPD2    C411629   3.085   1.021   9.960 -0.1776  0.5446  0.0930
  785MPD2    C511630   3.054   0.917  10.041  0.8891 -0.4226  0.6575
  785MPD2     H11631   3.298   1.170  10.184  0.5515  0.4177  0.1039
  785MPD2    H111632   3.039   1.031   9.862  0.5923  2.3853 -0.0793
  785MPD2    H211633   3.091   0.798  10.205  0.6509 -0.4104 -0.2527
  785MPD2    H311634   2.979   0.845  10.013 -2.1647  2.6599  0.8210
  785MPD2     N11635   3.208   1.234   9.942  0.4481  0.2691 -0.3153
  785MPD2    H511636   3.254   1.297  10.008  0.8935 -0.1394 -0.2406
  785MPD2    N111637   3.285   0.966  10.330  0.2240  0.5417 -0.0036
  785MPD2    H711638   3.343   1.046  10.352 -0.6957  1.3606 -0.5634
  786MPD2     C11639   2.629   3.124  14.745  0.2659  0.7328 -0.7032
  786MPD2    C111640   2.761   3.133  14.710 -1.2149  1.3946 -0.2081
  786MPD2    C211641   2.845   3.178  14.806  0.1720  0.0509 -0.2108
  786MPD2    C311642   2.807   3.197  14.939  0.2203 -0.5130  0.2225
  786MPD2    C411643   2.675   3.181  14.972  0.1430  0.2861 -0.0670
  786MPD2    C511644   2.587   3.147  14.873  0.2221 -0.3375  0.1235
  786MPD2     H11645   2.946   3.201  14.774 -0.2049 -0.9216 -2.0921
  786MPD2    H111646   2.645   3.201  15.074  0.4466 -1.0249  0.2822
  786MPD2    H211647   2.557   3.088  14.673  0.7927  1.4618 -1.5893
  786MPD2    H311648   2.479   3.133  14.878  0.3229 -1.9925 -2.3417
  786MPD2     N11649   2.884   3.247  15.047 -0.6961  0.7823  0.4694
  786MPD2    H511650   2.858   3.230  15.143 -0.2022  1.0496  0.6548
  786MPD2    N111651   2.816   3.080  14.590 -0.0931 -0.0052  0.1115
  786MPD2    H711652   2.917   3.082  14.586 -0.0189 -0.5053  1.5006
  787MPD2     C11653   3.257   2.725  14.722  0.1199 -0.1123 -0.3326
  787MPD2    C111654   3.219   2.680  14.598  0.7433 -0.3779 -0.5054
  787MPD2    C211655   3.248   2.554  14.548  0.4002  0.0886  0.4838
  787MPD2    C311656   3.310   2.468  14.637  0.5442 -0.0209  0.4301
  787MPD2    C411657   3.350   2.510  14.763 -0.8601  0.4564  0.5395
  787MPD2    C511658   3.320   2.635  14.806  0.4143 -0.3095 -0.6444
  787MPD2     H11659   3.217   2.519  14.451 -1.5191 -1.5814  1.6856
  787MPD2    H111660   3.414   2.449  14.826  0.0867  0.0045 -0.8647
  787MPD2    H211661   3.234   2.822  14.763  0.0276  0.1792 -1.0767
  787MPD2    H311662   3.342   2.660  14.909 -1.2350 -1.4778 -0.0057
  787MPD2     N11663   3.337   2.341  14.585  0.3707 -0.2913  0.2550
  787MPD2    H511664   3.306   2.321  14.490 -0.4132  2.6765 -0.0950
  787MPD2    N111665   3.139   2.765  14.519  0.1634 -0.4585  0.1267
  787MPD2    H711666   3.119   2.857  14.557  0.1978 -0.7223  0.7886
  788MPD2     C11667   0.008   1.802   0.601 -0.3077 -0.2782  0.6304
  788MPD2    C111668   4.663   1.692   0.611 -0.5625  0.0829  0.2515
  788MPD2    C211669   4.534   1.694   0.557  0.0431  0.2652  0.4853
  788MPD2    C311670   4.496   1.799   0.473 -0.1033 -0.4088  0.2532
  788MPD2    C411671   4.576   1.904   0.464 -0.1316  0.4053  0.2587
  788MPD2    C511672   4.697   1.911   0.540 -0.8489  0.5468  0.3391
  788MPD2     H11673   4.460   1.621   0.589 -1.8269  2.0397  0.2206
  788MPD2    H111674   4.554   1.993   0.406  1.6752  0.5813 -0.1528
  788MPD2    H211675   0.102   1.801   0.655  0.6942 -1.6740 -1.1503
  788MPD2    H311676   0.029   1.996   0.527  1.6503 -1.5593 -0.6844
  788MPD2     N11677   4.373   1.807   0.409  0.2943 -0.6431  0.1938
  788MPD2    H511678   4.365   1.889   0.350 -1.2042 -1.0704 -0.1958
  788MPD2    N111679   4.718   1.570   0.664 -0.5993 -0.2940  1.3916
  788MPD2    H711680   4.652   1.494   0.671  2.8610 -3.5887 -2.1275
  789MPD2     C11681   0.087   0.633  16.754 -0.0780  0.5168  0.1116
  789MPD2    C111682   0.058   0.666  16.628  0.2994 -0.2265  0.4764
  789MPD2    C211683   4.692   0.752  16.600  0.4490  0.3040  0.6058
  789MPD2    C311684   4.617   0.800  16.703  0.2685  0.8550  0.2663
  789MPD2    C411685   4.650   0.777  16.839  0.2966 -0.0739  0.0242
  789MPD2    C511686   0.011   0.688  16.857 -0.4138 -0.1786 -0.5833
  789MPD2     H11687   4.660   0.775  16.499 -0.0991 -1.6002  0.3603
  789MPD2    H111688   4.583   0.811  16.917 -0.8451  1.1240 -1.4820
  789MPD2    H211689   0.165   0.567  16.790  1.6170  2.0599 -0.7403
  789MPD2    H311690   0.039   0.649  16.954 -3.4228 -0.3605  0.2156
  789MPD2     N11691   4.500   0.880  16.684 -0.4202  0.2906 -0.3342
  789MPD2    H511692   4.459   0.909  16.772 -0.8218 -0.2143 -0.3554
  789MPD2    N111693   0.127   0.609  16.517  0.3625  0.6881  0.7382
  789MPD2    H711694   0.110   0.648  16.425  1.6336  0.4613  0.4136
  790MPD2     C11695   1.594   2.366  13.684 -0.0033  0.3311  0.0824
  790MPD2    C111696   1.643   2.250  13.639  0.8163 -0.4850  1.2217
  790MPD2    C211697   1.600   2.205  13.517 -0.8263 -0.1926 -0.3956
  790MPD2    C311698   1.507   2.279  13.444 -0.5711  0.1455  0.0185
  790MPD2    C411699   1.463   2.400  13.491 -0.0449  0.4141 -0.4329
  790MPD2    C511700   1.510   2.437  13.612  0.1567 -0.3157  0.8829
  790MPD2     H11701   1.637   2.109  13.485 -0.5914 -0.5298  0.8940
  790MPD2    H111702   1.390   2.463  13.442 -2.9856 -1.7043  1.1860
  790MPD2    H211703   1.632   2.407  13.776  1.7629 -1.2700  0.0711
  790MPD2    H311704   1.484   2.539  13.638 -0.6181 -0.4104  0.4586
  790MPD2     N11705   1.455   2.231  13.328  0.0301 -0.5371  0.2789
  790MPD2    H511706   1.479   2.134  13.307  1.3180 -0.6605  2.3491
  790MPD2    N111707   1.738   2.180  13.718  0.5071  0.0394 -0.3766
  790MPD2    H711708   1.757   2.211  13.813 -2.3587  2.9159 -0.7344
  791MPD2     C11709   0.883   1.820  13.124  0.0141 -0.2801 -0.1633
  791MPD2    C111710   0.925   1.924  13.048 -0.8165  0.2732  0.5051
  791MPD2    C211711   0.830   1.980  12.963  0.3859  0.0340 -0.0499
  791MPD2    C311712   0.696   1.929  12.963 -0.2096  0.1746 -1.1654
  791MPD2    C411713   0.668   1.820  13.033  0.2441 -0.1016  0.1964
  791MPD2    C511714   0.761   1.766  13.116 -0.3466  0.8443 -0.0449
  791MPD2     H11715   0.860   2.055  12.891  0.7806  0.5775  0.6686
  791MPD2    H111716   0.568   1.778  13.038  0.4055 -0.6579 -1.0243
  791MPD2    H211717   0.957   1.780  13.193 -0.6144 -0.0788  0.6332
  791MPD2    H311718   0.731   1.685  13.182  0.1630  0.1994 -0.5952
  791MPD2     N11719   0.602   1.999  12.881 -0.3281 -0.2605  0.3803
  791MPD2    H511720   0.643   2.064  12.815  0.4105 -0.8322  0.2742
  791MPD2    N111721   1.061   1.967  13.051 -0.1262  0.0470  0.8175
  791MPD2    H711722   1.133   1.931  13.113  0.8241 -0.7252 -0.7313
  792MPD2     C11723   1.090   2.514  10.573 -0.4026 -0.0672  0.6513
  792MPD2    C111724   1.214   2.526  10.621  0.4031 -0.5099  0.3967
  792MPD2    C211725   1.277   2.415  10.668 -0.2074  0.3588  0.1729
  792MPD2    C311726   1.214   2.291  10.658 -0.3529  0.0875  0.2947
  792MPD2    C411727   1.092   2.284  10.608 -0.1144  0.5793  0.0860
  792MPD2    C511728   1.025   2.391  10.571  0.4706  0.5224  0.4654
  792MPD2     H11729   1.376   2.422  10.711  0.4795 -0.4970 -1.2972
  792MPD2    H111730   1.028   2.197  10.602  1.0544 -0.3673  1.5244
  792MPD2    H211731   1.040   2.604  10.540 -0.6198 -0.4759 -0.1292
  792MPD2    H311732   0.921   2.377  10.542 -0.0926  0.4433  2.4710
  792MPD2     N11733   1.270   2.166  10.696  0.1987 -0.4413  0.5370
  792MPD2    H511734   1.211   2.086  10.675  0.5289 -1.0426  1.9234
  792MPD2    N111735   1.272   2.653  10.609  0.2952  0.1124  0.2421
  792MPD2    H711736   1.223   2.719  10.551  1.6134  1.4983  0.7040
  793MPD2     C11737   0.849   1.957  10.149  0.2732  0.3472 -0.0679
  793MPD2    C111738   0.971   1.920  10.098 -0.4880  0.4883 -0.1547
  793MPD2    C211739   1.065   1.880  10.193 -0.0740  0.1091 -0.1713
  793MPD2    C311740   1.041   1.876  10.327  0.2756 -0.0500 -0.2386
  793MPD2    C411741   0.914   1.911  10.371 -0.2775  0.2439 -0.2244
  793MPD2    C511742   0.827   1.960  10.287  0.4343 -0.7589 -0.5953
  793MPD2     H11743   1.165   1.847  10.168  0.1591  1.3570 -0.8663
  793MPD2    H111744   0.884   1.910  10.475  0.3148  0.5164 -0.0515
  793MPD2    H211745   0.755   1.973  10.097 -0.1488 -1.7558  0.0502
  793MPD2    H311746   0.728   1.987  10.322  0.5150  1.2289 -1.8937
  793MPD2     N11747   1.141   1.833  10.415 -0.5513 -0.2695 -0.0885
  793MPD2    H511748   1.232   1.801  10.383  0.1038  1.3855  0.1295
  793MPD2    N111749   1.011   1.910   9.961 -0.0249 -0.6515 -0.2900
  793MPD2    H711750   1.107   1.883   9.945  0.6839  1.2537  0.6968
  794MPD2     C11751   0.921   1.847  17.356 -0.2925  0.4222  0.0471
  794MPD2    C111752   0.966   1.713  17.327  0.9297  0.3477 -0.1777
  794MPD2    C211753   1.008   1.685  17.196 -0.0805 -0.3236 -0.2446
  794MPD2    C311754   0.999   1.773  17.089 -0.2685 -0.3098  0.5704
  794MPD2    C411755   0.957   1.898  17.119 -0.0066  0.1296 -0.0000
  794MPD2    C511756   0.928   1.941  17.251 -0.2445  0.2498  0.0079
  794MPD2     H11757   1.034   1.583  17.170  0.8064 -1.0175  3.4773
  794MPD2    H111758   0.949   1.968  17.037  0.3788 -0.1803 -0.3001
  794MPD2    H211759   0.902   1.880  17.457  0.9586  2.8451 -0.5187
  794MPD2    H311760   0.910   2.048  17.264 -0.6547  0.0252  1.2710
  794MPD2     N11761   1.018   1.739  16.953 -0.2744 -0.1191 -0.1663
  794MPD2    H511762   0.980   1.807  16.887  2.5147 -0.1250 -1.7526
  794MPD2    N111763   0.975   1.605  17.423 -0.4737  0.1570 -0.0810
  794MPD2    H711764   1.033   1.526  17.399 -0.9608 -0.4927  0.8879
  795MPD2     C11765   3.601   4.223  13.660  0.4361  0.5724 -0.4053
  795MPD2    C111766   3.556   4.138  13.565 -0.6295  0.2621 -0.4996
  795MPD2    C211767   3.625   4.022  13.542 -0.6111  0.2839  0.5458
  795MPD2    C311768   3.733   3.976  13.615 -0.4768  0.7708 -0.0728
  795MPD2    C411769   3.773   4.061  13.718 -0.2228 -0.5730  0.5026
  795MPD2    C511770   3.700   4.176  13.746  0.2554 -0.4503 -0.1326
  795MPD2     H11771   3.571   3.953  13.479 -1.3102  2.5623 -1.3748
  795MPD2    H111772   3.864   4.045  13.774 -1.0587  1.0569  2.2992
  795MPD2    H211773   3.552   4.316  13.684 -1.4672 -1.2797  2.9258
  795MPD2    H311774   3.723   4.236  13.833 -0.2363 -0.1450 -0.2140
  795MPD2     N11775   3.810   3.862  13.577  0.3495  0.4577  0.2641
  795MPD2    H511776   3.898   3.855  13.628 -0.7471 -0.7197  2.0091
  795MPD2    N111777   3.433   4.152  13.496 -0.6132 -0.4593 -0.5056
  795MPD2    H711778   3.403   4.085  13.425 -0.0177 -0.9250 -0.3179
  796MPD2     C11779   3.358   0.793  15.498  0.0599 -0.3086  0.2082
  796MPD2    C111780   3.355   0.834  15.633  0.2883 -0.1645 -0.2144
  796MPD2    C211781   3.298   0.953  15.657  0.0253  0.3845  0.0273
  796MPD2    C311782   3.231   1.023  15.562 -0.4952 -1.0917 -0.6719
  796MPD2    C411783   3.226   0.978  15.436  0.1679 -0.6751  0.2769
  796MPD2    C511784   3.300   0.869  15.400  0.5368  0.2857 -0.2643
  796MPD2     H11785   3.271   0.984  15.758 -0.2423  1.1737 -0.2842
  796MPD2    H111786   3.168   1.031  15.361  2.6224  3.8678  1.6376
  796MPD2    H211787   3.415   0.706  15.468  1.3610  0.5970  0.0014
  796MPD2    H311788   3.299   0.837  15.296  0.9462  0.4142 -0.3073
  796MPD2     N11789   3.181   1.147  15.601 -0.3464  0.1310 -0.7811
  796MPD2    H511790   3.202   1.175  15.696  1.3330  1.1410 -1.4497
  796MPD2    N111791   3.423   0.749  15.723  0.2514 -0.3808 -0.4141
  796MPD2    H711792   3.464   0.668  15.679  1.5048  0.1304 -0.1954
  797MPD2     C11793   4.181   0.517  17.263 -0.0500 -0.5396  0.0259
  797MPD2    C111794   4.068   0.572  17.314 -0.0246 -0.1334 -0.1037
  797MPD2    C211795   3.958   0.585  17.233  0.2392  0.4222  0.1864
  797MPD2    C311796   3.966   0.562  17.093  0.9482 -0.6258  0.0937
  797MPD2    C411797   4.087   0.519  17.036 -0.1947  0.4901  0.0903
  797MPD2    C511798   4.188   0.501  17.126  0.2406 -0.0415 -0.1757
  797MPD2     H11799   3.869   0.621  17.283 -0.7753  1.2679 -2.2576
  797MPD2    H111800   4.098   0.521  16.928  2.7929 -3.0902  0.3568
  797MPD2    H211801   4.271   0.509  17.323  0.4844 -1.2899 -0.8833
  797MPD2    H311802   4.287   0.492  17.083  0.7130 -1.0077  1.1163
  797MPD2     N11803   3.857   0.591  17.007  0.1158  0.0857 -0.1765
  797MPD2    H511804   3.874   0.597  16.907 -1.0657 -1.8231 -0.4953
  797MPD2    N111805   4.043   0.620  17.444 -0.3661 -0.4553 -0.7307
  797MPD2    H711806   3.948   0.652  17.456  0.2010  0.4674  1.4120
  798MPD2     C11807   3.513   1.194  17.464 -0.5975 -0.5256 -0.2082
  798MPD2    C111808   3.540   1.068  17.420  0.2682 -0.7210  0.2007
  798MPD2    C211809   3.630   0.987  17.487  0.2299 -0.2064 -0.6226
  798MPD2    C311810   3.680   1.028  17.600 -0.1675  0.4087 -0.4513
  798MPD2    C411811   3.657   1.153  17.654  0.3630 -0.0249  0.1895
  798MPD2    C511812   3.576   1.235  17.579 -0.0182  0.1074 -1.1416
  798MPD2     H11813   3.666   0.892  17.448 -1.5743 -0.9377 -0.5193
  798MPD2    H111814   3.701   1.190   0.008  0.3235 -0.7532  0.4996
  798MPD2    H211815   3.452   1.268  17.412  1.9362  0.2488 -2.0582
  798MPD2    H311816   3.551   1.336  17.612 -0.0166 -1.4222  3.5838
  798MPD2     N11817   3.770   0.936  17.659  0.3070 -0.0286 -0.5604
  798MPD2    H511818   3.776   0.844  17.616 -3.1868 -0.1065 -0.8807
  798MPD2    N111819   3.498   1.035  17.288 -0.1399 -0.5413  0.8439
  798MPD2    H711820   3.456   1.106  17.229  0.5075 -1.5562 -0.8234
  799MPD2     C11821   3.029   2.140  14.734  0.6034 -0.2513  0.4235
  799MPD2    C111822   3.046   2.025  14.661  0.2046  0.0756  0.6915
  799MPD2    C211823   3.032   2.035  14.521 -0.5575 -0.0570  0.4493
  799MPD2    C311824   3.000   2.155  14.466  0.6770 -0.1806 -0.3776
  799MPD2    C411825   2.997   2.272  14.547 -0.5231 -0.1424 -0.2259
  799MPD2    C511826   3.004   2.264  14.680  0.5262  0.3106  0.3426
  799MPD2     H11827   3.046   1.947  14.459 -0.9046  0.7439 -0.7702
  799MPD2    H111828   2.987   2.368  14.498  1.0345  1.1265  1.9341
  799MPD2    H211829   3.016   2.138  14.841  1.4246  0.3572  0.5326
  799MPD2    H311830   2.998   2.349  14.746  2.6897  1.0382 -0.3928
  799MPD2     N11831   2.977   2.171  14.331  0.1057  0.0226 -0.5823
  799MPD2    H511832   2.973   2.267  14.298 -0.5676 -0.1031 -0.8665
  799MPD2    N111833   3.061   1.899  14.724  0.4158 -0.0280 -0.0926
  799MPD2    H711834   3.072   1.819  14.662  1.9726 -0.2118  0.4233
  800MPD2     C11835   3.107   3.188  13.495 -0.6233  0.1668  0.5692
  800MPD2    C111836   3.193   3.140  13.592 -0.1184  0.1459  0.5117
  800MPD2    C211837   3.207   3.007  13.617  0.0862  0.6380  0.2791
  800MPD2    C311838   3.148   2.917  13.538  0.1935  0.1604 -0.2008
  800MPD2    C411839   3.060   2.953  13.438  0.0894 -0.3965  0.5213
  800MPD2    C511840   3.036   3.091  13.425  0.2216  0.9195 -0.1075
  800MPD2     H11841   3.274   2.968  13.692  0.4280  0.8536  0.0811
  800MPD2    H111842   3.011   2.878  13.378 -0.3251 -0.6929  1.2278
  800MPD2    H211843   3.090   3.289  13.461  0.4914  0.0968 -0.1909
  800MPD2    H311844   2.988   3.120  13.332  0.8162  0.1936 -0.6433
  800MPD2     N11845   3.185   2.790  13.566  0.3145 -0.4999  0.0340
  800MPD2    H511846   3.251   2.777  13.641  1.2648 -0.9059 -0.8744
  800MPD2    N111847   3.280   3.234  13.660 -0.1438 -0.3594 -0.1185
  800MPD2    H711848   3.279   3.327  13.619 -1.0012 -0.5860 -0.6160
  801MPD2     C11849   3.437   3.895  13.818 -0.6368 -0.3517  0.2148
  801MPD2    C111850   3.527   3.824  13.897 -0.1318  0.8637 -0.7966
  801MPD2    C211851   3.544   3.850  14.033 -0.2828 -0.7176  0.3369
  801MPD2    C311852   3.488   3.959  14.093 -0.0843  0.3614  0.0995
  801MPD2    C411853   3.422   4.049  14.009 -0.1169  0.6662 -0.5452
  801MPD2    C511854   3.397   4.013  13.878 -0.4785 -0.2134 -0.5649
  801MPD2     H11855   3.608   3.785  14.091 -0.9501  1.6143  3.7263
  801MPD2    H111856   3.390   4.143  14.053 -1.6652 -0.3978  0.6326
  801MPD2    H211857   3.403   3.866  13.719  1.4320 -0.3537 -0.4887
  801MPD2    H311858   3.339   4.085  13.820 -0.7890 -0.0526 -0.0513
  801MPD2     N11859   3.488   3.983  14.233  0.0591 -0.2261 -0.2481
  801MPD2    H511860   3.432   4.061  14.265 -1.1233 -1.1234 -0.1241
  801MPD2    N111861   3.580   3.692  13.860  0.0528  0.1321 -0.1334
  801MPD2    H711862   3.623   3.643  13.936 -2.9369 -2.0180  0.1751
  802MPD2     C11863   3.303   4.387   0.548  0.8782 -0.2427  0.2229
  802MPD2    C111864   3.164   4.346   0.542  0.2866 -0.2180 -0.2056
  802MPD2    C211865   3.117   4.278   0.431  0.3908 -0.5680  0.3314
  802MPD2    C311866   3.200   4.242   0.325 -0.3687 -0.3424 -0.1243
  802MPD2    C411867   3.330   4.284   0.333  0.6675 -0.3163 -0.0864
  802MPD2    C511868   3.381   4.355   0.443 -0.0151 -0.3017 -1.0494
  802MPD2     H11869   3.015   4.241   0.433 -1.3037  4.0415 -1.4384
  802MPD2    H111870   3.393   4.255   0.250 -2.4607 -1.9982 -1.8654
  802MPD2    H211871   3.345   4.452   0.624 -1.8270  0.4215  1.1561
  802MPD2    H311872   3.484   4.387   0.437 -0.3140  0.2461 -3.5163
  802MPD2     N11873   3.142   4.167   0.222 -0.1148  0.5890 -0.6210
  802MPD2    H511874   3.043   4.145   0.226  0.3273 -1.1336  0.7615
  802MPD2    N111875   3.066   4.374   0.645 -0.2056  0.2693 -0.1887
  802MPD2    H711876   2.972   4.337   0.634 -0.7453  1.8256 -0.7517
  803MPD2     C11877   3.868   1.899  11.668  1.5086 -0.1555 -0.1388
  803MPD2    C111878   3.902   2.036  11.666 -0.3064  0.7812  0.2085
  803MPD2    C211879   3.940   2.092  11.785 -0.2595  0.6990  0.5718
  803MPD2    C311880   3.941   2.025  11.908 -0.5865  1.1544 -0.7852
  803MPD2    C411881   3.914   1.889  11.900 -0.5802  0.2403 -0.0215
  803MPD2    C511882   3.871   1.828  11.787 -0.8550  0.4114  0.3748
  803MPD2     H11883   3.952   2.199  11.779 -0.8743  0.6654 -1.2510
  803MPD2    H111884   3.908   1.837  11.995 -1.5126  0.2088 -0.0958
  803MPD2    H211885   3.845   1.836  11.583  1.4576 -1.7468  1.0726
  803MPD2    H311886   3.845   1.723  11.790 -1.2500  0.4891 -0.2398
  803MPD2     N11887   3.971   2.078  12.038  0.0356 -0.0851  0.0423
  803MPD2    H511888   3.977   2.005  12.108  2.1353 -0.6472 -0.7209
  803MPD2    N111889   3.890   2.121  11.555  0.2088 -0.0231 -0.7919
  803MPD2    H711890   3.898   2.221  11.568  0.6072 -0.4132  1.8655
  804MPD2     C11891   3.761   4.014  16.868 -0.8660  0.2405  0.2215
  804MPD2    C111892   3.764   4.019  17.006 -0.6523 -0.8494 -0.7069
  804MPD2    C211893   3.830   4.121  17.069 -0.0030 -0.6078 -0.3354
  804MPD2    C311894   3.909   4.212  17.000 -0.1618 -0.8127 -0.4121
  804MPD2    C411895   3.901   4.207  16.862 -0.3210  0.4235 -0.3487
  804MPD2    C511896   3.822   4.113  16.801  0.7985 -0.5502  0.0246
  804MPD2     H11897   3.833   4.119  17.178 -2.7148  2.1981 -0.2240
  804MPD2    H111898   3.950   4.275  16.793 -0.4800  1.7636  0.8558
  804MPD2    H211899   3.706   3.949  16.800  1.5429 -0.0069 -1.4706
  804MPD2    H311900   3.820   4.106  16.693  0.5247 -1.6782  0.1043
  804MPD2     N11901   3.994   4.295  17.072  0.6302 -0.0146 -0.3279
  804MPD2    H511902   3.986   4.304  17.173  1.4274  0.9934 -0.3593
  804MPD2    N111903   3.691   3.932  17.087 -0.4638 -0.0648  0.8514
  804MPD2    H711904   3.684   3.952  17.186 -1.1976 -0.6329  0.9137
  805MPD2     C11905   2.680   2.443  15.447  0.1348 -0.0536 -0.1836
  805MPD2    C111906   2.750   2.329  15.408  0.0630  0.5054  0.3071
  805MPD2    C211907   2.879   2.313  15.456  0.2091  0.9988 -0.4132
  805MPD2    C311908   2.936   2.407  15.543  0.5702  0.1692 -0.1097
  805MPD2    C411909   2.868   2.526  15.566 -0.0020  0.3005 -0.0093
  805MPD2    C511910   2.737   2.541  15.532  0.1739  0.0386 -0.4471
  805MPD2     H11911   2.922   2.216  15.433 -1.4271  0.6104 -1.8639
  805MPD2    H111912   2.917   2.608  15.618 -0.4209 -0.7097  1.9892
  805MPD2    H211913   2.575   2.455  15.424 -0.0153 -2.0380 -0.4979
  805MPD2    H311914   2.680   2.627  15.567 -2.9810 -1.6049 -1.5667
  805MPD2     N11915   3.057   2.398  15.605  0.2020 -0.6639  0.0695
  805MPD2    H511916   3.089   2.472  15.667 -2.2178  1.1046 -0.8135
  805MPD2    N111917   2.689   2.239  15.316 -0.2532 -0.0212 -0.1573
  805MPD2    H711918   2.741   2.156  15.292  1.3602  1.0412 -0.3263
  806MPD2     C11919   3.307   1.839   0.466  1.4442  0.1930 -0.4617
  806MPD2    C111920   3.312   1.939   0.559  0.1155 -0.5018 -0.1371
  806MPD2    C211921   3.392   2.050   0.547  0.6582  1.0310  0.2487
  806MPD2    C311922   3.472   2.064   0.437  0.0022  0.6887  1.0594
  806MPD2    C411923   3.463   1.959   0.344  0.2693  0.1871 -0.2608
  806MPD2    C511924   3.381   1.851   0.348 -0.3912 -0.1924 -0.1984
  806MPD2     H11925   3.391   2.132   0.618  1.2711 -0.2390  1.7194
  806MPD2    H111926   3.518   1.971   0.251  1.8548  1.6657  0.8557
  806MPD2    H211927   3.259   1.743   0.480 -2.2487  2.6815  3.5980
  806MPD2    H311928   3.367   1.776   0.271 -0.8758  0.8437 -1.1237
  806MPD2     N11929   3.528   2.186   0.421 -0.0784  0.0242  0.1168
  806MPD2    H511930   3.507   2.252   0.495  3.9166 -1.0302  2.1811
  806MPD2    N111931   3.223   1.913   0.670  0.3649  0.5769  0.2897
  806MPD2    H711932   3.171   1.826   0.669  0.0035  0.7892  0.6606
  807MPD2     C11933   3.039   2.110   1.508  0.0609  0.3066  0.4625
  807MPD2    C111934   2.983   1.994   1.457 -0.2306 -0.0832  0.0162
  807MPD2    C211935   2.891   1.930   1.541  0.6986  0.3657 -0.7204
  807MPD2    C311936   2.863   1.969   1.667 -0.5924 -0.6099 -0.2288
  807MPD2    C411937   2.921   2.088   1.709  0.2618 -0.0149  0.4681
  807MPD2    C511938   3.010   2.157   1.630  0.5912 -0.7887  0.1710
  807MPD2     H11939   2.847   1.836   1.512  1.0620  0.1719 -0.6513
  807MPD2    H111940   2.890   2.121   1.808  1.6963  3.6128 -0.3065
  807MPD2    H211941   3.109   2.167   1.448  0.1708 -1.7310 -1.3398
  807MPD2    H311942   3.054   2.241   1.682  2.8352 -0.9123 -1.5055
  807MPD2     N11943   2.789   1.878   1.748 -0.6452 -0.8068 -0.3754
  807MPD2    H511944   2.754   1.795   1.702 -3.4037 -0.7355  1.6366
  807MPD2    N111945   3.006   1.938   1.330  0.2205 -0.3436  0.3307
  807MPD2    H711946   2.938   1.868   1.304 -2.3041  2.4459 -0.5443
  808MPD2     C11947   2.729   3.577   9.794 -0.4582 -0.0311 -0.2018
  808MPD2    C111948   2.858   3.565   9.838 -0.3995  0.6412  0.1526
  808MPD2    C211949   2.920   3.684   9.872  0.4765  0.0597  0.3335
  808MPD2    C311950   2.876   3.810   9.830  0.2437  0.1596  0.3726
  808MPD2    C411951   2.746   3.809   9.781 -0.4688  0.3481  0.2174
  808MPD2    C511952   2.673   3.695   9.766 -0.0491 -0.2656  0.0613
  808MPD2     H11953   3.007   3.665   9.933 -1.4353 -0.3191  2.9234
  808MPD2    H111954   2.702   3.907   9.767 -0.1682  0.3111 -1.0072
  808MPD2    H211955   2.662   3.494   9.776  0.7070 -1.0206  0.0414
  808MPD2    H311956   2.575   3.689   9.720  0.2508  2.2402 -0.9358
  808MPD2     N11957   2.948   3.929   9.860 -0.1661 -0.0950  0.8571
  808MPD2    H511958   2.913   4.016   9.820 -2.1978 -0.4991  1.7591
  808MPD2    N111959   2.921   3.449   9.877  0.0007  0.3909  0.1433
  808MPD2    H711960   3.017   3.455   9.910  0.0088  0.9144  0.0320
  809MPD2     C11961   3.416   3.899   9.269 -0.3414 -0.1317 -0.2615
  809MPD2    C111962   3.499   3.862   9.373  1.1115  0.7951  0.4017
  809MPD2    C211963   3.499   3.925   9.498  0.5660  0.5216 -0.1396
  809MPD2    C311964   3.410   4.033   9.515 -1.0886 -0.4549 -0.2724
  809MPD2    C411965   3.337   4.078   9.402  0.2932 -0.3471 -0.2710
  809MPD2    C511966   3.338   4.008   9.283 -0.7610  0.0456  0.4559
  809MPD2     H11967   3.559   3.895   9.583 -2.6327 -1.4178  1.3895
  809MPD2    H111968   3.265   4.158   9.418 -0.0107 -1.0885  2.0594
  809MPD2    H211969   3.407   3.848   9.174 -1.1462 -0.4833  0.0069
  809MPD2    H311970   3.272   4.040   9.204  0.3126  1.5705  0.1841
  809MPD2     N11971   3.377   4.098   9.636 -0.5073 -0.5741 -0.0485
  809MPD2    H511972   3.305   4.169   9.628 -0.1558 -0.5480 -3.0080
  809MPD2    N111973   3.590   3.752   9.358 -0.1476  0.2427  0.1976
  809MPD2    H711974   3.657   3.731   9.431  2.0889  1.4741 -1.4758
  810MPD2     C11975   3.408   2.449  11.077 -0.3202 -0.2439  0.0801
  810MPD2    C111976   3.314   2.528  11.018 -0.0087 -0.1647  0.0857
  810MPD2    C211977   3.313   2.668  11.026  0.0591 -0.2093  0.3265
  810MPD2    C311978   3.398   2.732  11.107  0.9687  0.3300 -0.5384
  810MPD2    C411979   3.496   2.654  11.161  0.3007 -0.3367  0.0127
  810MPD2    C511980   3.499   2.516  11.150 -0.0387  0.2482  0.1240
  810MPD2     H11981   3.237   2.725  10.973  1.6201  0.8640 -0.7431
  810MPD2    H111982   3.576   2.701  11.217 -0.6167  0.8027  0.3590
  810MPD2    H211983   3.408   2.342  11.061 -3.8967 -0.1820 -0.2377
  810MPD2    H311984   3.576   2.460  11.202 -3.9076 -2.3889  3.0694
  810MPD2     N11985   3.408   2.868  11.128 -0.6630  0.7225  0.8614
  810MPD2    H511986   3.468   2.901  11.203 -0.7990  2.6428  0.1072
  810MPD2    N111987   3.216   2.454  10.957  0.3380  0.0894  0.1942
  810MPD2    H711988   3.208   2.353  10.966 -2.9103  0.4760  1.7340
  811MPD2     C11989   2.559   2.243  10.330  0.2019  0.4268 -0.3586
  811MPD2    C111990   2.661   2.336  10.359 -1.0789 -0.9749  0.1017
  811MPD2    C211991   2.679   2.440  10.278  0.0849 -1.1526  0.9652
  811MPD2    C311992   2.585   2.469  10.177  0.4167 -0.0102  0.1209
  811MPD2    C411993   2.475   2.380  10.158 -0.5617  0.4418 -0.6102
  811MPD2    C511994   2.470   2.272  10.235 -0.3607 -0.7162 -0.3539
  811MPD2     H11995   2.765   2.504  10.293 -0.8521  0.1936  0.5916
  811MPD2    H111996   2.391   2.399  10.092 -0.2633 -2.0125 -1.6745
  811MPD2    H211997   2.549   2.151  10.386 -0.7456 -0.4808 -2.0057
  811MPD2    H311998   2.384   2.210  10.218 -1.5363  0.9790 -0.6299
  811MPD2     N11999   2.603   2.586  10.105  0.6809  0.3553 -0.8165
  811MPD2    H512000   2.685   2.644  10.117  1.5835 -1.2633  1.0038
  811MPD2    N112001   2.759   2.306  10.463 -0.4648 -0.1989 -0.5583
  811MPD2    H712002   2.738   2.229  10.525 -1.3378 -0.3156 -1.0026
  812MPD2     C12003   1.342   2.465  12.177 -0.9626  0.3445 -0.0772
  812MPD2    C112004   1.455   2.529  12.158  0.0818 -0.1590  0.4646
  812MPD2    C212005   1.568   2.505  12.238  0.4443  0.5023  0.3835
  812MPD2    C312006   1.555   2.415  12.347  0.8218  0.3081  1.1855
  812MPD2    C412007   1.435   2.338  12.364  0.5329 -0.3476 -0.3358
  812MPD2    C512008   1.332   2.374  12.282 -0.3709 -0.3883  0.4674
  812MPD2     H12009   1.661   2.555  12.215 -0.4705  1.3340 -1.4506
  812MPD2    H112010   1.418   2.273  12.449 -3.2919  0.2438 -0.6445
  812MPD2    H212011   1.253   2.485  12.118 -2.0035  5.5512  3.1474
  812MPD2    H312012   1.239   2.322  12.303 -0.6775 -0.9549 -2.1761
  812MPD2     N12013   1.674   2.400  12.426  0.3956 -0.3180 -0.1798
  812MPD2    H512014   1.752   2.464  12.417  1.2580 -1.4732 -0.9662
  812MPD2    N112015   1.455   2.605  12.038 -0.2191  0.5431  0.3852
  812MPD2    H712016   1.370   2.620  11.985 -0.0274  0.9091  0.1743
  813MPD2     C12017   0.985   3.679  12.514 -0.0397  0.9438 -0.3541
  813MPD2    C112018   1.013   3.804  12.554  0.3406 -0.6339  0.3517
  813MPD2    C212019   0.983   3.854  12.682  0.8123 -0.3779  1.3560
  813MPD2    C312020   0.895   3.777  12.764  0.1884 -0.3437 -0.4014
  813MPD2    C412021   0.892   3.644  12.733 -1.2816  0.2535 -0.1733
  813MPD2    C512022   0.932   3.599  12.612  0.0128 -0.4742 -0.9065
  813MPD2     H12023   1.006   3.958  12.703  0.7194 -0.4112  1.6217
  813MPD2    H112024   0.848   3.570  12.799  1.2972 -1.1325  0.0074
  813MPD2    H212025   1.019   3.646  12.416  1.0319  1.1233 -0.0348
  813MPD2    H312026   0.912   3.495  12.589 -0.0282 -0.7590  0.3871
  813MPD2     N12027   0.846   3.835  12.880 -1.1586 -0.0943  0.6159
  813MPD2    H512028   0.877   3.929  12.901  2.2994 -1.0648 -0.1671
  813MPD2    N112029   1.104   3.869  12.470  0.2771  0.3518  0.0243
  813MPD2    H712030   1.147   3.811  12.399  0.5426 -1.6353  1.8119
  814MPD2     C12031   1.494   0.676  12.587  0.1376  0.0532  0.7838
  814MPD2    C112032   1.589   0.706  12.493  0.1588  0.2836 -0.3492
  814MPD2    C212033   1.642   0.831  12.487 -0.3855  0.3640  0.1698
  814MPD2    C312034   1.595   0.924  12.576  0.0457  0.0881  0.0553
  814MPD2    C412035   1.486   0.903  12.656 -0.5373 -0.5713  0.0946
  814MPD2    C512036   1.453   0.771  12.676  0.0050 -0.3068  0.3643
  814MPD2     H12037   1.724   0.848  12.419  0.9485  1.4478  2.0394
  814MPD2    H112038   1.432   0.984  12.703 -0.2464 -0.5361  0.3646
  814MPD2    H212039   1.443   0.581  12.602 -1.6785  1.1433  1.4591
  814MPD2    H312040   1.376   0.754  12.750 -0.4496 -2.6163 -0.6059
  814MPD2     N12041   1.653   1.057  12.587  0.0335  0.3679 -0.4095
  814MPD2    H512042   1.605   1.111  12.658 -1.2251  1.2830 -1.9562
  814MPD2    N112043   1.638   0.608  12.399 -0.4173  0.2423 -0.3487
  814MPD2    H712044   1.691   0.647  12.322  0.4653 -0.9666 -0.3644
  815MPD2     C12045   1.617   3.352  11.828  0.2977  0.7291  0.2216
  815MPD2    C112046   1.573   3.373  11.698  0.5869 -0.2861 -0.3570
  815MPD2    C212047   1.434   3.373  11.671 -0.3857 -0.4770 -0.1528
  815MPD2    C312048   1.335   3.349  11.766 -0.4354  0.4313  0.1314
  815MPD2    C412049   1.381   3.321  11.889 -0.4308  0.0904 -0.1449
  815MPD2    C512050   1.515   3.332  11.919 -0.0018 -0.5449 -0.1623
  815MPD2     H12051   1.402   3.395  11.570  0.9049 -0.3145 -0.5266
  815MPD2    H112052   1.314   3.287  11.967 -1.2873  2.0958  0.0137
  815MPD2    H212053   1.723   3.346  11.850  0.3969  0.5602 -0.3019
  815MPD2    H312054   1.543   3.295  12.016 -0.4000 -0.4505 -0.0121
  815MPD2     N12055   1.201   3.337  11.726  0.0140 -0.5348  0.5025
  815MPD2    H512056   1.173   3.374  11.635  0.9159  0.0675  0.4722
  815MPD2    N112057   1.668   3.410  11.600  0.2055  0.0265  0.4520
  815MPD2    H712058   1.765   3.413  11.629  0.2009  0.9940  0.3863
  816MPD2     C12059   1.712   3.386  17.450  0.2829 -0.4088 -0.1795
  816MPD2    C112060   1.814   3.480  17.475 -0.0738  0.2903 -0.0659
  816MPD2    C212061   1.944   3.444  17.449 -0.8393  0.3102  0.1803
  816MPD2    C312062   1.972   3.319  17.406  0.0715 -0.0640 -0.3778
  816MPD2    C412063   1.871   3.227  17.380 -0.0117 -0.3316  0.3589
  816MPD2    C512064   1.741   3.263  17.397 -0.8184 -0.2390 -0.2989
  816MPD2     H12065   2.022   3.519  17.463  0.1649 -0.8407  0.7541
  816MPD2    H112066   1.886   3.126  17.341  1.8438 -0.7352  2.0947
  816MPD2    H212067   1.608   3.414  17.460 -0.3127 -1.2391 -4.0162
  816MPD2    H312068   1.658   3.197  17.375 -0.4117 -1.6079  2.1998
  816MPD2     N12069   2.104   3.285  17.382  0.3077  0.3331 -0.3488
  816MPD2    H512070   2.163   3.363  17.411 -0.0918  0.5471 -0.1220
  816MPD2    N112071   1.773   3.609  17.509  0.0730  0.0133  0.3468
  816MPD2    H712072   1.673   3.618  17.495  0.1161 -1.8402 -1.2748
  817MPD2     C12073   1.262   0.383   9.821  0.7096 -0.3052  0.8098
  817MPD2    C112074   1.227   0.289   9.723 -0.3717 -0.3752 -0.1707
  817MPD2    C212075   1.130   0.322   9.634 -0.7531  0.0919  0.8891
  817MPD2    C312076   1.079   0.448   9.624 -0.2626 -0.2698  0.9440
  817MPD2    C412077   1.119   0.541   9.722 -0.8146 -0.6240  0.2078
  817MPD2    C512078   1.205   0.505   9.823  0.2294 -0.6216  0.0600
  817MPD2     H12079   1.097   0.239   9.572 -0.0101  0.5607 -0.1373
  817MPD2    H112080   1.078   0.641   9.731 -1.1135 -0.8919  2.0485
  817MPD2    H212081   1.349   0.377   9.884  1.6760 -0.5565 -0.5542
  817MPD2    H312082   1.245   0.580   9.891  0.1438 -1.8784  1.4914
  817MPD2     N12083   1.003   0.478   9.509 -0.0011 -0.2890  0.0494
  817MPD2    H512084   0.981   0.404   9.443  0.9277 -0.0750 -0.5053
  817MPD2    N112085   1.277   0.156   9.709  0.0956 -0.1618  0.2205
  817MPD2    H712086   1.256   0.104   9.625 -0.2438 -2.4855  1.7579
  818MPD2     C12087   0.238   0.469   9.999 -0.2076 -0.8764 -0.2654
  818MPD2    C112088   0.256   0.345  10.060  0.7446  0.2516 -0.5378
  818MPD2    C212089   0.293   0.242   9.977 -0.0970 -0.2351 -0.1445
  818MPD2    C312090   0.322   0.260   9.842  0.1763  0.1858  0.5501
  818MPD2    C412091   0.303   0.386   9.785  0.4870 -0.3208 -0.2250
  818MPD2    C512092   0.261   0.489   9.870 -0.1600  0.4551  0.3498
  818MPD2     H12093   0.293   0.142  10.018 -0.9745 -0.3816 -0.4976
  818MPD2    H112094   0.316   0.413   9.681  0.0993  1.7665  0.2559
  818MPD2    H212095   0.185   0.555  10.039  0.0649 -0.4598 -0.7905
  818MPD2    H312096   0.239   0.590   9.837 -2.2702 -0.4220 -0.9441
  818MPD2     N12097   0.339   0.151   9.757  0.5644  0.1865  0.0403
  818MPD2    H512098   0.309   0.167   9.662 -2.2538  1.4155  1.1173
  818MPD2    N112099   0.215   0.324  10.193 -0.4880  0.4968  0.1780
  818MPD2    H712100   0.234   0.230  10.227  1.9722  0.9030 -0.0708
  819MPD2     C12101   3.448   1.926  15.463 -0.3412 -0.1096  0.3294
  819MPD2    C112102   3.488   1.792  15.490  0.0051 -0.1591  0.8153
  819MPD2    C212103   3.576   1.766  15.594  0.3195 -1.1043  0.4547
  819MPD2    C312104   3.647   1.874  15.650 -0.3700 -0.0520  0.3151
  819MPD2    C412105   3.620   2.004  15.614 -0.2058  0.1528 -0.2457
  819MPD2    C512106   3.517   2.028  15.524  0.1523 -0.7877 -0.0921
  819MPD2     H12107   3.603   1.666  15.625  1.6626 -0.4982  1.2116
  819MPD2    H112108   3.670   2.091  15.653 -0.3013  0.3175 -0.4870
  819MPD2    H212109   3.379   1.942  15.380 -2.4259 -3.3080  1.4496
  819MPD2    H312110   3.481   2.126  15.495  0.4455 -0.9087 -0.8583
  819MPD2     N12111   3.751   1.852  15.736 -0.1868  0.1362  0.2654
  819MPD2    H512112   3.770   1.754  15.754 -1.2178  0.0898  1.0867
  819MPD2    N112113   3.429   1.693  15.416 -0.0817  0.1700  0.3359
  819MPD2    H712114   3.376   1.721  15.334  0.5285 -1.4529 -0.6074
  820MPD2     C12115   2.592   1.453  14.999  0.5308  0.5157 -0.0881
  820MPD2    C112116   2.642   1.558  15.078 -0.0773 -1.2006  0.2874
  820MPD2    C212117   2.773   1.547  15.123  0.0735 -0.1928 -0.1067
  820MPD2    C312118   2.845   1.428  15.100 -0.5575 -0.2559 -0.4442
  820MPD2    C412119   2.787   1.327  15.036 -0.4779  0.3111 -0.1945
  820MPD2    C512120   2.660   1.333  14.989  0.6140 -0.8595  0.4794
  820MPD2     H12121   2.825   1.629  15.171  0.4445 -1.5120  1.7234
  820MPD2    H112122   2.836   1.232  15.021 -0.4495  0.2838  0.0680
  820MPD2    H212123   2.491   1.467  14.962  0.3699 -0.6449 -0.0787
  820MPD2    H312124   2.611   1.246  14.948 -0.6915  1.2205 -2.3461
  820MPD2     N12125   2.970   1.400  15.146 -0.0744 -0.1257 -0.4182
  820MPD2    H512126   3.011   1.308  15.135  1.7846  0.6592  0.1040
  820MPD2    N112127   2.562   1.674  15.095 -0.3767 -0.7565  0.0382
  820MPD2    H712128   2.472   1.685  15.047  0.1618  0.0715 -0.7881
  821MPD2     C12129   3.718   2.460  13.061 -0.3454  0.6575  0.4046
  821MPD2    C112130   3.712   2.585  13.114  0.7843 -0.6141  0.6172
  821MPD2    C212131   3.798   2.678  13.059  0.5789  0.4149 -0.2324
  821MPD2    C312132   3.885   2.636  12.961  0.5313 -0.1386  0.8248
  821MPD2    C412133   3.896   2.509  12.919 -0.3760  0.8971 -0.1921
  821MPD2    C512134   3.810   2.422  12.970 -0.7064 -0.0917  0.6678
  821MPD2     H12135   3.783   2.781  13.092  1.2865 -0.9715  4.3787
  821MPD2    H112136   3.970   2.475  12.847  0.3017  1.1905  0.3708
  821MPD2    H212137   3.657   2.373  13.081  1.2684 -0.6765 -0.4835
  821MPD2    H312138   3.811   2.316  12.951  0.5663  0.1160 -0.4419
  821MPD2     N12139   3.991   2.719  12.909  0.4394 -0.2618  0.2404
  821MPD2    H512140   4.057   2.670  12.849  1.6918  0.0167  1.3971
  821MPD2    N112141   3.623   2.613  13.217  0.2757 -0.2741 -0.2951
  821MPD2    H712142   3.644   2.707  13.250 -0.5246 -0.5230  0.8989
  822MPD2     C12143   4.441   3.155  15.805  0.0013  0.3289  0.7035
  822MPD2    C112144   4.423   3.141  15.944 -0.3737 -0.5939  0.2920
  822MPD2    C212145   4.352   3.235  16.018 -0.7536  0.2630  0.1032
  822MPD2    C312146   4.306   3.346  15.957  0.8473  0.0554 -0.5780
  822MPD2    C412147   4.323   3.362  15.827  0.0619 -0.2292  0.1625
  822MPD2    C512148   4.398   3.274  15.750 -0.5774  0.1114 -0.6716
  822MPD2     H12149   4.338   3.225  16.125  0.0496  1.3123  0.3123
  822MPD2    H112150   4.275   3.442  15.772  1.1025  1.1651  1.2485
  822MPD2    H212151   4.484   3.085  15.734 -0.1568  1.0418 -0.1013
  822MPD2    H312152   4.432   3.298  15.650 -0.3642  0.0030 -0.6246
  822MPD2     N12153   4.234   3.436  16.041  0.2846 -0.2880 -0.3107
  822MPD2    H512154   4.211   3.400  16.133  0.1299 -0.3976 -0.3929
  822MPD2    N112155   4.480   3.032  16.017  0.3843 -0.0673  0.1912
  822MPD2    H712156   4.457   3.017  16.115  2.8916 -2.8170  0.3707
  823MPD2     C12157   3.948   3.678  16.790  0.2739  0.6892  0.0128
  823MPD2    C112158   3.990   3.587  16.695 -0.2159 -0.1523  0.0522
  823MPD2    C212159   4.047   3.468  16.737  0.6302 -0.4485  0.6515
  823MPD2    C312160   4.050   3.441  16.877  0.1900  0.6519  1.5492
  823MPD2    C412161   4.004   3.534  16.970  0.6548  0.3249  0.7335
  823MPD2    C512162   3.958   3.656  16.922  0.3809 -0.1225  0.2347
  823MPD2     H12163   4.097   3.399  16.670 -0.8479  0.4064 -1.3131
  823MPD2    H112164   4.004   3.513  17.076  0.2686 -2.3936  0.2049
  823MPD2    H212165   3.890   3.767  16.774 -0.3117  0.4858  1.0118
  823MPD2    H312166   3.930   3.733  16.993 -0.2256 -0.9070  0.8581
  823MPD2     N12167   4.116   3.323  16.934  0.3026  0.2456  0.5232
  823MPD2    H512168   4.122   3.322  17.035 -1.9240  1.4888  0.6718
  823MPD2    N112169   3.996   3.637  16.561  0.4445 -0.0821 -0.1170
  823MPD2    H712170   3.974   3.736  16.555  1.9832  0.2958  0.7209
  824MPD2     C12171   4.621   2.208  16.017  1.1116  0.1394  0.1926
  824MPD2    C112172   4.702   2.302  15.958  0.2098 -0.2512 -0.1388
  824MPD2    C212173   0.040   2.251  15.847 -0.3272 -0.2004  0.0444
  824MPD2    C312174   0.045   2.115  15.815  0.2027  0.3187 -0.1529
  824MPD2    C412175   4.697   2.023  15.879  0.5837  0.1596  0.3289
  824MPD2    C512176   4.621   2.076  15.980 -0.0586 -0.4486  0.2265
  824MPD2     H12177   0.110   2.318  15.798 -0.7422 -0.2132 -0.5584
  824MPD2    H112178   4.675   1.924  15.840  0.8290 -0.6910  2.3741
  824MPD2    H212179   4.546   2.237  16.089  0.1761 -1.7354 -0.0520
  824MPD2    H312180   4.545   2.013  16.025 -0.4033  0.2987  0.6959
  824MPD2     N12181   0.139   2.093  15.712  0.0130 -0.6909  0.6028
  824MPD2    H512182   0.186   2.173  15.671 -1.5056  0.3684  0.9533
  824MPD2    N112183   4.712   2.437  15.998  0.2122  0.3436 -0.3204
  824MPD2    H712184   0.031   2.500  15.940  1.2962 -1.9953 -1.8515
  825MPD2     C12185   0.711   2.208  15.125 -0.6420 -0.3455  0.3245
  825MPD2    C112186   0.636   2.260  15.225 -0.0072  0.2925 -0.4878
  825MPD2    C212187   0.617   2.394  15.232  0.2929  0.1335  0.2119
  825MPD2    C312188   0.644   2.474  15.120 -0.3319 -0.3475 -0.0270
  825MPD2    C412189   0.718   2.419  15.017 -0.0218  0.0167 -0.1227
  825MPD2    C512190   0.754   2.290  15.026 -0.1862 -0.3271 -0.5042
  825MPD2     H12191   0.543   2.436  15.300  0.6002 -1.1616  1.3542
  825MPD2    H112192   0.753   2.480  14.935 -1.0418 -0.3661 -0.8291
  825MPD2    H212193   0.748   2.105  15.124 -0.1567 -0.2227  3.9122
  825MPD2    H312194   0.825   2.246  14.956 -0.4684  0.4251 -1.2624
  825MPD2     N12195   0.607   2.605  15.095 -0.4331 -0.2554  0.1729
  825MPD2    H512196   0.616   2.644  15.002 -0.3707 -0.7609 -0.0347
  825MPD2    N112197   0.596   2.164  15.315  0.8541  0.0498  0.3254
  825MPD2    H712198   0.616   2.070  15.282 -2.0719 -1.3437  2.5874
  826MPD2     C12199   0.209   2.027  13.514  0.6279 -0.5856  0.0945
  826MPD2    C112200   0.129   1.980  13.426  0.1839 -0.7768 -0.0007
  826MPD2    C212201   4.733   2.039  13.419  0.0118 -1.1025  0.9816
  826MPD2    C312202   4.688   2.119  13.521  0.1947  0.2782 -0.0444
  826MPD2    C412203   0.042   2.157  13.614 -0.0960  0.3109  0.3436
  826MPD2    C512204   0.173   2.117  13.611 -0.5014 -0.2573  0.8702
  826MPD2     H12205   4.666   2.012  13.338 -0.9645 -1.0568  1.7684
  826MPD2    H112206   0.012   2.220  13.697  0.3495 -1.2578  1.6936
  826MPD2    H212207   0.309   1.986  13.527  0.5526 -0.3503  1.4707
  826MPD2    H312208   0.246   2.143  13.688  1.0644  0.0914 -0.7204
  826MPD2     N12209   4.563   2.172  13.544 -0.7582 -0.7536  0.2806
  826MPD2    H512210   4.550   2.237  13.621 -0.0801 -0.4189  0.1142
  826MPD2    N112211   0.184   1.881  13.337  0.3149  0.5082  0.3532
  826MPD2    H712212   0.273   1.843  13.367  2.1739  3.7634 -1.0397
  827MPD2     C12213   0.601   3.870   9.578 -0.3550 -0.5590 -0.2482
  827MPD2    C112214   0.582   3.733   9.598  0.3364 -0.5576  0.6250
  827MPD2    C212215   0.471   3.671   9.537 -0.6486 -0.0193  0.9276
  827MPD2    C312216   0.383   3.746   9.464  0.3244  0.0974 -0.0574
  827MPD2    C412217   0.403   3.880   9.446 -0.2720 -0.0536  0.0148
  827MPD2    C512218   0.505   3.944   9.512  0.4191 -0.1962 -0.2706
  827MPD2     H12219   0.466   3.563   9.531 -0.0427  0.0709 -1.4003
  827MPD2    H112220   0.330   3.943   9.395 -0.1059  1.0882  1.1712
  827MPD2    H212221   0.689   3.918   9.618 -0.1111 -0.1222 -1.3068
  827MPD2    H312222   0.507   4.052   9.509 -0.0236 -0.1305  2.1396
  827MPD2     N12223   0.280   3.672   9.395  0.0128 -0.4451  0.7803
  827MPD2    H512224   0.275   3.571   9.410 -1.3514 -0.7160 -1.5422
  827MPD2    N112225   0.679   3.670   9.678  0.1933 -0.0016 -0.5859
  827MPD2    H712226   0.758   3.723   9.713 -0.4112  1.2397 -1.1217
  828MPD2     C12227   4.058   3.145  11.733  0.3485  0.1755  0.4497
  828MPD2    C112228   3.995   3.266  11.715 -0.4268 -0.4567 -0.0229
  828MPD2    C212229   3.989   3.321  11.589 -0.4205 -0.2908  0.2584
  828MPD2    C312230   4.054   3.263  11.482  0.2656  0.5066 -0.4637
  828MPD2    C412231   4.116   3.143  11.497 -0.8175  0.8810 -0.2367
  828MPD2    C512232   4.120   3.080  11.626 -0.1026  0.1246  0.3161
  828MPD2     H12233   3.962   3.426  11.580  1.4388  0.0506 -1.3363
  828MPD2    H112234   4.158   3.093  11.410 -0.3879 -1.4196  1.2997
  828MPD2    H212235   4.062   3.095  11.829  1.1528 -1.0430 -0.2141
  828MPD2    H312236   4.158   2.978  11.628  0.4898  0.3413  0.1101
  828MPD2     N12237   4.067   3.312  11.353  0.4121  0.1124  0.1140
  828MPD2    H512238   4.124   3.253  11.294 -1.8235 -0.5329 -1.4056
  828MPD2    N112239   3.950   3.341  11.826  0.8075 -0.2518  0.2584
  828MPD2    H712240   3.894   3.422  11.801  0.2140  0.0048  2.3644
  829MPD2     C12241   3.320   3.833  11.668 -0.3163 -0.5373 -0.0163
  829MPD2    C112242   3.270   3.780  11.789 -0.2446 -0.2104  0.2499
  829MPD2    C212243   3.355   3.704  11.872  0.8914  0.4132 -0.0269
  829MPD2    C312244   3.487   3.693  11.837 -0.3788 -0.1349  0.0150
  829MPD2    C412245   3.539   3.747  11.724  0.4815 -0.4785 -0.5661
  829MPD2    C512246   3.456   3.814  11.642  0.4108 -1.1738  0.0849
  829MPD2     H12247   3.317   3.636  11.948  2.4035 -2.3677 -1.7466
  829MPD2    H112248   3.643   3.744  11.692  0.0843  2.0228 -2.0722
  829MPD2    H212249   3.259   3.881  11.593  0.5891 -1.7362 -1.5136
  829MPD2    H312250   3.500   3.846  11.548 -0.6611 -1.2675 -0.4493
  829MPD2     N12251   3.583   3.613  11.911 -0.2666 -0.3433 -0.6393
  829MPD2    H512252   3.679   3.627  11.881 -0.2492  0.8179 -0.0424
  829MPD2    N112253   3.130   3.802  11.813 -0.2681 -0.5140 -0.0761
  829MPD2    H712254   3.081   3.861  11.746 -2.9701 -2.3244  0.2996
  830MPD2     C12255   4.576   1.648  15.760 -0.2300  0.7341 -0.4859
  830MPD2    C112256   4.491   1.731  15.691 -0.4668 -0.1911 -0.2706
  830MPD2    C212257   4.522   1.757  15.558  0.2457 -0.7578  0.3447
  830MPD2    C312258   4.634   1.712  15.495 -0.5618  0.2253 -1.0793
  830MPD2    C412259   4.716   1.634  15.566 -0.6128 -0.1265  0.1604
  830MPD2    C512260   4.681   1.601  15.693 -0.6755 -0.1337 -0.2846
  830MPD2     H12261   4.452   1.815  15.498 -1.0374 -0.2203  2.3507
  830MPD2    H112262   0.077   1.597  15.530 -0.4050  0.1137  0.4747
  830MPD2    H212263   4.567   1.622  15.865 -2.4393 -1.2108 -1.1491
  830MPD2    H312264   0.020   1.536  15.736 -1.9831 -0.4132  1.5367
  830MPD2     N12265   4.683   1.761  15.370 -0.2902  0.1386  0.0861
  830MPD2    H512266   0.044   1.732  15.352 -1.3670 -2.1190 -2.1283
  830MPD2    N112267   4.371   1.767  15.753 -0.2654  0.6564  0.7140
  830MPD2    H712268   4.370   1.747  15.853 -0.5408  1.4023  0.8619
  831MPD2     C12269   4.492   3.525  16.322 -0.4052  1.3290 -0.6474
  831MPD2    C112270   4.526   3.405  16.273 -0.4475  0.6338  0.1280
  831MPD2    C212271   4.469   3.283  16.318 -0.0921 -0.2878  0.1773
  831MPD2    C312272   4.366   3.292  16.410  0.4348 -0.1843  0.2847
  831MPD2    C412273   4.335   3.414  16.456  0.3916 -0.7112  0.4232
  831MPD2    C512274   4.390   3.535  16.415  0.0257  0.0543  0.7834
  831MPD2     H12275   4.501   3.183  16.289  0.9605  0.3214 -0.7568
  831MPD2    H112276   4.251   3.427  16.524  0.2370  0.5309  0.0069
  831MPD2    H212277   4.524   3.621  16.283  0.1818  1.9333  1.3324
  831MPD2    H312278   4.349   3.629  16.448 -0.8315 -0.7993  2.1581
  831MPD2     N12279   4.286   3.183  16.462  0.0508 -0.4787 -0.3189
  831MPD2    H512280   4.224   3.196  16.541  0.5787  0.3400 -0.0248
  831MPD2    N112281   4.636   3.388  16.181  0.5023  0.3370 -0.2611
  831MPD2    H712282   4.671   3.472  16.137 -0.1911  0.8363  0.1302
  832MPD2     C12283   2.766   4.422  17.104  0.1083 -0.0878  0.0808
  832MPD2    C112284   2.750   4.558  17.096 -0.4175 -0.2551 -0.9136
  832MPD2    C212285   2.629   4.601  17.044 -0.4694  0.4230  0.2550
  832MPD2    C312286   2.529   4.519  17.007 -0.1141  0.5985 -0.2251
  832MPD2    C412287   2.554   4.382  17.014  0.3341  0.1721 -0.5493
  832MPD2    C512288   2.664   4.340  17.078 -0.5920 -0.7382 -0.1539
  832MPD2     H12289   2.603   4.703  17.069  1.0922  0.8733  0.0312
  832MPD2    H112290   2.478   4.309  16.990  0.2484  0.3936 -0.9571
  832MPD2    H212291   2.859   4.376  17.136  0.5080  0.3540 -0.4543
  832MPD2    H312292   2.681   4.235  17.098  2.9645  0.9038  5.5053
  832MPD2     N12293   2.402   4.561  16.962 -0.5311  0.1055  0.1622
  832MPD2    H512294   2.337   4.483  16.955 -0.6354  0.0811  1.4309
  832MPD2    N112295   2.857   4.646  17.103  0.3757 -0.5685 -0.6082
  832MPD2    H712296   2.948   4.605  17.121  0.5549  0.0472 -0.1097
  833MPD2     C12297   4.550   1.517  12.080  0.4324 -0.0709  0.1067
  833MPD2    C112298   4.519   1.387  12.100  0.1218  0.3456 -0.6715
  833MPD2    C212299   4.602   1.308  12.180  0.2778 -0.5878 -0.0237
  833MPD2    C312300   4.723   1.361  12.228  0.1825 -0.1877  0.3416
  833MPD2    C412301   0.023   1.488  12.193  0.2738  0.1569  0.2506
  833MPD2    C512302   4.676   1.569  12.115  0.0005 -0.1406  0.3076
  833MPD2     H12303   4.581   1.202  12.182  2.6859 -1.0241  2.6269
  833MPD2    H112304   0.117   1.533  12.224  0.8780 -2.1899  1.8405
  833MPD2    H212305   4.482   1.583  12.028  1.0037  0.0267 -0.5185
  833MPD2    H312306   4.705   1.671  12.093 -0.2363 -0.2641 -0.6020
  833MPD2     N12307   0.061   1.274  12.308 -0.2498  0.3783 -0.4392
  833MPD2    H512308   0.025   1.181  12.325  1.9635 -0.0600  1.8285
  833MPD2    N112309   4.412   1.318  12.048  0.0105  0.5418  0.3306
  833MPD2    H712310   4.406   1.218  12.064 -0.7622  0.9308  2.4102
  834MPD2     C12311   0.463   0.760  11.764 -0.1534  0.7409  0.1752
  834MPD2    C112312   0.370   0.685  11.828 -0.5813  0.2565 -0.6341
  834MPD2    C212313   0.332   0.725  11.955  0.5394  0.3049 -0.1845
  834MPD2    C312314   0.396   0.839  12.015 -0.2896  0.2455  0.9582
  834MPD2    C412315   0.483   0.915  11.947  0.0290  0.2018  0.0835
  834MPD2    C512316   0.521   0.873  11.818 -0.1549 -0.3945  0.6298
  834MPD2     H12317   0.263   0.671  12.019  0.1811  1.7943  0.6741
  834MPD2    H112318   0.525   1.010  11.977 -0.2627  0.7768 -1.3330
  834MPD2    H212319   0.490   0.736  11.661 -0.8461  0.4829  0.0568
  834MPD2    H312320   0.596   0.940  11.777 -0.3386  0.1638  1.2317
  834MPD2     N12321   0.358   0.876  12.149 -0.1688 -0.3025  0.2645
  834MPD2    H512322   0.265   0.845  12.176 -0.3978 -0.9794 -1.3434
  834MPD2    N112323   0.312   0.576  11.767  0.4298  0.5880 -0.4912
  834MPD2    H712324   0.320   0.567  11.666 -0.7931  0.7699 -0.6109
  835MPD2     C12325   0.272   3.513  10.676  0.1329  0.6669 -0.4498
  835MPD2    C112326   0.144   3.513  10.734  0.0550  0.4053 -1.4405
  835MPD2    C212327   0.136   3.513  10.871  0.3825  0.5501 -0.0626
  835MPD2    C312328   0.251   3.517  10.954  0.0486 -0.2135  0.2992
  835MPD2    C412329   0.373   3.520  10.887 -0.5269  1.2402  0.0554
  835MPD2    C512330   0.387   3.504  10.750 -0.1480 -0.5546  0.3938
  835MPD2     H12331   0.039   3.520  10.920 -0.1217 -0.7397 -0.8571
  835MPD2    H112332   0.460   3.539  10.949 -0.6283 -0.8453  0.8540
  835MPD2    H212333   0.280   3.522  10.568 -0.2464 -2.5850 -0.7462
  835MPD2    H312334   0.483   3.500  10.699 -0.6723  0.0650 -0.6599
  835MPD2     N12335   0.259   3.523  11.100 -0.0646 -0.2740  0.2194
  835MPD2    H512336   0.349   3.521  11.146  0.2668  1.3163 -0.3487
  835MPD2    N112337   0.022   3.500  10.664  0.3197 -1.1788 -0.3996
  835MPD2    H712338   4.675   3.495  10.724  0.2416  0.8153 -0.3649
  836MPD2     C12339   4.517   3.902  11.554 -0.7550  0.7685 -0.1363
  836MPD2    C112340   4.560   3.791  11.624  0.2839  0.1347  0.8467
  836MPD2    C212341   4.515   3.779  11.752 -0.5270 -0.9136 -0.8757
  836MPD2    C312342   4.430   3.874  11.809 -0.3458  0.1209  0.0095
  836MPD2    C412343   4.394   3.983  11.738 -0.6248 -1.1054  0.1624
  836MPD2    C512344   4.440   3.994  11.607 -0.3493 -0.0782 -1.0029
  836MPD2     H12345   4.543   3.689  11.807  1.4887  1.1510  1.4854
  836MPD2    H112346   4.321   4.057  11.771 -1.2776 -2.2388  1.2584
  836MPD2    H212347   4.545   3.917  11.450 -0.0013  0.9206  0.0861
  836MPD2    H312348   4.402   4.074  11.545 -0.0149  1.3693  0.6556
  836MPD2     N12349   4.379   3.859  11.942 -0.4473  0.3635 -0.3784
  836MPD2    H512350   4.318   3.932  11.976 -0.7427  1.0257 -2.3217
  836MPD2    N112351   4.646   3.703  11.558 -0.7668 -0.4227 -0.5234
  836MPD2    H712352   4.686   3.735  11.471 -0.5451 -0.4400 -0.4289
  837MPD2     C12353   2.903   3.286  10.244 -0.5202 -1.3415 -0.5770
  837MPD2    C112354   2.772   3.282  10.198  0.0770 -0.1083  0.2028
  837MPD2    C212355   2.705   3.405  10.184 -0.7390  0.1469 -0.1213
  837MPD2    C312356   2.755   3.526  10.217  0.2775  0.9680  0.5414
  837MPD2    C412357   2.889   3.524  10.272  0.2075 -0.6238 -0.5383
  837MPD2    C512358   2.958   3.407  10.274  0.6553  0.0063  0.4191
  837MPD2     H12359   2.607   3.408  10.137  0.0531 -0.2736 -1.7965
  837MPD2    H112360   2.949   3.613  10.289 -1.2521  0.3474 -0.4873
  837MPD2    H212361   2.968   3.199  10.252  3.0027  1.4452  1.2542
  837MPD2    H312362   3.060   3.395  10.308  0.4520  1.7972  1.7123
  837MPD2     N12363   2.667   3.636  10.203  0.3552 -0.3087  0.1196
  837MPD2    H512364   2.567   3.622  10.186  0.5002 -1.3109  0.1451
  837MPD2    N112365   2.723   3.166  10.132  0.1980 -0.4406 -0.3052
  837MPD2    H712366   2.625   3.183  10.115  0.8639  2.2958 -1.5291
  838MPD2     C12367   1.876   1.689  11.937 -0.2032  0.3078 -0.1313
  838MPD2    C112368   1.792   1.585  11.902 -0.0417 -0.0631 -0.1260
  838MPD2    C212369   1.733   1.503  12.001  0.4123 -0.0685  0.2826
  838MPD2    C312370   1.754   1.529  12.132 -0.7246 -0.2307 -0.6771
  838MPD2    C412371   1.838   1.631  12.169  0.2874 -0.1789 -0.2139
  838MPD2    C512372   1.900   1.710  12.071 -0.5874 -0.7528 -0.1949
  838MPD2     H12373   1.658   1.431  11.973 -0.3088  1.3735 -1.5459
  838MPD2    H112374   1.866   1.651  12.272  0.5713 -1.9620  0.0564
  838MPD2    H212375   1.928   1.755  11.868 -0.9015  2.0140  0.9693
  838MPD2    H312376   1.960   1.794  12.104 -1.8630  0.6205 -1.3391
  838MPD2     N12377   1.685   1.442  12.226 -0.1676 -0.3491 -0.6766
  838MPD2    H512378   1.632   1.366  12.184 -1.0965  0.4463 -0.9517
  838MPD2    N112379   1.743   1.560  11.770 -0.5846  0.4871 -0.1192
  838MPD2    H712380   1.695   1.473  11.748 -1.6109  1.3666 -1.3571
  839MPD2     C12381   0.969   1.362  11.888  0.4926 -0.4960  0.3409
  839MPD2    C112382   1.001   1.304  11.769  0.4157 -0.0861 -0.6193
  839MPD2    C212383   1.088   1.359  11.686  0.0912  0.3745  0.1931
  839MPD2    C312384   1.160   1.473  11.731  0.1897 -0.2379  0.1982
  839MPD2    C412385   1.121   1.535  11.848  0.2577 -0.0124  0.5859
  839MPD2    C512386   1.025   1.484  11.922 -0.0220  0.1506  0.5816
  839MPD2     H12387   1.119   1.302  11.599  0.5596 -0.1877  0.7228
  839MPD2    H112388   1.158   1.633  11.874 -0.5530  0.8481 -1.4565
  839MPD2    H212389   0.896   1.317  11.955 -1.1572  0.7659 -0.6194
  839MPD2    H312390   0.997   1.537  12.013  3.4238 -1.3422  2.5350
  839MPD2     N12391   1.278   1.517  11.660  0.0563  0.0040 -0.0776
  839MPD2    H512392   1.331   1.596  11.696  1.9272 -0.7769 -1.1343
  839MPD2    N112393   0.943   1.174  11.733 -0.2708 -0.1009 -0.5896
  839MPD2    H712394   0.968   1.132  11.645  2.4343  1.2786 -0.4910
  840MPD2     C12395   1.153   3.965   9.882  0.7752 -0.6631  0.1382
  840MPD2    C112396   1.146   3.868   9.976 -0.5863 -0.3689  0.1191
  840MPD2    C212397   1.228   3.870  10.090 -0.0437 -1.3176 -0.8517
  840MPD2    C312398   1.303   3.981  10.120  0.0904  0.7086  0.1587
  840MPD2    C412399   1.298   4.084  10.024 -0.4599  0.3324 -0.0256
  840MPD2    C512400   1.227   4.067   9.908 -0.0441  0.3951 -0.0615
  840MPD2     H12401   1.215   3.801  10.172 -1.9586 -1.5358 -1.3276
  840MPD2    H112402   1.358   4.175  10.023  1.4612 -0.9122  1.5439
  840MPD2    H212403   1.107   3.952   9.785  1.0592 -2.5892  0.2433
  840MPD2    H312404   1.233   4.145   9.832  0.8981 -1.1354 -1.5624
  840MPD2     N12405   1.377   3.993  10.244  0.4017  0.1502 -0.1729
  840MPD2    H512406   1.433   4.078  10.253  0.2993  0.2887 -0.8231
  840MPD2    N112407   1.073   3.749   9.946  0.1139 -0.2433  0.7064
  840MPD2    H712408   1.027   3.744   9.856  2.1503 -0.4610 -0.3350
  841MPD2     C12409   1.241   3.838  14.419 -0.1290  0.2154 -0.0542
  841MPD2    C112410   1.340   3.808  14.330  0.2363 -0.1958  0.4380
  841MPD2    C212411   1.472   3.828  14.359  0.0308  0.1931  0.2027
  841MPD2    C312412   1.519   3.858  14.488 -0.7083 -0.2730  0.4616
  841MPD2    C412413   1.418   3.884  14.581 -0.0602  0.1157  0.1195
  841MPD2    C512414   1.283   3.878  14.542 -0.4576  0.9195  0.4686
  841MPD2     H12415   1.542   3.806  14.279  1.8069  0.9646  1.5372
  841MPD2    H112416   1.440   3.897  14.687 -0.5041  4.7315 -0.3905
  841MPD2    H212417   1.135   3.849  14.399  0.2190  2.7082 -0.4933
  841MPD2    H312418   1.208   3.922  14.607 -0.3587 -0.4298  1.4830
  841MPD2     N12419   1.655   3.856  14.516  0.2001  0.0522 -0.9072
  841MPD2    H512420   1.709   3.808  14.445  2.5849  1.4593 -0.0402
  841MPD2    N112421   1.321   3.774  14.197  0.4694  0.4118  0.3455
  841MPD2    H712422   1.407   3.776  14.143  0.5813 -0.3419  0.4955
  842MPD2     C12423   1.982   0.281  16.740  0.1736  0.0367  0.7698
  842MPD2    C112424   1.884   0.197  16.792  0.1410 -0.6697  0.4869
  842MPD2    C212425   1.883   0.177  16.930 -0.4615 -0.1734  0.4545
  842MPD2    C312426   1.982   0.235  17.009 -0.1403  0.2563  0.1012
  842MPD2    C412427   2.062   0.325  16.948  0.3266 -0.6394  0.4079
  842MPD2    C512428   2.069   0.347  16.814  0.1740  0.4152  0.2323
  842MPD2     H12429   1.823   0.096  16.971  1.8980 -1.8817  0.5385
  842MPD2    H112430   2.127   0.386  17.010  0.6211  0.3631 -0.8824
  842MPD2    H212431   1.966   0.297  16.634 -0.1444 -0.3928  0.7525
  842MPD2    H312432   2.120   0.429  16.766  0.4247  0.5058  0.6517
  842MPD2     N12433   2.000   0.215  17.150 -0.4283  0.1100 -0.0320
  842MPD2    H512434   2.092   0.233  17.188 -0.8882  1.0522  0.6447
  842MPD2    N112435   1.790   0.132  16.704  0.2458 -0.7122  0.4391
  842MPD2    H712436   1.790   0.162  16.607  1.3234  0.9594  0.9547
  843MPD2     C12437   3.645   0.474   0.940 -0.0660  0.3289 -0.3723
  843MPD2    C112438   3.747   0.379   0.939  0.2098  0.7278  0.1136
  843MPD2    C212439   3.875   0.415   0.906  0.2397 -0.5838  0.5719
  843MPD2    C312440   3.901   0.547   0.873 -0.2473 -0.0649 -0.0392
  843MPD2    C412441   3.796   0.643   0.867 -0.3358 -0.2210  0.0007
  843MPD2    C512442   3.668   0.603   0.896  0.7458 -0.1015  0.3740
  843MPD2     H12443   3.956   0.343   0.905 -0.0413 -0.8533 -2.4547
  843MPD2    H112444   3.806   0.750   0.860 -0.4338 -0.1219  1.2874
  843MPD2    H212445   3.549   0.436   0.973 -0.4174  0.1380 -1.6323
  843MPD2    H312446   3.586   0.673   0.899 -2.5507 -3.9889  2.2341
  843MPD2     N12447   4.033   0.597   0.843  0.1356 -1.1263  0.1285
  843MPD2    H512448   4.031   0.699   0.849 -0.1780 -1.0974 -0.4628
  843MPD2    N112449   3.711   0.247   0.988 -0.3044 -0.5192 -0.2291
  843MPD2    H712450   3.616   0.226   1.015 -0.7273 -1.4289 -2.4362
  844MPD2     C12451   2.233   4.128  16.551 -0.2732  0.4935  0.0405
  844MPD2    C112452   2.347   4.056  16.551 -0.1128  0.3698  1.2933
  844MPD2    C212453   2.466   4.109  16.592  0.6669  0.3978 -0.2122
  844MPD2    C312454   2.480   4.245  16.616  0.1697  0.1289 -0.0757
  844MPD2    C412455   2.364   4.321  16.606 -0.1584  0.0692 -1.2286
  844MPD2    C512456   2.242   4.260  16.576 -0.3918  0.2300  0.3263
  844MPD2     H12457   2.555   4.047  16.590 -1.6453 -2.8394 -1.0385
  844MPD2    H112458   2.357   4.427  16.625  1.7880  0.4695 -2.7284
  844MPD2    H212459   2.130   4.103  16.525  0.2059 -1.6323  0.1514
  844MPD2    H312460   2.149   4.316  16.574 -0.3465  0.2784 -0.4487
  844MPD2     N12461   2.603   4.301  16.653  0.0084  0.6072  0.5937
  844MPD2    H512462   2.677   4.232  16.665 -1.0543 -0.9881 -2.0432
  844MPD2    N112463   2.345   3.917  16.501  0.4788  0.3328  0.7145
  844MPD2    H712464   2.435   3.870  16.504  0.8343  0.9818  0.0992
  845MPD2     C12465   3.085   0.479  16.724 -0.3023 -0.1531 -0.3609
  845MPD2    C112466   2.953   0.444  16.739 -0.2408 -0.0141 -0.1123
  845MPD2    C212467   2.905   0.317  16.730  0.3002 -0.5330 -0.3405
  845MPD2    C312468   2.996   0.213  16.705  0.2833  0.1414  0.0237
  845MPD2    C412469   3.133   0.241  16.702 -0.3108 -0.2381  0.3497
  845MPD2    C512470   3.172   0.375  16.709  0.4436 -0.3826  0.4471
  845MPD2     H12471   2.798   0.301  16.728  0.0744  1.0059 -0.2445
  845MPD2    H112472   3.214   0.170  16.693  0.3085  0.4461  0.6139
  845MPD2    H212473   3.115   0.583  16.717 -3.6155  0.5968 -3.5051
  845MPD2    H312474   3.277   0.402  16.704  0.6248 -1.5374 -1.7229
  845MPD2     N12475   2.956   0.081  16.701  0.5449 -1.2384  0.1494
  845MPD2    H512476   2.859   0.064  16.726  0.6713 -1.5114  0.4444
  845MPD2    N112477   2.863   0.548  16.769  0.6647 -0.3972  0.0411
  845MPD2    H712478   2.900   0.643  16.766 -3.5332  1.1392 -3.0872
  846MPD2     C12479   4.580   0.774  13.869 -0.0515 -0.1699 -0.5737
  846MPD2    C112480   4.458   0.819  13.831 -0.5188  0.5307 -0.7012
  846MPD2    C212481   4.350   0.798  13.913  0.1891  0.3166  0.0006
  846MPD2    C312482   4.369   0.739  14.036 -0.1421  0.0483 -0.1444
  846MPD2    C412483   4.489   0.679  14.067  0.0534  0.2409 -0.2526
  846MPD2    C512484   4.593   0.691  13.978  0.2465 -0.2249 -0.3128
  846MPD2     H12485   4.249   0.817  13.879 -0.0841  0.2999  0.7864
  846MPD2    H112486   4.511   0.624  14.157  3.1209  2.1117  0.1203
  846MPD2    H212487   4.666   0.794  13.806 -1.3438 -3.6346 -3.4373
  846MPD2    H312488   4.684   0.636  13.996 -0.9673 -1.2288  2.7732
  846MPD2     N12489   4.257   0.720  14.127 -0.6113  0.5922  0.1370
  846MPD2    H512490   4.167   0.726  14.080 -0.9223  1.5480  0.8729
  846MPD2    N112491   4.452   0.892  13.714 -0.3823 -0.8086  0.1999
  846MPD2    H712492   4.543   0.914  13.676  0.2033  0.4736  2.3293
  847MPD2     C12493   4.046   1.535  14.587  0.1823  0.4670 -0.6477
  847MPD2    C112494   4.148   1.609  14.539 -0.3829  0.1536  0.1048
  847MPD2    C212495   4.262   1.550  14.504  0.2416  0.4177 -0.1776
  847MPD2    C312496   4.268   1.413  14.473 -0.0833 -0.2497  0.1743
  847MPD2    C412497   4.161   1.339  14.519 -0.1368  0.6857  0.2955
  847MPD2    C512498   4.050   1.399  14.572  0.0530  0.1328  0.1585
  847MPD2     H12499   4.347   1.609  14.470 -0.3384  1.6858  0.5633
  847MPD2    H112500   4.150   1.232  14.505 -1.4688  1.0225 -1.2427
  847MPD2    H212501   3.958   1.585  14.626  1.3052  1.1628  0.9685
  847MPD2    H312502   3.962   1.341  14.595 -0.9991  1.1360 -1.3886
  847MPD2     N12503   4.386   1.365  14.412 -0.1097 -0.4414  0.1461
  847MPD2    H512504   4.452   1.430  14.369 -0.1430  0.4732  1.5037
  847MPD2    N112505   4.168   1.747  14.549  0.3329  0.6799  0.0068
  847MPD2    H712506   4.266   1.771  14.550  0.9148 -1.6293 -0.6155
  848MPD2     C12507   1.991   4.607  16.296  0.4361  0.1890 -0.4936
  848MPD2    C112508   2.066   4.700  16.364 -0.1128  0.1283 -0.0597
  848MPD2    C212509   2.119   0.066  16.284  0.0750 -0.7615 -0.2689
  848MPD2    C312510   2.109   0.071  16.147 -0.1491  0.1726 -0.1146
  848MPD2    C412511   2.036   4.705  16.081 -0.2452 -0.0997  0.7120
  848MPD2    C512512   1.982   4.607  16.154  0.3153 -0.5958  0.4928
  848MPD2     H12513   2.176   0.137  16.343  1.5105 -0.2651 -2.2576
  848MPD2    H112514   2.030   4.695  15.973  1.7793 -1.8108  0.7701
  848MPD2    H212515   1.934   4.528  16.344  0.1995  0.5982 -0.1012
  848MPD2    H312516   1.922   4.531  16.104 -4.1791  2.9314  0.5718
  848MPD2     N12517   2.161   0.173  16.062 -0.0648 -0.5504  0.4921
  848MPD2    H512518   2.163   0.155  15.962  2.8938  2.2929  0.0272
  848MPD2    N112519   2.085   4.707  16.502 -0.0367 -0.2256  0.6821
  848MPD2    H712520   2.152   0.041  16.534  1.6934 -1.0649 -1.0727
  849MPD2     C12521   1.094   4.143  14.137  0.0678  0.0084  0.6367
  849MPD2    C112522   1.205   4.171  14.068  0.4969  0.3661  0.2817
  849MPD2    C212523   1.319   4.172  14.141 -0.3776  0.0103  0.7272
  849MPD2    C312524   1.317   4.183  14.281  0.4577 -0.6911  0.0130
  849MPD2    C412525   1.202   4.161  14.351  0.0849 -0.0505 -0.1073
  849MPD2    C512526   1.095   4.141  14.273  0.8858 -0.6715 -0.2643
  849MPD2     H12527   1.417   4.185  14.097  0.4721  1.0146  2.9063
  849MPD2    H112528   1.185   4.152  14.458 -0.9867  2.1892 -0.0834
  849MPD2    H212529   0.999   4.125  14.088 -0.1727 -2.8824  2.1511
  849MPD2    H312530   1.010   4.088  14.314  0.6133  1.5416  2.0064
  849MPD2     N12531   1.443   4.194  14.347  0.1519 -0.3223  0.1412
  849MPD2    H512532   1.522   4.189  14.284  0.3181  0.8606  0.2521
  849MPD2    N112533   1.196   4.182  13.930 -0.2948  0.7471 -0.2510
  849MPD2    H712534   1.105   4.210  13.895 -1.6945 -1.9356  1.2930
  850MPD2     C12535   4.019   2.486  14.770  0.4137 -0.1494 -0.1637
  850MPD2    C112536   4.046   2.572  14.877  0.1791  0.7434  0.4068
  850MPD2    C212537   4.179   2.600  14.904  0.1799  0.4370  0.1560
  850MPD2    C312538   4.275   2.528  14.835  0.4939 -0.2197  0.7559
  850MPD2    C412539   4.246   2.451  14.733 -0.5335 -0.0386 -0.3650
  850MPD2    C512540   4.121   2.424  14.702 -0.2342 -0.1643  0.1088
  850MPD2     H12541   4.203   2.674  14.980 -2.3966  3.5918 -2.0570
  850MPD2    H112542   4.315   2.387  14.679 -0.0331 -0.3441  0.6431
  850MPD2    H212543   3.915   2.476  14.744 -0.1268  0.0932  1.9287
  850MPD2    H312544   4.101   2.366  14.613  0.2282 -0.7851  0.4092
  850MPD2     N12545   4.412   2.537  14.872 -0.2211 -0.4748  0.3864
  850MPD2    H512546   4.484   2.499  14.811  0.4032 -0.6194  1.2156
  850MPD2    N112547   3.936   2.622  14.953  1.2470 -0.0137  0.4651
  850MPD2    H712548   3.849   2.571  14.938  0.4305  1.6923 -0.5406
  851MPD2     C12549   4.466   2.563  15.545  0.0295  0.1933 -0.0753
  851MPD2    C112550   4.391   2.506  15.439  0.2875  0.5935  0.2048
  851MPD2    C212551   4.452   2.424  15.342 -0.6580  0.2681  0.1021
  851MPD2    C312552   4.588   2.396  15.357  0.7044 -0.2973 -0.3542
  851MPD2    C412553   4.659   2.455  15.459  0.0246 -0.2007 -0.6288
  851MPD2    C512554   4.605   2.546  15.544 -0.5959 -0.4231  0.6709
  851MPD2     H12555   4.411   2.392  15.247  2.0315  2.0676 -1.6498
  851MPD2    H112556   0.028   2.427  15.471 -0.4841 -1.1270  1.6358
  851MPD2    H212557   4.421   2.627  15.620 -1.3437  0.8211 -1.4287
  851MPD2    H312558   4.674   2.590  15.616 -0.3752 -1.5749  1.1577
  851MPD2     N12559   4.636   2.296  15.272  0.1871 -0.0137 -0.3639
  851MPD2    H512560   4.567   2.263  15.206 -0.1098  3.0804 -1.5777
  851MPD2    N112561   4.264   2.553  15.417 -0.7233 -0.0859 -0.1709
  851MPD2    H712562   4.235   2.628  15.480 -1.1748  0.6392 -1.2451
  852MPD2     C12563   3.788   1.377   9.488  0.2845 -0.1522 -0.6466
  852MPD2    C112564   3.779   1.385   9.620  0.4271 -0.2381  0.2607
  852MPD2    C212565   3.887   1.337   9.692  0.1098 -0.7561 -0.3395
  852MPD2    C312566   3.988   1.262   9.628 -0.1758 -0.0478 -0.2163
  852MPD2    C412567   3.981   1.243   9.493  0.3735  0.1131  0.5159
  852MPD2    C512568   3.881   1.305   9.421  0.1097 -0.0913  0.1199
  852MPD2     H12569   3.885   1.357   9.798  1.4415 -0.8768 -0.3012
  852MPD2    H112570   4.057   1.183   9.445 -0.5571 -1.2885  0.7993
  852MPD2    H212571   3.715   1.433   9.430 -0.3536 -0.3303 -0.0168
  852MPD2    H312572   3.880   1.303   9.313  0.8208 -0.4992  0.1146
  852MPD2     N12573   4.090   1.208   9.712 -0.4547  0.3438  0.0540
  852MPD2    H512574   4.078   1.210   9.812  2.9796 -1.9638  0.5170
  852MPD2    N112575   3.665   1.430   9.690  0.8964  0.4009  0.3693
  852MPD2    H712576   3.672   1.420   9.791 -3.2803 -1.0847  0.5116
  853MPD2     C12577   1.389   4.416  12.104  0.8554 -0.6230  0.1036
  853MPD2    C112578   1.267   4.482  12.086 -0.1385 -0.0145  0.9482
  853MPD2    C212579   1.232   4.502  11.954  0.2720 -0.8782 -0.1036
  853MPD2    C312580   1.312   4.454  11.849  0.0789 -0.4520  0.6545
  853MPD2    C412581   1.428   4.382  11.879 -0.3716 -0.2568  0.0932
  853MPD2    C512582   1.465   4.365  12.007 -0.0908  0.5681  0.4105
  853MPD2     H12583   1.138   4.543  11.918 -0.0994 -0.8020  0.9445
  853MPD2    H112584   1.489   4.336  11.803  0.2358  1.2221 -0.3152
  853MPD2    H212585   1.418   4.406  12.208 -1.0530  1.3781  0.8364
  853MPD2    H312586   1.551   4.304  12.032  0.1295  0.6856 -0.0640
  853MPD2     N12587   1.276   4.467  11.712 -0.6347 -0.0567 -0.0453
  853MPD2    H512588   1.326   4.405  11.649 -1.9610  0.0668 -1.2108
  853MPD2    N112589   1.197   4.538  12.194  0.1396 -0.2367 -0.0960
  853MPD2    H712590   1.237   4.554  12.286 -2.3060 -1.5197  1.1909
  854MPD2     C12591   2.653   0.212  13.053  0.0728  0.7192 -0.2244
  854MPD2    C112592   2.671   0.195  12.916  0.6506 -0.1497  0.1098
  854MPD2    C212593   2.799   0.169  12.866 -0.1164  0.3165  0.2409
  854MPD2    C312594   2.908   0.163  12.953  0.0719  0.3458  0.1604
  854MPD2    C412595   2.881   0.180  13.089  0.0114  0.2511  0.1447
  854MPD2    C512596   2.755   0.194  13.139 -0.1710 -0.5136 -0.0341
  854MPD2     H12597   2.810   0.144  12.761  0.0469 -1.1223  0.5965
  854MPD2    H112598   2.960   0.176  13.163 -0.8794  0.6550  1.1227
  854MPD2    H212599   2.556   0.238  13.092  0.1405 -0.3707  0.6876
  854MPD2    H312600   2.730   0.210  13.243 -0.0515  0.6862 -0.1812
  854MPD2     N12601   3.041   0.130  12.910 -0.3974 -0.6616 -0.3152
  854MPD2    H512602   3.099   0.112  12.991 -1.1210  0.0339  0.3666
  854MPD2    N112603   2.554   0.213  12.834  0.3704 -0.7296 -0.2837
  854MPD2    H712604   2.467   0.248  12.872  1.7299 -0.0649  2.2240
  855MPD2     C12605   3.642   0.091  13.460 -0.1513  0.3472 -0.5057
  855MPD2    C112606   3.560   4.712  13.473 -0.1890 -0.5133 -0.1924
  855MPD2    C212607   3.497   4.669  13.350  0.1996 -0.4025  0.2027
  855MPD2    C312608   3.513   0.004  13.229  0.5745  0.0441 -0.2559
  855MPD2    C412609   3.586   0.118  13.228 -0.9558 -0.6124 -0.6691
  855MPD2    C512610   3.654   0.152  13.341 -0.5802  0.7199  0.2484
  855MPD2     H12611   3.437   4.579  13.349 -1.6787  0.8129  1.2506
  855MPD2    H112612   3.614   0.180  13.143 -2.0582 -0.8012 -1.1755
  855MPD2    H212613   3.712   0.123  13.537 -1.7102  0.2754  0.9559
  855MPD2    H312614   3.706   0.248  13.343  1.2148 -0.3066  2.5996
  855MPD2     N12615   3.448   4.720  13.106 -0.1421 -0.5289  0.0865
  855MPD2    H512616   3.455   0.049  13.027 -2.7209 -0.2704  0.0594
  855MPD2    N112617   3.547   4.637  13.593  0.1255  0.1264 -0.9954
  855MPD2    H712618   3.506   4.545  13.595  0.7260 -0.1333 -0.5979
  856MPD2     C12619   1.064   0.274  14.067 -0.2076 -0.2948 -0.0009
  856MPD2    C112620   1.127   0.354  13.974 -0.4344  0.7763  0.5711
  856MPD2    C212621   1.056   0.456  13.915  0.7129  1.0642 -0.6460
  856MPD2    C312622   0.926   0.472  13.944 -0.8265  0.0380 -0.1071
  856MPD2    C412623   0.865   0.398  14.044  0.0159 -0.0662  0.3261
  856MPD2    C512624   0.935   0.299  14.103  0.2637  0.0937  0.0569
  856MPD2     H12625   1.101   0.520  13.841  1.0045 -0.6605 -1.9613
  856MPD2    H112626   0.763   0.419  14.075 -1.0891 -2.2318 -1.8496
  856MPD2    H212627   1.105   0.184  14.112 -1.2849 -0.3413  0.8850
  856MPD2    H312628   0.893   0.235  14.180  0.0180  0.8285  0.5432
  856MPD2     N12629   0.848   0.572  13.874 -0.0363 -0.0545  0.6426
  856MPD2    H512630   0.758   0.591  13.916 -0.9875 -1.0883 -0.9270
  856MPD2    N112631   1.263   0.343  13.941 -0.2379 -0.1912  0.0514
  856MPD2    H712632   1.301   0.411  13.876 -2.5925  1.7051  0.6458
  857MPD2     C12633   1.744   3.603  12.544  0.6212 -0.0406  0.2289
  857MPD2    C112634   1.871   3.550  12.570 -0.4283  0.1917 -0.5904
  857MPD2    C212635   1.982   3.630  12.593 -0.6177  0.1267 -0.1337
  857MPD2    C312636   1.968   3.767  12.587 -0.6989  0.1888  0.5744
  857MPD2    C412637   1.842   3.824  12.562  0.3213 -0.2006  0.0461
  857MPD2    C512638   1.733   3.739  12.538  0.1736  0.3171 -0.0907
  857MPD2     H12639   2.076   3.584  12.621 -0.9157 -0.0496  0.5706
  857MPD2    H112640   1.833   3.931  12.544 -2.1536 -0.2349  1.0559
  857MPD2    H212641   1.664   3.533  12.522  0.0846  0.2324  1.3034
  857MPD2    H312642   1.638   3.782  12.509 -0.0101 -0.5165 -0.7465
  857MPD2     N12643   2.077   3.846  12.622 -0.0658  0.6283 -0.4373
  857MPD2    H512644   2.160   3.811  12.670  1.4217  2.5244 -1.6450
  857MPD2    N112645   1.890   3.410  12.546 -0.0982  0.0060  0.0924
  857MPD2    H712646   1.804   3.357  12.539 -0.4714  0.7098 -0.5811
  858MPD2     C12647   2.909   2.741  16.355  0.2817 -0.4042  0.6101
  858MPD2    C112648   2.902   2.612  16.403 -0.4346 -0.3755  0.4118
  858MPD2    C212649   2.928   2.593  16.535  0.0146  0.3008  0.2930
  858MPD2    C312650   2.958   2.701  16.623  0.4378 -0.5495  0.2554
  858MPD2    C412651   2.962   2.828  16.576  0.4628  0.1644 -0.2422
  858MPD2    C512652   2.939   2.844  16.441 -0.0446 -0.4251 -0.8146
  858MPD2     H12653   2.926   2.490  16.569 -3.5074 -0.1856 -1.3702
  858MPD2    H112654   2.982   2.920  16.631 -1.8222  0.5126 -0.0267
  858MPD2    H212655   2.900   2.760  16.248 -0.3882 -2.5983  0.2855
  858MPD2    H312656   2.949   2.946  16.406  0.5060 -0.1045  0.3103
  858MPD2     N12657   2.964   2.682  16.765 -0.2517 -0.2012  0.1238
  858MPD2    H512658   2.965   2.759  16.831 -2.1205  1.5144 -1.8328
  858MPD2    N112659   2.860   2.509  16.312  0.4877  0.2222 -0.9288
  858MPD2    H712660   2.847   2.535  16.215  0.7702 -0.6372 -1.1975
  859MPD2     C12661   1.453   3.879  15.759 -0.5103  0.2913  0.0748
  859MPD2    C112662   1.489   3.889  15.629 -0.3770 -0.1585 -0.1262
  859MPD2    C212663   1.525   3.770  15.559 -0.3009 -0.0083  0.4164
  859MPD2    C312664   1.520   3.649  15.619 -0.2282  0.0854  0.1008
  859MPD2    C412665   1.495   3.643  15.757 -0.3647  0.2269  0.1352
  859MPD2    C512666   1.466   3.762  15.822  0.0179 -0.7854 -0.3240
  859MPD2     H12667   1.549   3.779  15.453  0.1640  2.3826  0.7362
  859MPD2    H112668   1.497   3.551  15.813 -0.1573 -0.0779 -0.3667
  859MPD2    H212669   1.429   3.962  15.823 -0.1863  0.2342  0.2732
  859MPD2    H312670   1.457   3.757  15.930  1.5542 -0.1762 -0.1660
  859MPD2     N12671   1.578   3.533  15.554  0.4995  0.1936  0.1143
  859MPD2    H512672   1.575   3.444  15.603 -1.1340  1.5793  2.5351
  859MPD2    N112673   1.505   4.003  15.541 -0.8366 -0.0692  0.9856
  859MPD2    H712674   1.523   3.984  15.443  0.9344  0.9384  1.1220
  860MPD2     C12675   4.230   0.210  11.648  0.3654 -0.0488  0.6961
  860MPD2    C112676   4.176   0.186  11.775  0.2187  0.5193 -0.3444
  860MPD2    C212677   4.040   0.172  11.781  0.8202 -0.1216 -0.1542
  860MPD2    C312678   3.954   0.187  11.672 -0.2330  0.1247  0.4322
  860MPD2    C412679   4.017   0.213  11.548 -0.2981 -0.2474 -0.0354
  860MPD2    C512680   4.152   0.220  11.539 -0.3909  0.3271 -0.6484
  860MPD2     H12681   4.004   0.162  11.882 -2.4938  0.7590 -1.2602
  860MPD2    H112682   3.966   0.232  11.454 -1.7354  2.0822  1.2080
  860MPD2    H212683   4.333   0.241  11.637  0.2312 -0.5017 -1.6992
  860MPD2    H312684   4.205   0.240  11.446  0.8033 -1.4254 -0.3358
  860MPD2     N12685   3.817   0.171  11.692 -0.4953 -1.2322  0.0809
  860MPD2    H512686   3.795   0.143  11.787 -1.5732  2.0470  0.7713
  860MPD2    N112687   4.251   0.184  11.896  0.0388  0.1491  0.1726
  860MPD2    H712688   4.194   0.172  11.980  0.8779 -2.0411  0.4286
  861MPD2     C12689   2.291   2.583  10.888  0.2449  0.5640  0.4694
  861MPD2    C112690   2.353   2.710  10.896  1.0044  0.0377 -0.4817
  861MPD2    C212691   2.330   2.804  10.799 -0.3676 -0.3445 -0.2780
  861MPD2    C312692   2.236   2.780  10.701 -0.8004 -0.3154 -0.0823
  861MPD2    C412693   2.177   2.651  10.697  0.7389  0.0865  0.7399
  861MPD2    C512694   2.202   2.555  10.788  0.3123 -0.1482 -0.2971
  861MPD2     H12695   2.361   2.908  10.806 -2.5790  0.4512 -2.4948
  861MPD2    H112696   2.108   2.621  10.619  0.9535  1.3607  0.0577
  861MPD2    H212697   2.305   2.498  10.955 -1.5027  0.0235  0.1471
  861MPD2    H312698   2.148   2.462  10.776 -1.3878  0.6265  1.5016
  861MPD2     N12699   2.193   2.872  10.603 -0.1099 -0.0295  0.6767
  861MPD2    H512700   2.111   2.843  10.551  0.5888 -1.0776  0.1735
  861MPD2    N112701   2.436   2.731  11.016 -0.2458  0.0267 -1.0724
  861MPD2    H712702   2.481   2.820  11.033 -0.0156 -0.0708 -1.1747
  862MPD2     C12703   1.633   2.974  10.148  0.1420 -0.5483  0.0861
  862MPD2    C112704   1.686   2.915  10.257 -0.1610  0.3173  0.1523
  862MPD2    C212705   1.654   2.786  10.287  0.2288 -0.6998 -0.0604
  862MPD2    C312706   1.567   2.713  10.201 -0.6677  1.1129  0.3258
  862MPD2    C412707   1.513   2.779  10.098 -0.7555  0.2600 -0.2987
  862MPD2    C512708   1.553   2.900  10.062 -0.2936 -0.5986  0.2333
  862MPD2     H12709   1.696   2.748  10.379 -0.7892 -1.5031  0.0716
  862MPD2    H112710   1.442   2.742  10.025 -1.8195 -2.3960  2.0961
  862MPD2    H212711   1.656   3.076  10.118  1.0651 -1.0052 -0.7507
  862MPD2    H312712   1.515   2.943   9.970 -0.4363  0.1942  0.6564
  862MPD2     N12713   1.536   2.578  10.218 -0.4260  0.5703  0.5308
  862MPD2    H512714   1.488   2.540  10.137  2.8636 -1.1230 -0.6030
  862MPD2    N112715   1.761   2.978  10.359 -0.1547  0.2311 -0.1375
  862MPD2    H712716   1.806   2.910  10.420  0.8420  1.4912  0.5541
  863MPD2     C12717   0.572   1.222  16.668  0.3919 -0.1552  0.3645
  863MPD2    C112718   0.693   1.259  16.609  0.3639 -0.6538 -0.3267
  863MPD2    C212719   0.818   1.218  16.662 -0.3415  0.1490  0.4086
  863MPD2    C312720   0.814   1.135  16.776 -0.1865 -0.4396  0.4383
  863MPD2    C412721   0.696   1.093  16.821 -0.4965  0.6038  0.2047
  863MPD2    C512722   0.583   1.138  16.776  0.2672  0.4115 -0.0299
  863MPD2     H12723   0.914   1.248  16.622 -0.4146  1.7187  1.4061
  863MPD2    H112724   0.690   1.024  16.905  2.3665 -0.4363 -0.4326
  863MPD2    H212725   0.477   1.264  16.636  0.8507 -0.1955 -1.0711
  863MPD2    H312726   0.493   1.103  16.824 -1.1685  3.0192 -0.8166
  863MPD2     N12727   0.928   1.081  16.843 -0.8019 -0.3228 -0.2575
  863MPD2    H512728   0.902   1.013  16.913 -1.6644  0.4799  0.2039
  863MPD2    N112729   0.680   1.340  16.497 -0.2645 -0.1667  0.0905
  863MPD2    H712730   0.587   1.367  16.465  0.8793  2.3821 -1.1247
  864MPD2     C12731   1.476   2.282  17.314  0.0736 -0.0995 -0.1571
  864MPD2    C112732   1.535   2.208  17.212  0.3750  0.8575 -0.1188
  864MPD2    C212733   1.638   2.280  17.145  0.0002  0.3387  0.0021
  864MPD2    C312734   1.697   2.395  17.181 -0.2281  0.0288  0.1566
  864MPD2    C412735   1.628   2.468  17.282 -0.5096 -0.3757 -0.2897
  864MPD2    C512736   1.517   2.409  17.347 -0.0587  0.4993 -1.0585
  864MPD2     H12737   1.688   2.231  17.062  3.0866  1.3232  1.2539
  864MPD2    H112738   1.661   2.561  17.328 -1.3809  0.9433 -2.3286
  864MPD2    H212739   1.416   2.239  17.393 -0.4399 -3.5443 -2.4295
  864MPD2    H312740   1.472   2.451  17.436 -2.1142 -0.2849 -1.7376
  864MPD2     N12741   1.822   2.444  17.138 -0.4253  0.5481 -0.2229
  864MPD2    H512742   1.839   2.542  17.158 -3.1996  0.6127  1.8363
  864MPD2    N112743   1.491   2.080  17.169 -0.0843 -0.0959 -0.2928
  864MPD2    H712744   1.414   2.040  17.221  0.4099  0.9337  1.2035
  865MPD2     C12745   1.858   2.754  16.345  0.3145 -0.1333  0.1392
  865MPD2    C112746   1.848   2.621  16.374  0.7273 -0.1591 -0.5259
  865MPD2    C212747   1.873   2.596  16.511  0.2000 -0.2885 -0.7511
  865MPD2    C312748   1.924   2.689  16.597 -0.1680  0.0110 -0.0657
  865MPD2    C412749   1.937   2.820  16.556  0.1163 -0.2730 -0.1664
  865MPD2    C512750   1.908   2.851  16.425 -0.1869  0.8876  0.2754
  865MPD2     H12751   1.871   2.492  16.541 -1.9510 -0.7124 -2.3925
  865MPD2    H112752   1.978   2.895  16.623 -1.5256  1.5916 -1.2591
  865MPD2    H212753   1.829   2.796  16.249 -0.9829  1.4121  1.1930
  865MPD2    H312754   1.917   2.951  16.385  0.9336  0.3217 -0.8944
  865MPD2     N12755   1.953   2.660  16.733 -0.1699 -0.6451 -0.0453
  865MPD2    H512756   1.928   2.567  16.763 -0.4474 -0.5323  0.0717
  865MPD2    N112757   1.819   2.529  16.268  0.0696  0.9349 -0.4787
  865MPD2    H712758   1.824   2.559  16.171 -0.6517 -1.7873 -1.3740
  866MPD2     C12759   3.158   3.192  11.350  0.0384 -0.6039 -0.1543
  866MPD2    C112760   3.086   3.087  11.314  0.1190  0.2453  0.5241
  866MPD2    C212761   2.972   3.109  11.240  0.3102 -0.0929  0.5065
  866MPD2    C312762   2.946   3.233  11.175  0.3065  0.2895 -0.0307
  866MPD2    C412763   3.033   3.336  11.203  0.4424 -0.2898  0.6199
  866MPD2    C512764   3.129   3.316  11.293 -0.0447 -0.2196  0.2876
  866MPD2     H12765   2.901   3.029  11.223 -1.9565  2.1527 -0.7015
  866MPD2    H112766   3.032   3.435  11.159 -0.0777 -0.8193 -0.5500
  866MPD2    H212767   3.252   3.183  11.402  0.4507  3.5698 -0.1784
  866MPD2    H312768   3.202   3.393  11.317 -0.0021  0.2588 -1.3755
  866MPD2     N12769   2.837   3.254  11.081  0.1713  0.4172  1.0775
  866MPD2    H512770   2.824   3.350  11.051 -0.6402 -0.1483 -0.3752
  866MPD2    N112771   3.126   2.954  11.358  0.9482 -0.4248 -0.0328
  866MPD2    H712772   3.211   2.938  11.410  0.0176  0.5140  1.7973
  867MPD2     C12773   0.699   1.296  17.218 -0.5424  0.5072  0.2522
  867MPD2    C112774   0.678   1.414  17.154  0.2464  0.1724 -0.8718
  867MPD2    C212775   0.634   1.523  17.234  0.0681 -0.2577 -0.2936
  867MPD2    C312776   0.607   1.509  17.369  0.8935  0.5858 -0.5591
  867MPD2    C412777   0.624   1.388  17.429 -0.7146  0.8634 -0.4777
  867MPD2    C512778   0.680   1.287  17.355  0.1363 -0.4541  0.4286
  867MPD2     H12779   0.622   1.624  17.195  3.0766 -0.2337 -1.1436
  867MPD2    H112780   0.595   1.377  17.533  1.8173  1.8907  0.3431
  867MPD2    H212781   0.739   1.213  17.161  0.8280  0.1587  1.7269
  867MPD2    H312782   0.697   1.190  17.401  3.2671  0.6891  1.6754
  867MPD2     N12783   0.557   1.615  17.450 -0.1704  0.2078 -0.3270
  867MPD2    H512784   0.556   1.596  17.549  0.5101  3.2487  0.2657
  867MPD2    N112785   0.706   1.416  17.017  0.2934 -0.2793 -0.2644
  867MPD2    H712786   0.736   1.332  16.970  1.1310 -0.4613  0.5916
  868MPD2     C12787   2.948   1.044  13.253 -0.1914 -0.2215 -0.4302
  868MPD2    C112788   2.940   1.173  13.211 -0.2113 -0.0255  0.0701
  868MPD2    C212789   2.821   1.240  13.214  0.4747 -0.4343  0.2439
  868MPD2    C312790   2.702   1.175  13.257  0.0063  0.4046 -0.7211
  868MPD2    C412791   2.712   1.046  13.305 -0.2194 -0.8174 -0.2037
  868MPD2    C512792   2.837   0.983  13.301 -0.5842  0.0895 -0.4940
  868MPD2     H12793   2.821   1.341  13.176  0.7463  0.0179  1.4336
  868MPD2    H112794   2.629   0.997  13.354 -2.7775  2.1434 -1.5733
  868MPD2    H212795   3.044   0.993  13.256  0.4765  0.9341 -2.2677
  868MPD2    H312796   2.847   0.879  13.329 -0.2815  0.0510 -0.7523
  868MPD2     N12797   2.580   1.254  13.253  0.0918 -0.1538  0.4552
  868MPD2    H512798   2.581   1.347  13.213 -0.1135 -0.8737 -1.1928
  868MPD2    N112799   3.064   1.233  13.179 -1.1878 -0.0995 -0.9427
  868MPD2    H712800   3.148   1.177  13.179 -0.4296  1.0503  0.3149
  869MPD2     C12801   3.086   4.446   2.598 -0.3613  1.0227  0.0450
  869MPD2    C112802   2.985   4.525   2.540 -0.4754  0.1019  0.2444
  869MPD2    C212803   3.021   4.629   2.450 -0.0949 -0.6609  1.1259
  869MPD2    C312804   3.149   4.655   2.420  0.0512  0.9522 -0.5001
  869MPD2    C412805   3.245   4.568   2.463 -0.4634  0.1253  0.3933
  869MPD2    C512806   3.211   4.467   2.554 -0.1476  0.0715  0.1218
  869MPD2     H12807   2.939   4.696   2.425  0.2091  0.2056  2.4324
  869MPD2    H112808   3.346   4.574   2.426  0.4930 -2.3308  2.5778
  869MPD2    H212809   3.076   4.357   2.659 -1.9134  2.8678  2.5174
  869MPD2    H312810   3.285   4.400   2.597  1.9791  1.7020 -0.9624
  869MPD2     N12811   3.196   0.017   2.330 -0.5410 -0.3988  0.4057
  869MPD2    H512812   3.292   4.732   2.304 -0.8384 -0.4453 -0.6801
  869MPD2    N112813   2.851   4.484   2.570  0.4283  0.0389 -0.3773
  869MPD2    H712814   2.834   4.410   2.638  3.9990 -1.2767 -0.9182
  870MPD2     C12815   2.466   3.025   1.346 -0.7051 -0.2101  0.0026
  870MPD2    C112816   2.539   3.057   1.232 -0.3113 -0.4529  0.3012
  870MPD2    C212817   2.534   3.181   1.177 -0.5821  0.0394  0.2312
  870MPD2    C312818   2.453   3.283   1.236  0.6768 -0.5738 -0.1578
  870MPD2    C412819   2.375   3.249   1.346  0.1118  0.6709 -0.1060
  870MPD2    C512820   2.381   3.124   1.401  0.5919  0.3507  0.6442
  870MPD2     H12821   2.583   3.203   1.083  0.7580 -1.1951  0.6448
  870MPD2    H112822   2.304   3.312   1.399 -1.0550 -0.1036 -0.7551
  870MPD2    H212823   2.479   2.929   1.394 -0.1468 -1.1229 -1.9537
  870MPD2    H312824   2.332   3.109   1.496  1.8285 -1.0575  1.0449
  870MPD2     N12825   2.439   3.406   1.174  1.0156  0.4147  0.0497
  870MPD2    H512826   2.482   3.423   1.084 -0.1422 -0.6678 -0.7178
  870MPD2    N112827   2.617   2.955   1.180 -0.1415 -0.8326  0.3804
  870MPD2    H712828   2.597   2.857   1.202 -1.6939 -0.6839 -0.3100
  871MPD2     C12829   4.366   2.701  16.518  0.2927  0.4030  0.8334
  871MPD2    C112830   4.336   2.670  16.653 -0.2273 -0.1794  0.1010
  871MPD2    C212831   4.292   2.546  16.694 -0.0787  0.1478  0.6650
  871MPD2    C312832   4.304   2.441  16.606 -0.1478  0.3745 -0.1007
  871MPD2    C412833   4.335   2.475  16.473 -0.5673  0.0429 -0.1477
  871MPD2    C512834   4.376   2.597  16.432 -0.2101  0.5110  0.0858
  871MPD2     H12835   4.261   2.528  16.796 -0.0942  0.9860  0.8063
  871MPD2    H112836   4.333   2.387  16.410 -2.4756 -1.1403  1.5615
  871MPD2    H212837   4.386   2.803  16.489 -0.6134  0.2565 -0.3241
  871MPD2    H312838   4.393   2.621  16.327  1.1688 -1.3910 -0.1222
  871MPD2     N12839   4.271   2.306  16.647  0.0139  0.2756  0.5166
  871MPD2    H512840   4.235   2.292  16.741  1.4417 -1.7078  0.7682
  871MPD2    N112841   4.351   2.778  16.749  0.0384 -0.3223 -0.4552
  871MPD2    H712842   4.403   2.859  16.714  1.4837 -0.2153  1.9119
  872MPD2     C12843   0.531   4.676  14.108  0.2261  0.2603  0.6134
  872MPD2    C112844   0.521   0.063  14.050  0.3614 -0.3966 -0.0752
  872MPD2    C212845   0.414   0.144  14.081  0.0328 -0.4651  0.4876
  872MPD2    C312846   0.319   0.100  14.170  0.2642  0.5375  0.1389
  872MPD2    C412847   0.334   4.709  14.225 -0.4208  0.2670 -0.2508
  872MPD2    C512848   0.445   4.633  14.204 -0.8079 -0.0778 -0.4647
  872MPD2     H12849   0.407   0.244  14.039  0.5004 -1.2165 -1.4255
  872MPD2    H112850   0.259   4.667  14.291 -0.0495  1.4611  0.9437
  872MPD2    H212851   0.592   4.594  14.073  0.2463 -0.6249  2.7453
  872MPD2    H312852   0.456   4.530  14.235  0.7582  0.4305  0.6628
  872MPD2     N12853   0.217   0.184  14.205 -0.8412 -0.0104 -0.7880
  872MPD2    H512854   0.177   0.145  14.290 -1.3362 -1.6684 -1.7801
  872MPD2    N112855   0.610   0.111  13.954 -0.1450  0.0240  0.5334
  872MPD2    H712856   0.576   0.196  13.909 -0.6879 -0.4008  0.1361
  873MPD2     C12857   2.342   0.189   1.091  0.4111 -0.0441 -0.2372
  873MPD2    C112858   2.211   0.176   1.127  0.4874  0.1846 -0.6778
  873MPD2    C212859   2.166   0.043   1.147 -0.0105  0.2003 -0.0206
  873MPD2    C312860   2.246   4.674   1.115 -0.6740  0.5841 -0.4320
  873MPD2    C412861   2.382   4.689   1.081 -0.2238  0.0794  0.3693
  873MPD2    C512862   2.423   0.085   1.058 -0.1000 -0.5870 -0.1326
  873MPD2     H12863   2.064   0.023   1.179  0.0432  0.4690  0.3345
  873MPD2    H112864   2.435   4.603   1.042  0.6883  0.7659  0.0755
  873MPD2    H212865   2.381   0.289   1.080  0.2728  0.2154  1.6704
  873MPD2    H312866   2.527   0.095   1.030  0.1675  0.5411  1.2891
  873MPD2     N12867   2.198   4.535   1.111  0.4599  0.4319  0.8419
  873MPD2    H512868   2.267   4.461   1.122 -0.5408 -0.5670  0.3237
  873MPD2    N112869   2.128   0.289   1.146 -0.2374 -1.0130 -0.5554
  873MPD2    H712870   2.175   0.378   1.158 -3.2538  0.1915  2.2644
  874MPD2     C12871   1.469   0.321  16.042  0.3142  0.4979  0.5767
  874MPD2    C112872   1.571   0.255  16.097  0.4381 -0.3444 -0.7951
  874MPD2    C212873   1.697   0.280  16.052 -0.2530 -0.3082  0.6727
  874MPD2    C312874   1.721   0.365  15.950 -0.6189 -0.8316 -0.0659
  874MPD2    C412875   1.612   0.426  15.889 -0.3233 -0.5455  0.3515
  874MPD2    C512876   1.486   0.402  15.933  0.3888 -0.8257 -0.0693
  874MPD2     H12877   1.787   0.231  16.087  0.7551  0.2697 -1.1257
  874MPD2    H112878   1.625   0.492  15.804 -0.1922 -1.4130 -0.2980
  874MPD2    H212879   1.366   0.312  16.075  0.2124  0.2748  0.2025
  874MPD2    H312880   1.412   0.460  15.881 -0.9362  0.0709  2.7899
  874MPD2     N12881   1.857   0.386  15.910  0.6608  0.4641  0.3419
  874MPD2    H512882   1.926   0.348  15.974  1.0735  1.2053  0.3433
  874MPD2    N112883   1.549   0.177  16.208  0.2739  0.0834 -0.2705
  874MPD2    H712884   1.452   0.150  16.220 -0.2217  1.9046 -0.2602
  875MPD2     C12885   2.876   3.376  14.285 -0.1448 -0.0735  0.2665
  875MPD2    C112886   2.747   3.391  14.330 -0.0289 -0.0567  0.2947
  875MPD2    C212887   2.731   3.435  14.463 -0.3343  0.2124  0.7808
  875MPD2    C312888   2.837   3.452  14.549 -0.6442  0.0355  0.1511
  875MPD2    C412889   2.963   3.435  14.498 -0.0348  0.1924 -0.0891
  875MPD2    C512890   2.980   3.399  14.367 -0.0783  0.6758  0.1175
  875MPD2     H12891   2.637   3.472  14.502  0.6031  3.4229  0.0126
  875MPD2    H112892   3.050   3.445  14.562 -0.2174 -3.3298  0.7331
  875MPD2    H212893   2.893   3.353  14.180  1.9335  0.6266  0.4525
  875MPD2    H312894   3.080   3.369  14.337 -0.0155  1.2073 -0.2151
  875MPD2     N12895   2.830   3.485  14.685 -0.1587 -1.0755 -0.4462
  875MPD2    H512896   2.916   3.498  14.738  0.0637  1.3657 -1.3946
  875MPD2    N112897   2.631   3.371  14.255 -0.0866 -0.0998 -0.2026
  875MPD2    H712898   2.542   3.385  14.302  0.2061 -0.1966  0.3769
  876MPD2     C12899   1.384   4.639  15.996 -0.5188  0.0233 -0.2800
  876MPD2    C112900   1.506   4.631  15.939  0.3356 -0.1846  0.5191
  876MPD2    C212901   1.565   4.507  15.942  0.3986  0.4967 -0.1301
  876MPD2    C312902   1.519   4.403  16.017 -0.6364 -0.0164  0.2380
  876MPD2    C412903   1.403   4.423  16.080  0.7208  0.2118 -0.2924
  876MPD2    C512904   1.331   4.536  16.069 -0.1226  0.7795 -0.3981
  876MPD2     H12905   1.657   4.493  15.885  0.9355 -1.6079  1.2742
  876MPD2    H112906   1.353   4.341  16.130 -0.1178  0.4153 -0.7996
  876MPD2    H212907   1.317   4.725  15.994  0.7503  1.0191  0.7098
  876MPD2    H312908   1.238   4.550  16.124 -1.1602 -3.0313 -1.2151
  876MPD2     N12909   1.592   4.279  16.017 -0.2257  0.5053 -0.5404
  876MPD2    H512910   1.671   4.282  15.953  0.2660  0.7992  0.0797
  876MPD2    N112911   1.549   0.007  15.858 -0.0466  0.2938  0.0457
  876MPD2    H712912   1.476   0.072  15.832  0.0055  1.6101  3.1091
  877MPD2     C12913   1.404   0.364  15.181 -0.4293  0.3609  0.2616
  877MPD2    C112914   1.535   0.384  15.214  0.5076  0.1563 -0.4813
  877MPD2    C212915   1.619   0.428  15.119  0.6730 -0.3552  0.0124
  877MPD2    C312916   1.594   0.439  14.984  0.0560 -0.3826 -0.2166
  877MPD2    C412917   1.464   0.409  14.954  0.1494 -0.0256  0.2506
  877MPD2    C512918   1.372   0.369  15.046  1.0878  0.0384  0.5823
  877MPD2     H12919   1.715   0.447  15.165 -0.8447  1.1021  2.5302
  877MPD2    H112920   1.419   0.430  14.857  0.2850 -0.9528 -0.0145
  877MPD2    H212921   1.328   0.336  15.253 -0.9455  1.1840  0.0362
  877MPD2    H312922   1.266   0.350  15.033  1.7724 -3.0414 -0.5173
  877MPD2     N12923   1.687   0.462  14.883 -0.3880 -0.4025  0.0813
  877MPD2    H512924   1.662   0.442  14.787 -0.0834 -0.9015  0.1037
  877MPD2    N112925   1.586   0.362  15.340 -0.1643  0.2654 -0.2567
  877MPD2    H712926   1.687   0.372  15.350 -0.2857  0.6797  0.5277
  878MPD2     C12927   1.232   3.780  12.964  0.0406 -0.4428  0.3339
  878MPD2    C112928   1.299   3.901  12.937  0.4063 -0.3551 -0.4556
  878MPD2    C212929   1.315   3.991  13.045  0.1751  0.4983 -0.1245
  878MPD2    C312930   1.267   3.960  13.174  0.0079 -0.1124 -0.1807
  878MPD2    C412931   1.194   3.842  13.194  0.1225  0.1841 -0.0791
  878MPD2    C512932   1.181   3.753  13.087  0.8071 -0.1333  0.6895
  878MPD2     H12933   1.361   4.088  13.034 -0.9995  1.2329  1.3645
  878MPD2    H112934   1.165   3.808  13.293 -2.0944 -0.0513 -0.8156
  878MPD2    H212935   1.235   3.698  12.893 -0.9744 -0.6742  0.5572
  878MPD2    H312936   1.140   3.655  13.106  0.5711 -0.0523  0.5945
  878MPD2     N12937   1.286   4.051  13.285  0.0573 -0.8623  0.2875
  878MPD2    H512938   1.361   4.119  13.278 -0.4602 -0.3775 -0.6070
  878MPD2    N112939   1.346   3.916  12.813  0.0811 -0.7403 -0.2719
  878MPD2    H712940   1.332   3.843  12.743 -1.8283 -2.1003  1.5589
  879MPD2     C12941   1.818   1.396  16.601  0.0852  0.1544 -0.4588
  879MPD2    C112942   1.840   1.281  16.669  0.0502  0.7554  0.0232
  879MPD2    C212943   1.827   1.155  16.599  0.1475  0.4373  0.0754
  879MPD2    C312944   1.796   1.149  16.465 -0.0344 -0.3030  0.4752
  879MPD2    C412945   1.767   1.268  16.402 -0.8668  0.2110  0.2440
  879MPD2    C512946   1.776   1.385  16.471  0.4455 -0.6917  0.5290
  879MPD2     H12947   1.870   1.069  16.649 -0.0572  1.3999  1.9225
  879MPD2    H112948   1.771   1.261  16.294 -2.5797 -2.6412  0.3742
  879MPD2    H212949   1.844   1.494  16.639  1.7369 -0.1328 -0.8264
  879MPD2    H312950   1.792   1.479  16.419 -1.7990 -1.6896 -1.9596
  879MPD2     N12951   1.794   1.023  16.385 -0.1402 -0.1073  0.1201
  879MPD2    H512952   1.760   1.028  16.289  0.5766 -0.2140 -0.1409
  879MPD2    N112953   1.879   1.293  16.801  0.0196 -0.4914 -0.2712
  879MPD2    H712954   1.888   1.386  16.842  1.4533 -0.1505 -1.3586
  880MPD2     C12955   2.754   2.940   0.588  0.2181 -0.4209 -0.1827
  880MPD2    C112956   2.859   3.006   0.520 -0.2953 -0.2077 -0.1039
  880MPD2    C212957   2.985   2.957   0.541 -0.0645  0.2732  0.1394
  880MPD2    C312958   3.017   2.849   0.617 -0.2037 -0.4184  0.1753
  880MPD2    C412959   2.907   2.775   0.670  0.0755 -0.1928  0.0862
  880MPD2    C512960   2.778   2.828   0.662  0.5932 -0.0356 -0.1594
  880MPD2     H12961   3.070   3.010   0.498 -0.5460 -0.2396 -1.4437
  880MPD2    H112962   2.922   2.685   0.729 -1.2496 -0.7016 -0.3544
  880MPD2    H212963   2.654   2.980   0.574  0.8570  1.5773  0.9932
  880MPD2    H312964   2.694   2.780   0.711 -1.1226  0.6432 -2.4020
  880MPD2     N12965   3.151   2.809   0.628 -0.1435  0.8203  0.5193
  880MPD2    H512966   3.223   2.864   0.581  0.6826 -0.1241  0.6831
  880MPD2    N112967   2.826   3.110   0.428  0.5155 -0.1921  0.1890
  880MPD2    H712968   2.731   3.138   0.408  0.8592  1.0282  0.2725
  881MPD2     C12969   3.041   3.727  17.283 -0.1557  0.0557  1.0592
  881MPD2    C112970   3.137   3.696  17.374 -0.3708 -0.3700  0.0277
  881MPD2    C212971   3.096   3.630  17.493 -0.8226  0.5040 -0.4236
  881MPD2    C312972   2.960   3.618  17.527 -0.4440  0.7351  0.1783
  881MPD2    C412973   2.863   3.657  17.435  0.1409  0.0473 -0.2270
  881MPD2    C512974   2.909   3.707  17.309  0.4455  1.0276  0.0142
  881MPD2     H12975   3.175   3.587  17.553 -2.7097 -0.2504  1.5384
  881MPD2    H112976   2.757   3.650  17.456 -0.0915 -2.3809 -2.3737
  881MPD2    H212977   3.071   3.755  17.183  0.5713 -0.9462  0.9969
  881MPD2    H312978   2.844   3.747  17.232 -0.4513  3.6842  2.1612
  881MPD2     N12979   2.912   3.578  17.650 -0.5387 -0.0540  0.0523
  881MPD2    H512980   2.812   3.583  17.664 -0.8518  2.2168 -2.8453
  881MPD2    N112981   3.272   3.685  17.324  0.2070  0.2424 -0.1362
  881MPD2    H712982   3.297   3.715  17.231 -1.9568  1.8168 -0.2199
  882MPD2     C12983   1.891   0.074  14.266  0.7821  0.2068  0.7510
  882MPD2    C112984   1.820   0.138  14.362 -0.0924  0.2310 -0.0878
  882MPD2    C212985   1.696   0.088  14.408 -0.0506  0.3748  0.1814
  882MPD2    C312986   1.640   4.712  14.336 -0.3305  0.3825  0.8993
  882MPD2    C412987   1.711   4.654  14.235  0.8777  0.5230  0.7920
  882MPD2    C512988   1.838   4.699  14.203  0.0094  0.0757  0.1747
  882MPD2     H12989   1.650   0.120  14.500 -1.1740 -1.8824  0.4097
  882MPD2    H112990   1.668   4.573  14.177 -1.7303  1.3471  1.5828
  882MPD2    H212991   1.989   0.108  14.237 -0.3543  2.9470  0.1494
  882MPD2    H312992   1.889   4.655  14.118  3.5092  0.1874  2.2248
  882MPD2     N12993   1.521   4.655  14.393  0.6547 -0.2377 -0.0531
  882MPD2    H512994   1.499   4.691  14.485 -0.0458 -0.5487 -0.0987
  882MPD2    N112995   1.881   0.247  14.422  0.7131  0.0242  0.0271
  882MPD2    H712996   1.975   0.267  14.389  0.9216 -1.5375 -0.3380
  883MPD2     C12997   3.651   0.008  16.009 -0.5991 -0.3842 -0.2773
  883MPD2    C112998   3.653   0.101  15.902 -0.5015  0.1647  0.0997
  883MPD2    C212999   3.721   0.217  15.908 -0.8313  0.7568 -0.0232
  883MPD2    C313000   3.795   0.246  16.020  0.2478  0.0111  0.8536
  883MPD2    C413001   3.763   0.174  16.130  0.0502 -0.4784  0.2860
  883MPD2    C513002   3.691   0.059  16.127 -0.4039  0.1859  0.2929
  883MPD2     H13003   3.716   0.293  15.830  0.2212  0.3057 -0.5250
  883MPD2    H113004   3.790   0.193  16.234 -0.0804 -0.7599  0.3727
  883MPD2    H213005   3.590   4.654  16.018 -2.4631  0.8580 -0.7321
  883MPD2    H313006   3.679   0.012  16.224  1.7552  2.4627  1.6902
  883MPD2     N13007   3.874   0.364  16.012  0.1716 -0.2711  0.0858
  883MPD2    H513008   3.872   0.404  15.918 -1.6282 -0.7787 -0.0837
  883MPD2    N113009   3.572   0.082  15.782 -0.2820 -0.0144 -0.5777
  883MPD2    H713010   3.575   0.150  15.707 -0.2638  1.7810  1.0630
  884MPD2     C13011   0.770   0.879  15.210  0.3827  0.1605 -0.8568
  884MPD2    C113012   0.666   0.889  15.123 -0.3734 -0.1278  1.0211
  884MPD2    C213013   0.545   0.926  15.168  0.3455 -0.1102 -0.2752
  884MPD2    C313014   0.529   0.952  15.303 -0.3067  0.2065  0.5650
  884MPD2    C413015   0.630   0.939  15.397  0.0681 -0.3048 -0.4705
  884MPD2    C513016   0.752   0.908  15.343  0.5257 -0.3502  0.0173
  884MPD2     H13017   0.456   0.941  15.109  0.0684 -0.1647  0.1258
  884MPD2    H113018   0.602   0.951  15.501 -2.4409  0.0582 -1.1805
  884MPD2    H213019   0.867   0.847  15.174  1.5279  1.3683  1.1324
  884MPD2    H313020   0.833   0.895  15.415  1.3403  0.4400 -0.7566
  884MPD2     N13021   0.397   0.990  15.338  0.7548 -0.2298 -0.3177
  884MPD2    H513022   0.339   1.008  15.257 -0.4958 -1.4128  0.3184
  884MPD2    N113023   0.670   0.863  14.978  0.0037  0.5069  0.1882
  884MPD2    H713024   0.588   0.882  14.921  1.1258  0.2332 -1.5248
  885MPD2     C13025   3.776   1.529   0.326  0.0197  0.7599  0.0742
  885MPD2    C113026   3.712   1.424   0.267 -0.5548  0.5102 -0.0971
  885MPD2    C213027   3.641   1.448   0.146  0.0540  0.4280  0.8074
  885MPD2    C313028   3.648   1.578   0.086 -0.2572 -0.5563 -0.6383
  885MPD2    C413029   3.717   1.677   0.154  0.3821  0.0450 -0.3971
  885MPD2    C513030   3.782   1.653   0.271 -0.0402 -0.2623 -0.5193
  885MPD2     H13031   3.599   1.361   0.098 -2.3215  0.5131  2.7276
  885MPD2    H113032   3.731   1.781   0.125 -0.8243  0.5264  0.7421
  885MPD2    H213033   3.821   1.521   0.424 -1.5063  0.0043  0.7120
  885MPD2    H313034   3.838   1.731   0.322 -0.6930 -0.0688 -0.0998
  885MPD2     N13035   3.593   1.603  17.691  0.4859  0.1093 -0.4841
  885MPD2    H513036   3.526   1.539  17.648 -0.9642 -0.0583  2.0169
  885MPD2    N113037   3.715   1.298   0.334  0.0454  0.5753  0.3746
  885MPD2    H713038   3.661   1.217   0.303  0.0807  1.0470 -0.9303
  886MPD2     C13039   0.564   4.314  14.878  0.2622  0.5328  0.1305
  886MPD2    C113040   0.587   4.337  15.012 -0.2724  0.0719 -0.2612
  886MPD2    C213041   0.527   4.447  15.068 -0.0056  0.1323  0.5530
  886MPD2    C313042   0.434   4.527  14.999 -0.2506 -0.4058  0.4652
  886MPD2    C413043   0.407   4.484  14.870  0.5764  0.3801  0.0356
  886MPD2    C513044   0.471   4.379  14.810 -0.3617  0.4729 -0.7155
  886MPD2     H13045   0.558   4.476  15.168 -2.2491  0.8441  1.0362
  886MPD2    H113046   0.339   4.541  14.807  1.4389  0.4486 -0.8226
  886MPD2    H213047   0.602   4.230  14.820 -0.0770 -1.0515  2.1881
  886MPD2    H313048   0.445   4.355  14.708 -2.2203 -0.5496  0.0082
  886MPD2     N13049   0.375   4.643  15.050  0.0764  0.2243 -0.9232
  886MPD2    H513050   0.315   4.699  14.992 -1.7588 -0.1366  0.6304
  886MPD2    N113051   0.681   4.260  15.087  0.2927  0.9487 -0.0970
  886MPD2    H713052   0.691   4.286  15.185 -0.5301 -1.2566  0.5589
  887MPD2     C13053   1.175   4.336  15.602  0.6204  0.1534 -0.9331
  887MPD2    C113054   1.071   4.392  15.526  0.2034  0.5393 -0.2640
  887MPD2    C213055   1.062   4.529  15.531 -0.3289 -0.0355  0.5710
  887MPD2    C313056   1.153   4.613  15.600 -0.1329  0.2174 -0.5637
  887MPD2    C413057   1.258   4.550  15.664  0.4763 -0.3808 -0.0705
  887MPD2    C513058   1.264   4.414  15.663  0.2038 -0.8852  0.1131
  887MPD2     H13059   0.981   4.578  15.479  0.6004  1.2164  0.2931
  887MPD2    H113060   1.337   4.602  15.718  0.3335 -0.7728  0.5121
  887MPD2    H213061   1.201   4.231  15.594  1.4262  0.0867  2.6568
  887MPD2    H313062   1.342   4.371  15.725  1.5221  0.6836 -0.4427
  887MPD2     N13063   1.127   0.013  15.607 -0.2096  0.4855 -0.7693
  887MPD2    H513064   1.058   0.058  15.546 -0.2351  0.2089 -0.9438
  887MPD2    N113065   0.986   4.309  15.453  0.0024 -0.0994 -0.0903
  887MPD2    H713066   0.916   4.352  15.393  1.6118  0.5556 -1.5030
  888MPD2     C13067   3.054   4.423  14.996  0.0079  0.1740  0.8463
  888MPD2    C113068   2.939   4.500  15.041 -0.0224  0.3538 -0.1925
  888MPD2    C213069   2.945   4.642  15.038 -0.3782 -0.3826  0.1816
  888MPD2    C313070   3.066   4.703  14.999  0.3801 -0.5176  0.1425
  888MPD2    C413071   3.177   4.630  14.962 -0.5044 -0.6401 -0.3297
  888MPD2    C513072   3.166   4.494  14.963  0.0258 -0.4294  1.0039
  888MPD2     H13073   2.865   4.710  15.065 -1.7181 -1.4571 -1.1352
  888MPD2    H113074   3.278   4.667  14.965 -0.0302 -1.8304 -1.3096
  888MPD2    H213075   3.062   4.316  15.007  0.1124  0.3894  2.7388
  888MPD2    H313076   3.263   4.445  14.957 -0.3040 -0.8153 -1.1571
  888MPD2     N13077   3.068   0.108  15.004  0.1639  0.1005 -0.4878
  888MPD2    H513078   2.995   0.160  15.051  0.1890 -1.4170  1.2580
  888MPD2    N113079   2.822   4.437  15.092 -0.4313 -0.7300  0.4864
  888MPD2    H713080   2.742   4.498  15.106 -0.0791 -0.1947  0.1628
  889MPD2     C13081   2.393   4.578  12.961  0.3277  0.4826  0.1383
  889MPD2    C113082   2.389   4.445  13.008 -0.4361  0.6718  0.2615
  889MPD2    C213083   2.442   4.421  13.131  0.0103  0.2389 -0.0288
  889MPD2    C313084   2.461   4.532  13.224  0.8495 -0.5366 -0.3694
  889MPD2    C413085   2.448   4.664  13.181 -0.5026 -0.4872 -1.6115
  889MPD2    C513086   2.411   4.679  13.051 -0.3878 -0.5019 -0.4695
  889MPD2     H13087   2.425   4.319  13.165  0.1961  0.2268  0.0262
  889MPD2    H113088   2.450   0.017  13.245 -0.4311 -0.5833 -1.4833
  889MPD2    H213089   2.349   4.599  12.864  0.3138 -3.1064 -0.6229
  889MPD2    H313090   2.390   0.047  13.022 -1.1087  0.4051  3.1833
  889MPD2     N13091   2.469   4.513  13.370  1.0118  0.4712  0.4055
  889MPD2    H513092   2.459   4.592  13.432 -1.2468 -0.8205  1.6902
  889MPD2    N113093   2.380   4.334  12.923  0.2691 -0.1430  0.3750
  889MPD2    H713094   2.400   4.245  12.967  0.1575  1.1314  2.9915
  890MPD2     C13095   1.697   0.953  14.434  0.8056  0.1814 -0.0302
  890MPD2    C113096   1.809   1.012  14.493  0.2456 -0.9541  0.0472
  890MPD2    C213097   1.853   0.962  14.612 -0.4284 -0.2626 -0.1820
  890MPD2    C313098   1.779   0.875  14.688  0.3540  0.8076 -0.4113
  890MPD2    C413099   1.667   0.825  14.627 -0.2030  0.1709  0.2724
  890MPD2    C513100   1.626   0.864  14.497  0.2512  0.0094  0.1016
  890MPD2     H13101   1.942   1.004  14.656 -0.6736 -1.6970  1.6836
  890MPD2    H113102   1.607   0.743  14.664  0.4397 -0.6153 -0.4411
  890MPD2    H213103   1.667   0.983  14.333  0.8857 -0.1661 -0.1555
  890MPD2    H313104   1.530   0.828  14.462  0.9356 -0.8158 -0.9227
  890MPD2     N13105   1.808   0.835  14.818  0.0144  0.0530 -0.0219
  890MPD2    H513106   1.723   0.796  14.856  0.3823 -1.1372 -0.4250
  890MPD2    N113107   1.875   1.112  14.423  0.5884 -0.1526  0.1409
  890MPD2    H713108   1.829   1.142  14.338  0.9056  1.6322  0.5982
  891MPD2     C13109   4.484   4.198  16.692  0.0304 -0.3312  0.8464
  891MPD2    C113110   4.513   4.314  16.631  0.7919  0.2306 -0.0219
  891MPD2    C213111   4.648   4.352  16.618  0.4777 -0.3242  0.5588
  891MPD2    C313112   0.016   4.278  16.685 -0.6817  0.0287 -0.5174
  891MPD2    C413113   4.714   4.163  16.754 -0.4265  0.0891  0.5563
  891MPD2    C513114   4.581   4.127  16.754  0.5455 -0.4720  0.9066
  891MPD2     H13115   4.680   4.443  16.569 -0.3902 -0.0637  0.4680
  891MPD2    H113116   0.052   4.104  16.808 -0.6043 -0.4749  0.1776
  891MPD2    H213117   4.380   4.167  16.701 -0.8288  2.1655 -0.6004
  891MPD2    H313118   4.544   4.046  16.816 -1.3440 -2.0057 -2.2272
  891MPD2     N13119   0.154   4.313  16.688 -0.7870  0.3423 -0.3077
  891MPD2    H513120   0.216   4.247  16.734 -1.9033 -0.2401  0.3600
  891MPD2    N113121   4.410   4.371  16.551  0.3620  0.1804 -0.5601
  891MPD2    H713122   4.314   4.349  16.579  0.3236  0.9318 -0.1102
  892MPD2     C13123   1.150   0.155  15.131 -0.1672 -0.9609  0.8966
  892MPD2    C113124   1.073   0.184  15.020 -0.3566  0.2842  0.2632
  892MPD2    C213125   1.091   0.119  14.902  0.2340 -0.1328  0.4261
  892MPD2    C313126   1.184   0.013  14.891  0.7063  0.5240  0.4947
  892MPD2    C413127   1.262   4.724  15.004  0.8061 -0.4885  0.5232
  892MPD2    C513128   1.243   0.052  15.122  0.1135  0.0919  0.0193
  892MPD2     H13129   1.017   0.128  14.823 -1.6297  0.2574  2.2277
  892MPD2    H113130   1.351   4.662  14.999  0.6803 -0.6417  0.1846
  892MPD2    H213131   1.141   0.222  15.215 -0.1725 -2.1245  1.8201
  892MPD2    H313132   1.313   0.025  15.200 -0.6683 -0.5961  0.4834
  892MPD2     N13133   1.204   4.660  14.784 -0.0409 -0.4844 -0.4246
  892MPD2    H513134   1.274   4.587  14.790  0.2985 -0.1475 -0.3127
  892MPD2    N113135   0.972   0.278  15.020 -0.3936 -0.5825  0.1428
  892MPD2    H713136   0.921   0.291  14.934  1.8790  0.2815 -1.0831
  893MPD2     C13137   2.297   4.129   1.048 -0.9597  0.1597  0.4082
  893MPD2    C113138   2.296   4.101   1.184 -0.3716 -0.7726  0.3259
  893MPD2    C213139   2.234   3.990   1.234 -0.2745 -0.2000 -0.3719
  893MPD2    C313140   2.182   3.898   1.144 -0.0514  0.1391  0.3753
  893MPD2    C413141   2.191   3.919   1.007  0.6987  0.2661 -0.8848
  893MPD2    C513142   2.250   4.034   0.958 -0.5548  0.2576 -0.3266
  893MPD2     H13143   2.218   3.968   1.339 -2.6069  3.4465  0.0248
  893MPD2    H113144   2.143   3.856   0.933  0.1893  1.0613 -1.2291
  893MPD2    H213145   2.344   4.219   1.008  0.2764 -1.0790 -0.9353
  893MPD2    H313146   2.253   4.058   0.853  1.6681  2.7666  0.2976
  893MPD2     N13147   2.112   3.778   1.174  0.2506 -0.3219  0.7898
  893MPD2    H513148   2.067   3.726   1.100 -0.8238  1.7978 -0.0512
  893MPD2    N113149   2.370   4.177   1.275 -0.1185 -0.0936 -0.6868
  893MPD2    H713150   2.375   4.139   1.369  1.2291 -0.7093 -1.0098
  894MPD2     C13151   1.230   2.121   1.550  0.2640  0.9748  0.6037
  894MPD2    C113152   1.099   2.072   1.550  0.0516  0.0181 -0.3210
  894MPD2    C213153   1.067   1.977   1.644  0.2993 -0.0231 -0.5608
  894MPD2    C313154   1.169   1.918   1.727 -0.0867 -0.2700  0.4958
  894MPD2    C413155   1.289   1.974   1.728  0.3764  1.0768  0.2551
  894MPD2    C513156   1.324   2.081   1.643  0.0044 -0.0929  0.4521
  894MPD2     H13157   0.965   1.942   1.643  1.7150 -4.1987 -0.7094
  894MPD2    H113158   1.363   1.931   1.793  0.4734 -0.2836 -0.7635
  894MPD2    H213159   1.260   2.203   1.485  1.9292 -0.2705 -0.1728
  894MPD2    H313160   1.422   2.126   1.652  0.2071 -0.0608 -1.9620
  894MPD2     N13161   1.149   1.795   1.799 -0.5272 -0.0341  0.6415
  894MPD2    H513162   1.233   1.765   1.848  0.6938  0.3771 -1.1781
  894MPD2    N113163   0.998   2.099   1.448  0.2098 -0.7120 -0.1300
  894MPD2    H713164   0.905   2.060   1.461  0.4625 -1.8936 -2.0627
  895MPD2     C13165   0.104   4.712  13.841 -0.0335 -0.2603  0.3053
  895MPD2    C113166   0.024   4.661  13.745 -0.9223 -0.5068  0.1591
  895MPD2    C213167   0.058   4.550  13.683  0.8500 -0.0603  0.0221
  895MPD2    C313168   0.170   4.474  13.713 -0.1503  0.3324 -0.0974
  895MPD2    C413169   0.253   4.525  13.808 -0.0324  0.1809 -0.2626
  895MPD2    C513170   0.221   4.644  13.870  0.4817  0.3339  0.0917
  895MPD2     H13171   4.723   4.516  13.607  0.0730  1.8814 -0.1543
  895MPD2    H113172   0.340   4.475  13.849 -0.8674 -3.1792 -2.6646
  895MPD2    H213173   0.094   0.070  13.896  0.5088 -0.1977  0.3025
  895MPD2    H313174   0.285   4.681  13.950  0.4943  0.5480 -0.0168
  895MPD2     N13175   0.188   4.352  13.641  0.2047  1.2047 -0.0761
  895MPD2    H513176   0.109   4.339  13.578  0.6533  1.1852 -0.6339
  895MPD2    N113177   4.627   4.708  13.723 -0.1753  0.1230  0.4066
  895MPD2    H713178   4.573   4.655  13.656  1.6087  1.1829 -1.8600
  896MPD2     C13179   1.770   2.002   1.822  1.0202 -0.3509 -0.4972
  896MPD2    C113180   1.796   2.000   1.681  0.6723  0.4525  0.0171
  896MPD2    C213181   1.715   1.917   1.603  0.0684  0.7145  0.3754
  896MPD2    C313182   1.627   1.830   1.658  0.3191 -0.7039  0.5542
  896MPD2    C413183   1.611   1.830   1.795 -0.2137  0.0659 -0.0865
  896MPD2    C513184   1.675   1.917   1.875 -0.4936  0.0764 -0.3833
  896MPD2     H13185   1.746   1.903   1.500 -1.9255 -0.8012 -0.0180
  896MPD2    H113186   1.539   1.768   1.847  1.6800 -3.8250 -2.0853
  896MPD2    H213187   1.813   2.067   1.897  0.4286  0.6100 -0.9900
  896MPD2    H313188   1.661   1.920   1.982 -0.7401  0.0489 -0.4158
  896MPD2     N13189   1.568   1.745   1.563  0.3104  0.4914 -0.0628
  896MPD2    H513190   1.606   1.749   1.469 -0.7773 -0.4475 -0.5378
  896MPD2    N113191   1.892   2.089   1.624 -1.0765  0.1550 -0.3144
  896MPD2    H713192   1.929   2.150   1.696 -1.8601  0.1492  0.0946
  897MPD2     C13193   3.103   4.398  10.875  0.0806  0.4366 -1.2540
  897MPD2    C113194   3.019   4.401  10.764  0.1405  0.4407 -0.1432
  897MPD2    C213195   2.891   4.347  10.766 -0.3763  0.2998 -0.5672
  897MPD2    C313196   2.852   4.281  10.881  0.1817  0.2042 -0.0945
  897MPD2    C413197   2.926   4.290  10.997  0.1442 -0.7420  0.8316
  897MPD2    C513198   3.053   4.340  10.988 -0.0781  0.4724 -0.1999
  897MPD2     H13199   2.831   4.334  10.676  1.5216  0.0776 -1.8042
  897MPD2    H113200   2.893   4.245  11.090 -2.1105  1.5775  1.1237
  897MPD2    H213201   3.204   4.438  10.864  0.3065 -0.4224 -2.2878
  897MPD2    H313202   3.104   4.346  11.084 -1.8248  0.7566  0.7098
  897MPD2     N13203   2.727   4.218  10.871  0.0985 -0.7787  0.2029
  897MPD2    H513204   2.678   4.246  10.787  3.3748 -0.9970 -1.7789
  897MPD2    N113205   3.084   4.455  10.649  0.0204  0.0939  0.3048
  897MPD2    H713206   3.181   4.485  10.646  0.4021 -0.9087  2.3590
  898MPD2     C13207   0.636   0.328   0.129 -0.0543 -0.3901  1.0350
  898MPD2    C113208   0.647   0.310  17.725  0.4530 -0.1118  0.1501
  898MPD2    C213209   0.558   0.395  17.655  0.1434  0.4228 -0.2007
  898MPD2    C313210   0.458   0.473  17.713  0.0520  0.8417 -0.5845
  898MPD2    C413211   0.450   0.479   0.116  0.2657 -0.0064 -0.0402
  898MPD2    C513212   0.535   0.403   0.188  0.3552  0.4951 -0.4136
  898MPD2     H13213   0.564   0.383  17.547  1.2901 -0.6308 -0.0177
  898MPD2    H113214   0.371   0.537   0.163  1.2105  0.1046  1.4299
  898MPD2    H213215   0.711   0.280   0.192  0.0809  0.5857  1.6218
  898MPD2    H313216   0.524   0.402   0.295  0.6210  1.6485 -0.3740
  898MPD2     N13217   0.377   0.545  17.620  0.0442 -0.1327 -0.0737
  898MPD2    H513218   0.404   0.530  17.523  0.4477 -2.2303  0.3697
  898MPD2    N113219   0.743   0.229  17.657 -0.2669 -0.0256 -0.0474
  898MPD2    H713220   0.743   0.208  17.558 -1.1550  0.4831 -0.1564
  899MPD2     C13221   0.908   0.698  17.305 -0.1367  0.2157  1.0936
  899MPD2    C113222   1.037   0.725  17.305  0.0200  0.6021  0.0209
  899MPD2    C213223   1.119   0.665  17.399 -0.2101 -0.4450 -0.2971
  899MPD2    C313224   1.072   0.587  17.502  0.0303  0.0739 -0.7181
  899MPD2    C413225   0.937   0.568  17.504  0.5467  0.7283  0.2481
  899MPD2    C513226   0.857   0.625  17.409 -0.0907 -0.1483 -0.5148
  899MPD2     H13227   1.227   0.674  17.401 -0.2957  0.6715 -1.3866
  899MPD2    H113228   0.878   0.512  17.576  1.9120 -0.8896  0.1062
  899MPD2    H213229   0.832   0.720  17.231  1.0356  1.3435  0.2361
  899MPD2    H313230   0.751   0.608  17.417 -0.1639  0.5378  0.0103
  899MPD2     N13231   1.146   0.526  17.606 -0.2256 -0.3395 -0.0904
  899MPD2    H513232   1.093   0.470  17.671 -0.0939 -0.3576  0.0001
  899MPD2    N113233   1.084   0.812  17.204  0.2820  0.8769  0.9920
  899MPD2    H713234   1.018   0.833  17.130  0.7933  0.0152  0.3035
  900MPD2     C13235   0.676   1.958  12.428  0.0293  0.6398  0.3841
  900MPD2    C113236   0.599   1.864  12.501 -0.1706 -0.3730  0.2578
  900MPD2    C213237   0.465   1.869  12.469  0.3985  0.6016 -0.4686
  900MPD2    C313238   0.410   1.958  12.377 -0.1961 -0.3887 -0.8698
  900MPD2    C413239   0.489   2.054  12.320  0.5173  0.1070  0.9452
  900MPD2    C513240   0.625   2.055  12.346  0.1347 -0.2270 -0.0420
  900MPD2     H13241   0.391   1.808  12.520  1.3518  1.4164  1.8995
  900MPD2    H113242   0.460   2.131  12.249 -0.2570 -2.1965 -1.2498
  900MPD2    H213243   0.782   1.970  12.448  0.3608  1.8624 -2.0899
  900MPD2    H313244   0.687   2.134  12.304 -0.6975  1.2233  1.4347
  900MPD2     N13245   0.269   1.962  12.361 -0.0596  0.1290 -0.7893
  900MPD2    H513246   0.226   1.876  12.392 -0.2786  0.7134  0.5460
  900MPD2    N113247   0.662   1.777  12.587  0.1141 -0.7724  0.7466
  900MPD2    H713248   0.763   1.776  12.577 -0.1908 -1.7704 -2.0464
  901MPD2     C13249   0.597   0.689  12.575  0.2092 -0.3305  0.4114
  901MPD2    C113250   0.731   0.724  12.578 -0.0357  0.0092 -0.0383
  901MPD2    C213251   0.758   0.858  12.576 -0.5251 -0.4503 -0.1000
  901MPD2    C313252   0.665   0.954  12.602 -0.1683  0.3721  0.4686
  901MPD2    C413253   0.530   0.920  12.613 -0.7393  0.4304 -0.4321
  901MPD2    C513254   0.496   0.786  12.585 -0.2099  0.3215  0.6386
  901MPD2     H13255   0.860   0.892  12.570 -1.0859  1.4570  1.0415
  901MPD2    H113256   0.445   0.987  12.624 -1.0706 -0.3452  1.8493
  901MPD2    H213257   0.566   0.585  12.575 -2.3765  0.4668 -1.9470
  901MPD2    H313258   0.395   0.747  12.593 -0.0574  0.1494  1.7019
  901MPD2     N13259   0.717   1.089  12.612  0.1549  0.4043  0.3439
  901MPD2    H513260   0.815   1.108  12.596  0.1222  1.8943  1.8975
  901MPD2    N113261   0.834   0.637  12.562  0.2140 -0.7655 -0.2030
  901MPD2    H713262   0.928   0.675  12.550 -0.6700  1.0881 -1.2842
  902MPD2     C13263   4.380   4.588  12.689 -0.0234  0.5345 -0.1563
  902MPD2    C113264   4.489   4.659  12.739 -0.4456  0.4870 -0.2829
  902MPD2    C213265   4.588   4.581  12.788  0.3377 -0.6849 -0.6991
  902MPD2    C313266   4.583   4.438  12.804 -0.0201  0.3011  0.0488
  902MPD2    C413267   4.468   4.375  12.761 -0.6006  0.2860 -0.7246
  902MPD2    C513268   4.363   4.451  12.712 -1.1596  0.1668 -0.2444
  902MPD2     H13269   4.677   4.637  12.814  1.2770 -1.0657 -3.1172
  902MPD2    H113270   4.461   4.269  12.781  1.4477  0.3604  0.4172
  902MPD2    H213271   4.295   4.646  12.656 -0.5168  0.9129  1.7492
  902MPD2    H313272   4.273   4.405  12.672 -0.9923 -1.5606  1.3679
  902MPD2     N13273   4.693   4.362  12.850 -0.1171 -0.5921 -0.6684
  902MPD2    H513274   4.673   4.263  12.845  0.3472 -0.6080 -2.2470
  902MPD2    N113275   4.506   0.062  12.705 -0.2924  0.3838 -0.2213
  902MPD2    H713276   4.599   0.096  12.729  0.3551 -0.2828 -1.8061
  903MPD2     C13277   0.368   0.044  12.569 -0.2232  0.0896  0.4017
  903MPD2    C113278   0.311   4.661  12.538  0.4264 -0.2010  0.1277
  903MPD2    C213279   0.199   4.668  12.456 -0.3688  0.4688  0.2140
  903MPD2    C313280   0.148   0.053  12.409  0.5071  0.1264 -0.5326
  903MPD2    C413281   0.227   0.168  12.433  0.1522  0.3702  1.2086
  903MPD2    C513282   0.331   0.159  12.515  0.4508  0.3954  0.0414
  903MPD2     H13283   0.148   4.575  12.436  0.1755  0.3053 -0.3922
  903MPD2    H113284   0.200   0.269  12.404  0.0491 -0.5363 -1.8806
  903MPD2    H213285   0.436   0.033  12.653  0.9441 -2.7535 -0.9041
  903MPD2    H313286   0.368   0.252  12.557  1.6964  0.4147 -1.0945
  903MPD2     N13287   0.033   0.045  12.339  0.2145  0.6735  0.3552
  903MPD2    H513288   4.714   4.697  12.365 -0.5719  0.5943 -1.5170
  903MPD2    N113289   0.367   4.540  12.603 -0.0808 -0.3504 -0.0455
  903MPD2    H713290   0.435   4.547  12.679 -1.8502  4.0073  1.1775
  904MPD2     C13291   4.447   4.041  13.757  0.0170  0.5347  0.0402
  904MPD2    C113292   4.411   3.936  13.855 -0.0176 -0.2124 -0.1014
  904MPD2    C213293   4.518   3.883  13.934 -0.4764  0.2316  0.2168
  904MPD2    C313294   4.646   3.937  13.930  0.2859  0.4132 -0.3083
  904MPD2    C413295   4.672   4.047  13.856  0.3714 -0.1754 -0.3570
  904MPD2    C513296   4.571   4.097  13.775  0.5703 -0.5219  0.0800
  904MPD2     H13297   4.494   3.804  14.004 -0.5028 -2.1260 -2.4371
  904MPD2    H113298   0.039   4.083  13.868  0.3953 -0.5298  0.5150
  904MPD2    H213299   4.373   4.085  13.691 -0.0399  1.0034  0.4189
  904MPD2    H313300   4.598   4.180  13.711  0.7414 -1.1592 -0.6610
  904MPD2     N13301   0.014   3.886  14.007 -0.3879  0.4727 -0.5204
  904MPD2    H513302   4.720   3.801  14.054  0.7795  0.5677  0.3455
  904MPD2    N113303   4.282   3.878  13.850 -0.1024  0.8004 -0.4917
  904MPD2    H713304   4.271   3.782  13.882  0.1120  0.6780 -0.7851
  905MPD2     C13305   4.231   4.070  13.252  1.0329  0.6516 -0.7334
  905MPD2    C113306   4.282   4.147  13.349 -0.7845 -0.3227  0.0365
  905MPD2    C213307   4.425   4.170  13.352 -0.2756  0.4073  0.1855
  905MPD2    C313308   4.508   4.096  13.274  0.2655 -0.0393 -0.2105
  905MPD2    C413309   4.451   4.021  13.172  0.5452 -0.0748  0.0896
  905MPD2    C513310   4.314   4.001  13.168  0.5704 -0.0408 -0.1917
  905MPD2     H13311   4.469   4.231  13.430  1.5734  1.1165 -1.4076
  905MPD2    H113312   4.518   3.956  13.117  0.0657 -0.3033 -0.2186
  905MPD2    H213313   4.128   4.038  13.246  1.3103 -0.4502  0.2905
  905MPD2    H313314   4.285   3.931  13.091 -1.6447  1.7769 -1.0250
  905MPD2     N13315   4.649   4.097  13.274 -0.4235  0.1080 -0.4501
  905MPD2    H513316   4.696   4.032  13.212 -2.9156 -3.5269  1.5087
  905MPD2    N113317   4.189   4.185  13.446  0.1108 -0.2001  0.4456
  905MPD2    H713318   4.097   4.142  13.438 -0.5183  1.1800  0.1876
  906MPD2     C13319   1.471   3.858  11.073  0.6481 -0.0485  0.3303
  906MPD2    C113320   1.441   3.802  10.946 -0.3408 -0.1605  0.7708
  906MPD2    C213321   1.407   3.669  10.933  0.3128 -0.5400  0.5005
  906MPD2    C313322   1.391   3.585  11.038 -0.3476 -0.1547 -0.5927
  906MPD2    C413323   1.399   3.642  11.162 -0.6410  0.4843 -0.1295
  906MPD2    C513324   1.444   3.774  11.174  0.0022  0.2033  0.3592
  906MPD2     H13325   1.386   3.634  10.833 -1.1374  0.2484  0.5272
  906MPD2    H113326   1.379   3.589  11.255  2.8755  1.0066  0.9234
  906MPD2    H213327   1.496   3.962  11.091  0.7886 -0.0203 -0.0394
  906MPD2    H313328   1.432   3.818  11.273 -0.2108  4.7127 -1.6341
  906MPD2     N13329   1.343   3.454  11.030  0.1536  0.1810 -0.3971
  906MPD2    H513330   1.299   3.421  11.115 -2.0954  0.5180 -1.4356
  906MPD2    N113331   1.457   3.879  10.823  0.5001 -0.6559  0.1221
  906MPD2    H713332   1.434   3.824  10.741 -1.3022  1.3730 -0.7113
  907MPD2     C13333   0.400   3.312  15.534 -0.3462 -0.9354 -0.0182
  907MPD2    C113334   0.450   3.184  15.545  0.2898  0.0714 -0.6718
  907MPD2    C213335   0.493   3.144  15.669  0.2739 -0.5908 -0.6236
  907MPD2    C313336   0.494   3.231  15.775  0.3584  0.2047 -0.6076
  907MPD2    C413337   0.442   3.357  15.768 -0.2998 -0.2761 -0.1891
  907MPD2    C513338   0.396   3.395  15.645  0.1316 -0.0176  0.0770
  907MPD2     H13339   0.541   3.047  15.669  0.7702 -0.3417  1.7932
  907MPD2    H113340   0.426   3.417  15.856  0.3523 -1.5275  0.7842
  907MPD2    H213341   0.354   3.342  15.441  0.5276 -4.0248 -1.4416
  907MPD2    H313342   0.360   3.496  15.629  0.5137  0.3222  1.3757
  907MPD2     N13343   0.555   3.178  15.887 -0.1702 -0.5497 -0.2322
  907MPD2    H513344   0.598   3.087  15.871 -0.6706 -0.8099 -0.0970
  907MPD2    N113345   0.446   3.092  15.436 -1.3516  0.0147 -0.3080
  907MPD2    H713346   0.474   2.995  15.446 -0.3534  0.4990  1.5556
  908MPD2     C13347   3.218   4.430   9.593  0.0925  0.2395  0.2793
  908MPD2    C113348   3.099   4.388   9.654  0.4957 -0.3606 -0.5381
  908MPD2    C213349   3.083   4.400   9.792 -0.2973 -0.0204 -0.0222
  908MPD2    C313350   3.178   4.474   9.864 -0.0605 -0.5799 -0.0751
  908MPD2    C413351   3.294   4.507   9.795  0.0563 -0.0480  0.3389
  908MPD2    C513352   3.313   4.496   9.662  0.1101  0.1010  0.2493
  908MPD2     H13353   2.988   4.379   9.841 -0.3306 -1.1413 -0.5749
  908MPD2    H113354   3.367   4.571   9.842 -1.5426  1.7164  0.4098
  908MPD2    H213355   3.232   4.423   9.486 -0.4862 -0.2248  0.2315
  908MPD2    H313356   3.394   4.536   9.603 -1.5882  0.1271 -2.0427
  908MPD2     N13357   3.156   4.487  10.007  0.1061 -0.4174 -0.0920
  908MPD2    H513358   3.069   4.445  10.037  2.6007 -4.6863  1.2306
  908MPD2    N113359   3.024   4.309   9.575  0.5219 -0.2690  0.2649
  908MPD2    H713360   3.042   4.309   9.476 -1.3110  2.0051 -0.0572
  909MPD2     C13361   3.611   1.532  11.282 -0.4943  0.0058 -0.1147
  909MPD2    C113362   3.661   1.658  11.290  0.8996  0.0407 -0.4141
  909MPD2    C213363   3.596   1.741  11.378 -0.6903 -0.6997  0.5535
  909MPD2    C313364   3.483   1.708  11.437 -0.6148 -0.5994  0.0138
  909MPD2    C413365   3.426   1.584  11.413 -0.9520  0.0116 -0.3903
  909MPD2    C513366   3.492   1.495  11.333 -0.4467 -0.1166 -0.4847
  909MPD2     H13367   3.636   1.842  11.389 -0.7341 -0.5471 -0.7066
  909MPD2    H113368   3.328   1.554  11.448 -1.1137  1.3262  0.3038
  909MPD2    H213369   3.657   1.449  11.228 -0.2286  0.1820 -0.1570
  909MPD2    H313370   3.448   1.396  11.326 -0.2208 -0.2846  0.5094
  909MPD2     N13371   3.418   1.807  11.512  0.2361  0.1009 -0.1838
  909MPD2    H513372   3.334   1.786  11.566  0.2499 -0.7095 -0.4735
  909MPD2    N113373   3.789   1.688  11.236 -0.4182  0.0628 -0.0022
  909MPD2    H713374   3.820   1.783  11.254  3.5932 -0.9485 -1.6315
  910MPD2     C13375   0.306   4.112  16.356  0.8645  0.6902 -0.4171
  910MPD2    C113376   0.278   3.988  16.301 -0.0345  0.9452 -0.1496
  910MPD2    C213377   0.228   3.980  16.163 -0.5320  0.1027  0.1111
  910MPD2    C313378   0.216   4.100  16.095 -0.3600 -0.4970  0.3926
  910MPD2    C413379   0.240   4.215  16.158 -0.5096 -0.2485  0.0455
  910MPD2    C513380   0.285   4.229  16.281 -0.2719 -0.8546  0.6363
  910MPD2     H13381   0.195   3.882  16.131  1.2564 -0.9748  1.5579
  910MPD2    H113382   0.227   4.311  16.109 -0.3355  0.2695  1.0196
  910MPD2    H213383   0.331   4.133  16.459  1.4495 -0.3977 -0.3447
  910MPD2    H313384   0.316   4.325  16.320  1.6273 -0.4534 -1.8402
  910MPD2     N13385   0.155   4.105  15.973 -0.5071 -0.5619  0.0297
  910MPD2    H513386   0.106   4.186  15.937  0.3314  0.3063  0.8502
  910MPD2    N113387   0.305   3.872  16.373 -0.0339 -0.5204 -0.5389
  910MPD2    H713388   0.286   3.790  16.315  1.2516  0.0583 -1.7832
  911MPD2     C13389   2.855   4.091  16.348  1.2123  0.6248  0.0403
  911MPD2    C113390   2.905   4.218  16.372 -0.8717 -0.2496  0.2357
  911MPD2    C213391   2.815   4.322  16.375  0.2542 -0.3242 -0.1646
  911MPD2    C313392   2.683   4.306  16.339 -0.0152 -0.3142  0.0851
  911MPD2    C413393   2.642   4.181  16.302  0.8060 -0.1977 -0.4619
  911MPD2    C513394   2.729   4.077  16.309 -0.0260 -0.4378  0.4120
  911MPD2     H13395   2.848   4.420  16.407  2.0572 -0.7798 -0.6374
  911MPD2    H113396   2.536   4.159  16.290  1.2634 -3.2211  0.9458
  911MPD2    H213397   2.911   3.998  16.361  1.4355  0.8417  0.6504
  911MPD2    H313398   2.687   3.977  16.305  0.1438 -0.4874 -0.0528
  911MPD2     N13399   2.587   4.404  16.314 -0.0540 -0.1941  0.8335
  911MPD2    H513400   2.494   4.373  16.289  0.1881  1.1340 -1.7414
  911MPD2    N113401   3.040   4.231  16.414 -0.0087 -0.5323  0.6611
  911MPD2    H713402   3.097   4.150  16.391  1.0424  0.2515  0.4851
  912MPD2     C13403   2.245   4.195  15.821 -0.5293 -0.0883  0.0490
  912MPD2    C113404   2.246   4.209  15.960 -0.3676 -0.1218 -0.3253
  912MPD2    C213405   2.269   4.099  16.033  0.1138 -0.0745  0.2741
  912MPD2    C313406   2.302   3.977  15.977 -0.4199  1.1986 -0.4251
  912MPD2    C413407   2.312   3.962  15.843  0.3379 -0.1587  0.5967
  912MPD2    C513408   2.270   4.070  15.764 -0.0472  0.6727  0.0065
  912MPD2     H13409   2.265   4.100  16.141 -3.1407 -2.3295  0.1763
  912MPD2    H113410   2.351   3.876  15.791  1.2443  0.0430  0.9494
  912MPD2    H213411   2.239   4.278  15.752  0.6699 -0.4183 -0.4541
  912MPD2    H313412   2.283   4.061  15.656 -1.7928 -0.8434 -0.0721
  912MPD2     N13413   2.307   3.875  16.068  0.6316  0.1857 -0.5316
  912MPD2    H513414   2.299   3.890  16.168 -0.8721  1.2356 -0.8069
  912MPD2    N113415   2.242   4.342  16.007 -0.4737 -0.3986  0.3700
  912MPD2    H713416   2.195   4.416  15.956  3.9728  2.3207  0.2049
  913MPD2     C13417   2.414   0.924  10.451 -0.4964  0.6038 -0.1446
  913MPD2    C113418   2.457   1.042  10.509 -0.2485 -0.1646 -0.5473
  913MPD2    C213419   2.460   1.161  10.438  0.6663 -0.3052 -0.5157
  913MPD2    C313420   2.419   1.150  10.304 -0.0847  0.0494 -0.6916
  913MPD2    C413421   2.371   1.035  10.248 -0.0367 -0.7989  0.1988
  913MPD2    C513422   2.362   0.923  10.327  0.0643 -0.2061 -0.4366
  913MPD2     H13423   2.498   1.257  10.468 -0.3303 -0.4433  1.1975
  913MPD2    H113424   2.324   1.036  10.150 -0.5159 -1.2526  0.4210
  913MPD2    H213425   2.406   0.834  10.512 -0.3102  1.3741  1.0171
  913MPD2    H313426   2.317   0.832  10.290  1.6976 -0.9937 -0.4829
  913MPD2     N13427   2.424   1.259  10.218  0.2201  0.1368 -0.3466
  913MPD2    H513428   2.380   1.251  10.127  0.5491  0.1252 -0.5030
  913MPD2    N113429   2.501   1.044  10.643 -0.1444 -0.6356  0.3794
  913MPD2    H713430   2.493   0.961  10.701 -0.7160 -0.9332 -0.1253
  914MPD2     C13431   1.475   0.852  12.113  0.1295  0.0178 -0.0498
  914MPD2    C113432   1.414   0.899  12.228  0.9003  0.6202  0.3078
  914MPD2    C213433   1.336   0.818  12.306  0.0141  0.7265  0.1655
  914MPD2    C313434   1.318   0.692  12.264 -1.4299 -0.4008  0.5615
  914MPD2    C413435   1.376   0.638  12.152  0.1486 -0.0731 -0.8617
  914MPD2    C513436   1.463   0.718  12.075 -0.4257  0.3572  0.1446
  914MPD2     H13437   1.289   0.853  12.397  1.2556  2.3158  0.2093
  914MPD2    H113438   1.357   0.532  12.133 -0.9415 -0.2449  1.1517
  914MPD2    H213439   1.539   0.913  12.050  0.6524 -0.2245  0.2424
  914MPD2    H313440   1.505   0.683  11.982 -1.0562  0.0870 -0.0415
  914MPD2     N13441   1.228   0.616  12.341 -0.1842 -1.0830  0.4986
  914MPD2    H513442   1.183   0.673  12.412 -0.4547 -2.4532  1.4205
  914MPD2    N113443   1.425   1.040  12.246 -0.5225 -0.2293 -0.1952
  914MPD2    H713444   1.490   1.091  12.187  0.2020 -1.3508 -0.3653
  915MPD2     C13445   4.036   0.897  15.522 -0.5066 -0.3813 -0.5477
  915MPD2    C113446   4.002   1.029  15.487 -0.0365 -0.2531  0.3070
  915MPD2    C213447   3.908   1.093  15.569 -0.6079  0.4223  0.6054
  915MPD2    C313448   3.862   1.038  15.690 -0.1516 -0.3531  0.3250
  915MPD2    C413449   3.914   0.915  15.728 -0.0004 -0.6330 -0.0470
  915MPD2    C513450   3.993   0.841  15.641  0.0300  0.6625 -0.6528
  915MPD2     H13451   3.880   1.192  15.534 -1.9831 -0.0466  0.3674
  915MPD2    H113452   3.896   0.873  15.826  0.9765 -0.5086  0.1788
  915MPD2    H213453   4.110   0.849  15.459 -0.2615  3.2860 -3.1465
  915MPD2    H313454   4.026   0.741  15.670 -1.1734  0.3944 -0.2211
  915MPD2     N13455   3.796   1.121  15.782  0.3504 -0.0011  0.1028
  915MPD2    H513456   3.768   1.213  15.748 -0.6596 -1.3364 -2.6971
  915MPD2    N113457   4.052   1.082  15.367 -0.2191  0.0980  0.1472
  915MPD2    H713458   4.111   1.016  15.317  1.0561  1.4857 -0.1983
  916MPD2     C13459   1.927   4.120  15.539 -0.7741 -0.2569 -0.2969
  916MPD2    C113460   1.886   4.002  15.594 -0.4881 -0.0720 -0.3879
  916MPD2    C213461   1.884   3.896  15.506 -1.6718 -0.4693  0.2146
  916MPD2    C313462   1.960   3.894  15.392  0.8581  0.2447 -0.4270
  916MPD2    C413463   2.018   4.009  15.348 -0.0930  0.5006  0.4691
  916MPD2    C513464   1.996   4.123  15.419 -0.3326 -0.3894 -0.2686
  916MPD2     H13465   1.853   3.797  15.536 -3.1499 -0.4165 -1.1265
  916MPD2    H113466   2.075   4.015  15.256 -1.1355 -0.0233 -0.1985
  916MPD2    H213467   1.924   4.210  15.599 -3.6698 -0.5917  0.0601
  916MPD2    H313468   2.036   4.214  15.378  1.8584  0.1414  3.0569
  916MPD2     N13469   1.956   3.771  15.328 -0.6559 -0.5196 -0.1779
  916MPD2    H513470   1.899   3.698  15.369  0.0451 -0.0035  1.7000
  916MPD2    N113471   1.837   3.997  15.729  0.4336 -0.0203  0.1366
  916MPD2    H713472   1.853   4.081  15.785  2.1561  0.4809 -1.1257
  917MPD2     C13473   2.078   1.500  11.451  0.3439  0.0276 -0.7978
  917MPD2    C113474   2.119   1.573  11.554 -0.4031 -0.2669  0.3305
  917MPD2    C213475   2.138   1.712  11.536 -0.4489  0.2254 -0.1946
  917MPD2    C313476   2.109   1.775  11.412  0.5515  0.5286  0.4946
  917MPD2    C413477   2.065   1.697  11.305 -0.2172  0.3515 -0.1790
  917MPD2    C513478   2.056   1.559  11.332 -0.5149  0.6695  0.2562
  917MPD2     H13479   2.172   1.777  11.616 -0.7200 -2.0235  1.7892
  917MPD2    H113480   2.046   1.740  11.207  0.9769 -1.9236 -1.4108
  917MPD2    H213481   2.050   1.395  11.459 -0.1529  0.0610 -2.1710
  917MPD2    H313482   2.010   1.501  11.253 -1.4883 -0.4677  1.6546
  917MPD2     N13483   2.136   1.911  11.383 -0.7946 -0.3944 -0.0362
  917MPD2    H513484   2.092   1.936  11.295 -0.3487 -1.6317 -0.6084
  917MPD2    N113485   2.125   1.512  11.681  0.1423 -0.3674  0.6814
  917MPD2    H713486   2.106   1.412  11.680 -1.0553 -0.1184 -0.9911
  918MPD2     C13487   2.696   1.588  12.449  0.0692  0.4035  0.3014
  918MPD2    C113488   2.704   1.591  12.306 -0.0616  0.0339 -0.7372
  918MPD2    C213489   2.582   1.575  12.241 -0.3171 -0.1152 -0.4590
  918MPD2    C313490   2.467   1.544  12.307  0.0265  0.1866 -0.3886
  918MPD2    C413491   2.464   1.531  12.444  0.3160 -0.0416  0.5099
  918MPD2    C513492   2.580   1.555  12.511 -0.3686  0.2719 -0.0451
  918MPD2     H13493   2.601   1.566  12.135  1.7414 -0.0643 -0.0970
  918MPD2    H113494   2.380   1.510  12.509 -1.5256 -1.6004 -2.4021
  918MPD2    H213495   2.782   1.589  12.515  0.3063  2.4828 -0.0468
  918MPD2    H313496   2.583   1.542  12.619 -1.6809  1.3476  0.1068
  918MPD2     N13497   2.355   1.526  12.225 -0.3733 -0.3586 -0.1764
  918MPD2    H513498   2.369   1.546  12.126  0.7102  0.2720  0.1119
  918MPD2    N113499   2.821   1.610  12.228 -0.2051  0.2810 -0.7992
  918MPD2    H713500   2.825   1.605  12.127 -2.4269  2.0378 -0.9774
  919MPD2     C13501   2.673   0.528  12.067  0.2955  0.2081  0.2304
  919MPD2    C113502   2.762   0.440  12.017  0.2867  1.1500  0.0074
  919MPD2    C213503   2.795   0.448  11.882  0.0287 -0.3259  0.4308
  919MPD2    C313504   2.737   0.547  11.801 -0.3468 -0.1683 -0.3284
  919MPD2    C413505   2.656   0.647  11.858  0.7053 -0.1927 -0.4820
  919MPD2    C513506   2.619   0.628  11.985 -0.0438  0.2870 -0.2155
  919MPD2     H13507   2.867   0.378  11.840  0.0015 -0.2205  0.2104
  919MPD2    H113508   2.605   0.727  11.807 -0.9711 -0.9305  0.0160
  919MPD2    H213509   2.634   0.530  12.168  0.2435  0.3106  0.2085
  919MPD2    H313510   2.563   0.707  12.034  0.5032  1.1143 -0.9211
  919MPD2     N13511   2.761   0.560  11.658 -0.2694 -0.5046 -1.0130
  919MPD2    H513512   2.720   0.640  11.611  1.5331  0.8877 -0.2055
  919MPD2    N113513   2.799   0.325  12.085  0.2964  0.1431  0.4036
  919MPD2    H713514   2.874   0.272  12.042 -0.5698 -0.9349  0.2251
  920MPD2     C13515   2.214   0.874  11.029 -0.5729 -0.1702  0.1902
  920MPD2    C113516   2.234   0.739  11.008 -0.1623  0.6038  1.1431
  920MPD2    C213517   2.355   0.685  11.056  0.4763  0.5571  0.2342
  920MPD2    C313518   2.461   0.753  11.109 -0.1990 -0.0005  0.0731
  920MPD2    C413519   2.438   0.893  11.111 -0.1920 -0.3783  0.3135
  920MPD2    C513520   2.315   0.948  11.090  0.1983  0.4562  0.3954
  920MPD2     H13521   2.367   0.578  11.045  0.3300  0.5660 -0.0123
  920MPD2    H113522   2.512   0.957  11.158  0.2372 -0.7247  0.1005
  920MPD2    H213523   2.122   0.928  11.010 -0.5488 -0.6227 -1.1680
  920MPD2    H313524   2.304   1.052  11.116 -1.7333  0.9076 -2.1461
  920MPD2     N13525   2.577   0.691  11.148 -0.1777  0.2389 -0.4265
  920MPD2    H513526   2.580   0.590  11.136 -2.4985 -0.1164  2.0588
  920MPD2    N113527   2.135   0.643  10.967  0.0758 -0.3106 -0.0032
  920MPD2    H713528   2.154   0.544  10.956  1.6171  0.1503 -1.6007
  921MPD2     C13529   3.731   0.137  16.489  0.4589 -0.6595 -0.9195
  921MPD2    C113530   3.787   0.015  16.510  0.4580 -0.5741  0.5068
  921MPD2    C213531   3.703   4.660  16.575  1.2914  0.4292 -0.4685
  921MPD2    C313532   3.571   4.688  16.622 -0.5979  0.6245  0.3521
  921MPD2    C413533   3.545   0.086  16.639 -0.3808  0.0197  0.3424
  921MPD2    C513534   3.616   0.171  16.560  0.3480 -0.2814  0.0411
  921MPD2     H13535   3.738   4.558  16.567 -1.5147 -0.5227 -0.3372
  921MPD2    H113536   3.450   0.118  16.680 -1.3987 -3.5834  0.7485
  921MPD2    H213537   3.783   0.215  16.434  0.4871 -0.7521 -1.0248
  921MPD2    H313538   3.581   0.273  16.548  1.2976  0.1180  0.7058
  921MPD2     N13539   3.488   4.585  16.671  0.4539  0.4665  0.5848
  921MPD2    H513540   3.390   4.607  16.684 -0.3275 -2.7942  0.0968
  921MPD2    N113541   3.911   4.720  16.457  0.2015  1.2504  0.1006
  921MPD2    H713542   3.949   0.066  16.410  1.0218  2.0401  2.0986
  922MPD2     C13543   3.973   2.014   0.579  0.0463  0.2686 -0.1197
  922MPD2    C113544   4.084   2.082   0.532  0.3237 -0.5344 -0.7593
  922MPD2    C213545   4.085   2.119   0.399  0.0735 -0.1358  0.0218
  922MPD2    C313546   3.979   2.078   0.308 -0.0243  0.1270  1.4650
  922MPD2    C413547   3.880   2.003   0.357  0.2947 -0.4999  0.3121
  922MPD2    C513548   3.880   1.970   0.490  0.9107 -0.3906  0.3879
  922MPD2     H13549   4.165   2.183   0.365  0.3610  0.7776  2.4454
  922MPD2    H113550   3.800   1.968   0.293 -1.2103  1.0488  1.3484
  922MPD2    H213551   3.960   1.983   0.682  1.7608  0.5084  0.1803
  922MPD2    H313552   3.799   1.908   0.526  1.1136 -0.9150 -0.0596
  922MPD2     N13553   3.984   2.125   0.175  0.4926 -0.3184 -0.4051
  922MPD2    H513554   4.057   2.192   0.155  0.7079  0.1161  1.8499
  922MPD2    N113555   4.193   2.121   0.611  0.4204 -0.5175  0.8391
  922MPD2    H713556   4.263   2.169   0.555  0.9860 -0.3292  1.7030
  923MPD2     C13557   0.496   4.441   8.866  0.0577 -0.1109 -0.2440
  923MPD2    C113558   0.549   4.516   8.968  0.0167 -0.0237 -0.6398
  923MPD2    C213559   0.672   4.489   9.021 -0.1412 -0.4306 -0.0638
  923MPD2    C313560   0.730   4.360   8.988  0.2794  0.0857  0.2833
  923MPD2    C413561   0.661   4.277   8.899  0.2674 -0.2366 -0.3487
  923MPD2    C513562   0.545   4.320   8.839  0.4959  0.4339 -0.6012
  923MPD2     H13563   0.720   4.556   9.091 -0.3212 -0.5852  0.2100
  923MPD2    H113564   0.699   4.176   8.883  1.3381  0.3052 -1.1894
  923MPD2    H213565   0.399   4.473   8.830 -0.7521  0.3965  2.3506
  923MPD2    H313566   0.505   4.258   8.759  1.2198  0.8586 -1.2936
  923MPD2     N13567   0.843   4.306   9.044 -0.8953 -0.9011  0.1281
  923MPD2    H513568   0.850   4.208   9.022 -1.1866 -0.6212 -1.2542
  923MPD2    N113569   0.470   4.632   9.007  0.6838 -0.0541  0.6200
  923MPD2    H713570   0.383   4.652   8.959  0.8652 -2.1405 -0.5733
  924MPD2     C13571   0.569   2.344  16.174  0.0698  0.7323  0.4454
  924MPD2    C113572   0.584   2.436  16.276  0.6323 -0.0545  0.7315
  924MPD2    C213573   0.612   2.567  16.245 -0.1140  0.5417 -0.5207
  924MPD2    C313574   0.631   2.612  16.110  0.7770  0.4817 -0.8615
  924MPD2    C413575   0.601   2.524  16.010  0.1946 -0.7604 -0.0717
  924MPD2    C513576   0.580   2.391  16.045  0.3606  0.9459 -0.1453
  924MPD2     H13577   0.612   2.643  16.322 -1.5511  0.0880 -0.0619
  924MPD2    H113578   0.622   2.549  15.906 -1.1572 -0.6673 -0.3196
  924MPD2    H213579   0.553   2.237  16.185 -1.2474  1.1218  2.2432
  924MPD2    H313580   0.567   2.316  15.968  1.0601  1.4731 -0.7781
  924MPD2     N13581   0.678   2.738  16.074 -0.2622 -0.0164  0.7839
  924MPD2    H513582   0.689   2.762  15.976  1.3094 -0.1439  0.9291
  924MPD2    N113583   0.555   2.398  16.409 -0.0357 -0.4278 -0.2109
  924MPD2    H713584   0.520   2.304  16.420  1.3350 -0.5615  3.0088
  925MPD2     C13585   0.032   0.589  14.805  0.3468 -0.1544  0.0899
  925MPD2    C113586   4.652   0.522  14.771 -0.3384  0.1672  0.6889
  925MPD2    C213587   4.552   0.517  14.868 -0.2162 -0.1260  1.6281
  925MPD2    C313588   4.567   0.587  14.988 -0.2209  0.3997 -0.0649
  925MPD2    C413589   4.680   0.651  15.016 -0.7692 -0.5489 -0.4300
  925MPD2    C513590   0.044   0.654  14.923  0.1112 -0.3443 -0.1946
  925MPD2     H13591   4.456   0.471  14.844  2.0251 -3.1199 -1.5697
  925MPD2    H113592   4.688   0.705  15.109 -1.2613  0.6756 -1.0932
  925MPD2    H213593   0.108   0.615  14.732  1.4476  1.7814  1.9309
  925MPD2    H313594   0.140   0.695  14.952  0.0846 -0.2782 -0.2001
  925MPD2     N13595   4.474   0.571  15.097  0.7509  0.5190  0.1822
  925MPD2    H513596   4.499   0.622  15.181 -0.6266 -2.6563  2.5184
  925MPD2    N113597   4.631   0.446  14.654  0.0733  0.0524 -0.7607
  925MPD2    H713598   4.537   0.412  14.633 -0.3385  0.3483  0.5663
  926MPD2     C13599   2.613   3.392  13.300 -0.1516  0.4809 -0.9228
  926MPD2    C113600   2.720   3.469  13.342  0.8285 -0.4954 -0.3669
  926MPD2    C213601   2.842   3.455  13.278  0.1135 -0.4512  0.2969
  926MPD2    C313602   2.860   3.368  13.173 -0.7769 -0.7250 -0.8965
  926MPD2    C413603   2.753   3.295  13.132  0.3179  0.5846 -0.2159
  926MPD2    C513604   2.633   3.311  13.193 -0.1098  0.1326 -0.1406
  926MPD2     H13605   2.924   3.519  13.309 -0.3040  0.5421 -0.6588
  926MPD2    H113606   2.750   3.228  13.047 -0.9029 -0.4068  0.5956
  926MPD2    H213607   2.511   3.411  13.330  0.5315  1.6163  0.7305
  926MPD2    H313608   2.548   3.250  13.164 -1.6878  1.4428  1.6844
  926MPD2     N13609   2.987   3.334  13.114 -0.2458  0.6598 -0.2973
  926MPD2    H513610   2.986   3.277  13.031 -0.7384  0.5772 -0.2331
  926MPD2    N113611   2.716   3.555  13.455 -0.0022  0.1679 -0.6362
  926MPD2    H713612   2.796   3.616  13.470 -0.5502  0.9539 -0.9552
  927MPD2     C13613   3.201   0.270   0.329 -0.4275  0.7778  0.3259
  927MPD2    C113614   3.115   0.378   0.319  0.2306 -0.4209  0.4910
  927MPD2    C213615   3.161   0.492   0.262  0.0416  0.6564 -0.1809
  927MPD2    C313616   3.293   0.500   0.213  0.3282 -0.1691  0.1396
  927MPD2    C413617   3.379   0.389   0.229 -0.8579 -0.2669 -0.1662
  927MPD2    C513618   3.328   0.272   0.286 -0.0406 -0.1290 -0.2251
  927MPD2     H13619   3.092   0.575   0.247  0.0525  0.1957 -2.8518
  927MPD2    H113620   3.486   0.387   0.207 -0.4523  3.0772  1.5221
  927MPD2    H213621   3.157   0.176   0.361 -2.1624  1.2923 -0.4951
  927MPD2    H313622   3.393   0.185   0.291 -0.5501 -0.3882  1.6918
  927MPD2     N13623   3.328   0.626   0.157 -0.0779  0.3113  0.0630
  927MPD2    H513624   3.254   0.680   0.115 -0.4599  0.7597  1.3261
  927MPD2    N113625   2.979   0.362   0.364  0.5102 -0.3212  0.1127
  927MPD2    H713626   2.964   0.273   0.411 -0.6214 -1.1597 -1.8000
  928MPD2     C13627   1.354   3.613   0.646 -0.7438  1.2636 -0.1771
  928MPD2    C113628   1.318   3.739   0.691  0.1409 -0.2953  0.1240
  928MPD2    C213629   1.390   3.844   0.647 -0.4055  0.2806 -0.4866
  928MPD2    C313630   1.492   3.827   0.546 -0.4758 -0.6458 -0.0510
  928MPD2    C413631   1.506   3.701   0.494  0.1947 -0.1615 -0.1202
  928MPD2    C513632   1.442   3.592   0.542 -0.1121 -0.4427 -0.3062
  928MPD2     H13633   1.383   3.945   0.688 -0.1263 -0.9372  2.5969
  928MPD2    H113634   1.586   3.680   0.424  0.5111 -0.4013  0.3165
  928MPD2    H213635   1.302   3.527   0.686 -0.3842 -0.1107 -2.6442
  928MPD2    H313636   1.466   3.493   0.503 -1.4016 -1.6790  2.0016
  928MPD2     N13637   1.578   3.929   0.501  0.1664  0.4250  0.0276
  928MPD2    H513638   1.637   3.910   0.420  0.0140 -0.5704  0.1491
  928MPD2    N113639   1.220   3.743   0.798  0.1194  0.0470 -0.3928
  928MPD2    H713640   1.195   3.657   0.846 -2.8147  1.9054  1.4097
  929MPD2     C13641   0.856   4.068  10.024  1.0262 -0.5210 -0.3346
  929MPD2    C113642   0.727   4.041   9.985 -0.0889 -0.4160  0.6801
  929MPD2    C213643   0.652   4.136   9.915 -0.4189  0.3520  0.3104
  929MPD2    C313644   0.702   4.253   9.867  1.0636  0.5792  1.0178
  929MPD2    C413645   0.835   4.281   9.900  1.0278  0.4757  0.2362
  929MPD2    C513646   0.912   4.192   9.976  0.4430 -0.0635  0.3683
  929MPD2     H13647   0.545   4.121   9.924 -0.3944 -0.2197 -0.3720
  929MPD2    H113648   0.874   4.375   9.863 -0.4514  0.2228 -1.9576
  929MPD2    H213649   0.916   4.005  10.088  0.7628  1.5112  1.9076
  929MPD2    H313650   1.014   4.222   9.999  0.6504 -1.1788  0.8791
  929MPD2     N13651   0.632   4.346   9.787  0.2746  0.2985 -0.1815
  929MPD2    H513652   0.666   4.440   9.773 -1.3455  0.7711 -0.9397
  929MPD2    N113653   0.666   3.921  10.034 -0.6859 -0.1282 -0.1489
  929MPD2    H713654   0.727   3.861  10.089 -0.4171  1.0426  0.8242
  930MPD2     C13655   2.703   1.223  14.102  0.2085 -0.0403  0.2185
  930MPD2    C113656   2.836   1.241  14.073 -0.5326  1.0502  0.5474
  930MPD2    C213657   2.894   1.176  13.965  0.1637  0.5067  0.2972
  930MPD2    C313658   2.815   1.093  13.882 -0.3415  0.2719  0.0194
  930MPD2    C413659   2.689   1.067  13.920 -0.0006 -0.0312  0.1435
  930MPD2    C513660   2.635   1.134  14.026  0.3204 -0.2940 -0.1364
  930MPD2     H13661   3.000   1.187  13.945 -0.0286  2.1356  0.1569
  930MPD2    H113662   2.623   1.006  13.859 -2.3867  0.8418  1.8332
  930MPD2    H213663   2.640   1.252  14.186  0.6639  1.2983  0.0818
  930MPD2    H313664   2.529   1.114  14.037 -0.0492  1.0691 -1.2089
  930MPD2     N13665   2.868   1.049  13.760  0.6196  0.0972  0.3262
  930MPD2    H513666   2.796   1.004  13.704  1.6072 -0.9091 -0.1288
  930MPD2    N113667   2.916   1.336  14.141 -0.4901 -0.0531 -0.4196
  930MPD2    H713668   3.014   1.339  14.114 -0.3394  0.0385  0.1354
  931MPD2     C13669   3.109   0.481   0.943 -0.3393 -0.1843 -0.6291
  931MPD2    C113670   2.977   0.521   0.936 -0.4512 -0.2541  0.5687
  931MPD2    C213671   2.928   0.612   1.031 -0.0922  0.0531  0.5573
  931MPD2    C313672   3.008   0.665   1.132  0.6751 -0.0354 -0.1402
  931MPD2    C413673   3.140   0.622   1.140  0.6929 -0.1659 -0.2984
  931MPD2    C513674   3.183   0.527   1.046 -0.4894 -0.2134  0.1819
  931MPD2     H13675   2.823   0.635   1.021 -0.1321 -0.2736  0.2362
  931MPD2    H113676   3.213   0.657   1.212  0.5709 -0.3115 -0.1026
  931MPD2    H213677   3.153   0.408   0.875 -0.7265 -1.0176  0.0188
  931MPD2    H313678   3.288   0.504   1.052 -0.1570  0.9491 -1.1933
  931MPD2     N13679   2.970   0.771   1.207 -0.0757 -0.9024  0.1795
  931MPD2    H513680   3.027   0.775   1.291  1.1075  0.2022 -0.6717
  931MPD2    N113681   2.911   0.483   0.818  0.4799  0.4374 -0.2344
  931MPD2    H713682   2.962   0.432   0.747 -0.9993 -1.3055 -0.0534
  932MPD2     C13683   0.188   4.615  12.075 -0.2386  0.0686 -0.3756
  932MPD2    C113684   0.151   4.617  11.945 -0.5999 -0.1698 -0.2535
  932MPD2    C213685   0.127   4.498  11.886 -0.4763  0.0627 -0.2028
  932MPD2    C313686   0.127   4.383  11.961  0.7610  0.2646  0.4693
  932MPD2    C413687   0.147   4.387  12.098 -0.8372  0.6447  0.3641
  932MPD2    C513688   0.184   4.503  12.153 -0.5422  0.1878  0.0524
  932MPD2     H13689   0.099   4.494  11.781  1.1281  1.3606 -0.6761
  932MPD2    H113690   0.138   4.304  12.168 -1.5243 -0.3628 -0.9272
  932MPD2    H213691   0.213   4.713  12.114 -0.8607 -0.3628  1.0851
  932MPD2    H313692   0.214   4.504  12.257  3.6621  0.3236 -1.1594
  932MPD2     N13693   0.102   4.254  11.912  0.3639 -0.3486  0.5047
  932MPD2    H513694   0.092   4.181  11.982  0.3412 -1.0316 -0.2150
  932MPD2    N113695   0.153   0.008  11.878  0.6783  0.3490 -0.4312
  932MPD2    H713696   0.186   0.080  11.941 -1.1944  0.6529  0.2013
  933MPD2     C13697   0.666   4.046   1.465 -0.1374  0.0601 -0.1031
  933MPD2    C113698   0.705   4.082   1.339 -0.6894  0.2571  0.6509
  933MPD2    C213699   0.631   4.163   1.254 -0.5684 -0.5124 -0.3689
  933MPD2    C313700   0.519   4.222   1.308  0.1509  0.1406  0.4660
  933MPD2    C413701   0.467   4.180   1.425 -0.5020  0.1123 -0.2899
  933MPD2    C513702   0.544   4.094   1.507  0.4391 -0.9589 -0.2086
  933MPD2     H13703   0.664   4.189   1.154 -0.3252 -1.5088 -0.5501
  933MPD2    H113704   0.382   4.228   1.471 -1.3971 -0.3199 -1.4983
  933MPD2    H213705   0.719   3.973   1.524  0.4365  0.9544  0.4763
  933MPD2    H313706   0.497   4.065   1.600  1.9407  1.3846  1.2838
  933MPD2     N13707   0.472   4.336   1.239 -0.2290  0.3934  0.6453
  933MPD2    H513708   0.514   4.356   1.149 -0.4200  1.1560  0.7269
  933MPD2    N113709   0.821   4.014   1.300 -0.3001  0.0089 -0.1371
  933MPD2    H713710   0.856   3.932   1.347  1.0971  0.5951 -0.1357
  934MPD2     C13711   2.535   2.174   1.740  0.0701  0.1630 -0.1681
  934MPD2    C113712   2.538   2.135   1.605 -0.2343 -0.4018  0.0485
  934MPD2    C213713   2.454   2.027   1.558  0.1185  0.6518  0.1399
  934MPD2    C313714   2.365   1.962   1.645 -0.3001  0.0676 -0.0499
  934MPD2    C413715   2.374   1.999   1.776  0.1851 -0.8992 -0.3727
  934MPD2    C513716   2.456   2.101   1.817  0.3487  0.4186  0.6108
  934MPD2     H13717   2.468   2.006   1.452 -0.5249 -1.5366  0.4895
  934MPD2    H113718   2.327   1.945   1.857  1.0756 -0.5921  0.3539
  934MPD2    H213719   2.603   2.252   1.772 -0.4670  0.7278 -0.3865
  934MPD2    H313720   2.475   2.110   1.923  0.7206 -2.3949  0.7755
  934MPD2     N13721   2.276   1.868   1.598  0.5208  0.0151  0.3881
  934MPD2    H513722   2.217   1.834   1.673  0.6213  0.6075  0.7344
  934MPD2    N113723   2.622   2.182   1.508 -0.9094 -0.0992 -0.6866
  934MPD2    H713724   2.610   2.138   1.417 -3.0435 -2.0867  0.5612
  935MPD2     C13725   2.503   1.065   1.090 -0.0128  0.0632  0.5160
  935MPD2    C113726   2.367   1.062   1.104  0.0168 -0.2967  0.3915
  935MPD2    C213727   2.297   1.172   1.146  0.2089 -0.1645  0.8338
  935MPD2    C313728   2.365   1.284   1.190  0.1529 -0.2550  0.3774
  935MPD2    C413729   2.499   1.288   1.174 -0.0503  0.3918 -0.4979
  935MPD2    C513730   2.565   1.174   1.129 -0.1617 -0.0202  0.0771
  935MPD2     H13731   2.189   1.169   1.156  0.4248 -3.2426  2.1293
  935MPD2    H113732   2.559   1.374   1.200  0.9407 -0.4993  0.1681
  935MPD2    H213733   2.565   0.979   1.067  0.2082  0.3089  0.1966
  935MPD2    H313734   2.673   1.181   1.126 -0.1964 -0.5769 -2.2753
  935MPD2     N13735   2.296   1.400   1.240  0.3987 -0.4012  0.6447
  935MPD2    H513736   2.344   1.478   1.284 -2.7142  1.3966  0.8235
  935MPD2    N113737   2.301   0.941   1.065  0.1012 -0.0933 -0.9375
  935MPD2    H713738   2.358   0.858   1.051  1.3257  0.8387 -1.4206
  936MPD2     C13739   0.441   2.638  12.837 -1.1733  0.0934  0.8936
  936MPD2    C113740   0.348   2.736  12.849 -0.0976 -0.2789  0.4722
  936MPD2    C213741   0.256   2.768  12.750 -0.1197 -0.0277 -0.3399
  936MPD2    C313742   0.264   2.696  12.632  0.6273 -0.0079 -0.3894
  936MPD2    C413743   0.364   2.597  12.614  0.2080 -0.7495  0.9246
  936MPD2    C513744   0.455   2.573  12.719  0.3644 -0.3855  0.3000
  936MPD2     H13745   0.183   2.843  12.778  1.8841  1.7808 -0.0097
  936MPD2    H113746   0.369   2.545  12.519  1.0018  2.5264 -0.8236
  936MPD2    H213747   0.505   2.605  12.918 -0.7728 -0.6554  0.2754
  936MPD2    H313748   0.528   2.493  12.714  1.4472  0.6843 -0.8817
  936MPD2     N13749   0.184   2.735  12.531  0.3731 -0.7029  0.7256
  936MPD2    H513750   0.119   2.810  12.551  2.1803  0.9871  0.2713
  936MPD2    N113751   0.332   2.794  12.977 -0.2477 -0.6927  0.3455
  936MPD2    H713752   0.265   2.871  12.974  1.8447  0.9995 -2.9252
  937MPD2     C13753   3.191   4.522  11.891  0.3285  0.0184  0.0941
  937MPD2    C113754   3.106   4.630  11.885 -0.1739  0.5273 -0.3058
  937MPD2    C213755   3.108   4.717  11.780 -0.0032  0.1571 -0.6835
  937MPD2    C313756   3.182   4.694  11.666 -0.3310 -0.1652 -0.1308
  937MPD2    C413757   3.249   4.575  11.658  0.0392  0.4352  0.4633
  937MPD2    C513758   3.250   4.489  11.772 -0.3658  0.5324  0.3425
  937MPD2     H13759   3.052   0.075  11.787 -1.2376 -0.6304 -0.2741
  937MPD2    H113760   3.303   4.547  11.568 -1.3676  1.1329 -0.5942
  937MPD2    H213761   3.207   4.469  11.985  0.4798  1.4658  0.8811
  937MPD2    H313762   3.317   4.405  11.778  0.2985  1.0875  0.7394
  937MPD2     N13763   3.188   0.066  11.574 -0.2766  0.6137  0.4517
  937MPD2    H513764   3.146   0.149  11.613 -0.9229  1.9708 -3.1271
  937MPD2    N113765   3.041   4.692  11.993  0.2283  0.7275  0.7806
  937MPD2    H713766   3.004   0.050  11.973  1.5625  1.0176 -0.3278
  938MPD2     C13767   0.930   0.575   0.558  0.1776  0.0931  0.3118
  938MPD2    C113768   0.877   0.691   0.596 -0.2873 -0.3929 -0.0087
  938MPD2    C213769   0.789   0.701   0.704  0.2937  0.2041  0.0651
  938MPD2    C313770   0.753   0.590   0.769  0.3967  0.6103  0.2100
  938MPD2    C413771   0.808   0.470   0.741  0.7138  0.3593 -0.1789
  938MPD2    C513772   0.892   0.465   0.629  0.6078  0.5262 -0.8943
  938MPD2     H13773   0.747   0.799   0.722  0.5479  0.2504  0.4077
  938MPD2    H113774   0.781   0.381   0.797 -1.0302 -0.2395 -1.9861
  938MPD2    H213775   1.008   0.566   0.483  0.2795  0.9279  0.3179
  938MPD2    H313776   0.946   0.372   0.613 -0.7718 -0.5561  0.6574
  938MPD2     N13777   0.676   0.589   0.886  0.0429 -0.0905 -0.6810
  938MPD2    H513778   0.669   0.502   0.938 -0.0401  0.4394  0.1884
  938MPD2    N113779   0.913   0.815   0.538  0.2019 -0.2445  0.0027
  938MPD2    H713780   0.845   0.889   0.549  0.4584  0.2628 -1.9336
  939MPD2     C13781   1.864   1.635   0.543 -0.7511  0.4896 -0.0719
  939MPD2    C113782   1.879   1.764   0.588 -0.7437 -0.1969 -0.2367
  939MPD2    C213783   1.966   1.847   0.517 -0.6904  0.7483 -0.4418
  939MPD2    C313784   2.031   1.813   0.402  0.2362 -0.2830  0.0618
  939MPD2    C413785   2.009   1.691   0.348  0.2772 -0.4105  0.6346
  939MPD2    C513786   1.935   1.600   0.424  0.3302 -0.3670  0.0086
  939MPD2     H13787   1.977   1.949   0.552 -0.6747  0.8575 -0.7682
  939MPD2    H113788   2.074   1.648   0.272 -1.3613 -1.5004 -0.1568
  939MPD2    H213789   1.810   1.565   0.606 -0.4980 -0.5359 -1.0079
  939MPD2    H313790   1.938   1.499   0.386 -0.6177 -0.2935 -0.2753
  939MPD2     N13791   2.143   1.889   0.363  0.2290 -0.0263 -0.1265
  939MPD2    H513792   2.151   1.974   0.418  1.6157 -0.4134  0.2756
  939MPD2    N113793   1.814   1.803   0.712 -0.0066  0.0679  1.0055
  939MPD2    H713794   1.774   1.732   0.773 -0.5289  1.3836  2.1925
  940MPD2     C13795   0.348   3.267  12.743 -0.1749  0.2118  0.0326
  940MPD2    C113796   0.434   3.249  12.851  0.3044 -0.5622  0.3460
  940MPD2    C213797   0.521   3.149  12.856 -0.2830  0.2958 -0.4115
  940MPD2    C313798   0.526   3.063  12.746  0.4127 -0.3411  0.0661
  940MPD2    C413799   0.436   3.087  12.641 -0.2627 -0.4611 -0.1269
  940MPD2    C513800   0.347   3.187  12.636 -0.8007 -0.1755  0.5449
  940MPD2     H13801   0.594   3.141  12.936 -0.8349 -0.9964 -0.0345
  940MPD2    H113802   0.446   3.024  12.554  0.5556 -0.8959  0.2748
  940MPD2    H213803   0.275   3.347  12.741  0.2052  0.5046 -2.2552
  940MPD2    H313804   0.277   3.206  12.556 -1.6902 -0.9087  1.1404
  940MPD2     N13805   0.610   2.940  12.739  0.1993 -0.3498 -0.4895
  940MPD2    H513806   0.596   2.890  12.652 -0.0096 -2.9035  1.0431
  940MPD2    N113807   0.449   3.339  12.954 -0.3194  0.2935  0.4754
  940MPD2    H713808   0.526   3.319  13.017  0.8326  3.4415  0.0770
  941MPD2     C13809   0.210   2.347   9.250  0.2138  0.4491 -0.3825
  941MPD2    C113810   0.335   2.312   9.299 -0.1808  0.6562 -0.0876
  941MPD2    C213811   0.352   2.196   9.373 -0.6239  0.2930  0.5583
  941MPD2    C313812   0.241   2.112   9.400 -0.5623 -0.0094  0.0905
  941MPD2    C413813   0.121   2.140   9.346 -0.2369  0.1016 -0.5313
  941MPD2    C513814   0.107   2.259   9.277 -0.2319  0.4922  0.6497
  941MPD2     H13815   0.452   2.176   9.410  0.2456 -0.2998 -2.0969
  941MPD2    H113816   0.036   2.072   9.354  0.2326 -0.3970  0.1798
  941MPD2    H213817   0.179   2.445   9.216 -0.1531  0.4133 -0.1561
  941MPD2    H313818   0.010   2.287   9.236  0.2053 -0.8036 -1.2468
  941MPD2     N13819   0.247   1.998   9.477  0.3955  0.3993 -0.1809
  941MPD2    H513820   0.159   1.957   9.506  1.0038 -1.9918 -1.7605
  941MPD2    N113821   0.448   2.394   9.264 -0.1844  0.1229  0.4698
  941MPD2    H713822   0.533   2.389   9.320  0.1803 -0.8531 -0.1730
  942MPD2     C13823   4.708   3.494   9.647  0.4693 -0.4643 -0.1521
  942MPD2    C113824   4.578   3.505   9.602  0.2105 -0.2944 -0.1691
  942MPD2    C213825   4.526   3.626   9.571 -0.2879 -0.0911 -0.1862
  942MPD2    C313826   4.608   3.744   9.570 -0.7047  1.1306  0.3122
  942MPD2    C413827   0.003   3.737   9.618  0.0499  0.9510 -0.9342
  942MPD2    C513828   0.049   3.612   9.662 -0.4212  0.6970 -0.4972
  942MPD2     H13829   4.427   3.640   9.529 -0.5667 -0.0215  0.4880
  942MPD2    H113830   0.058   3.830   9.629  1.8236 -0.2299  0.3054
  942MPD2    H213831   0.020   3.399   9.668 -0.3135 -0.3019  2.3596
  942MPD2    H313832   0.148   3.612   9.706 -1.4288  0.4525  1.7340
  942MPD2     N13833   4.577   3.869   9.519 -0.0162  0.4061  0.8378
  942MPD2    H513834   4.653   3.936   9.518  0.3925 -0.0584  0.6608
  942MPD2    N113835   4.497   3.395   9.568 -0.4375 -0.7802 -0.1515
  942MPD2    H713836   4.401   3.414   9.539  0.0463  2.8217  0.4977
  943MPD2     C13837   3.442   2.828   9.852 -0.5714  0.0682  0.1975
  943MPD2    C113838   3.392   2.715   9.917  0.1281 -1.1407  0.6498
  943MPD2    C213839   3.429   2.699  10.051  0.1100 -0.1586  0.2159
  943MPD2    C313840   3.515   2.787  10.116  0.0902  0.2809 -0.3065
  943MPD2    C413841   3.567   2.896  10.045  0.0042 -0.4215  0.8293
  943MPD2    C513842   3.529   2.913   9.914 -0.2914 -0.3784  1.1134
  943MPD2     H13843   3.377   2.628  10.115  0.8681  0.0162  1.0360
  943MPD2    H113844   3.635   2.973  10.078 -0.7062 -0.1620  1.6690
  943MPD2    H213845   3.434   2.835   9.744 -2.2950 -0.6407  0.2730
  943MPD2    H313846   3.572   2.995   9.858 -0.4775 -1.2110 -0.2474
  943MPD2     N13847   3.554   2.755  10.249 -0.0936 -0.1976 -0.1539
  943MPD2    H513848   3.600   2.829  10.300  0.7725 -2.5365  2.4214
  943MPD2    N113849   3.322   2.618   9.847  0.4824  0.8616 -0.3158
  943MPD2    H713850   3.294   2.636   9.751 -2.1509  1.6016  0.5873
  944MPD2     C13851   3.101   0.824  10.719  0.1313 -0.8016  0.4619
  944MPD2    C113852   3.017   0.920  10.672  0.9068  0.1592  0.5370
  944MPD2    C213853   3.030   1.044  10.726  0.0781 -0.4422  0.0764
  944MPD2    C313854   3.120   1.078  10.826 -0.0913 -0.3298  0.7228
  944MPD2    C413855   3.200   0.977  10.873 -0.7731  0.1568  0.1783
  944MPD2    C513856   3.193   0.851  10.819  0.3670  0.0392  0.2622
  944MPD2     H13857   2.971   1.126  10.687  1.6372  0.8535  0.4732
  944MPD2    H113858   3.276   0.984  10.950  0.0595  1.1932 -0.7320
  944MPD2    H213859   3.109   0.727  10.672  0.2682 -1.2646  1.4381
  944MPD2    H313860   3.261   0.772  10.848 -1.5780 -1.6151  0.2431
  944MPD2     N13861   3.090   1.198  10.881 -0.2493 -0.9181  0.2814
  944MPD2    H513862   3.030   1.257  10.824  0.8446  0.9147  1.0231
  944MPD2    N113863   2.931   0.892  10.564 -0.3870  0.1578 -0.1859
  944MPD2    H713864   2.940   0.797  10.529  0.0560  1.0995 -2.5967
    1TMC1    C113865   2.546   2.143  14.481 -0.2891  0.1819  0.0693
    1TMC1    C213866   2.481   2.053  14.392  0.2195 -0.8347  0.1108
    1TMC1    C313867   2.535   1.932  14.373  0.9721  0.3832 -0.1928
    1TMC1    C413868   2.652   2.100  14.557 -0.1313  0.2719  0.6233
    1TMC1    C513869   2.695   1.974  14.540 -0.3583 -0.0344  0.4599
    1TMC1    C613870   2.637   1.884  14.447  0.1742 -0.3361 -0.0510
    1TMC1     C13871   2.488   2.271  14.515 -0.6296 -0.0537 -0.0028
    1TMC1     O13872   2.535   2.336  14.608 -0.2380 -0.6482  0.0079
    1TMC1     H13873   2.387   2.080  14.345  0.7266  0.4301 -0.1633
    1TMC1    H113874   2.702   2.168  14.625  0.2859 -1.1285  1.7017
    1TMC1    H213875   2.657   1.777  14.441  1.3049 -0.0845 -0.7561
    1TMC1    C713876   2.730   1.910  14.671  0.4074 -0.1637 -0.0536
    1TMC1    C813877   2.441   1.830  14.330 -0.1679 -0.4587 -0.0289
    1TMC1    O113878   2.705   1.971  14.776  0.0992  0.1773  0.2878
    1TMC1    O213879   2.448   1.719  14.371  0.0753 -0.2078 -0.3742
    1TMC1    O313880   2.728   1.777  14.652  0.0324  0.3014 -0.1762
    1TMC1    H313881   2.773   1.750  14.569  0.4855  0.1949  0.1063
    1TMC1    O513882   2.393   1.858  14.210 -0.5070  0.2691  0.1601
    1TMC1    H513883   2.423   1.947  14.182 -1.4132  0.3287 -0.6308
    2MPD2     C13884   2.207   2.679  14.454  0.2074  0.3328  0.1065
    2MPD2    C113885   2.240   2.635  14.329  0.2769  0.2680  0.0296
    2MPD2    C213886   2.298   2.509  14.312 -0.0978  0.1707 -0.2223
    2MPD2    C313887   2.334   2.441  14.431  0.2610 -0.0363  0.5521
    2MPD2    C413888   2.305   2.490  14.556  0.4665  0.3885 -0.7985
    2MPD2    C513889   2.234   2.608  14.567  0.3959 -0.2510  0.0984
    2MPD2     H13890   2.313   2.470  14.212  6.5172 -0.2736  0.9212
    2MPD2    H113891   2.318   2.433  14.647  1.2491 -0.5622 -1.5137
    2MPD2    H213892   2.163   2.776  14.473  2.5437  1.2578  0.8590
    2MPD2    H313893   2.200   2.651  14.660  0.4050 -1.1859  0.5317
    2MPD2     N13894   2.398   2.313  14.419  0.5453 -0.3884  0.4298
    2MPD2    H513895   2.398   2.267  14.328  0.3313 -0.9168  0.7004
    2MPD2    N113896   2.216   2.728  14.224  0.6386  0.4521 -0.2880
    2MPD2    H713897   2.170   2.817  14.242  2.2188  0.7443  2.3124
    3TMC2    C113898   2.139   2.805  14.011  0.1402  0.2321 -0.2170
    3TMC2    C213899   2.123   2.927  14.066  0.5433 -0.6945  0.0559
    3TMC2    C313900   2.041   3.014  14.009  0.0695  0.9934 -0.0966
    3TMC2    C413901   2.090   2.775  13.886  0.0194 -0.1873  0.4189
    3TMC2    C513902   2.010   2.869  13.820  0.9093  0.8160 -0.7525
    3TMC2    C613903   1.983   2.990  13.883 -0.4318  0.3687 -0.2463
    3TMC2     C13904   2.199   2.697  14.089  0.4962 -0.0676 -0.2689
    3TMC2     O13905   2.212   2.585  14.039 -0.4529  0.7104  0.1225
    3TMC2     H13906   2.172   2.946  14.161  1.3725 -0.6801 -0.3777
    3TMC2    H113907   2.117   2.680  13.842  1.5618 -0.6655  2.3920
    3TMC2    H213908   1.903   3.049  13.840  1.4644  0.3745 -3.8154
    3TMC2    C713909   1.919   2.815  13.722 -0.0145  0.0884  0.1568
    3TMC2    C813910   1.988   3.108  14.101  0.1558  0.5062 -0.2041
    3TMC2    O113911   1.903   2.694  13.728 -0.0966  0.2210 -0.8916
    3TMC2    O213912   2.036   3.134  14.210 -0.5578  0.6559  0.0143
    3TMC2    O513913   1.889   3.175  14.041  0.0975  0.5988 -0.3438
    3TMC2    H513914   1.832   3.120  13.982  1.4145 -2.1836  0.9915
    4TMC2    C113915   1.341   3.340  13.086  0.3326  0.5041  0.0741
    4TMC2    C213916   1.391   3.471  13.068 -0.2523  1.3653 -0.7327
    4TMC2    C313917   1.501   3.504  13.136 -0.5419 -0.3832 -0.1078
    4TMC2    C413918   1.411   3.243  13.151  0.6630 -0.8614 -0.5785
    4TMC2    C513919   1.522   3.287  13.216  0.5002  1.0625  0.2229
    4TMC2    C613920   1.567   3.417  13.220 -0.0103 -0.3551  0.2837
    4TMC2     C13921   1.220   3.303  13.019 -0.7388  0.4260 -0.2800
    4TMC2     O13922   1.148   3.389  12.979  0.4009  0.2150 -0.0886
    4TMC2     H13923   1.342   3.544  13.004 -0.4390  0.8771 -1.1533
    4TMC2    H113924   1.363   3.149  13.176  0.5855 -0.8676 -0.7545
    4TMC2    H213925   1.666   3.441  13.257  0.0251  1.2981 -0.8751
    4TMC2    C713926   1.580   3.200  13.314 -1.3864 -0.1544  0.2585
    4TMC2    C813927   1.560   3.631  13.112  1.0592  0.8328 -0.2904
    4TMC2    O113928   1.658   3.263  13.385  0.0736  0.0952  0.0560
    4TMC2    O213929   1.557   3.685  13.003 -0.0429 -0.3205  0.3973
    4TMC2    O513930   1.583   3.686  13.229  0.7602 -0.1987  0.3937
    4TMC2    H513931   1.565   3.631  13.308  0.9255  0.2430  0.7479
    5MPD2     C13932   1.033   2.988  12.650  0.2561  0.2261 -0.4319
    5MPD2    C113933   0.986   3.112  12.695 -0.4536  0.0780  0.0933
    5MPD2    C213934   1.051   3.179  12.797  0.2336  0.4498  0.5779
    5MPD2    C313935   1.161   3.121  12.860  0.0938 -0.6601 -0.7885
    5MPD2    C413936   1.202   3.000  12.806  0.3782  0.3839  0.5370
    5MPD2    C513937   1.139   2.930  12.714 -1.1333 -0.1485 -0.3257
    5MPD2     H13938   1.015   3.277  12.824 -0.1840  0.9317 -1.7180
    5MPD2    H113939   1.297   2.957  12.833  1.3098  1.6993 -0.6744
    5MPD2    H213940   0.988   2.924  12.574  0.4122  0.1369 -0.4494
    5MPD2    H313941   1.185   2.835  12.690  2.6752  1.8488 -0.7761
    5MPD2     N13942   1.233   3.179  12.965  0.1003  0.0705 -0.1495
    5MPD2    H513943   1.315   3.126  12.994  1.5257  1.9998 -0.6099
    5MPD2    N113944   0.872   3.162  12.634 -0.7960 -0.0139 -0.2169
    5MPD2    H713945   0.830   3.110  12.557  1.4624  0.8052 -2.0078
    6MPD1     C13946   0.536   0.193  11.909  0.6250  0.0006 -0.4512
    6MPD1    C113947   0.480   0.165  12.027 -0.3268 -0.0349  0.7220
    6MPD1    C213948   0.532   0.059  12.099  0.2877  0.2147 -0.7704
    6MPD1    C313949   0.638   4.721  12.053  0.2524 -0.4888 -0.2615
    6MPD1    C413950   0.707   0.033  11.948 -0.0389 -0.8646 -0.3893
    6MPD1    C513951   0.662   0.139  11.876 -0.1090  0.0426  0.3036
    6MPD1     H13952   0.477   0.027  12.187  1.7321 -1.3064 -0.4298
    6MPD1    H113953   0.800   4.730  11.906 -0.7675 -0.8813 -1.9936
    6MPD1    H213954   0.485   0.250  11.832 -2.3074  0.6085  1.9800
    6MPD1    H313955   0.712   0.170  11.785 -1.4279  0.5203 -0.2698
    6MPD1     N13956   0.704   4.613  12.124  0.1879 -0.5584  0.5523
    6MPD1    H513957   0.796   4.601  12.084  0.0023  0.0610 -0.0562
    6MPD1    N113958   0.352   0.218  12.050 -0.3823 -0.4212 -0.1490
    6MPD1    H613959   0.339   0.318  12.035 -2.9303 -0.2336  3.2812
    6MPD1    H713960   0.324   0.207  12.147 -0.0272  0.4438  0.0507
    7MPD2     C13961   0.539   4.074  12.785 -0.1535  0.4914  0.6427
    7MPD2    C113962   0.589   4.031  12.666 -0.5271  0.2417 -0.1352
    7MPD2    C213963   0.578   3.902  12.631  0.1358  1.1702  0.2408
    7MPD2    C313964   0.513   3.807  12.712 -0.0153  0.1755 -0.3735
    7MPD2    C413965   0.463   3.850  12.834  0.3381  0.3296  0.4726
    7MPD2    C513966   0.480   3.982  12.873  0.0634  0.8543  0.7555
    7MPD2     H13967   0.626   3.871  12.539 -1.1798  0.0553 -0.0803
    7MPD2    H113968   0.413   3.783  12.903 -0.1543  0.6514  0.4290
    7MPD2    H213969   0.538   4.176  12.823 -1.5667 -0.2024  2.4437
    7MPD2    H313970   0.443   4.012  12.970  0.8136  1.0998  0.9610
    7MPD2     N13971   0.499   3.671  12.678  0.6925  0.4438 -0.1113
    7MPD2    H513972   0.469   3.604  12.748  0.2118  0.1567 -0.5885
    7MPD2    N113973   0.665   4.111  12.584  0.2136  0.0240  0.1737
    7MPD2    H713974   0.681   4.080  12.488 -0.5782  0.5496 -0.1288
    8TMC3    C113975   0.535   3.479  12.531  0.9216 -0.1264  0.4299
    8TMC3    C213976   0.616   3.418  12.625  0.1945 -0.2560  0.6513
    8TMC3    C313977   0.699   3.317  12.585  0.3238 -0.2799 -0.1905
    8TMC3    C413978   0.538   3.441  12.396  0.7771 -0.1130  0.1878
    8TMC3    C513979   0.645   3.363  12.358  0.4885  0.0703 -0.3272
    8TMC3    C613980   0.717   3.293  12.447  0.9279 -0.1730 -0.0701
    8TMC3     C13981   0.509   3.623  12.543 -0.1526 -0.2483  0.4541
    8TMC3     O13982   0.508   3.685  12.439 -0.7043  0.1604 -0.4093
    8TMC3     H13983   0.619   3.469  12.721 -1.9546  1.1293 -0.0399
    8TMC3    H113984   0.477   3.493  12.323  1.2226  1.7837  1.1495
    8TMC3    H213985   0.792   3.227  12.404  0.6064  0.5398 -1.7528
    8TMC3    C713986   0.719   3.427  12.247  1.1505 -0.5556 -0.1504
    8TMC3    C813987   0.799   3.269  12.676  0.1918  0.0599  0.4006
    8TMC3    O113988   0.801   3.355  12.185 -0.1605 -0.0813  0.8478
    8TMC3    O213989   0.811   3.338  12.778  0.1266 -0.2598  0.1363
    9TMC3    C113990   0.746   4.458  12.305 -0.6287 -1.1528 -0.3939
    9TMC3    C213991   0.803   4.368  12.224  0.4325 -0.0852 -0.2766
    9TMC3    C313992   0.845   4.247  12.273 -0.5740 -0.7342  0.1196
    9TMC3    C413993   0.719   4.432  12.434 -0.3708 -0.2508  0.8120
    9TMC3    C513994   0.750   4.305  12.476  0.0275 -0.2630 -0.2888
    9TMC3    C613995   0.821   4.212  12.399  0.5554  0.0982 -0.1964
    9TMC3     C13996   0.657   4.553  12.239 -0.0559 -0.2012  0.1959
    9TMC3     O13997   0.544   4.561  12.289 -0.5321  0.1149 -0.0768
    9TMC3     H13998   0.817   4.382  12.117  1.8680 -2.3741 -0.3781
    9TMC3    H113999   0.652   4.494  12.493  0.9335  1.4629  0.5297
    9TMC3    H214000   0.859   4.120  12.440  0.9091  1.1629  1.8686
    9TMC3    C714001   0.684   4.248  12.596  0.8780  0.5366 -0.6631
    9TMC3    C814002   0.887   4.144  12.181 -0.0424  0.2288 -0.0149
    9TMC3    O114003   0.649   4.326  12.679 -1.1130 -0.2489  0.1575
    9TMC3    O214004   0.976   4.158  12.102 -0.8166 -0.0434  0.5199
   10MPD2     C14005   0.883   3.623  12.095 -0.2751  0.8252  0.2715
   10MPD2    C114006   0.789   3.663  12.189  0.0025 -1.1604  0.1765
   10MPD2    C214007   0.770   3.792  12.224  0.5608 -0.5776  1.0066
   10MPD2    C314008   0.846   3.902  12.169  0.5641  0.1857 -0.1952
   10MPD2    C414009   0.950   3.858  12.087  0.5302  0.7631  0.3021
   10MPD2    C514010   0.968   3.724  12.051 -0.2341 -0.0878  0.6238
   10MPD2     H14011   0.695   3.814  12.299 -1.4276  1.7440 -1.7108
   10MPD2    H114012   1.010   3.927  12.029  1.2930  0.2324  0.4587
   10MPD2    H214013   0.903   3.521  12.066  3.7335  1.9254 -0.7850
   10MPD2    H314014   1.047   3.690  11.986 -0.7488 -0.1283  0.0236
   10MPD2     N14015   0.819   4.028  12.209  0.2108  0.2537 -0.5776
   10MPD2    H514016   0.739   4.030  12.272 -0.7960 -1.6298 -1.7729
   10MPD2    N114017   0.705   3.567  12.252 -0.2384  0.5924 -0.2420
   10MPD2    H714018   0.633   3.609  12.310 -1.4300 -0.8336 -0.7090
   11MPD2     C14019   1.727   2.754  13.509  0.4598  0.2179 -0.0308
   11MPD2    C114020   1.751   2.882  13.549 -0.2368 -0.0736  0.2388
   11MPD2    C214021   1.695   2.981  13.473  0.0175 -0.0310 -0.0700
   11MPD2    C314022   1.606   2.962  13.373 -0.1198  0.5420 -0.3274
   11MPD2    C414023   1.577   2.832  13.334  0.0014  0.8962 -0.4295
   11MPD2    C514024   1.639   2.730  13.411  0.2562 -0.2242  0.3978
   11MPD2     H14025   1.719   3.083  13.499 -1.0444 -0.4393  2.5954
   11MPD2    H114026   1.501   2.810  13.260  0.4924  0.0959 -0.6946
   11MPD2    H214027   1.770   2.668  13.560  1.2478  0.2329 -0.6767
   11MPD2    H314028   1.606   2.628  13.398  0.9330 -0.3994  0.0506
   11MPD2     N14029   1.544   3.066  13.299  0.4218 -0.1457 -0.0594
   11MPD2    H514030   1.491   3.034  13.219 -1.2121  1.1880  0.4941
   11MPD2    N114031   1.853   2.909  13.646  0.5123  0.5349  0.3653
   11MPD2    H714032   1.879   3.006  13.657 -1.1980  1.0094  0.3053
    1MPD1     C14033   3.348   0.726  16.719  1.0008  0.3566  0.5561
    1MPD1    C114034   3.359   0.651  16.838 -0.4581  0.6000  0.1237
    1MPD1    C214035   3.435   0.541  16.843 -0.0528 -0.4085 -0.2595
    1MPD1    C314036   3.532   0.511  16.746  0.6111 -0.0891  0.1219
    1MPD1    C414037   3.517   0.582  16.626 -0.2092 -0.1295  0.4788
    1MPD1    C514038   3.432   0.692  16.617 -0.3230  0.2405 -0.2169
    1MPD1     H14039   3.420   0.475  16.928  0.5536  0.5584  0.6118
    1MPD1    H114040   3.565   0.555  16.533 -1.7165  1.3020 -0.7072
    1MPD1    H214041   3.277   0.807  16.712 -1.7023 -2.0334  0.2587
    1MPD1    H314042   3.426   0.750  16.525  0.6395 -0.8171 -0.9416
    1MPD1     N14043   3.631   0.412  16.760 -0.0916  0.6915  0.3302
    1MPD1    H514044   3.704   0.409  16.689  0.9438  1.3171  1.3648
    1MPD1    N114045   3.264   0.674  16.940 -0.3179 -0.0527 -0.1119
    1MPD1    H614046   3.243   0.772  16.955  0.7678  0.3357 -1.1579
    1MPD1    H714047   3.301   0.646  17.030  0.3626 -2.2319 -1.0668
    2MPD1     C14048   3.928   0.332  17.668 -0.8875  0.0432 -0.3856
    2MPD1    C114049   3.803   0.340  17.612 -0.4381 -0.4736 -0.1112
    2MPD1    C214050   3.786   0.313  17.477 -0.0430 -0.4664 -0.0942
    2MPD1    C314051   3.891   0.262  17.403  0.2272  0.2632 -0.2920
    2MPD1    C414052   4.018   0.251  17.463 -0.1022 -0.8188 -0.8216
    2MPD1    C514053   4.034   0.289  17.595 -0.3085 -0.1976  0.1368
    2MPD1     H14054   3.688   0.321  17.433  0.6157  0.6126 -1.3715
    2MPD1    H114055   4.108   0.223  17.410  0.3726  0.3924 -0.6519
    2MPD1    H214056   3.941   0.367   0.032 -1.1749 -2.1030  0.4058
    2MPD1    H314057   4.135   0.295  17.634  0.5394 -2.1774 -1.7514
    2MPD1     N14058   3.883   0.258  17.262 -0.5143  0.5435 -0.2964
    2MPD1    H514059   3.797   0.291  17.221 -1.9223 -2.1879  0.4595
    2MPD1    N114060   3.710   0.419  17.686  0.0754  0.6435 -0.0240
    2MPD1    H614061   3.611   0.398  17.670 -0.1603  2.3177 -0.7140
    2MPD1    H714062   3.721   0.415   0.049 -0.6183 -3.3352 -0.1015
    3TMC3    C114063   3.935   0.193  17.040  0.0807  0.4537  0.0779
    3TMC3    C214064   4.042   0.204  16.951  0.0215  0.7613  0.1699
    3TMC3    C314065   4.005   0.242  16.820 -0.8278 -0.6652  0.1598
    3TMC3    C414066   3.805   0.226  17.005  0.8205 -0.7835  0.0444
    3TMC3    C514067   3.780   0.267  16.882  0.1539 -0.3964 -0.0278
    3TMC3    C614068   3.877   0.278  16.782  1.0554 -0.3228 -0.1419
    3TMC3     C14069   3.974   0.191  17.177 -0.2315 -0.4224 -0.0243
    3TMC3     O14070   4.074   0.126  17.203 -0.0802 -0.0601  0.4609
    3TMC3     H14071   4.139   0.169  16.984 -0.9949 -2.0053  0.2208
    3TMC3    H114072   3.724   0.216  17.076 -0.2493  0.6522 -0.9665
    3TMC3    H214073   3.864   0.288  16.674  0.5268  0.6572  0.0150
    3TMC3    C714074   3.643   0.320  16.859 -0.3774 -0.4866 -0.3625
    3TMC3    C814075   4.103   0.215  16.715  0.8386  0.4592  0.5270
    3TMC3    O114076   3.572   0.308  16.960 -0.1877 -0.4892 -1.1603
    3TMC3    O214077   4.085   0.265  16.601  1.2473 -0.0052 -0.1921
    4MPD1     C14078   4.544   0.004  16.535 -0.0189  0.3466 -0.3134
    4MPD1    C114079   4.525   4.702  16.668  0.2221 -0.2221 -0.1485
    4MPD1    C214080   4.414   0.020  16.735 -0.2164 -0.9452  0.1987
    4MPD1    C314081   4.314   0.093  16.675  0.9546  0.7298 -0.4653
    4MPD1    C414082   4.330   0.125  16.543 -0.9388  0.3044  0.0425
    4MPD1    C514083   4.438   0.069  16.476 -0.0112  0.2011 -0.2887
    4MPD1     H14084   4.404   0.000  16.841 -0.2089 -1.4325  0.1081
    4MPD1    H114085   4.259   0.176  16.479  1.5241  1.5716 -1.7210
    4MPD1    H214086   4.628   4.709  16.474 -0.5827  0.0075 -0.9334
    4MPD1    H314087   4.446   0.082  16.369 -0.2945 -0.4290 -0.3842
    4MPD1     N14088   4.200   0.126  16.749 -0.4958 -0.0984 -0.0402
    4MPD1    H514089   4.192   0.094  16.845 -0.6378  1.8674  0.6019
    4MPD1    N114090   4.636   4.654  16.746  0.4595 -0.2512  0.0222
    4MPD1    H614091   4.603   4.594  16.821  0.1817 -0.3181 -0.1551
    4MPD1    H714092   4.714   4.611  16.697  0.2131  0.3214 -0.8597
    1TCq1    O114093   0.772   4.362  11.879  0.0555 -0.2220 -0.0527
    1TCq1    C114094   0.862   4.425  11.800  0.1352 -0.4800 -0.1007
    1TCq1    O214095   0.838   4.538  11.757 -0.6394  0.0955 -0.1254
    1TCq1    C214096   0.900   4.317  11.721  0.0475  0.0333 -0.2259
    1TCq1    C314097   0.958   4.213  11.791 -0.3542 -0.2694 -0.1387
    1TCq1    C414098   1.014   4.117  11.719 -1.4756 -0.1031  0.3949
    1TCq1    C514099   0.978   4.108  11.588 -0.1148  0.2876 -0.6116
    1TCq1    C614100   0.924   4.214  11.525  0.3753  0.2903 -0.2813
    1TCq1    C714101   0.893   4.325  11.588 -0.0501 -0.6311 -0.2576
    1TCq1    C814102   0.862   4.200  11.391  0.0005  0.1017  0.3008
    1TCq1    O414103   0.827   4.309  11.340 -0.8831  0.1700 -1.0911
    1TCq1    C914104   1.054   3.987  11.777  0.8104  0.2330 -0.4176
    1TCq1    O514105   1.155   3.996  11.855 -0.1467 -0.1664 -0.2434
    1TCq1    O614106   0.993   3.886  11.736 -0.3409  0.5751  0.0277
    1TCq1    H114107   0.775   4.264  11.877 -2.5530 -0.3089 -0.2062
    1TCq1    H214108   0.979   4.230  11.896 -1.4196  1.5258 -0.2140
    1TCq1    H314109   1.007   4.019  11.532 -1.5065 -0.9401  0.6416
    1TCq1    H414110   0.853   4.414  11.542 -2.1554  0.1787  3.2035
    2MPD1     C14111   0.670   4.028  10.956  0.2245 -0.2207 -0.1120
    2MPD1    C114112   0.725   3.922  11.024  0.7459 -0.2693 -0.2346
    2MPD1    C214113   0.782   3.938  11.151  0.1289 -0.0157 -0.3713
    2MPD1    C314114   0.785   4.059  11.210 -0.2641  0.6779  0.6413
    2MPD1    C414115   0.710   4.159  11.145 -0.1106 -0.6537  0.0401
    2MPD1    C514116   0.659   4.141  11.027  0.0531 -0.4739  0.3251
    2MPD1     H14117   0.829   3.852  11.196 -0.2946 -1.1055 -2.0141
    2MPD1    H114118   0.691   4.260  11.179  1.3072  0.1214 -1.4489
    2MPD1    H214119   0.637   4.014  10.853 -0.8532  3.4449 -0.2663
    2MPD1    H314120   0.617   4.230  10.981 -1.3762 -1.6565 -0.6878
    2MPD1     N14121   0.848   4.072  11.335 -0.3187 -0.0996 -0.0641
    2MPD1    H514122   0.873   3.993  11.394 -0.6712  1.3707  2.0560
    2MPD1    N114123   0.711   3.791  10.981  0.2985  0.0777  0.1452
    2MPD1    H614124   0.785   3.727  11.008  0.0054 -0.7421 -0.9842
    2MPD1    H714125   0.700   3.796  10.880 -0.1930 -1.0746  0.1328
    1TMC1    C114126   3.652   0.380   0.461 -0.6954  0.7642  0.0111
    1TMC1    C214127   3.559   0.352   0.560  0.3298 -0.1791 -0.2573
    1TMC1    C314128   3.500   0.453   0.627  0.2950  0.1882 -0.2915
    1TMC1    C414129   3.698   0.507   0.443  0.5491  0.0800  0.3575
    1TMC1    C514130   3.642   0.612   0.517  0.4660  0.1493 -0.0775
    1TMC1    C614131   3.545   0.581   0.609 -0.6627  0.0599  0.0166
    1TMC1     C14132   3.690   0.290   0.354  0.0498  0.2802  1.1974
    1TMC1     O14133   3.744   0.332   0.259 -0.6273  0.4758 -0.3760
    1TMC1     H14134   3.508   0.259   0.582 -0.2438  0.2918  0.4333
    1TMC1    H114135   3.756   0.534   0.355  1.1518  1.2008  1.0957
    1TMC1    H214136   3.497   0.661   0.665 -1.0589 -0.3741  0.2951
    1TMC1    C714137   3.639   0.748   0.478 -0.5858 -0.9662 -0.4194
    1TMC1    C814138   3.392   0.429   0.715  0.2375  0.1013 -0.4083
    1TMC1    O114139   3.547   0.827   0.497  0.4415  0.1508 -0.2354
    1TMC1    O214140   3.381   0.319   0.769  0.4676  0.2768 -0.0465
    1TMC1    O314141   3.776   0.785   0.464 -0.5735  0.0117 -0.0319
    1TMC1    H314142   3.846   0.716   0.459  0.7904  1.3001  1.2252
    1TMC1    O514143   3.287   0.488   0.654  0.2918  0.0358  0.0728
    1TMC1    H514144   3.307   0.563   0.594  0.7830  0.7999  1.2009
    2MPD1     C14145   3.615   4.595   0.100  0.7206  0.3214 -0.6705
    2MPD1    C114146   3.664   4.721   0.062 -0.5913  0.2630 -0.0636
    2MPD1    C214147   3.664   0.084   0.159  0.1022  0.6099  0.6173
    2MPD1    C314148   3.631   0.064   0.291  0.3204 -0.6808 -0.0708
    2MPD1    C414149   3.591   4.676   0.329  0.7073 -0.1276 -0.2794
    2MPD1    C514150   3.596   4.572   0.236 -0.3688 -0.3451 -0.0417
    2MPD1     H14151   3.676   0.187   0.129  1.8397  0.4342  0.6851
    2MPD1    H114152   3.575   4.654   0.434  1.1116  0.8510 -0.0011
    2MPD1    H214153   3.599   4.512   0.033  1.1024 -0.3874  0.1232
    2MPD1    H314154   3.566   4.474   0.271 -1.7173 -0.0077 -0.2557
    2MPD1     N14155   3.630   0.171   0.383 -0.1109 -0.3836  0.3785
    2MPD1    H514156   3.592   0.165   0.477 -0.5503  2.8728  0.4076
    2MPD1    N114157   3.677   0.023  17.662  0.0563 -0.4918 -0.4784
    2MPD1    H614158   3.700   4.690  17.589 -0.8178 -1.2696 -0.0391
    2MPD1    H714159   3.743   0.100  17.656 -0.9917  0.2070 -2.8818
    1MPD1     C14160   2.010   3.758  12.240 -0.7482  0.5776  0.2228
    1MPD1    C114161   2.143   3.777  12.273 -0.2969 -0.6498 -0.3924
    1MPD1    C214162   2.217   3.865  12.199  0.8934 -0.5288  0.1190
    1MPD1    C314163   2.165   3.929  12.091 -0.2555  0.2428 -0.9995
    1MPD1    C414164   2.031   3.911  12.057  0.3441 -0.6005  0.2986
    1MPD1    C514165   1.956   3.831  12.139  0.4934  0.1420  0.0544
    1MPD1     H14166   2.322   3.884  12.221  0.6452  1.2756 -0.3027
    1MPD1    H114167   1.985   3.937  11.963 -0.2034 -0.3473  0.6328
    1MPD1    H214168   1.947   3.689  12.296 -0.2400 -1.6854 -2.0327
    1MPD1    H314169   1.851   3.818  12.114  0.6528 -1.7231  0.3128
    1MPD1     N14170   2.262   4.004  12.015 -0.1887 -1.0898  0.2823
    1MPD1    H514171   2.354   4.005  12.057 -0.1707 -2.3522  0.2773
    1MPD1    N114172   2.210   3.676  12.343 -0.0363  0.6554  0.1592
    1MPD1    H614173   2.160   3.628  12.417  0.8807 -2.7339 -1.3997
    1MPD1    H714174   2.300   3.700  12.384 -0.7950  2.2684  0.8795
    2MPD1     C14175   1.160   0.249  11.497 -0.3090 -0.4258 -0.3307
    2MPD1    C114176   1.112   0.223  11.366 -0.1163 -0.2156  0.0775
    2MPD1    C214177   1.181   0.139  11.281 -0.4549  0.3191 -0.7471
    2MPD1    C314178   1.299   0.071  11.322  0.1317  0.2847 -0.3847
    2MPD1    C414179   1.329   0.081  11.456 -0.2301  0.2741  0.5396
    2MPD1    C514180   1.261   0.168  11.542  0.2646 -0.7500  0.4019
    2MPD1     H14181   1.150   0.135  11.177  0.2567 -0.2645 -0.9399
    2MPD1    H114182   1.410   0.019  11.494  0.2716  0.5830 -0.0248
    2MPD1    H214183   1.107   0.319  11.560 -0.1196 -1.5297  1.0711
    2MPD1    H314184   1.301   0.170  11.643  1.2709 -2.9729  0.0362
    2MPD1     N14185   1.374   4.723  11.236 -0.0523  0.7814 -0.2086
    2MPD1    H514186   1.459   4.685  11.276  1.1093  0.6391 -2.8481
    2MPD1    N114187   1.006   0.303  11.310  0.3051  0.5485  0.6182
    2MPD1    H614188   0.936   0.337  11.376  1.9452  1.9741  1.6317
    2MPD1    H714189   0.957   0.241  11.246 -0.2462  0.3983  1.1846
    3MPD1     C14190   1.282   4.323  10.300  0.3133 -0.2751 -0.1924
    3MPD1    C114191   1.199   4.321  10.408 -0.3448  0.8286 -0.1300
    3MPD1    C214192   1.254   4.355  10.531  0.5137  0.1095  0.6761
    3MPD1    C314193   1.383   4.409  10.546  0.3501 -0.2609  0.2348
    3MPD1    C414194   1.452   4.434  10.427  0.8969 -0.2790 -0.8928
    3MPD1    C514195   1.401   4.391  10.303  0.4440 -0.5198 -1.3630
    3MPD1     H14196   1.189   4.334  10.615  0.5169 -0.2939  0.5794
    3MPD1    H114197   1.551   4.478  10.425  1.2577 -1.1794 -2.5775
    3MPD1    H214198   1.248   4.272  10.210  0.7600 -1.4200  0.2747
    3MPD1    H314199   1.472   4.388  10.221 -0.1671 -0.1161 -1.9076
    3MPD1     N14200   1.423   4.443  10.677 -0.0600 -0.6363 -0.0121
    3MPD1    H514201   1.353   4.429  10.749  0.9290  0.4466  1.1791
    3MPD1    N114202   1.075   4.250  10.392  0.2810 -0.3712 -0.2133
    3MPD1    H614203   1.012   4.278  10.317  1.3765  0.4906 -0.7945
    3MPD1    H714204   1.010   4.264  10.469  0.9369 -3.0102  0.8243
    4MPD2     C14205   2.667   4.635  11.918  0.0226 -0.0957 -0.4777
    4MPD2    C114206   2.696   4.550  11.809  0.4238  0.1727 -0.3340
    4MPD2    C214207   2.743   4.598  11.688 -0.0948 -0.1905  0.3734
    4MPD2    C314208   2.764   0.005  11.681  0.7865 -0.1788  0.2797
    4MPD2    C414209   2.744   0.084  11.791  0.0712 -0.8846 -0.1058
    4MPD2    C514210   2.685   0.031  11.904 -0.5046  0.3902 -0.7657
    4MPD2     H14211   2.753   4.534  11.601  1.1665  1.0706 -0.4242
    4MPD2    H114212   2.755   0.190  11.772 -0.0606 -0.1079  4.1545
    4MPD2    H214213   2.620   4.609  12.012 -0.3021  2.0473 -0.0361
    4MPD2    H314214   2.644   0.099  11.978 -1.1847 -1.8781  0.9562
    4MPD2     N14215   2.796   0.070  11.563 -0.0663  0.2261  0.2252
    4MPD2    H514216   2.779   0.170  11.563  3.0757  0.7725  1.4604
    4MPD2    N114217   2.681   4.407  11.812  0.0049  0.1188 -0.5097
    4MPD2    H714218   2.704   4.359  11.725  0.0186 -0.9856  0.0932
    5TMC3    C114219   2.580   4.204  11.868 -1.1580 -0.4454 -0.4925
    5TMC3    C214220   2.455   4.167  11.922  0.0560 -0.1689  0.2682
    5TMC3    C314221   2.359   4.116  11.834  0.6162 -0.0564 -0.3727
    5TMC3    C414222   2.609   4.183  11.740  0.1545  0.1747  0.2446
    5TMC3    C514223   2.512   4.136  11.656 -0.3097 -0.6168  0.0119
    5TMC3    C614224   2.378   4.116  11.695 -0.5317  0.2858  0.4096
    5TMC3     C14225   2.628   4.335  11.918  0.0068 -0.1773  0.0176
    5TMC3     O14226   2.613   4.370  12.034  0.3502 -0.3531  0.0548
    5TMC3     H14227   2.439   4.176  12.029  0.5816 -1.7795  0.4897
    5TMC3    H114228   2.713   4.173  11.712 -0.3552 -0.2636 -1.5202
    5TMC3    H214229   2.291   4.093  11.634 -0.3233  0.1211  0.1710
    5TMC3    C714230   2.543   4.192  11.528 -0.5236  0.0942  0.1055
    5TMC3    C814231   2.242   4.043  11.886 -0.2942  0.2186 -0.4230
    5TMC3    O114232   2.629   4.278  11.525  0.6928 -0.1410 -0.0055
    5TMC3    O214233   2.155   4.007  11.808  0.1305 -0.0813 -0.9267
    6TMC3    C114234   1.470   4.643  11.041 -0.3227 -0.8686 -0.6040
    6TMC3    C214235   1.447   4.580  10.922 -0.0364 -0.3182  0.7332
    6TMC3    C314236   1.555   4.553  10.837 -0.1340  0.4727  0.4417
    6TMC3    C414237   1.594   4.679  11.084 -0.5321  0.2028  0.4675
    6TMC3    C514238   1.697   4.656  10.993 -0.0250  0.2022  0.3694
    6TMC3    C614239   1.677   4.602  10.867 -0.8736 -0.4066  0.1891
    6TMC3     C14240   1.351   4.686  11.107 -0.1802  0.0282  0.3970
    6TMC3     O14241   1.248   4.688  11.042 -0.0347  0.0784  0.4033
    6TMC3     H14242   1.348   4.550  10.890  1.0341 -1.4666 -1.4427
    6TMC3    H114243   1.621   4.718  11.181 -0.8036 -1.0481  1.0486
    6TMC3    H214244   1.756   4.577  10.797 -1.0494 -0.4518  0.0057
    6TMC3    C714245   1.830   4.714  11.016 -0.1199 -0.4207 -0.1389
    6TMC3    C814246   1.542   4.489  10.707  0.0144 -0.3641  0.1319
    6TMC3    O114247   1.930   4.649  10.984  0.5201  0.1680 -0.0666
    6TMC3    O214248   1.640   4.489  10.634 -0.2759  0.1543 -0.4943
    7MPD2     C14249   2.352   4.318  11.067  0.4528  0.4110  0.6334
    7MPD2    C114250   2.462   4.360  11.138  0.8365  0.6731 -0.6142
    7MPD2    C214251   2.491   4.312  11.265 -0.3648  0.8417 -0.6406
    7MPD2    C314252   2.404   4.215  11.320  0.0977  0.0600 -0.5604
    7MPD2    C414253   2.293   4.171  11.249  0.0071 -0.4325 -0.4328
    7MPD2    C514254   2.274   4.219  11.120  0.0742 -0.6949 -0.0965
    7MPD2     H14255   2.569   4.347  11.332 -0.7609  0.7543 -0.1364
    7MPD2    H114256   2.222   4.107  11.300 -0.1307  0.7956  0.9306
    7MPD2    H214257   2.328   4.362  10.971  0.8853 -2.9122 -0.9717
    7MPD2    H314258   2.186   4.195  11.062 -0.0502  0.4063 -0.3743
    7MPD2     N14259   2.436   4.157  11.444 -0.1158  0.3599  0.0251
    7MPD2    H514260   2.368   4.091  11.479 -1.5167  1.9645  0.3545
    7MPD2    N114261   2.543   4.460  11.080 -0.2515  0.2893 -0.2844
    7MPD2    H714262   2.499   4.509  11.002  1.6637  2.3067 -0.0919
    8TMC3    C114263   2.653   4.647  11.168  0.0153  0.3371 -0.1217
    8TMC3    C214264   2.531   4.700  11.182  0.7617 -0.1529 -0.1279
    8TMC3    C314265   2.518   0.070  11.279  0.7588 -0.1539  0.0488
    8TMC3    C414266   2.756   4.694  11.242 -0.1064  0.1894  0.5073
    8TMC3    C514267   2.745   0.042  11.346  0.1879  0.9795  0.0983
    8TMC3    C614268   2.619   0.093  11.372  0.4076 -0.2742  0.8161
    8TMC3     C14269   2.662   4.507  11.139 -0.5009  1.2543 -0.2302
    8TMC3     O14270   2.748   4.439  11.195 -0.1279 -0.0135 -0.5366
    8TMC3     H14271   2.457   4.677  11.107 -0.6086 -0.4155  1.2929
    8TMC3    H114272   2.851   4.648  11.214 -0.8539 -1.4602  0.6739
    8TMC3    H214273   2.596   0.171  11.443  3.1468 -1.6752  3.2941
    8TMC3    C714274   2.839   0.004  11.452 -0.1332 -0.4167  0.4901
    8TMC3    C814275   2.413   0.161  11.275  0.8600  0.2849  0.5981
    8TMC3    O114276   2.883   4.626  11.438 -0.3524 -0.0911 -0.1971
    8TMC3    O214277   2.449   0.278  11.289 -0.2656 -0.0208  0.1392
    9MPD2     C14278   2.167   0.309  11.220 -0.2570  0.3310 -0.1333
    9MPD2    C114279   2.183   0.173  11.198 -0.6008 -0.7293  0.2291
    9MPD2    C214280   2.079   0.110  11.137  0.8850 -0.0531 -0.5111
    9MPD2    C314281   1.961   0.169  11.116  0.8402 -0.1468  0.0819
    9MPD2    C414282   1.952   0.305  11.150  0.4434  0.1199 -0.6874
    9MPD2    C514283   2.060   0.379  11.182  1.2246  0.3270  0.6614
    9MPD2     H14284   2.085   0.002  11.128 -2.2552 -0.3326  0.9180
    9MPD2    H114285   1.857   0.356  11.140 -0.3214 -1.4952 -1.6413
    9MPD2    H214286   2.241   0.377  11.261 -0.6312  0.7854 -0.2141
    9MPD2    H314287   2.067   0.483  11.211  2.9497 -0.0103  1.4131
    9MPD2     N14288   1.838   0.101  11.080 -0.4917  0.1599 -0.3849
    9MPD2    H514289   1.748   0.146  11.094 -1.2480 -0.9784 -1.6529
    9MPD2    N114290   2.300   0.105  11.229 -0.1498 -0.2842  0.0661
    9MPD2    H714291   2.290   0.005  11.214 -1.1051 -0.4714  1.9906
    1MPD1     C14292   0.998   2.460  16.175 -0.0385 -0.3500 -0.7248
    1MPD1    C114293   0.963   2.362  16.084 -0.2041 -0.5028 -0.2878
    1MPD1    C214294   1.041   2.356  15.974  0.2069  0.0214  0.6165
    1MPD1    C314295   1.135   2.452  15.939 -0.8603  0.1658 -0.5880
    1MPD1    C414296   1.144   2.562  16.020  0.3837  0.3543 -0.4704
    1MPD1    C514297   1.078   2.565  16.141  0.8298 -0.3779  0.7896
    1MPD1     H14298   1.023   2.271  15.909 -0.9042  0.6236  0.1451
    1MPD1    H114299   1.221   2.636  16.000  3.0277 -2.8611 -2.0191
    1MPD1    H214300   0.939   2.463  16.266  1.4403  2.3037  0.1657
    1MPD1    H314301   1.071   2.654  16.202 -1.1619 -0.4314  0.6542
    1MPD1     N14302   1.216   2.449  15.821 -0.0197 -0.0595 -0.0769
    1MPD1    H514303   1.271   2.533  15.804  0.1839 -0.4936 -1.5589
    1MPD1    N114304   0.884   2.254  16.123 -0.5464  0.2535  0.1000
    1MPD1    H614305   0.852   2.198  16.045 -1.5738  1.0278 -0.0451
    1MPD1    H714306   0.812   2.273  16.193  0.3370  0.8581  0.8512
    2TMC2    C114307   1.452   2.512  15.500 -0.1829  0.3964 -0.8014
    2TMC2    C214308   1.479   2.412  15.405 -0.1444  0.6515 -0.1388
    2TMC2    C314309   1.408   2.298  15.418 -0.5908 -0.1723  0.1472
    2TMC2    C414310   1.345   2.505  15.592 -0.4847  0.4469  0.3683
    2TMC2    C514311   1.277   2.385  15.596  0.4674 -0.3829 -0.2812
    2TMC2    C614312   1.314   2.282  15.516  0.5510 -0.3306 -0.7209
    2TMC2     C14313   1.545   2.631  15.494  0.5514 -0.5429  0.3721
    2TMC2     O14314   1.602   2.640  15.391 -0.0656 -0.0849  0.0858
    2TMC2     H14315   1.540   2.427  15.317  0.6464  1.9788  0.6269
    2TMC2    H114316   1.316   2.593  15.649  0.9126  1.6260 -0.7319
    2TMC2    H214317   1.280   2.179  15.528  1.0558 -0.5550 -1.2380
    2TMC2    C714318   1.211   2.347  15.726  0.7781 -0.1425  0.9377
    2TMC2    C814319   1.440   2.188  15.331 -0.8819 -0.7922  0.0138
    2TMC2    O114320   1.149   2.244  15.728  0.2287 -0.5108  0.2422
    2TMC2    O214321   1.557   2.154  15.348  0.5072  0.0474  0.5260
    2TMC2    O514322   1.403   2.251  15.217 -0.4018  0.2282 -0.3622
    2TMC2    H514323   1.327   2.309  15.238 -2.0112 -1.7538 -0.7279
    3MPD1     C14324   1.773   3.051  15.665 -0.1080  0.0508  0.8816
    3MPD1    C114325   1.721   2.986  15.779 -0.2921  0.9628  0.5805
    3MPD1    C214326   1.649   2.873  15.753 -0.3058  0.0898  0.2551
    3MPD1    C314327   1.649   2.813  15.627 -0.8889  0.7281 -0.0518
    3MPD1    C414328   1.715   2.869  15.523 -0.8524  0.2123 -0.7031
    3MPD1    C514329   1.772   2.991  15.546  0.5206  0.2331 -0.4994
    3MPD1     H14330   1.594   2.823  15.832 -2.2526 -1.6212 -2.1456
    3MPD1    H114331   1.715   2.832  15.421 -4.2968  0.5786 -0.8264
    3MPD1    H214332   1.835   3.140  15.670 -0.4015  0.4247 -1.9178
    3MPD1    H314333   1.816   3.041  15.460  1.3262 -0.6705 -0.6165
    3MPD1     N14334   1.575   2.694  15.612  0.4061  0.0490  0.9693
    3MPD1    H514335   1.527   2.667  15.697 -2.5190  1.9594 -0.0552
    3MPD1    N114336   1.707   3.066  15.893  0.1069  0.0932 -0.9016
    3MPD1    H614337   1.773   3.140  15.916 -1.8872  1.8160 -0.7342
    3MPD1    H714338   1.701   3.006  15.975 -0.8361 -0.4006 -1.3352
    1TMC1    C114339   4.433   2.096  13.009  0.3599  0.1005  0.2054
    1TMC1    C214340   4.447   1.985  13.093  0.1931  0.3526 -0.1977
    1TMC1    C314341   4.342   1.900  13.093 -0.1768 -0.6009  0.1242
    1TMC1    C414342   4.316   2.117  12.938 -0.0870 -0.3694 -0.1455
    1TMC1    C514343   4.219   2.022  12.937  0.0772 -0.3086  0.2575
    1TMC1    C614344   4.223   1.920  13.023 -0.5422 -0.9268 -0.4079
    1TMC1     C14345   4.526   2.196  12.990  0.3428  0.4073  0.0631
    1TMC1     O14346   4.485   2.308  12.957  0.1209  0.0196 -0.0033
    1TMC1     H14347   4.540   1.957  13.141  1.2641  1.8717 -1.3483
    1TMC1    H114348   4.315   2.196  12.864 -1.2339 -1.0333 -0.8409
    1TMC1    H214349   4.149   1.841  13.020 -1.0147 -0.4657 -0.8714
    1TMC1    C714350   4.095   2.040  12.862  0.0797  0.1885 -0.1488
    1TMC1    C814351   4.353   1.781  13.174 -0.3940  0.2438 -0.2078
    1TMC1    O114352   4.032   1.951  12.807 -0.2422  0.5540  0.0888
    1TMC1    O214353   4.269   1.688  13.146 -0.4029 -0.6729 -0.3904
    1TMC1    O314354   4.065   2.174  12.845 -0.5428 -0.1925  0.5195
    1TMC1    H314355   4.100   2.228  12.918  0.9255  0.2448 -0.4970
    1TMC1    O514356   4.358   1.843  13.300  0.3057  0.0608  0.1086
    1TMC1    H514357   4.398   1.933  13.300  0.9446 -0.2290 -1.0253
    2MPD2     C14358   0.035   2.345  12.954 -0.4434  0.3883 -0.7431
    2MPD2    C114359   0.029   2.236  13.035 -0.5204 -0.7562 -0.4063
    2MPD2    C214360   0.136   2.198  13.111  0.0003 -0.7069 -0.0875
    2MPD2    C314361   0.263   2.256  13.092 -0.4362 -0.1541  0.4248
    2MPD2    C414362   0.275   2.366  13.010 -0.2287 -0.1208  0.3174
    2MPD2    C514363   0.159   2.407  12.943 -0.3270  0.3889 -0.6228
    2MPD2     H14364   0.120   2.111  13.174 -2.7024  0.2550  0.5899
    2MPD2    H114365   0.367   2.421  12.992  1.0934 -2.5595 -0.3728
    2MPD2    H214366   4.687   2.387  12.898 -1.1269 -0.9843 -0.7631
    2MPD2    H314367   0.178   2.496  12.883  1.3618 -0.5571 -1.5073
    2MPD2     N14368   0.376   2.187  13.146  0.3173  0.0386  0.2662
    2MPD2    H514369   0.351   2.115  13.212  0.6767  0.2170  0.6002
    2MPD2    N114370   4.646   2.155  13.044 -0.0346  0.9851  0.8194
    2MPD2    H714371   4.648   2.070  13.098 -0.0959 -0.6983 -1.8168
    3TCq1    O114372   0.960   2.288  13.276  0.1336 -0.6009 -0.0473
    3TCq1    C114373   0.910   2.214  13.373 -0.5690  0.4575 -0.2156
    3TCq1    O214374   0.956   2.191  13.486  0.4433  0.5334 -0.3254
    3TCq1    C214375   0.791   2.150  13.336 -0.6173 -0.1527 -0.5186
    3TCq1    C314376   0.745   2.046  13.415 -0.2542 -0.6831  0.0377
    3TCq1    C414377   0.628   1.984  13.372 -0.1544 -0.0997  0.0895
    3TCq1    C514378   0.559   2.021  13.261  0.4328  0.0653  0.6810
    3TCq1    C614379   0.593   2.141  13.204 -0.1442  0.2707  0.2394
    3TCq1    C714380   0.710   2.203  13.239  0.3181  0.2181  0.5660
    3TCq1    C814381   0.505   2.218  13.118 -0.5484  0.7179  0.0634
    3TCq1    O414382   0.549   2.304  13.050  0.3360  0.2817  0.6323
    3TCq1    C914383   0.596   1.870  13.442  0.2304 -0.1208  0.4095
    3TCq1    O514384   0.668   1.837  13.540 -0.1376 -0.1852 -0.0759
    3TCq1    O614385   0.490   1.812  13.413 -0.1278 -0.0086  0.0755
    3TCq1    H114386   0.900   2.289  13.199 -2.4260  2.2212  1.9492
    3TCq1    H214387   0.803   2.019  13.503  1.3060 -2.0299 -1.4201
    3TCq1    H314388   0.487   1.952  13.219  0.3833  0.4769  0.0896
    3TCq1    H414389   0.728   2.304  13.204 -0.5771  0.2305  0.1379
    1MPD2     C14390   4.516   3.712  15.089  0.1147  0.6082 -0.0282
    1MPD2    C114391   4.393   3.653  15.099 -0.8339  0.5828 -0.5909
    1MPD2    C214392   4.392   3.515  15.106  0.5473  0.2939  0.3177
    1MPD2    C314393   4.504   3.437  15.094 -0.5803 -0.4730 -0.0949
    1MPD2    C414394   4.630   3.495  15.096 -0.6745  0.5719  0.5143
    1MPD2    C514395   4.631   3.637  15.085 -0.0036 -0.2142 -0.5011
    1MPD2     H14396   4.299   3.461  15.118  0.4840  0.1913 -0.6514
    1MPD2    H114397   4.725   3.443  15.100 -1.3676 -0.5739  1.7053
    1MPD2    H214398   4.534   3.819  15.085 -2.3978  1.0458  0.5456
    1MPD2    H314399   4.724   3.691  15.071  0.1851 -0.1252  1.0564
    1MPD2     N14400   4.478   3.298  15.093  0.1365 -0.4507 -0.6184
    1MPD2    H514401   4.379   3.276  15.080  0.0866 -0.4920 -0.1541
    1MPD2    N114402   4.275   3.731  15.110  0.2990  0.0889  0.3768
    1MPD2    H714403   4.288   3.830  15.127  1.5540  0.3138 -1.8939
    2TMC3    C114404   4.049   3.786  15.141 -0.4209 -0.5758  0.0802
    2TMC3    C214405   3.931   3.734  15.202 -0.0746  0.1932  0.1167
    2TMC3    C314406   3.814   3.735  15.135  0.1394 -0.3810  0.8448
    2TMC3    C414407   4.041   3.842  15.015 -0.7364  0.4976  0.1676
    2TMC3    C514408   3.917   3.840  14.961  0.0287 -0.2737 -0.3205
    2TMC3    C614409   3.799   3.791  15.013 -0.6183 -0.4173 -0.0473
    2TMC3     C14410   4.156   3.685  15.159 -0.5403  1.2388  0.3285
    2TMC3     O14411   4.119   3.581  15.212  0.3502  0.3892  0.0922
    2TMC3     H14412   3.933   3.700  15.305 -0.8472  1.3223  0.5062
    2TMC3    H114413   4.127   3.860  14.952  0.2570  0.6739  1.5826
    2TMC3    H214414   3.709   3.787  14.954 -0.9464  0.7318  0.3783
    2TMC3    C714415   3.894   3.886  14.826  0.6256 -0.1974 -0.4513
    2TMC3    C814416   3.739   3.605  15.150 -0.1036 -0.0331  0.3577
    2TMC3    O114417   3.813   3.826  14.756 -0.3257  0.8256  0.6455
    2TMC3    O214418   3.630   3.601  15.100  0.2070  0.4283 -0.3645
    3TCq1    O114419   4.469   0.008  14.181  0.1482 -0.0509 -0.3343
    3TCq1    C114420   4.508   4.718  14.310  0.4289  0.0802  0.2446
    3TCq1    O214421   4.614   0.021  14.354  0.4346 -0.0317 -0.0318
    3TCq1    C214422   4.402   4.656  14.382 -0.1785  0.5873 -0.2191
    3TCq1    C314423   4.392   4.699  14.509  0.5717  0.9925 -0.9348
    3TCq1    C414424   4.283   4.667  14.579  0.3007  0.3906  0.2569
    3TCq1    C514425   4.189   4.583  14.531  0.4120  0.4521  0.5611
    3TCq1    C614426   4.206   4.541  14.400 -0.4970  0.3339  0.1398
    3TCq1    C714427   4.308   4.576  14.316 -0.0206 -0.2540 -0.3306
    3TCq1    C814428   4.153   4.404  14.365 -0.5000 -0.0212  0.2709
    3TCq1    O414429   4.111   4.374  14.255  0.0012  0.0933 -0.3312
    3TCq1    C914430   4.269   4.703  14.719  1.1774  0.1333  0.3614
    3TCq1    O514431   4.185   4.645  14.784 -0.3152 -0.3582 -0.7315
    3TCq1    O614432   4.354   0.049  14.771 -0.6378 -0.0382  0.5839
    3TCq1    H114433   4.377   4.711  14.165 -0.1948  0.7834  0.0006
    3TCq1    H214434   4.463   0.022  14.567  2.0113 -0.9041 -0.8056
    3TCq1    H314435   4.107   4.545  14.592  1.0569 -1.8592 -0.0207
    3TCq1    H414436   4.327   4.528  14.221 -1.3380 -1.8936  0.2351
    4MPD2     C14437   3.982   4.166  14.405  0.1129 -0.1594 -0.3372
    4MPD2    C114438   4.063   4.218  14.504 -0.1154 -0.4930  0.5512
    4MPD2    C214439   4.063   4.153  14.628 -0.7462 -0.4134  0.6466
    4MPD2    C314440   3.989   4.037  14.656  0.5467  0.4082  0.0738
    4MPD2    C414441   3.912   3.988  14.550  0.7660 -0.2439  0.3192
    4MPD2    C514442   3.915   4.050  14.426 -0.0159  0.0411  0.8134
    4MPD2     H14443   4.135   4.186  14.701 -0.2198  1.6750 -0.8164
    4MPD2    H114444   3.854   3.897  14.561 -1.9040  1.4992  0.7228
    4MPD2    H214445   3.970   4.208  14.306 -1.4628  2.8046  1.0971
    4MPD2    H314446   3.854   3.999  14.352  1.6612 -0.8430  0.0207
    4MPD2     N14447   3.986   3.978  14.783  0.0498  0.1579 -0.0091
    4MPD2    H514448   4.049   4.017  14.854  0.9995 -0.1906 -0.6568
    4MPD2    N114449   4.141   4.335  14.484 -0.0820  0.6098 -0.6807
    4MPD2    H714450   4.177   4.375  14.570  0.0041 -0.2109 -0.3397
    5TMC2    C114451   4.287   3.027  15.096 -0.2654  0.2028  0.2602
    5TMC2    C214452   4.297   2.965  15.214 -0.5219 -0.1183  0.2305
    5TMC2    C314453   4.421   2.947  15.265  0.1228 -0.7080 -0.2276
    5TMC2    C414454   4.395   3.072  15.037 -0.6422  0.3726 -0.4999
    5TMC2    C514455   4.516   3.065  15.090  0.4996 -0.4229 -0.7751
    5TMC2    C614456   4.531   3.003  15.206 -1.2486  0.8487 -0.1878
    5TMC2     C14457   4.176   3.123  15.094 -0.3365  0.3643  0.3565
    5TMC2     O14458   4.209   3.239  15.088  0.3891 -0.0522  0.1048
    5TMC2     H14459   4.212   2.930  15.271  0.1551 -0.2660  1.1407
    5TMC2    H114460   4.385   3.125  14.943 -1.4569 -0.1327 -0.7031
    5TMC2    H214461   4.618   3.035  15.261 -1.0994  0.3528 -0.1351
    5TMC2    C714462   4.573   3.198  15.090 -0.4217 -0.5076 -0.1226
    5TMC2    C814463   4.419   2.887  15.398 -0.0053 -0.3432  0.6098
    5TMC2    O114464   4.695   3.212  15.079 -0.3081 -0.6680  0.0815
    5TMC2    O214465   4.328   2.841  15.460  0.2135  0.7241  0.9106
    5TMC2    O514466   4.548   2.891  15.437 -0.1934  0.0482  0.2116
    5TMC2    H514467   4.619   2.914  15.373 -1.3045 -3.4402 -2.2060
    6MPD2     C14468   3.707   3.316  15.105 -0.4967  0.1429  0.4144
    6MPD2    C114469   3.824   3.371  15.135  0.1330  1.2318 -0.1197
    6MPD2    C214470   3.935   3.290  15.164 -0.2843  0.8331 -0.0545
    6MPD2    C314471   3.936   3.159  15.133 -0.6060 -0.1900 -0.3082
    6MPD2    C414472   3.818   3.105  15.101 -0.0606  0.0861  0.2406
    6MPD2    C514473   3.700   3.182  15.095  0.4510  0.2464 -0.2750
    6MPD2     H14474   4.031   3.337  15.184 -0.1728  0.6439 -0.1495
    6MPD2    H114475   3.806   2.998  15.085 -0.8002  0.1000  0.6596
    6MPD2    H214476   3.615   3.371  15.096 -0.5626 -0.5123 -2.8849
    6MPD2    H314477   3.614   3.128  15.057  1.9930 -1.5227 -1.2075
    6MPD2     N14478   4.048   3.075  15.116 -0.1200  0.0979  0.2180
    6MPD2    H514479   4.028   2.978  15.096  0.7260 -0.4772  2.1288
    6MPD2    N114480   3.834   3.510  15.158  0.0667 -0.0167 -0.1979
    6MPD2    H714481   3.926   3.546  15.181  0.6643 -2.8327  1.8379
  945NH3     N114482   2.784   0.371   9.778 -0.3654  0.6650  0.4743
  945NH3     H214483   2.741   0.307   9.843 -0.3073 -0.4989 -0.6323
  945NH3     H314484   2.885   0.382   9.788 -0.3255  2.0997 -1.5182
  945NH3     H414485   2.767   0.333   9.685 -1.1544  1.3395  0.3483
  946SOD     NA14486   1.793   3.910  13.433  0.3735 -0.0971  0.0854
  947SOD     NA14487   3.096   2.832  10.759 -0.0224 -0.1154 -0.1985
  948SOD     NA14488   0.619   3.758  11.648 -0.2729  0.0425  0.3388
  949SOD     NA14489   0.557   4.162  17.182 -0.2790  0.2746  0.0051
  950SOD     NA14490   4.103   3.678  14.287 -0.0117 -0.2203  0.2020
  951SOD     NA14491   0.512   4.403   3.928  0.4123 -0.2415 -0.0165
  952SOD     NA14492   1.067   1.243  16.377  0.5826 -0.0390  0.6338
  953SOD     NA14493   1.228   0.867  15.775 -0.0919 -0.1463 -0.4089
  954SOL     OW14494   4.306   0.829  10.557  0.2347 -0.3896 -0.1413
  954SOL    HW114495   4.387   0.873  10.533  1.4828 -2.6425 -0.1249
  954SOL    HW214496   4.245   0.893  10.521  0.0678 -1.4402 -1.7344
  955SOL     OW14497   1.742   0.658   5.174 -0.1365 -0.7581 -0.0993
  955SOL    HW114498   1.764   0.565   5.184 -0.1429 -1.0195 -2.6090
  955SOL    HW214499   1.663   0.654   5.120  0.2207 -1.3878 -0.5774
  956SOL     OW14500   0.283   2.486   5.476  0.1860  0.2727  0.1281
  956SOL    HW114501   0.224   2.509   5.405  0.1368 -1.5847 -0.4069
  956SOL    HW214502   0.304   2.397   5.448 -2.7684 -0.9346  1.8133
  957SOL     OW14503   0.850   3.222   4.240 -0.3993  0.6215 -0.3315
  957SOL    HW114504   0.838   3.165   4.165  1.1220 -0.5006  0.2746
  957SOL    HW214505   0.861   3.311   4.205  1.9917  0.5270  0.1395
  958SOL     OW14506   0.627   3.418   6.956  0.1180  0.4275  0.1230
  958SOL    HW114507   0.718   3.408   6.985  0.9412  0.0484 -2.6732
  958SOL    HW214508   0.632   3.501   6.909 -2.1304  0.7376  0.4370
  959SOL     OW14509   4.416   4.188   4.248 -0.1081  0.3757 -0.1493
  959SOL    HW114510   4.391   4.135   4.172  0.9143  0.0020 -0.2243
  959SOL    HW214511   4.511   4.175   4.253 -0.4035 -1.0190  1.7932
  960SOL     OW14512   4.419   3.009  11.492 -0.0136 -0.2437 -0.0620
  960SOL    HW114513   4.358   2.937  11.502 -0.3685  0.2542  1.3425
  960SOL    HW214514   4.447   3.020  11.583  0.6344  0.6630 -0.3653
  961SOL     OW14515   0.540   3.776   0.289  0.4893 -0.2256 -0.3225
  961SOL    HW114516   0.476   3.718   0.331  1.3296  0.0888  1.3672
  961SOL    HW214517   0.500   3.799   0.204  0.3435  0.2849 -0.1148
  962SOL     OW14518   2.577   2.486  12.424  0.2646 -0.1791  0.2509
  962SOL    HW114519   2.488   2.497  12.457 -0.0109 -2.3397  0.2650
  962SOL    HW214520   2.562   2.412  12.365  2.6886 -0.9599  0.6161
  963SOL     OW14521   0.644   0.476  11.818 -0.4259  0.1949 -0.3966
  963SOL    HW114522   0.672   0.516  11.900 -0.7155  0.8077 -0.5981
  963SOL    HW214523   0.550   0.491  11.826 -0.7286 -1.1111 -1.5193
  964SOL     OW14524   3.775   2.466   9.762  0.2344 -0.1808  0.1303
  964SOL    HW114525   3.772   2.488   9.855  1.4164  3.6879 -0.7505
  964SOL    HW214526   3.808   2.548   9.725  0.8329 -0.3181  0.3665
  965SOL     OW14527   3.572   2.023   7.034  0.5399 -0.0573  0.4159
  965SOL    HW114528   3.582   2.069   7.118  0.8097  1.2130 -0.3124
  965SOL    HW214529   3.483   1.990   7.029  0.8507 -0.8583  0.1028
  966SOL     OW14530   2.264   2.659   8.208  0.1259  0.7042 -0.6231
  966SOL    HW114531   2.330   2.663   8.278 -0.7887  0.8492  0.2319
  966SOL    HW214532   2.312   2.695   8.134 -2.2189  2.9613 -1.0287
  967SOL     OW14533   4.064   1.120   6.414 -0.1828 -0.1828  0.0016
  967SOL    HW114534   4.081   1.212   6.393 -0.0810  0.0171  0.9497
  967SOL    HW214535   3.974   1.103   6.385 -0.0844  2.6700 -2.0314
  968SOL     OW14536   1.513   3.261   0.641 -0.5207 -0.2968 -0.5163
  968SOL    HW114537   1.419   3.242   0.640 -0.7020  0.6036 -2.0757
  968SOL    HW214538   1.527   3.257   0.735 -1.7533  0.6721 -0.2817
  969SOL     OW14539   0.652   0.485   8.073  0.4662  0.5461  0.5896
  969SOL    HW114540   0.694   0.486   7.987  1.1049 -2.2969  0.8526
  969SOL    HW214541   0.645   0.390   8.087 -1.8320  0.9325  2.0326
  970SOL     OW14542   1.136   3.762   2.472  0.1685  0.3785 -0.1465
  970SOL    HW114543   1.090   3.824   2.415  1.3415  0.3925 -1.0678
  970SOL    HW214544   1.132   3.682   2.419 -0.4492 -0.0822  0.5976
  971SOL     OW14545   1.707   4.312   3.731  0.2091 -0.1643 -0.3033
  971SOL    HW114546   1.754   4.354   3.658  0.6899 -1.4816 -0.7531
  971SOL    HW214547   1.785   4.288   3.780  0.4686 -1.6499 -1.4388
  972SOL     OW14548   1.196   0.291   7.189 -0.1473 -0.0917  0.6457
  972SOL    HW114549   1.253   0.364   7.165  0.4986 -0.9049 -0.2896
  972SOL    HW214550   1.257   0.217   7.183  0.9106  0.8753 -0.3466
  973SOL     OW14551   1.498   4.505   5.303  0.9223 -0.1411 -0.1630
  973SOL    HW114552   1.423   4.559   5.278  1.3660  0.1457 -0.8546
  973SOL    HW214553   1.565   4.549   5.253  0.4132  0.2305 -0.5202
  974SOL     OW14554   3.018   1.011   5.270  0.1080  0.3468  0.6231
  974SOL    HW114555   2.963   0.933   5.272 -1.2364  1.3357  1.3759
  974SOL    HW214556   3.101   0.971   5.242  1.0471  2.1615  0.7937
  975SOL     OW14557   4.536   0.396   1.292 -0.0671 -0.5076 -0.0717
  975SOL    HW114558   4.542   0.442   1.209  1.6459  1.2044  0.9926
  975SOL    HW214559   4.449   0.355   1.293  0.0437 -0.7579 -0.8801
  976SOL     OW14560   0.579   2.004  17.198  0.0679 -0.0955 -0.1643
  976SOL    HW114561   0.657   1.954  17.221  0.9359  0.2554 -2.3383
  976SOL    HW214562   0.520   1.934  17.225  1.1564 -1.6902 -1.9841
  977SOL     OW14563   1.205   3.884  15.402 -0.4430  0.4092  0.2849
  977SOL    HW114564   1.154   3.963  15.422 -0.3767  0.6696 -0.5403
  977SOL    HW214565   1.187   3.830  15.478  1.5726 -0.9174 -0.1758
  978SOL     OW14566   1.888   3.319   8.310 -0.0374 -0.3172 -0.5954
  978SOL    HW114567   1.797   3.337   8.286  0.0763 -0.7656 -1.3799
  978SOL    HW214568   1.889   3.223   8.312 -2.2327 -0.3097  0.5093
  979SOL     OW14569   1.013   2.503  15.072  0.2216  0.2783 -0.0599
  979SOL    HW114570   1.021   2.596  15.089  1.2017  0.0794  0.5460
  979SOL    HW214571   0.929   2.482  15.113  0.6927  0.6686  1.1011
  980SOL     OW14572   0.539   0.500   4.340 -0.4795 -0.6462  0.2088
  980SOL    HW114573   0.593   0.442   4.286 -0.3908 -0.1694 -0.2092
  980SOL    HW214574   0.608   0.545   4.387  0.3277  0.0361 -1.6644
  981SOL     OW14575   4.317   3.880   5.128  0.0770  0.4660  0.4078
  981SOL    HW114576   4.245   3.925   5.084  1.4050  1.9164 -0.3064
  981SOL    HW214577   4.377   3.953   5.146  0.3978  0.4212 -0.4737
  982SOL     OW14578   2.665   4.412   0.161  0.4429  0.1534  0.1103
  982SOL    HW114579   2.575   4.446   0.157  0.7245  0.8044 -0.5799
  982SOL    HW214580   2.657   4.343   0.095  1.5798 -0.7479  0.9295
  983SOL     OW14581   1.447   1.854   3.104  0.4991 -0.3750 -0.1353
  983SOL    HW114582   1.518   1.791   3.093  1.8109  0.7727  1.7848
  983SOL    HW214583   1.369   1.813   3.069  0.1366  0.1503  0.0582
  984SOL     OW14584   3.885   1.338   4.044  0.3729 -0.1936 -0.1519
  984SOL    HW114585   3.969   1.366   4.009  1.4834 -1.1579  1.7421
  984SOL    HW214586   3.862   1.420   4.088  0.7869  0.3339 -0.9219
  985SOL     OW14587   4.074   3.335   1.459  0.4132 -0.7010 -0.0396
  985SOL    HW114588   4.036   3.272   1.521 -1.2896  0.8496  0.5083
  985SOL    HW214589   4.110   3.279   1.392  0.4446 -1.4768  0.6259
  986SOL     OW14590   3.308   2.963   5.882 -0.3951  0.1154 -0.0544
  986SOL    HW114591   3.247   2.999   5.946  2.1629  2.7471  0.9110
  986SOL    HW214592   3.396   2.966   5.921 -0.3251 -0.5006 -0.1647
  987SOL     OW14593   0.710   4.313   4.287  0.2070 -0.0175 -0.0293
  987SOL    HW114594   0.688   4.348   4.373  0.2767 -1.4282  0.5493
  987SOL    HW214595   0.797   4.349   4.274  0.8431 -0.8871  1.9544
  988SOL     OW14596   3.059   3.924   6.788  0.5421  0.1326  0.7190
  988SOL    HW114597   3.131   3.930   6.725 -1.9834  1.4174 -2.0356
  988SOL    HW214598   3.055   3.829   6.802 -1.9974 -0.4377 -3.8497
  989SOL     OW14599   1.525   0.526   7.156 -0.6175 -0.4578  0.3086
  989SOL    HW114600   1.514   0.437   7.121  2.7593 -1.7028  2.4710
  989SOL    HW214601   1.619   0.536   7.166 -0.0484 -1.3932 -4.1964
  990SOL     OW14602   3.535   0.896   7.509 -0.0836  0.3291  0.5001
  990SOL    HW114603   3.546   0.908   7.603 -1.2722  1.3429  0.5075
  990SOL    HW214604   3.465   0.830   7.508 -0.8974  1.1719  2.2031
  991SOL     OW14605   1.517   4.408   1.663 -0.0386  0.1889 -0.7203
  991SOL    HW114606   1.459   4.450   1.600 -0.6757  0.2162 -0.1227
  991SOL    HW214607   1.599   4.403   1.614  0.2052  1.5324 -0.4720
  992SOL     OW14608   0.761   3.749   0.431  0.0294  0.0122  0.2146
  992SOL    HW114609   0.679   3.743   0.383 -0.5297  1.8520  0.9368
  992SOL    HW214610   0.777   3.656   0.448 -0.7437 -0.5755 -2.3090
  993SOL     OW14611   2.506   1.537  14.569 -0.2431  0.5852 -0.5613
  993SOL    HW114612   2.509   1.499  14.482  2.6374  1.0245 -0.6628
  993SOL    HW214613   2.413   1.558  14.562 -1.2482 -4.3629 -2.3243
  994SOL     OW14614   2.490   0.017   5.682  0.0693  0.5487 -0.2507
  994SOL    HW114615   2.520   0.105   5.663 -0.2877  0.5124 -0.9854
  994SOL    HW214616   2.415   0.013   5.623  0.7126 -0.7269 -0.9914
  995SOL     OW14617   3.295   4.538   4.754  0.1108  0.5829 -0.4464
  995SOL    HW114618   3.276   4.551   4.847 -0.6351  1.3242 -0.6976
  995SOL    HW214619   3.209   4.501   4.734 -0.4009  1.0161  0.9384
  996SOL     OW14620   3.167   0.069  13.289  0.1479  0.3898 -0.7160
  996SOL    HW114621   3.242   0.111  13.246 -0.2318  2.7783  0.9267
  996SOL    HW214622   3.154   4.728  13.233  0.0796  0.2881 -0.5624
  997SOL     OW14623   0.453   4.176  12.042 -0.0634 -0.0154  0.3582
  997SOL    HW114624   0.424   4.253  11.993  0.2846  0.0225  0.2096
  997SOL    HW214625   0.485   4.217  12.122  1.7540  0.6591 -0.7224
  998SOL     OW14626   1.854   0.505  10.102 -0.0101  0.4487 -0.0850
  998SOL    HW114627   1.783   0.465  10.152 -1.4250 -0.1588 -2.5888
  998SOL    HW214628   1.914   0.434  10.081  0.3886  1.0506 -0.9764
  999SOL     OW14629   0.057   3.470   0.801 -0.3472 -0.5073 -0.1704
  999SOL    HW114630   0.024   3.524   0.872  2.6553  0.5548  0.4118
  999SOL    HW214631   0.006   3.389   0.798  1.1635 -1.4932  0.9341
 1000SOL     OW14632   4.716   1.884   8.584 -0.1214 -0.0779 -0.2181
 1000SOL    HW114633   4.658   1.952   8.619  0.4936  0.6387 -0.5750
 1000SOL    HW214634   4.728   1.907   8.492  2.6120 -1.0421 -0.0842
 1001SOL     OW14635   2.850   3.709   5.813 -0.2591  0.3586 -0.6582
 1001SOL    HW114636   2.802   3.634   5.777 -0.6732  0.2843  0.0531
 1001SOL    HW214637   2.840   3.689   5.906  0.7160  1.6649 -0.2790
 1002SOL     OW14638   2.523   0.419   7.986 -0.2452 -0.4627  0.0244
 1002SOL    HW114639   2.456   0.463   7.933  2.0513  0.4561 -2.1082
 1002SOL    HW214640   2.505   0.327   7.967  0.8250 -0.5207 -0.7080
 1003SOL     OW14641   4.280   2.076   4.746 -0.0640  0.7274 -0.5632
 1003SOL    HW114642   4.254   2.030   4.666  3.3358 -0.3642 -1.0724
 1003SOL    HW214643   4.324   2.152   4.708  2.8619 -0.5713  0.1553
 1004SOL     OW14644   0.689   2.221   7.911  0.5941 -0.5750  0.2205
 1004SOL    HW114645   0.679   2.314   7.931 -1.9477 -1.0674  1.1498
 1004SOL    HW214646   0.755   2.203   7.978 -0.2021  1.3448  1.5050
 1005SOL     OW14647   0.610   2.968  14.228  0.2258  0.1338  0.3765
 1005SOL    HW114648   0.682   3.030  14.237  0.2093  0.3307 -0.9416
 1005SOL    HW214649   0.654   2.885  14.214 -0.7213 -0.1581 -0.8608
 1006SOL     OW14650   1.003   0.019   4.405  0.4704 -0.4180  0.1203
 1006SOL    HW114651   1.019   0.069   4.324 -1.7005 -1.1530 -0.7655
 1006SOL    HW214652   1.020   0.090   4.466 -1.7457  1.6447 -1.6311
 1007SOL     OW14653   2.380   3.850   3.630 -0.1282 -0.0381  0.0902
 1007SOL    HW114654   2.310   3.866   3.566  1.2511  1.4938 -1.0630
 1007SOL    HW214655   2.373   3.931   3.682 -0.4451 -1.1929  1.8221
 1008SOL     OW14656   0.196   3.894  10.986  0.2949  0.3665  0.1782
 1008SOL    HW114657   0.236   3.879  10.900 -0.0775 -0.4959  0.1518
 1008SOL    HW214658   0.281   3.900  11.030 -0.1007 -2.8073  1.4051
 1009SOL     OW14659   3.750   2.295   9.303 -0.5608  0.0913  0.0932
 1009SOL    HW114660   3.766   2.383   9.335  1.5189 -0.3045  0.1644
 1009SOL    HW214661   3.698   2.312   9.224 -1.8949  1.6968  1.3280
 1010SOL     OW14662   1.150   1.032   2.834  0.2847 -0.1412 -0.0886
 1010SOL    HW114663   1.110   1.027   2.747 -0.7002  1.6343  0.2791
 1010SOL    HW214664   1.227   1.084   2.812  0.2725 -0.0894 -0.0056
 1011SOL     OW14665   2.269   4.175   5.653  0.1089 -0.1579  0.1897
 1011SOL    HW114666   2.329   4.118   5.701 -0.9948 -2.8824 -1.6798
 1011SOL    HW214667   2.224   4.112   5.597 -0.0533  1.2932 -1.3349
 1012SOL     OW14668   2.833   4.124   3.892 -0.6556 -0.3843 -0.5629
 1012SOL    HW114669   2.770   4.087   3.954 -0.6495  0.9361  0.2176
 1012SOL    HW214670   2.859   4.204   3.937 -1.1167 -1.3751  1.4753
 1013SOL     OW14671   4.705   3.720   4.605 -0.2591 -0.1620  0.4330
 1013SOL    HW114672   0.051   3.677   4.632  0.2084  1.0801  1.0085
 1013SOL    HW214673   0.004   3.766   4.528  0.0754  1.3380  1.4766
 1014SOL     OW14674   0.252   2.785   5.444 -0.4729  0.3625 -0.2380
 1014SOL    HW114675   0.313   2.846   5.486 -1.2307  0.0951  1.2612
 1014SOL    HW214676   0.279   2.702   5.483 -0.2396  1.4831  1.9927
 1015SOL     OW14677   3.168   0.313   7.017  0.6388 -0.4997  0.3064
 1015SOL    HW114678   3.245   0.326   7.072  0.2428 -1.4489  1.0930
 1015SOL    HW214679   3.145   0.220   7.021 -1.8250  0.1188  0.1426
 1016SOL     OW14680   1.417   0.472   9.543  0.1394 -0.5985 -0.7367
 1016SOL    HW114681   1.358   0.441   9.613  1.7421 -0.5022  0.6703
 1016SOL    HW214682   1.421   0.565   9.565 -1.2118 -0.8242  0.4601
 1017SOL     OW14683   0.393   3.100   7.052 -0.2327  0.7444 -0.1501
 1017SOL    HW114684   0.397   3.032   7.119  3.7694  2.0590  0.9731
 1017SOL    HW214685   0.450   3.169   7.088 -1.1922  0.6605  1.5147
 1018SOL     OW14686   3.818   2.991   1.272  0.1242  0.2173  0.7233
 1018SOL    HW114687   3.908   2.961   1.260  0.0634 -0.3258  1.6347
 1018SOL    HW214688   3.774   2.907   1.286  0.3972 -0.0112  0.1910
 1019SOL     OW14689   3.237   3.504  13.491 -0.2264 -0.7222  0.7773
 1019SOL    HW114690   3.328   3.501  13.464  0.3803  2.0796  2.5249
 1019SOL    HW214691   3.198   3.488  13.405 -3.9906  4.0238  1.6118
 1020SOL     OW14692   0.420   3.910  11.130  0.1390  0.2881 -0.0368
 1020SOL    HW114693   0.390   3.913  11.221  0.4400 -1.2129  0.1087
 1020SOL    HW214694   0.490   3.976  11.126  0.6607 -0.4162 -2.6121
 1021SOL     OW14695   2.930   1.321   8.607  0.0369 -0.0155 -0.0715
 1021SOL    HW114696   2.851   1.358   8.566  0.1596  0.6927  0.3423
 1021SOL    HW214697   2.900   1.230   8.609  0.1532  0.0118  2.6033
 1022SOL     OW14698   0.936   4.262   0.829  0.6279  0.7256  0.0720
 1022SOL    HW114699   0.908   4.323   0.897 -0.1415 -0.9495  1.2561
 1022SOL    HW214700   0.873   4.191   0.836  0.6821  0.6145 -0.5308
 1023SOL     OW14701   3.872   1.677   1.496  0.0142  0.0509  0.0326
 1023SOL    HW114702   3.884   1.649   1.587 -1.5920  0.7538  0.4668
 1023SOL    HW214703   3.964   1.667   1.471  0.5835  1.3401  1.5527
 1024SOL     OW14704   0.055   4.543   2.073  0.2945 -0.5703 -0.6017
 1024SOL    HW114705   0.036   4.579   2.160 -0.5383 -0.6162 -0.7610
 1024SOL    HW214706   0.100   4.619   2.035  0.2020 -1.0073 -1.5977
 1025SOL     OW14707   1.942   3.011   0.851  0.2123 -0.2835 -0.5061
 1025SOL    HW114708   1.944   3.000   0.946  0.0285  0.8035 -0.3764
 1025SOL    HW214709   2.021   3.064   0.837 -0.9091  2.1805  2.5737
 1026SOL     OW14710   3.858   4.719   9.782  0.3165 -0.0500  0.4460
 1026SOL    HW114711   3.817   4.712   9.695 -0.6218 -1.5658  1.0055
 1026SOL    HW214712   3.858   0.077   9.803  1.8366  0.0014  0.2257
 1027SOL     OW14713   0.269   3.406   7.966  0.3568  0.2475 -0.4611
 1027SOL    HW114714   0.337   3.343   7.943  0.1653 -1.4998  3.7954
 1027SOL    HW214715   0.316   3.480   7.928  0.0310 -1.3447 -3.9673
 1028SOL     OW14716   3.558   2.979   1.613  0.5016  0.5219  0.1064
 1028SOL    HW114717   3.588   3.040   1.545  1.0674  0.1930  0.0595
 1028SOL    HW214718   3.635   2.979   1.669  0.4120  1.3177  0.2391
 1029SOL     OW14719   2.984   0.952  15.106  0.3636 -0.3231  0.2061
 1029SOL    HW114720   2.955   0.952  15.197 -0.9773  0.1374 -0.2191
 1029SOL    HW214721   3.037   0.872  15.109  0.7765  0.0355  2.4484
 1030SOL     OW14722   0.682   2.262   6.709 -0.1969  0.3244  0.5408
 1030SOL    HW114723   0.765   2.216   6.727 -1.6471 -2.1532  0.8525
 1030SOL    HW214724   0.623   2.192   6.736  0.9694 -0.7152  0.4206
 1031SOL     OW14725   2.809   1.396   2.986 -0.0922  0.5555 -0.3134
 1031SOL    HW114726   2.791   1.488   3.003  0.6300  0.4352  1.0984
 1031SOL    HW214727   2.724   1.365   3.018 -0.7338  0.4175 -2.1279
 1032SOL     OW14728   0.875   3.045  15.748 -0.1422  0.1092  0.0970
 1032SOL    HW114729   0.847   3.021  15.660  0.8611  0.1337 -0.2272
 1032SOL    HW214730   0.946   2.982  15.763  0.2754  0.1373 -1.8061
 1033SOL     OW14731   2.884   3.155   2.730  0.0539 -0.2944 -0.6806
 1033SOL    HW114732   2.905   3.228   2.673 -0.4017  1.0777  0.8922
 1033SOL    HW214733   2.954   3.100   2.694  2.2085  1.9675  0.0899
 1034SOL     OW14734   1.482   1.953  13.296  0.1150 -0.3389  0.6114
 1034SOL    HW114735   1.561   1.946  13.242 -1.5036  3.0813 -2.2483
 1034SOL    HW214736   1.482   1.869  13.340  0.0578 -0.8385 -0.3380
 1035SOL     OW14737   1.910   1.806   7.906  0.1704  0.0134 -0.2167
 1035SOL    HW114738   1.975   1.749   7.947 -0.2444  1.1575  2.0345
 1035SOL    HW214739   1.936   1.891   7.942 -2.3827  0.7523 -0.1148
 1036SOL     OW14740   3.080   1.800   8.193 -0.4184 -0.0476 -0.2987
 1036SOL    HW114741   3.077   1.748   8.113 -2.9655 -0.6843  0.2081
 1036SOL    HW214742   2.994   1.840   8.185 -0.6423 -0.0814  1.7851
 1037SOL     OW14743   3.092   4.689   3.983  0.3847 -0.4519  0.0143
 1037SOL    HW114744   3.187   4.681   3.977  0.6228  0.7743  2.2325
 1037SOL    HW214745   3.079   4.712   4.075  1.0983 -0.1017  0.0264
 1038SOL     OW14746   1.017   0.696   6.635 -0.4340 -0.2173  0.7852
 1038SOL    HW114747   1.086   0.646   6.679  0.2213 -0.2202 -0.2572
 1038SOL    HW214748   1.065   0.778   6.633 -1.4075  0.3499  0.5917
 1039SOL     OW14749   2.272   3.681   6.388 -0.2061 -0.5063  0.0371
 1039SOL    HW114750   2.277   3.777   6.383 -0.7612 -0.4379  0.7729
 1039SOL    HW214751   2.363   3.659   6.405 -0.1451  0.5915  1.1576
 1040SOL     OW14752   0.558   3.008   2.229  0.1679  0.1307  0.0442
 1040SOL    HW114753   0.510   2.964   2.299 -1.6511 -1.1903 -2.0512
 1040SOL    HW214754   0.478   3.049   2.196  1.7166  1.9570 -1.4089
 1041SOL     OW14755   3.844   2.895   9.101  0.0740 -0.1253 -0.4051
 1041SOL    HW114756   3.784   2.962   9.134 -1.4747 -1.1068 -1.2167
 1041SOL    HW214757   3.905   2.898   9.174 -0.1323  0.5115 -0.2551
 1042SOL     OW14758   4.651   3.689  14.672  0.6873  0.3030  0.1407
 1042SOL    HW114759   4.657   3.684  14.577 -1.5252  2.4637 -0.1177
 1042SOL    HW214760   0.007   3.670  14.697  0.4170  1.7358  2.2340
 1043SOL     OW14761   1.120   1.812  13.848 -0.7165  0.3221 -0.0945
 1043SOL    HW114762   1.061   1.740  13.828 -1.5493  0.5770  1.4361
 1043SOL    HW214763   1.111   1.862  13.767  0.1554 -0.4118 -0.6443
 1044SOL     OW14764   1.441   0.558  14.468 -0.2080 -0.5851 -0.1558
 1044SOL    HW114765   1.501   0.607  14.524 -0.0152 -0.7086 -0.2565
 1044SOL    HW214766   1.431   0.474  14.513  0.3752  0.0923  1.2486
 1045SOL     OW14767   0.896   2.203   8.070  0.1184  0.1794  0.3687
 1045SOL    HW114768   0.967   2.148   8.103 -0.0145 -1.0880 -1.4568
 1045SOL    HW214769   0.854   2.232   8.151 -1.0887 -0.8405  0.1181
 1046SOL     OW14770   1.896   4.565   7.979  0.3379 -0.1061 -0.1132
 1046SOL    HW114771   1.962   4.538   7.914  1.7619  2.9266  0.0397
 1046SOL    HW214772   1.821   4.513   7.950  0.2153 -0.2320  0.4448
 1047SOL     OW14773   4.216   2.825  10.807 -0.3713  0.3302  0.3833
 1047SOL    HW114774   4.193   2.889  10.874  1.4516  0.7243  0.6247
 1047SOL    HW214775   4.289   2.778  10.846 -0.4086  0.6223  0.8013
 1048SOL     OW14776   2.789   3.502   3.716  0.2466  0.5405 -0.6790
 1048SOL    HW114777   2.739   3.421   3.706 -1.5932  1.9180 -2.5391
 1048SOL    HW214778   2.754   3.529   3.800  2.2569 -0.3234  0.4297
 1049SOL     OW14779   2.758   2.875  12.737 -0.5168 -0.1257  0.4809
 1049SOL    HW114780   2.843   2.857  12.778  0.7783 -0.2482 -2.3030
 1049SOL    HW214781   2.700   2.883  12.813  2.0887  1.5963  2.3178
 1050SOL     OW14782   0.393   0.087   3.284 -0.4824 -0.0380 -0.1555
 1050SOL    HW114783   0.303   0.057   3.296 -0.1489 -0.2625  1.7657
 1050SOL    HW214784   0.395   0.177   3.315  0.8627 -0.3427  0.6437
 1051SOL     OW14785   3.717   4.025   3.451  0.0320 -0.5234  0.2559
 1051SOL    HW114786   3.712   3.931   3.468  1.2684 -0.9437 -1.7409
 1051SOL    HW214787   3.791   4.025   3.390  0.7168 -0.1982  1.0792
 1052SOL     OW14788   3.403   1.924   9.349 -0.0732  0.1624 -0.4865
 1052SOL    HW114789   3.314   1.924   9.386 -0.3379 -1.4933 -1.0954
 1052SOL    HW214790   3.381   1.895   9.260 -1.4056 -0.1787 -0.0399
 1053SOL     OW14791   4.554   2.223   3.970 -0.5377  0.1228 -0.2127
 1053SOL    HW114792   4.515   2.169   3.901 -1.3805  1.1928 -0.5730
 1053SOL    HW214793   4.614   2.168   4.020 -0.3767 -0.1015 -0.6506
 1054SOL     OW14794   0.643   2.350  10.529  0.2075 -0.6985  0.3009
 1054SOL    HW114795   0.622   2.443  10.520 -1.5974 -1.1205  0.1157
 1054SOL    HW214796   0.632   2.319  10.440 -0.6145  0.0082  0.1558
 1055SOL     OW14797   3.652   2.397   3.229  0.1400  0.3838 -0.0516
 1055SOL    HW114798   3.707   2.460   3.275  0.1963  0.9454 -0.8797
 1055SOL    HW214799   3.641   2.327   3.293 -1.0417 -2.6202 -3.5812
 1056SOL     OW14800   4.482   2.564   5.140 -0.3973 -0.4621  0.4953
 1056SOL    HW114801   4.424   2.636   5.161  0.6767  0.5542 -0.0522
 1056SOL    HW214802   4.556   2.613   5.105 -1.0135  1.4195  1.8784
 1057SOL     OW14803   2.977   1.426   8.850 -0.7818  0.2030 -0.4172
 1057SOL    HW114804   2.971   1.362   8.780 -0.0224 -1.5796  1.1343
 1057SOL    HW214805   3.070   1.449   8.845 -0.5039 -1.1986 -1.5720
 1058SOL     OW14806   2.923   2.058   3.448 -0.1620 -0.4283 -0.3880
 1058SOL    HW114807   2.973   2.060   3.366  2.0381 -1.2812  0.9232
 1058SOL    HW214808   2.990   2.090   3.508 -0.0424  1.0591 -1.3257
 1059SOL     OW14809   0.161   0.999   7.070 -0.4161 -0.1044  0.0068
 1059SOL    HW114810   0.175   1.059   7.143 -0.0292  0.8937 -0.8997
 1059SOL    HW214811   0.151   0.915   7.116 -0.5744 -0.6983 -1.1234
 1060SOL     OW14812   0.708   2.628  13.132 -0.2380 -0.2315 -0.9109
 1060SOL    HW114813   0.665   2.665  13.209 -0.5156 -1.6903 -0.3506
 1060SOL    HW214814   0.638   2.636  13.067  0.5331 -0.9571 -1.8454
 1061SOL     OW14815   0.586   0.157  10.059 -0.1310  0.2363 -0.3776
 1061SOL    HW114816   0.568   0.117  10.143  1.3422 -0.9639 -0.6509
 1061SOL    HW214817   0.545   0.095   9.998 -1.2429  0.7520 -0.1619
 1062SOL     OW14818   1.024   3.450   3.056 -0.3153 -0.3577  0.5241
 1062SOL    HW114819   1.097   3.489   3.104 -0.8844  2.3276 -0.8048
 1062SOL    HW214820   0.972   3.524   3.025 -2.2878 -1.1415  2.0353
 1063SOL     OW14821   1.291   1.422   8.934 -0.4254  0.1020  0.1369
 1063SOL    HW114822   1.331   1.367   8.866  0.3384  1.2380 -0.3224
 1063SOL    HW214823   1.315   1.374   9.013  2.1153 -1.6696 -1.7274
 1064SOL     OW14824   1.101   0.954  15.955  0.0352 -0.2444  0.1828
 1064SOL    HW114825   1.136   1.023  16.010  3.8342 -1.3377 -0.8660
 1064SOL    HW214826   1.015   0.933  15.992 -0.5221 -1.3995 -1.7445
 1065SOL     OW14827   4.367   0.937  11.127 -0.0226 -0.9824  0.1428
 1065SOL    HW114828   4.345   1.012  11.182  0.8539 -0.0409 -0.8088
 1065SOL    HW214829   4.385   0.973  11.041 -1.8909  2.1231  1.0489
 1066SOL     OW14830   1.572   2.693  14.325  0.0482  0.6776 -0.4512
 1066SOL    HW114831   1.544   2.693  14.417  0.4764 -0.4400 -0.3217
 1066SOL    HW214832   1.501   2.739  14.279  0.5291  0.2915 -1.5844
 1067SOL     OW14833   3.976   1.451   3.221 -0.3671  0.1500  0.4228
 1067SOL    HW114834   3.905   1.451   3.157 -1.9678 -0.1846  2.2013
 1067SOL    HW214835   4.012   1.365   3.198  0.8296  0.3828  1.4402
 1068SOL     OW14836   4.557   0.519   7.514 -1.0207 -0.2951 -0.5698
 1068SOL    HW114837   4.471   0.515   7.556 -0.5901  1.2136  0.4788
 1068SOL    HW214838   4.538   0.574   7.438  0.0012  2.0038  0.8486
 1069SOL     OW14839   3.465   3.761  16.250 -0.3181 -0.2389 -0.4213
 1069SOL    HW114840   3.478   3.853  16.272 -1.4776 -0.6747  2.0741
 1069SOL    HW214841   3.440   3.724  16.334 -1.2278  0.2569 -0.4748
 1070SOL     OW14842   1.575   2.041  12.242 -0.2117  0.3745  0.1711
 1070SOL    HW114843   1.667   2.068  12.240  0.1769 -0.9179  0.7360
 1070SOL    HW214844   1.568   2.054  12.336  1.9227  0.7936  0.2770
 1071SOL     OW14845   4.549   0.865   2.882  0.3795 -0.3487 -0.0552
 1071SOL    HW114846   4.461   0.876   2.846 -0.2814 -0.7460  1.3886
 1071SOL    HW214847   4.526   0.822   2.965 -1.2433 -0.0857 -0.3645
 1072SOL     OW14848   3.711   1.916   1.639 -0.0976 -0.3021  0.2561
 1072SOL    HW114849   3.777   1.959   1.585 -1.9292  1.2564 -0.7247
 1072SOL    HW214850   3.736   1.940   1.729 -0.7002 -0.4315  0.4577
 1073SOL     OW14851   2.484   1.395   6.546 -0.2496 -0.3979  0.0672
 1073SOL    HW114852   2.487   1.423   6.454 -1.5403  0.7970  0.3900
 1073SOL    HW214853   2.552   1.330   6.527  0.6858  0.0619  1.8527
 1074SOL     OW14854   0.206   4.458  14.476  0.1428 -0.3329 -0.0645
 1074SOL    HW114855   0.137   4.524  14.486 -0.4166 -0.9064 -0.1609
 1074SOL    HW214856   0.276   4.507  14.518  0.6944  0.2724 -1.6836
 1075SOL     OW14857   0.402   1.492   4.272  0.0113  0.6396  0.2102
 1075SOL    HW114858   0.381   1.573   4.225 -1.4859 -0.4283 -0.9390
 1075SOL    HW214859   0.313   1.458   4.271 -0.5202  2.0196 -1.8640
 1076SOL     OW14860   0.780   1.663   2.228  0.2948  0.0248 -0.1403
 1076SOL    HW114861   0.849   1.628   2.172  0.0771  1.4257 -1.2872
 1076SOL    HW214862   0.704   1.660   2.170  1.1760  0.8884 -1.3387
 1077SOL     OW14863   3.925   1.098   5.735  0.0091  0.2850  0.2264
 1077SOL    HW114864   4.002   1.089   5.678  0.1676 -1.5264  0.7109
 1077SOL    HW214865   3.932   1.193   5.746 -0.7169  0.1930  1.4237
 1078SOL     OW14866   3.718   2.715   7.145 -0.6737 -0.5501  0.0906
 1078SOL    HW114867   3.677   2.760   7.219 -0.7428  1.0187 -0.9028
 1078SOL    HW214868   3.703   2.624   7.170  2.4259 -1.4925 -1.5356
 1079SOL     OW14869   1.353   2.497   6.691  0.2345  0.4154 -0.4489
 1079SOL    HW114870   1.262   2.522   6.710 -0.1678 -0.7067 -0.9141
 1079SOL    HW214871   1.372   2.585   6.658 -0.5026  0.7451  0.0113
 1080SOL     OW14872   1.636   3.416   8.209  0.2940 -0.6409 -0.0251
 1080SOL    HW114873   1.619   3.325   8.186  0.0796 -0.5213 -0.3414
 1080SOL    HW214874   1.661   3.452   8.124  0.0273 -1.1876 -0.3366
 1081SOL     OW14875   0.694   2.823   8.074  0.0994  0.1180 -0.0506
 1081SOL    HW114876   0.746   2.884   8.022  0.0298 -0.2775 -0.5859
 1081SOL    HW214877   0.652   2.884   8.134 -0.5807 -1.8752  1.5411
 1082SOL     OW14878   4.505   0.021   4.077 -0.3268 -0.1305 -0.2301
 1082SOL    HW114879   4.483   4.718   3.992 -0.9114 -0.8645  0.2476
 1082SOL    HW214880   4.599   0.006   4.067  0.2176  3.2251  0.0574
 1083SOL     OW14881   4.555   2.527   2.084 -0.1744 -0.0405 -0.0206
 1083SOL    HW114882   4.607   2.557   2.009  1.8169  0.9520  1.7550
 1083SOL    HW214883   4.508   2.455   2.042  0.0169 -1.7492  2.7631
 1084SOL     OW14884   2.121   2.149   6.604  0.5039 -0.1441 -0.4121
 1084SOL    HW114885   2.118   2.217   6.536 -4.0923 -1.4913 -1.5375
 1084SOL    HW214886   2.074   2.082   6.554  2.1500  0.1158 -2.3348
 1085SOL     OW14887   3.892   1.545   5.298 -0.2721  0.1061  0.0151
 1085SOL    HW114888   3.828   1.598   5.251 -2.4794 -2.2831  0.2773
 1085SOL    HW214889   3.974   1.592   5.295  0.1166 -0.5745 -0.1406
 1086SOL     OW14890   4.588   1.313   0.119  0.1766  0.4518  0.1292
 1086SOL    HW114891   4.494   1.294   0.122 -0.1276  1.8463 -0.4241
 1086SOL    HW214892   4.630   1.229   0.140 -0.8762 -0.7276 -2.5478
 1087SOL     OW14893   3.884   1.522   1.739 -0.3329 -0.2973 -0.5057
 1087SOL    HW114894   3.798   1.527   1.781 -0.6556  0.0752 -1.2022
 1087SOL    HW214895   3.901   1.432   1.766  0.5320  0.5441  1.7685
 1088SOL     OW14896   2.869   0.395  12.625 -0.2955 -0.3034 -0.3160
 1088SOL    HW114897   2.787   0.357  12.593  0.2998 -2.4428  0.7524
 1088SOL    HW214898   2.904   0.327  12.682 -1.1382 -0.3747  0.1178
 1089SOL     OW14899   3.380   3.235  16.750  0.3041 -0.3956  0.5874
 1089SOL    HW114900   3.299   3.190  16.775  0.7387 -1.3101  0.3584
 1089SOL    HW214901   3.363   3.324  16.781 -1.6303  0.2006 -2.2118
 1090SOL     OW14902   1.482   1.372   9.232 -0.4549 -0.1714  0.2324
 1090SOL    HW114903   1.545   1.369   9.160 -1.5697 -0.7897 -0.7135
 1090SOL    HW214904   1.413   1.319   9.193  0.6731 -2.6576  1.6076
 1091SOL     OW14905   2.108   3.896   5.954  0.2041  0.3134 -0.5232
 1091SOL    HW114906   2.122   3.812   5.997 -0.1277  1.2591  1.4472
 1091SOL    HW214907   2.187   3.942   5.981 -0.5264 -0.0200  2.1314
 1092SOL     OW14908   2.407   2.161  17.103 -0.4833 -0.3419  0.4065
 1092SOL    HW114909   2.368   2.182  17.188 -1.3832 -0.2033 -0.0373
 1092SOL    HW214910   2.333   2.120  17.058 -0.1869  0.6652 -0.9769
 1093SOL     OW14911   4.545   4.635   6.233 -0.3251  0.5645 -0.3054
 1093SOL    HW114912   4.468   4.659   6.285 -0.4522  0.9213 -0.6614
 1093SOL    HW214913   4.503   4.600   6.155 -0.3094  1.1069 -0.5557
 1094SOL     OW14914   2.276   0.529   7.890  0.0169  0.5188  0.5778
 1094SOL    HW114915   2.285   0.612   7.938  1.6641 -0.5686  2.1171
 1094SOL    HW214916   2.223   0.470   7.944  1.4030  0.6862  2.1105
 1095SOL     OW14917   4.375   2.037   9.269  0.1117  0.2936 -0.0251
 1095SOL    HW114918   4.404   2.048   9.178  1.5680 -2.3463  0.1326
 1095SOL    HW214919   4.410   1.952   9.296 -0.8065 -0.2641 -0.5966
 1096SOL     OW14920   1.965   0.007   4.496  0.2762 -0.3651  0.2740
 1096SOL    HW114921   1.880   0.048   4.480 -0.7654 -2.7559 -0.2876
 1096SOL    HW214922   1.992   0.037   4.583  2.2652  1.5640 -0.9822
 1097SOL     OW14923   2.854   1.224   5.243 -0.0708  0.1533 -0.2175
 1097SOL    HW114924   2.901   1.239   5.161  0.0186  1.5648  0.0936
 1097SOL    HW214925   2.906   1.150   5.276  2.7029  1.5279 -1.5059
 1098SOL     OW14926   2.951   1.471   4.861 -0.5287  0.5066  0.3556
 1098SOL    HW114927   2.894   1.436   4.792 -0.1029  2.1206 -0.8069
 1098SOL    HW214928   2.948   1.566   4.861 -2.1107  0.4623 -0.7171
 1099SOL     OW14929   0.477   2.114   5.146  0.2971 -0.6878 -0.9383
 1099SOL    HW114930   0.469   2.146   5.056  1.6336 -1.4192 -1.3231
 1099SOL    HW214931   0.475   2.019   5.134  1.1596 -0.4964 -2.7159
 1100SOL     OW14932   0.399   3.944   2.962  0.0216 -0.3212 -0.2332
 1100SOL    HW114933   0.313   3.928   3.001 -0.0816  2.7008  0.7809
 1100SOL    HW214934   0.431   4.018   3.015 -1.5749  0.9566 -1.0616
 1101SOL     OW14935   1.951   3.710   6.340 -0.2263 -0.3987  0.0927
 1101SOL    HW114936   1.929   3.672   6.425  1.3737 -2.3110 -0.3541
 1101SOL    HW214937   2.031   3.667   6.311 -0.3549 -0.9084  0.4910
 1102SOL     OW14938   3.258   3.724  13.100 -0.1332  0.3350  0.6875
 1102SOL    HW114939   3.221   3.707  13.187 -1.5548 -2.8895 -0.5055
 1102SOL    HW214940   3.352   3.724  13.113  0.0061  0.5866 -0.3635
 1103SOL     OW14941   3.480   2.989  17.726 -0.1391 -0.0651 -0.5292
 1103SOL    HW114942   3.445   2.953   0.069  2.1342  0.6695  0.7709
 1103SOL    HW214943   3.574   2.984  17.737 -0.3580 -0.5554  1.1011
 1104SOL     OW14944   1.933   3.370  11.062 -0.2892 -0.1031  0.2957
 1104SOL    HW114945   1.948   3.275  11.068  1.4799  0.1710  0.2981
 1104SOL    HW214946   1.856   3.376  11.006 -0.0871 -0.7094 -0.0461
 1105SOL     OW14947   3.486   3.095  17.211  0.5044  0.0418 -0.4539
 1105SOL    HW114948   3.436   3.170  17.178 -0.6406 -0.1929  0.7423
 1105SOL    HW214949   3.517   3.064  17.126 -1.8164 -0.6072 -1.0677
 1106SOL     OW14950   1.179   2.041   2.754 -0.5017  0.0450 -0.1836
 1106SOL    HW114951   1.135   1.973   2.703 -1.7136  0.2877  0.5383
 1106SOL    HW214952   1.106   2.091   2.789 -2.0723  0.1465 -3.6055
 1107SOL     OW14953   2.809   0.293   2.065  0.3167  0.0924 -0.2092
 1107SOL    HW114954   2.780   0.213   2.107  0.8747 -0.7406 -1.3991
 1107SOL    HW214955   2.784   0.357   2.132  0.8678  0.0561  0.0364
 1108SOL     OW14956   0.457   2.551   8.323  0.5221  0.2374 -0.1180
 1108SOL    HW114957   0.421   2.531   8.236 -0.2359 -1.6713  0.6281
 1108SOL    HW214958   0.398   2.622   8.351 -1.3246 -0.2145 -2.8577
 1109SOL     OW14959   4.435   2.498   4.472 -0.2732  0.3765  0.2549
 1109SOL    HW114960   4.495   2.443   4.420  0.5091  2.3460 -0.9412
 1109SOL    HW214961   4.429   2.454   4.556 -1.0836 -2.6605 -1.3979
 1110SOL     OW14962   1.817   2.026   4.191 -0.5651  0.3402 -0.1842
 1110SOL    HW114963   1.831   2.015   4.285 -1.4477  2.2531  0.1785
 1110SOL    HW214964   1.846   1.939   4.165 -0.5876  0.2451  0.1069
 1111SOL     OW14965   1.567   3.770   0.165  0.0886  0.0656 -0.5270
 1111SOL    HW114966   1.474   3.791   0.163 -0.3729 -1.6808  1.5261
 1111SOL    HW214967   1.568   3.684   0.122 -0.9118  0.6941 -1.7659
 1112SOL     OW14968   1.746   3.443   0.632  0.3849 -0.3006  0.2364
 1112SOL    HW114969   1.741   3.523   0.684 -0.9285  0.1322 -0.5779
 1112SOL    HW214970   1.661   3.405   0.654  0.7058 -2.2770 -1.9240
 1113SOL     OW14971   2.452   2.873   0.280 -0.2886 -0.4315  0.5115
 1113SOL    HW114972   2.523   2.809   0.288 -1.3145 -1.4275  1.7720
 1113SOL    HW214973   2.375   2.815   0.283 -1.8998  1.6302 -0.5247
 1114SOL     OW14974   2.878   0.349   5.433 -0.3715 -0.0801 -0.7352
 1114SOL    HW114975   2.817   0.421   5.450  1.3445  1.1064  0.3443
 1114SOL    HW214976   2.894   0.316   5.521 -0.7423  0.8445 -0.3192
 1115SOL     OW14977   2.989   3.338   6.093  0.5112  0.1946  0.1579
 1115SOL    HW114978   2.976   3.387   6.174  3.5223 -0.3317  0.9725
 1115SOL    HW214979   2.911   3.285   6.106  1.5248 -1.4812 -0.5533
 1116SOL     OW14980   2.256   0.652  11.379  0.2017 -0.3840  0.2779
 1116SOL    HW114981   2.343   0.612  11.388  1.1757  1.6480 -0.2845
 1116SOL    HW214982   2.276   0.735  11.337 -1.2119 -1.6646 -2.9699
 1117SOL     OW14983   4.354   0.295   2.538  0.2062  0.3644 -0.0171
 1117SOL    HW114984   4.399   0.236   2.598 -0.7797  0.1632  0.5111
 1117SOL    HW214985   4.284   0.236   2.510  0.7069 -0.2478  0.0060
 1118SOL     OW14986   4.434   2.278   4.662 -0.3029  0.0288 -0.6097
 1118SOL    HW114987   4.449   2.341   4.734 -3.8583 -1.2988  1.3037
 1118SOL    HW214988   4.512   2.229   4.639  0.2713  1.2325 -1.2121
 1119SOL     OW14989   3.206   3.657   9.742  0.4155 -0.1377 -0.4097
 1119SOL    HW114990   3.197   3.646   9.648  0.5913 -0.2865 -0.4094
 1119SOL    HW214991   3.165   3.743   9.743  0.9739  0.1266 -0.9870
 1120SOL     OW14992   2.365   2.487   6.906  0.5966 -0.1956 -0.0551
 1120SOL    HW114993   2.335   2.396   6.907  0.6374 -0.2000  0.9581
 1120SOL    HW214994   2.380   2.493   7.001 -1.1727  0.8937  0.1590
 1121SOL     OW14995   4.329   4.085  14.458 -0.0094 -0.7285 -0.2979
 1121SOL    HW114996   4.311   4.088  14.552 -2.6994  2.1217 -0.8952
 1121SOL    HW214997   4.424   4.079  14.465 -0.2013 -3.7334 -0.3973
 1122SOL     OW14998   4.624   0.998   3.938 -1.0329 -0.3948  0.3949
 1122SOL    HW114999   4.607   0.981   4.030 -1.4334  1.8998  0.7178
 1122SOL    HW215000   4.710   0.957   3.928 -0.9412 -0.5297  1.7688
 1123SOL     OW15001   2.205   3.334  16.076 -0.6049 -0.0650  0.6652
 1123SOL    HW115002   2.259   3.269  16.031 -2.1118 -0.3966 -0.6728
 1123SOL    HW215003   2.179   3.392  16.004 -1.9976  1.0390  2.0758
 1124SOL     OW15004   2.834   0.816   9.213  0.3358 -0.3806  0.0336
 1124SOL    HW115005   2.842   0.830   9.119  0.3889 -1.7038 -0.1606
 1124SOL    HW215006   2.831   0.909   9.239  0.6552 -1.4065  3.7817
 1125SOL     OW15007   3.082   3.503   1.362  0.1785 -1.0257  0.5285
 1125SOL    HW115008   3.041   3.521   1.447  0.0952  0.6552  0.1291
 1125SOL    HW215009   3.090   3.408   1.349 -1.5221 -0.8184 -1.9613
 1126SOL     OW15010   0.839   2.327   4.962 -0.4945  0.4742  0.6440
 1126SOL    HW115011   0.787   2.407   4.960 -1.2709 -0.0486  0.1664
 1126SOL    HW215012   0.874   2.337   5.051  1.9098  0.4403 -0.2957
 1127SOL     OW15013   3.084   1.370  10.608 -0.3809 -0.1233  0.2809
 1127SOL    HW115014   2.992   1.357  10.586  0.0321 -2.9756  0.2102
 1127SOL    HW215015   3.119   1.380  10.520  0.3063  1.6729  0.7655
 1128SOL     OW15016   3.613   0.317   9.265 -0.0345  0.2364 -0.7550
 1128SOL    HW115017   3.604   0.228   9.231 -1.9335  0.3807 -0.6543
 1128SOL    HW215018   3.525   0.330   9.301  0.7162  1.6609  0.5235
 1129SOL     OW15019   3.812   4.351   5.524  0.3141 -0.0358  0.3507
 1129SOL    HW115020   3.845   4.426   5.475 -2.3408  1.5361  0.9797
 1129SOL    HW215021   3.851   4.291   5.460  2.5842  0.5918  1.1554
 1130SOL     OW15022   0.530   4.705  10.270 -0.0656 -0.5227 -0.5276
 1130SOL    HW115023   0.610   4.689  10.321  0.3097 -2.3318 -1.7061
 1130SOL    HW215024   0.538   4.634  10.206 -1.5613  0.1110 -1.4228
 1131SOL     OW15025   1.779   1.275  11.260  0.3652  0.6909 -0.2069
 1131SOL    HW115026   1.737   1.270  11.346 -0.5043  1.0255 -0.6100
 1131SOL    HW215027   1.706   1.306  11.206  1.2916  1.8495 -0.7840
 1132SOL     OW15028   3.235   1.309   7.464 -0.4910  0.1748  0.1943
 1132SOL    HW115029   3.304   1.243   7.460  1.2691  1.8939  2.5233
 1132SOL    HW215030   3.214   1.320   7.371  2.1571  0.2044 -0.4139
 1133SOL     OW15031   1.909   0.530   9.500 -0.0924 -0.1828  0.6241
 1133SOL    HW115032   1.840   0.480   9.457 -0.4503  2.5392 -2.0079
 1133SOL    HW215033   1.862   0.613   9.512 -2.9827 -1.5114 -1.5504
 1134SOL     OW15034   1.323   0.297   3.544  0.5810 -0.0255 -0.5685
 1134SOL    HW115035   1.406   0.257   3.569  0.7775 -0.0349 -1.2545
 1134SOL    HW215036   1.271   0.218   3.561  2.8180 -1.2473  0.6473
 1135SOL     OW15037   1.214   2.414   2.126  0.2419  0.1043  0.1192
 1135SOL    HW115038   1.159   2.405   2.204  2.0098  1.0520  1.4675
 1135SOL    HW215039   1.165   2.479   2.076 -0.6073 -0.8717 -0.3257
 1136SOL     OW15040   3.605   4.217   8.602  0.2518 -0.0825  0.3388
 1136SOL    HW115041   3.516   4.252   8.600  0.0849 -0.4509  1.2728
 1136SOL    HW215042   3.583   4.127   8.576  0.1986  0.2129 -0.6273
 1137SOL     OW15043   3.434   4.276   6.109  0.3362 -0.7536  0.2774
 1137SOL    HW115044   3.519   4.233   6.120  1.2263  0.0283 -3.4966
 1137SOL    HW215045   3.378   4.208   6.069 -1.8658 -0.2757  2.5774
 1138SOL     OW15046   3.478   1.673   4.336  0.5912  0.2413  0.3897
 1138SOL    HW115047   3.570   1.664   4.313  0.6864 -1.2375  1.4305
 1138SOL    HW215048   3.485   1.665   4.431 -1.0382  0.6063  0.5519
 1139SOL     OW15049   2.075   0.954  12.343 -0.0048  0.0566  0.7723
 1139SOL    HW115050   2.141   1.023  12.346  1.6469 -1.5758  1.2734
 1139SOL    HW215051   1.998   0.996  12.383  0.5323 -1.3974  3.2570
 1140SOL     OW15052   4.559   2.608   7.514 -0.1957 -0.2375 -0.4937
 1140SOL    HW115053   4.592   2.698   7.504 -0.0034 -0.3283 -0.6907
 1140SOL    HW215054   4.498   2.607   7.441  0.1611 -0.3819 -0.7928
 1141SOL     OW15055   3.509   3.519   3.243  0.4789  0.8670  0.6245
 1141SOL    HW115056   3.519   3.473   3.326 -0.4973 -0.5662 -0.0452
 1141SOL    HW215057   3.574   3.473   3.190 -0.4090 -1.0535  1.1964
 1142SOL     OW15058   4.258   0.519   7.280  0.6969 -0.5371 -0.1943
 1142SOL    HW115059   4.166   0.545   7.280  0.6707 -0.6528 -2.1820
 1142SOL    HW215060   4.274   0.497   7.372 -0.0518  1.6396  0.4555
 1143SOL     OW15061   0.711   3.706   4.747  0.3365 -0.0160  0.5313
 1143SOL    HW115062   0.745   3.675   4.663  0.9397  0.6902  0.5099
 1143SOL    HW215063   0.618   3.690   4.732  0.2817 -0.2054  1.0644
 1144SOL     OW15064   0.591   2.999   0.435  0.0606 -0.0067 -0.0884
 1144SOL    HW115065   0.541   2.972   0.512  1.4845 -2.1333  0.0928
 1144SOL    HW215066   0.576   3.093   0.438  0.0789 -0.0047 -0.0624
 1145SOL     OW15067   0.757   1.537   6.198 -0.0499  0.2421 -0.4905
 1145SOL    HW115068   0.742   1.590   6.120 -0.7617 -0.9050 -1.1332
 1145SOL    HW215069   0.807   1.598   6.251 -0.0098 -0.7290  0.6013
 1146SOL     OW15070   0.942   0.153  14.488 -0.3760 -0.0056 -0.2127
 1146SOL    HW115071   0.897   0.100  14.422  0.5432 -1.1194  0.0530
 1146SOL    HW215072   0.984   0.085  14.540  2.3052  0.5938 -1.6056
 1147SOL     OW15073   4.578   4.039   8.079 -0.4871 -0.0802 -0.4671
 1147SOL    HW115074   4.595   4.047   7.985  1.1050  1.5476 -0.0401
 1147SOL    HW215075   4.592   4.130   8.105 -0.3648 -0.7055  1.6253
 1148SOL     OW15076   4.613   4.063   7.812  0.5166 -0.6898 -0.2345
 1148SOL    HW115077   4.684   4.098   7.757  0.7300 -1.9290 -0.7349
 1148SOL    HW215078   4.545   4.075   7.745  0.0642 -0.0607  0.3379
 1149SOL     OW15079   1.386   2.243   4.023  0.1268  0.1403  0.4309
 1149SOL    HW115080   1.474   2.208   4.009 -0.6382 -1.6322  0.0285
 1149SOL    HW215081   1.384   2.334   4.053  0.9993  0.5382 -0.6789
 1150SOL     OW15082   1.369   3.991  17.646  0.1624 -0.5533 -0.0375
 1150SOL    HW115083   1.351   3.926  17.714  1.2114  0.3207  1.0981
 1150SOL    HW215084   1.418   4.048  17.706 -1.3893  1.9765 -1.1834
 1151SOL     OW15085   3.174   2.766  10.565 -0.3293  0.1482 -0.3086
 1151SOL    HW115086   3.150   2.800  10.479  0.1467 -0.2033 -0.5811
 1151SOL    HW215087   3.230   2.692  10.539  0.4501  0.6497 -0.0491
 1152SOL     OW15088   0.616   1.931  16.851  1.3463  0.2936 -0.1018
 1152SOL    HW115089   0.693   1.980  16.880  1.2265 -0.2657  1.1751
 1152SOL    HW215090   0.619   1.847  16.897  0.5032  0.5603  0.4400
 1153SOL     OW15091   1.333   0.049   3.920  0.0600  1.0071 -0.0621
 1153SOL    HW115092   1.241   0.032   3.900  0.7850 -3.9076  0.7331
 1153SOL    HW215093   1.380   4.716   3.871  0.0315  0.4334  0.7058
 1154SOL     OW15094   2.156   3.660   6.111 -0.6678  0.1424 -0.4108
 1154SOL    HW115095   2.236   3.650   6.162  0.1358  0.7208 -1.5650
 1154SOL    HW215096   2.153   3.579   6.060 -0.1165  0.5685 -1.1241
 1155SOL     OW15097   2.403   4.699  13.773  0.0559 -0.2672 -0.1380
 1155SOL    HW115098   2.409   0.033  13.707  1.1797  1.4720  1.7602
 1155SOL    HW215099   2.310   4.696  13.795 -0.5284 -1.6611 -2.9059
 1156SOL     OW15100   2.649   4.685   1.596  0.2249 -0.4276  0.9452
 1156SOL    HW115101   2.598   4.683   1.515 -0.9691 -1.1679  1.7157
 1156SOL    HW215102   2.722   4.630   1.567 -0.0239 -1.4227  2.2185
 1157SOL     OW15103   4.206   4.530   7.664  0.1635 -0.6248  0.2168
 1157SOL    HW115104   4.247   4.506   7.581  1.0905  1.1580  0.1712
 1157SOL    HW215105   4.272   4.497   7.724 -0.0075 -1.8937 -0.2781
 1158SOL     OW15106   3.930   2.689   9.803 -0.8837  0.8696  0.2637
 1158SOL    HW115107   4.000   2.642   9.847  0.1578  0.1703 -2.1093
 1158SOL    HW215108   3.922   2.767   9.858 -0.3516  1.6776 -0.8013
 1159SOL     OW15109   0.552   0.051   6.557  0.0800 -0.3462 -0.0721
 1159SOL    HW115110   0.580   4.714   6.614 -2.1766 -0.9393  0.2851
 1159SOL    HW215111   0.501   0.101   6.621 -1.1952 -0.7093 -0.8092
 1160SOL     OW15112   1.442   2.803   0.190  0.7946 -0.2266 -0.2276
 1160SOL    HW115113   1.509   2.808   0.257 -0.0668  0.5800  0.5721
 1160SOL    HW215114   1.358   2.798   0.235  0.3653 -2.8614 -1.2985
 1161SOL     OW15115   2.244   3.869   5.189 -1.1911  0.4555  0.1590
 1161SOL    HW115116   2.264   3.781   5.221 -2.4010  0.8530  2.0123
 1161SOL    HW215117   2.321   3.877   5.133 -1.9316  3.0128 -0.4595
 1162SOL     OW15118   3.392   3.277   5.025 -0.1149  0.6941  0.3452
 1162SOL    HW115119   3.466   3.336   5.037 -0.4653  0.9961  1.0238
 1162SOL    HW215120   3.428   3.223   4.954  1.5701  0.1432  1.5991
 1163SOL     OW15121   0.167   3.286  14.928  1.0716 -0.0286 -0.0434
 1163SOL    HW115122   0.079   3.259  14.956  0.1834  0.0529 -2.7254
 1163SOL    HW215123   0.142   3.326  14.845  0.7275  1.9144  0.9896
 1164SOL     OW15124   2.392   1.278   5.611  0.4836  0.6723 -0.1402
 1164SOL    HW115125   2.373   1.191   5.575 -0.0848  1.2197 -1.1481
 1164SOL    HW215126   2.480   1.298   5.578  1.0115 -0.5992  0.5125
 1165SOL     OW15127   0.017   3.992   6.951 -0.3117  0.1285 -0.3068
 1165SOL    HW115128   4.693   4.033   6.888 -1.2061  0.3994  0.7013
 1165SOL    HW215129   4.702   4.012   7.031  0.6977 -3.0438  1.1291
 1166SOL     OW15130   1.618   4.728   2.460 -0.0480 -0.0243 -0.0496
 1166SOL    HW115131   1.705   4.719   2.422 -0.5423 -1.6553 -0.7709
 1166SOL    HW215132   1.578   0.047   2.392  0.2382 -0.3686 -0.4898
 1167SOL     OW15133   2.238   3.445  11.797 -0.1828  0.4514 -0.7777
 1167SOL    HW115134   2.312   3.483  11.845 -0.9999  0.6688  0.2892
 1167SOL    HW215135   2.285   3.387  11.737 -2.9908 -2.2385 -0.4071
 1168SOL     OW15136   1.456   0.680   5.376  0.1202  0.0623  0.9308
 1168SOL    HW115137   1.503   0.641   5.450  1.7153 -0.2785 -0.2721
 1168SOL    HW215138   1.520   0.744   5.343  0.6534 -0.9823 -0.0576
 1169SOL     OW15139   3.913   0.491   5.260  0.2094  0.0829  0.4221
 1169SOL    HW115140   3.870   0.405   5.257  0.2773  0.0778 -0.4683
 1169SOL    HW215141   3.956   0.491   5.345  1.7614 -0.3072 -0.3634
 1170SOL     OW15142   2.516   4.379  10.746 -0.4175 -0.4473  0.2559
 1170SOL    HW115143   2.562   4.397  10.663  0.2944 -0.8233  0.5649
 1170SOL    HW215144   2.539   4.452  10.804 -3.0012 -0.0640  0.7853
 1171SOL     OW15145   1.944   3.670   5.085  0.6908  0.1572 -0.5016
 1171SOL    HW115146   2.039   3.656   5.083  0.5872 -0.3316 -1.9203
 1171SOL    HW215147   1.938   3.765   5.081 -2.6469 -0.0250  0.0536
 1172SOL     OW15148   0.195   2.686  17.662  0.1046 -0.0229  0.4838
 1172SOL    HW115149   0.200   2.615  17.727 -1.8338 -0.3153  0.3055
 1172SOL    HW215150   0.148   2.634  17.597  3.6371 -1.8228 -0.6568
 1173SOL     OW15151   3.059   4.040  11.608 -0.5431  0.2145 -0.4769
 1173SOL    HW115152   2.980   4.081  11.642  0.2018  0.8752  0.4701
 1173SOL    HW215153   3.117   4.095  11.661 -0.7672 -1.4791  1.5423
 1174SOL     OW15154   1.049   2.264   7.572 -0.1540 -0.6190  0.0655
 1174SOL    HW115155   1.052   2.168   7.573 -1.4223 -0.6820 -2.2835
 1174SOL    HW215156   1.079   2.282   7.661 -1.8696  0.8758  0.3351
 1175SOL     OW15157   1.378   2.194   5.414  0.2593  0.2246  0.5911
 1175SOL    HW115158   1.338   2.128   5.357 -1.8229  1.3409  0.7647
 1175SOL    HW215159   1.305   2.256   5.417  0.9745  1.1722 -1.1997
 1176SOL     OW15160   3.998   1.249  11.245  0.1667  0.0631  0.0256
 1176SOL    HW115161   3.972   1.337  11.218 -0.9247 -0.3673 -0.2938
 1176SOL    HW215162   3.957   1.201  11.174  1.6694  1.4177 -1.7651
 1177SOL     OW15163   2.378   3.092  15.156  0.4055  0.2327 -0.1009
 1177SOL    HW115164   2.408   3.167  15.105  3.7577 -0.4830  0.8083
 1177SOL    HW215165   2.288   3.080  15.125  1.5203 -1.6957 -2.5348
 1178SOL     OW15166   2.096   3.661   2.820 -0.2687  0.6073  0.1224
 1178SOL    HW115167   2.169   3.650   2.881 -1.1624 -0.5961  0.9823
 1178SOL    HW215168   2.116   3.748   2.786 -0.6993 -0.2667 -2.3171
 1179SOL     OW15169   3.655   1.677  11.953  0.3418 -0.3536  0.4059
 1179SOL    HW115170   3.595   1.627  12.009  1.3492  0.4382  2.1653
 1179SOL    HW215171   3.621   1.766  11.967 -3.4461 -2.0804  2.2949
 1180SOL     OW15172   1.933   3.256   6.867 -0.1170 -0.4365 -0.3745
 1180SOL    HW115173   1.953   3.304   6.786 -2.0325  0.8941 -0.0712
 1180SOL    HW215174   1.858   3.302   6.906  1.1946  0.7086  0.7777
 1181SOL     OW15175   3.269   0.366   5.108  0.3098 -0.1098  0.2456
 1181SOL    HW115176   3.341   0.342   5.166 -0.2931  2.1514  1.9405
 1181SOL    HW215177   3.313   0.389   5.026  0.4704  2.0965  0.9272
 1182SOL     OW15178   1.671   3.175  16.757  0.0961  0.1391 -0.3021
 1182SOL    HW115179   1.752   3.123  16.762  1.3768  1.9973 -1.7601
 1182SOL    HW215180   1.610   3.110  16.793  1.3749 -0.2533  1.1665
 1183SOL     OW15181   3.980   1.894  10.120  0.4136 -0.1852  0.5736
 1183SOL    HW115182   4.045   1.839  10.076  0.5104  0.5897 -0.2554
 1183SOL    HW215183   4.024   1.919  10.200 -1.0816  2.9646  0.4001
 1184SOL     OW15184   4.047   0.890  11.418  0.5293 -0.5163 -0.8489
 1184SOL    HW115185   4.064   0.916  11.327  1.0797 -1.0060 -0.8861
 1184SOL    HW215186   3.951   0.890  11.420  0.5433  0.5385  0.0266
 1185SOL     OW15187   3.114   4.352   9.026 -0.2674 -0.6836  0.0282
 1185SOL    HW115188   3.180   4.314   8.969 -0.0923 -1.3367  0.6621
 1185SOL    HW215189   3.156   4.422   9.076  0.0060  0.4860 -1.8692
 1186SOL     OW15190   1.999   1.745   2.249 -0.5007  0.7997  0.4375
 1186SOL    HW115191   2.018   1.797   2.170  0.1044 -0.3950 -0.1980
 1186SOL    HW215192   1.907   1.769   2.258 -0.1009  1.9635  1.3902
 1187SOL     OW15193   0.002   3.014  11.022 -0.0115 -0.1668 -0.2794
 1187SOL    HW115194   0.058   3.068  11.078 -0.6853  0.6883 -0.4370
 1187SOL    HW215195   0.069   2.953  10.992 -0.7078 -0.9333 -0.2790
 1188SOL     OW15196   3.360   2.680   4.721  0.2245  0.3009 -0.0421
 1188SOL    HW115197   3.450   2.689   4.690  1.0044  0.5650  2.2992
 1188SOL    HW215198   3.336   2.591   4.696 -1.2744 -0.5308  4.3067
 1189SOL     OW15199   3.035   0.188   1.924 -0.3215  0.4847  0.1601
 1189SOL    HW115200   2.972   0.212   1.992  1.2781  0.6071  1.5989
 1189SOL    HW215201   3.003   0.237   1.848  2.0098  1.1024 -0.4560
 1190SOL     OW15202   4.076   1.430  12.614 -0.2869 -0.2840 -0.1022
 1190SOL    HW115203   4.162   1.405  12.579  0.5977  1.2551  1.0053
 1190SOL    HW215204   4.073   1.519  12.578  3.1531 -0.1855 -0.1827
 1191SOL     OW15205   2.772   2.459   5.047  0.2468 -0.6167  0.1433
 1191SOL    HW115206   2.743   2.369   5.058  1.5880 -1.1736 -1.0103
 1191SOL    HW215207   2.694   2.505   5.078  2.3534  1.0226  2.9958
 1192SOL     OW15208   2.513   3.481   4.941 -0.2717  0.3567 -0.0597
 1192SOL    HW115209   2.597   3.465   4.985 -1.0662 -1.4635  0.7822
 1192SOL    HW215210   2.472   3.397   4.961  2.3969 -1.0610 -0.5973
 1193SOL     OW15211   1.560   0.702   9.104 -0.7860  0.4476  0.0639
 1193SOL    HW115212   1.578   0.676   9.014  0.0894  3.6417 -0.6936
 1193SOL    HW215213   1.647   0.722   9.138 -0.5360 -1.6780  0.6624
 1194SOL     OW15214   0.597   0.100   3.952  0.3254 -0.6030 -0.2458
 1194SOL    HW115215   0.667   0.035   3.953 -1.1789 -2.2422 -1.8665
 1194SOL    HW215216   0.572   0.102   4.045 -1.6709  0.4338 -0.8067
 1195SOL     OW15217   4.218   2.336   6.974  0.2189 -0.2687 -0.1249
 1195SOL    HW115218   4.192   2.253   6.934  3.5461 -0.2454 -2.3874
 1195SOL    HW215219   4.138   2.362   7.020 -0.6704 -1.4475 -1.0064
 1196SOL     OW15220   1.427   4.329  16.715  0.0293  0.6390  0.3331
 1196SOL    HW115221   1.436   4.292  16.627  0.0774  2.5475 -0.4535
 1196SOL    HW215222   1.515   4.367  16.725 -0.5396  1.9144  0.4234
 1197SOL     OW15223   0.284   4.444  10.680  0.4787  1.0036  0.3897
 1197SOL    HW115224   0.221   4.453  10.609  0.4362 -2.9957 -0.0908
 1197SOL    HW215225   0.245   4.498  10.750  3.2894  0.7151  2.1781
 1198SOL     OW15226   1.157   1.387   2.248 -0.0788  0.7688  0.2159
 1198SOL    HW115227   1.175   1.384   2.342 -1.4608  1.6697  0.4996
 1198SOL    HW215228   1.230   1.332   2.218  1.1788  2.2306  0.6392
 1199SOL     OW15229   1.222   3.267  13.531 -0.0583 -0.2734  0.0324
 1199SOL    HW115230   1.219   3.338  13.467 -1.3997  0.0587  0.4668
 1199SOL    HW215231   1.128   3.255  13.521 -0.0869  1.2534 -1.5430
 1200SOL     OW15232   3.434   0.834   8.478 -0.1528  0.7817 -0.0265
 1200SOL    HW115233   3.346   0.801   8.495  0.6643 -1.1413  0.5660
 1200SOL    HW215234   3.465   0.857   8.566 -0.2236  1.8972 -0.2915
 1201SOL     OW15235   0.738   0.447  16.635 -0.1847  0.1996  0.3028
 1201SOL    HW115236   0.655   0.434  16.682  0.5341 -0.8099  1.2978
 1201SOL    HW215237   0.726   0.387  16.562  1.0348 -0.9506  1.0530
 1202SOL     OW15238   0.676   2.968  14.531  0.4770  0.2634 -0.4380
 1202SOL    HW115239   0.599   2.913  14.549  1.2098 -0.8726 -0.7296
 1202SOL    HW215240   0.750   2.919  14.494 -0.0293 -1.3851  0.7318
 1203SOL     OW15241   2.795   2.999   4.299  0.2357 -0.2851 -0.0106
 1203SOL    HW115242   2.819   2.910   4.326  2.7972  0.6703  0.9481
 1203SOL    HW215243   2.784   3.044   4.383 -1.5742  1.7809 -1.3490
 1204SOL     OW15244   3.929   1.759  12.954  0.8009  0.0744  0.0380
 1204SOL    HW115245   3.969   1.824  12.896 -0.1930 -1.0064 -1.8600
 1204SOL    HW215246   3.943   1.678  12.904 -0.0206 -0.3055  0.4260
 1205SOL     OW15247   3.534   1.164   9.247 -0.0287 -0.0160  0.0500
 1205SOL    HW115248   3.572   1.081   9.277 -0.3845 -0.3535 -0.4307
 1205SOL    HW215249   3.480   1.188   9.322  0.1958  0.8053 -0.0478
 1206SOL     OW15250   0.291   4.493  10.183  0.1665 -0.7039 -0.0305
 1206SOL    HW115251   0.197   4.489  10.200  0.4753 -1.3559  1.5638
 1206SOL    HW215252   0.327   4.452  10.262 -0.2965  1.1744  1.1625
 1207SOL     OW15253   0.064   2.677   5.043  0.7027  0.1497  0.0742
 1207SOL    HW115254   0.011   2.755   5.060  2.1223  0.1673  4.1762
 1207SOL    HW215255   0.110   2.710   4.965 -1.8395  0.3120 -1.3787
 1208SOL     OW15256   0.096   4.460   3.903  0.4955 -0.0046  0.1023
 1208SOL    HW115257   0.072   4.448   3.994  3.6556 -0.1688  0.9203
 1208SOL    HW215258   0.139   4.377   3.881 -0.7220 -0.6673  0.2341
 1209SOL     OW15259   3.157   3.186   3.974  0.0218 -0.4943  0.0481
 1209SOL    HW115260   3.099   3.244   3.924 -2.3368 -2.7451  0.1313
 1209SOL    HW215261   3.125   3.218   4.058 -1.4950 -1.0216 -0.3274
 1210SOL     OW15262   4.573   3.598  17.692 -0.3672 -0.2512 -0.3378
 1210SOL    HW115263   4.587   3.510  17.658  0.6304  0.0992 -0.8159
 1210SOL    HW215264   4.510   3.636  17.630 -1.1011 -0.6512  0.1599
 1211SOL     OW15265   3.601   0.045   9.159  0.3502 -0.1211  0.1336
 1211SOL    HW115266   3.591   4.727   9.238 -0.7115 -1.4589 -0.8740
 1211SOL    HW215267   3.677   0.002   9.119  1.2837  2.5373 -0.9800
 1212SOL     OW15268   0.369   1.308   0.975 -0.2675 -0.1565  0.5553
 1212SOL    HW115269   0.451   1.260   0.961 -0.2817  0.0469 -0.2303
 1212SOL    HW215270   0.333   1.265   1.053 -1.9309  1.1290  0.4834
 1213SOL     OW15271   1.377   1.530   6.553 -0.2612 -0.0109 -0.3832
 1213SOL    HW115272   1.324   1.595   6.506  1.2679  0.8996 -0.8358
 1213SOL    HW215273   1.311   1.489   6.608 -0.0651  2.4953  1.7327
 1214SOL     OW15274   0.882   1.682   6.712  0.8194 -0.1742 -0.1709
 1214SOL    HW115275   0.876   1.709   6.803  1.3594 -1.2368  0.1904
 1214SOL    HW215276   0.821   1.608   6.705 -1.2454  1.5933 -0.6566
 1215SOL     OW15277   1.140   1.082   8.337 -0.1425 -0.4345  0.0847
 1215SOL    HW115278   1.061   1.136   8.341  0.2257 -0.0251  1.8152
 1215SOL    HW215279   1.175   1.087   8.248 -0.6066 -2.2863 -0.1866
 1216SOL     OW15280   0.495   1.094   8.651 -0.1394 -0.1618 -0.3664
 1216SOL    HW115281   0.525   1.016   8.605  0.8199 -0.7805  1.3201
 1216SOL    HW215282   0.567   1.156   8.658  1.8276 -2.4920 -0.1151
 1217SOL     OW15283   2.390   1.745   6.855  0.1261 -0.2404 -0.6036
 1217SOL    HW115284   2.413   1.837   6.842  0.7800 -0.3246 -0.0483
 1217SOL    HW215285   2.463   1.706   6.807  0.9618  0.8429 -0.2007
 1218SOL     OW15286   4.136   1.724   8.638  0.2942 -0.1408 -0.1657
 1218SOL    HW115287   4.044   1.733   8.662  1.1801  0.6060  2.9343
 1218SOL    HW215288   4.151   1.641   8.685 -0.2915 -0.2520 -0.1733
 1219SOL     OW15289   3.526   4.232   3.483 -0.4886  0.5858  0.6865
 1219SOL    HW115290   3.592   4.165   3.501  0.6181  1.0437 -1.7627
 1219SOL    HW215291   3.472   4.185   3.419 -0.6156  0.3490  0.9658
 1220SOL     OW15292   1.169   1.393  16.252  0.1174 -0.5366  0.5693
 1220SOL    HW115293   1.204   1.477  16.280 -0.4267 -0.2314  0.3401
 1220SOL    HW215294   1.198   1.395  16.161  1.3582 -0.4614  0.9740
 1221SOL     OW15295   2.167   1.724   5.749  0.3257 -0.0240  0.7781
 1221SOL    HW115296   2.220   1.784   5.696 -0.0957  1.7170  2.3396
 1221SOL    HW215297   2.156   1.648   5.691 -1.8987  0.4845  0.5235
 1222SOL     OW15298   4.011   4.150   5.439  0.2513 -0.2768 -0.4739
 1222SOL    HW115299   4.070   4.215   5.401 -3.2459  3.0146 -0.2729
 1222SOL    HW215300   4.020   4.067   5.392 -1.1086 -1.2386  0.9585
 1223SOL     OW15301   2.838   2.459   2.041 -0.3275 -0.6667 -1.0258
 1223SOL    HW115302   2.850   2.388   2.104 -0.9107  0.3914  0.2722
 1223SOL    HW215303   2.824   2.535   2.097  1.8258  0.8038 -2.4690
 1224SOL     OW15304   3.796   2.171   8.494 -0.2182  0.3292  0.3202
 1224SOL    HW115305   3.719   2.119   8.472  0.3824 -0.8448  0.9667
 1224SOL    HW215306   3.753   2.254   8.511 -0.5962 -0.1374  1.6664
 1225SOL     OW15307   1.081   3.338   2.530 -0.0976  0.3178 -0.1799
 1225SOL    HW115308   1.052   3.281   2.601  1.8117  0.3307  0.6094
 1225SOL    HW215309   1.015   3.350   2.462 -1.8736 -1.6696  1.1756
 1226SOL     OW15310   0.498   0.424   2.211 -0.1989  0.3895 -0.5326
 1226SOL    HW115311   0.514   0.479   2.288 -1.1202 -0.5466  0.3327
 1226SOL    HW215312   0.560   0.467   2.153 -0.2778 -0.7141 -1.4291
 1227SOL     OW15313   0.350   1.958   4.031 -0.4242  0.5417  0.0465
 1227SOL    HW115314   0.290   2.018   4.075  1.1753 -0.2501  3.2436
 1227SOL    HW215315   0.364   2.005   3.949 -2.0917 -0.5332 -0.8538
 1228SOL     OW15316   2.671   4.042  17.417 -0.5089  0.1928  0.0772
 1228SOL    HW115317   2.607   4.109  17.393  1.4764  1.7860 -0.8236
 1228SOL    HW215318   2.711   4.042  17.330 -2.9213  2.1049 -1.0252
 1229SOL     OW15319   0.590   2.296  10.234  0.0915 -0.5913 -0.2172
 1229SOL    HW115320   0.527   2.239  10.278  0.3090 -0.3617  0.3872
 1229SOL    HW215321   0.569   2.272  10.143  0.2209 -3.2458  0.4530
 1230SOL     OW15322   0.093   2.071   9.854 -0.6905  0.3226  0.0011
 1230SOL    HW115323   0.039   2.143   9.887  0.4205 -0.2135  3.0860
 1230SOL    HW215324   0.097   2.018   9.934  2.6572  0.2745 -0.1847
 1231SOL     OW15325   2.414   4.576   2.852 -0.2114  0.6708  0.0550
 1231SOL    HW115326   2.397   4.660   2.810  0.8598 -0.4563 -2.5986
 1231SOL    HW215327   2.331   4.559   2.896 -0.4275 -0.2349 -0.6861
 1232SOL     OW15328   2.001   2.213   7.070  0.3127 -0.0138  0.2686
 1232SOL    HW115329   2.060   2.199   6.996 -1.4545 -1.1261 -0.9072
 1232SOL    HW215330   2.063   2.184   7.138 -0.7902  0.5341  1.5008
 1233SOL     OW15331   0.837   1.751   7.466  0.1547  0.2567 -0.3761
 1233SOL    HW115332   0.787   1.801   7.531  1.7287 -0.3030  1.2823
 1233SOL    HW215333   0.906   1.715   7.522  0.7196 -0.1428 -1.3362
 1234SOL     OW15334   4.329   1.516   8.105 -0.2330  0.1105 -0.6046
 1234SOL    HW115335   4.291   1.519   8.193  0.0721  1.6389 -0.5240
 1234SOL    HW215336   4.260   1.557   8.054 -0.6387 -0.3758 -0.4479
 1235SOL     OW15337   2.509   2.944   2.813  0.3605  0.2074  0.3657
 1235SOL    HW115338   2.479   2.914   2.727  1.9034 -0.4694  0.0562
 1235SOL    HW215339   2.468   3.024   2.844  0.0343  0.0819  0.2554
 1236SOL     OW15340   2.791   1.673   4.237  0.4798  0.0613 -0.0245
 1236SOL    HW115341   2.865   1.720   4.198  0.0227 -1.9517 -3.2500
 1236SOL    HW215342   2.749   1.747   4.282 -0.3890 -0.6752  0.3665
 1237SOL     OW15343   4.063   3.099   7.182  0.2598  0.4661  0.0559
 1237SOL    HW115344   4.083   3.185   7.219 -0.9622  0.9288 -0.3449
 1237SOL    HW215345   3.990   3.086   7.242 -1.4296 -0.6287 -2.2131
 1238SOL     OW15346   0.509   0.569   5.589 -0.2533  0.1677 -0.0486
 1238SOL    HW115347   0.559   0.561   5.508 -0.9045  0.8916 -0.5180
 1238SOL    HW215348   0.475   0.658   5.592  0.3438  0.3563  0.9924
 1239SOL     OW15349   4.582   0.727  13.361 -0.3467 -0.0067  0.4743
 1239SOL    HW115350   4.611   0.773  13.440  2.8004 -0.6321 -0.3162
 1239SOL    HW215351   4.663   0.734  13.310  0.9776  2.3663  2.8971
 1240SOL     OW15352   4.020   3.611   1.529  0.3275  0.3987  0.2430
 1240SOL    HW115353   3.982   3.594   1.615  1.4245  1.6007  0.9558
 1240SOL    HW215354   4.056   3.523   1.516  2.4584  1.0701  1.5825
 1241SOL     OW15355   3.455   2.236   0.970 -0.2937  0.2404 -0.0424
 1241SOL    HW115356   3.387   2.291   0.930 -0.1719  0.5047  0.1088
 1241SOL    HW215357   3.448   2.158   0.915  1.9779  0.5500 -0.7758
 1242SOL     OW15358   0.105   3.543   3.666 -0.3400 -0.0593 -0.0419
 1242SOL    HW115359   0.056   3.622   3.643 -2.8479 -0.8915  2.4793
 1242SOL    HW215360   0.173   3.588   3.715  0.1439 -1.3088  0.4350
 1243SOL     OW15361   4.244   0.871  15.248  0.2257  0.1732 -0.1026
 1243SOL    HW115362   4.322   0.822  15.274  0.6608  0.8499 -0.1435
 1243SOL    HW215363   4.229   0.832  15.162  0.2844  1.6385 -0.7804
 1244SOL     OW15364   0.221   3.766   0.908  0.1162  0.0792 -0.1504
 1244SOL    HW115365   0.232   3.761   1.003  1.2700  0.7347 -0.2596
 1244SOL    HW215366   0.189   3.854   0.887 -1.5156 -0.3769  0.4019
 1245SOL     OW15367   1.956   1.086  17.675  0.2096 -0.1103  0.1410
 1245SOL    HW115368   1.922   1.171  17.703  0.5818  0.0937 -0.0179
 1245SOL    HW215369   2.032   1.076  17.733 -0.8932 -0.0135  1.6139
 1246SOL     OW15370   1.799   2.970   8.938 -0.5715  0.0076  0.1198
 1246SOL    HW115371   1.824   2.994   9.028 -1.8369  0.4564  0.3550
 1246SOL    HW215372   1.830   2.880   8.932 -0.1069  0.2701 -1.4171
 1247SOL     OW15373   1.433   0.451   6.446 -0.7069  0.5415  0.0879
 1247SOL    HW115374   1.491   0.401   6.504  0.3088  0.1929 -1.2424
 1247SOL    HW215375   1.351   0.402   6.443 -0.1918 -0.3451  0.4193
 1248SOL     OW15376   0.938   2.303   1.733  0.1592  0.4269  0.0003
 1248SOL    HW115377   1.022   2.345   1.714  0.9583 -1.6655 -1.0515
 1248SOL    HW215378   0.946   2.225   1.678 -2.7799 -0.0552  0.2741
 1249SOL     OW15379   1.746   0.895   1.601  0.0478  0.2731 -0.3157
 1249SOL    HW115380   1.812   0.867   1.538  1.1060  2.9103 -0.3874
 1249SOL    HW215381   1.740   0.989   1.582 -0.9391  0.4695  1.0022
 1250SOL     OW15382   1.107   2.876   5.799  0.2909 -0.1143  0.0427
 1250SOL    HW115383   1.181   2.936   5.812 -0.9261  1.1127  1.2364
 1250SOL    HW215384   1.149   2.804   5.846  0.6799 -0.4806 -0.8744
 1251SOL     OW15385   1.621   1.718   8.242 -0.0368  0.0158  0.3064
 1251SOL    HW115386   1.575   1.679   8.317 -0.1767  0.4609  0.4558
 1251SOL    HW215387   1.585   1.660   8.175  0.8868 -1.5161  1.1272
 1252SOL     OW15388   2.905   4.106   1.235 -0.2448  0.3635 -0.2137
 1252SOL    HW115389   2.816   4.074   1.250 -0.8403  1.9999 -0.2480
 1252SOL    HW215390   2.949   4.068   1.311 -0.1484 -1.5123 -1.2093
 1253SOL     OW15391   0.486   2.139  13.911 -0.1432 -0.1406  0.0598
 1253SOL    HW115392   0.495   2.112  14.002 -0.7696  0.1222  0.1934
 1253SOL    HW215393   0.572   2.109  13.881 -0.0674  0.0871  0.0437
 1254SOL     OW15394   3.797   0.411   6.779  0.2163 -0.7226 -0.2880
 1254SOL    HW115395   3.858   0.474   6.817 -2.3113  2.0609 -0.7926
 1254SOL    HW215396   3.719   0.425   6.833 -0.4526 -0.4410 -1.3246
 1255SOL     OW15397   4.379   1.430   7.026  0.5102  0.7936 -0.4290
 1255SOL    HW115398   4.450   1.452   7.087  2.7365 -1.2892 -2.3105
 1255SOL    HW215399   4.376   1.517   6.986  0.9384 -1.0710 -4.5492
 1256SOL     OW15400   3.130   3.016  14.635  0.1014  0.2402 -0.8562
 1256SOL    HW115401   3.138   2.986  14.726  2.3661 -0.5332 -1.3020
 1256SOL    HW215402   3.213   3.062  14.628 -0.5294  1.4057 -0.6280
 1257SOL     OW15403   1.919   1.572   6.378 -0.5789  0.5143  0.0212
 1257SOL    HW115404   1.921   1.660   6.339 -0.5541  0.6755  0.3865
 1257SOL    HW215405   1.847   1.584   6.439 -0.6519 -1.8029  0.3989
 1258SOL     OW15406   4.217   4.242   8.399 -0.5144  0.4575  0.3565
 1258SOL    HW115407   4.265   4.324   8.394 -0.7267  0.6840  2.1758
 1258SOL    HW215408   4.181   4.246   8.310  1.8537 -0.4416 -0.6558
 1259SOL     OW15409   2.898   2.560   5.929  0.1324  0.0577 -0.3046
 1259SOL    HW115410   2.961   2.561   5.857  1.0498  0.4069  0.4917
 1259SOL    HW215411   2.956   2.558   6.006  0.2869 -1.1380 -0.4487
 1260SOL     OW15412   3.567   0.162   8.321  0.2109  0.3899 -0.7352
 1260SOL    HW115413   3.606   0.249   8.335  0.8012  0.2613 -1.5946
 1260SOL    HW215414   3.647   0.112   8.306  0.2567 -0.0321  0.8793
 1261SOL     OW15415   1.151   0.591   4.529  0.2510 -0.6529  0.3544
 1261SOL    HW115416   1.153   0.607   4.434 -3.3949 -4.3696 -0.3347
 1261SOL    HW215417   1.173   0.677   4.565  0.0735  0.3235 -1.8491
 1262SOL     OW15418   0.642   2.654   0.090 -0.0645 -0.5592 -0.5828
 1262SOL    HW115419   0.593   2.719   0.140  2.3911  0.8085  0.0923
 1262SOL    HW215420   0.696   2.720   0.046 -0.7842 -0.0423 -0.6784
 1263SOL     OW15421   3.655   0.419  13.591 -0.3719  0.3084 -0.9667
 1263SOL    HW115422   3.688   0.481  13.656 -0.5719  1.2655 -1.7643
 1263SOL    HW215423   3.637   0.342  13.645 -0.8357  0.4894 -0.8639
 1264SOL     OW15424   3.735   0.563   2.423 -0.4787 -0.8525  0.4502
 1264SOL    HW115425   3.752   0.497   2.356  0.5249 -0.9550  0.8113
 1264SOL    HW215426   3.820   0.574   2.464 -0.2349  1.5076 -0.7126
 1265SOL     OW15427   3.285   0.220  13.521 -0.0713  0.1553  0.1164
 1265SOL    HW115428   3.348   0.283  13.488  1.5347 -0.7324  1.4963
 1265SOL    HW215429   3.252   0.180  13.441 -5.0892  0.3485  2.0797
 1266SOL     OW15430   1.472   4.210  16.489 -0.8593  0.3040 -0.6143
 1266SOL    HW115431   1.501   4.223  16.399  0.2006 -1.2840 -0.5000
 1266SOL    HW215432   1.428   4.126  16.479 -0.2646 -0.3615  2.6108
 1267SOL     OW15433   0.268   3.466  17.611 -0.1209  0.5240 -0.8190
 1267SOL    HW115434   0.253   3.374  17.632 -0.4346  0.4820 -1.2226
 1267SOL    HW215435   0.219   3.470  17.529  0.8769  1.4160 -1.3774
 1268SOL     OW15436   3.244   4.140   4.416  0.1843 -0.3675 -0.7698
 1268SOL    HW115437   3.216   4.144   4.507 -0.8577 -2.3125 -1.0078
 1268SOL    HW215438   3.197   4.221   4.397 -0.0772 -0.4214 -0.3538
 1269SOL     OW15439   0.206   3.045   4.765 -0.0597  0.7727  0.0315
 1269SOL    HW115440   0.293   3.066   4.799 -1.1270  3.7678  0.8731
 1269SOL    HW215441   0.197   3.104   4.690 -1.8288  0.3664 -0.0784
 1270SOL     OW15442   1.155   3.702  15.156 -0.2816  0.0124 -0.2428
 1270SOL    HW115443   1.153   3.789  15.117  1.5826 -0.0425 -0.4227
 1270SOL    HW215444   1.135   3.724  15.247  1.5861  2.2588 -0.3856
 1271SOL     OW15445   2.642   3.323   2.875  0.0665  0.5497 -0.0092
 1271SOL    HW115446   2.700   3.252   2.846  0.2841  1.6244 -2.2103
 1271SOL    HW215447   2.696   3.359   2.945  0.2137  3.0097 -1.3830
 1272SOL     OW15448   3.706   1.672   6.731  0.5310  0.9087  0.0318
 1272SOL    HW115449   3.726   1.751   6.782 -1.8851  1.8631 -0.4965
 1272SOL    HW215450   3.764   1.605   6.766  0.0500 -0.5026 -1.8729
 1273SOL     OW15451   4.330   4.009   6.152 -0.0907  0.6071 -0.2075
 1273SOL    HW115452   4.313   4.059   6.232 -1.7884  2.3527 -1.6551
 1273SOL    HW215453   4.310   3.919   6.178  1.1359 -0.1024 -1.7212
 1274SOL     OW15454   0.858   2.118   5.731  0.4194 -0.2783  0.0963
 1274SOL    HW115455   0.809   2.037   5.741 -1.5399  0.9465  0.4094
 1274SOL    HW215456   0.858   2.117   5.635  0.7879 -1.4100  0.1160
 1275SOL     OW15457   1.997   2.268   9.016 -0.2357 -0.0955  0.3990
 1275SOL    HW115458   2.007   2.254   9.110  2.0660  0.8499  0.2997
 1275SOL    HW215459   1.908   2.303   9.014  0.3775  1.4055 -0.4738
 1276SOL     OW15460   1.256   1.592   9.365 -0.3289 -0.4798 -0.0698
 1276SOL    HW115461   1.251   1.584   9.270  1.5248 -1.6735 -0.0493
 1276SOL    HW215462   1.330   1.652   9.372 -0.6059 -0.0669 -0.6531
 1277SOL     OW15463   1.201   4.726   4.977  0.2453 -0.4346  0.0922
 1277SOL    HW115464   1.229   0.044   4.902  0.1935  2.9375  2.4157
 1277SOL    HW215465   1.134   0.051   5.012 -1.2475 -2.2239  0.3013
 1278SOL     OW15466   3.212   2.067   5.332  0.5527  0.0891 -0.0692
 1278SOL    HW115467   3.237   2.150   5.371  0.6980 -0.4234  0.9228
 1278SOL    HW215468   3.163   2.034   5.407 -1.1570 -1.4715 -1.8708
 1279SOL     OW15469   4.196   1.192   2.839 -0.0036  0.7705  0.5768
 1279SOL    HW115470   4.156   1.278   2.824  0.3943  0.7525 -0.5515
 1279SOL    HW215471   4.264   1.197   2.773  0.2896  0.1654  0.8339
 1280SOL     OW15472   0.698   2.441   6.207  0.0630  0.0255  0.0266
 1280SOL    HW115473   0.792   2.445   6.227 -0.2891  1.7000  1.2794
 1280SOL    HW215474   0.676   2.528   6.239 -1.1325  0.4469 -1.9269
 1281SOL     OW15475   0.948   1.397   4.236  0.2358 -0.4555  0.7871
 1281SOL    HW115476   0.903   1.417   4.154  0.0001 -1.3691  0.6980
 1281SOL    HW215477   1.031   1.441   4.220 -0.1661 -0.2201 -0.6513
 1282SOL     OW15478   2.269   2.133   4.758  0.2950 -0.1396 -0.1958
 1282SOL    HW115479   2.353   2.088   4.762  1.1879  1.7036  1.5122
 1282SOL    HW215480   2.234   2.066   4.699 -1.4526 -0.4059  1.1484
 1283SOL     OW15481   2.213   0.986  14.596 -0.3279 -0.0650  0.0537
 1283SOL    HW115482   2.134   1.040  14.597  0.7673  1.5298 -0.1823
 1283SOL    HW215483   2.260   1.015  14.518 -3.6914  1.3356 -1.4755
 1284SOL     OW15484   2.187   0.208   9.253 -0.0222 -0.1441 -0.0461
 1284SOL    HW115485   2.252   0.179   9.317  0.5598  0.2566 -0.4534
 1284SOL    HW215486   2.176   0.294   9.293 -3.0016 -0.0623 -1.0548
 1285SOL     OW15487   0.603   1.519   3.853  0.1180 -0.1553  0.1424
 1285SOL    HW115488   0.596   1.614   3.847  2.4754 -0.2446 -4.3445
 1285SOL    HW215489   0.563   1.496   3.769  2.5793  0.3814 -1.1997
 1286SOL     OW15490   2.978   2.623   7.368 -0.1597 -0.3170 -0.1521
 1286SOL    HW115491   2.883   2.617   7.356 -0.2047  1.3526 -0.6329
 1286SOL    HW215492   3.005   2.644   7.278  0.8065 -0.2206  0.1621
 1287SOL     OW15493   2.182   0.612   5.882  0.4071  0.3017 -0.1333
 1287SOL    HW115494   2.187   0.642   5.972 -0.5358  0.7124 -0.2082
 1287SOL    HW215495   2.210   0.688   5.830  0.0984 -0.0176 -0.7732
 1288SOL     OW15496   4.478   4.317   4.611 -0.1111  0.2181 -0.1690
 1288SOL    HW115497   4.392   4.326   4.569  0.1462 -3.2297 -1.3659
 1288SOL    HW215498   4.509   4.408   4.609  0.3688  0.0246 -1.0201
 1289SOL     OW15499   2.390   3.302   6.197  0.0746  0.4757  0.4524
 1289SOL    HW115500   2.311   3.298   6.143 -0.1268  0.4947  0.7468
 1289SOL    HW215501   2.353   3.338   6.277 -2.7621 -1.4057 -0.0078
 1290SOL     OW15502   4.718   3.889   0.443  0.3623  0.4701 -0.5048
 1290SOL    HW115503   4.657   3.866   0.372 -1.0710  0.3651  0.7472
 1290SOL    HW215504   4.686   3.848   0.523  1.6691  0.0598 -0.1931
 1291SOL     OW15505   4.540   0.093   9.117 -0.3612  0.3266 -0.6975
 1291SOL    HW115506   4.579   0.036   9.183  1.0443  1.5606 -0.4593
 1291SOL    HW215507   4.449   0.092   9.147 -0.0833  0.9785  0.2005
 1292SOL     OW15508   0.436   2.992  13.693 -0.0077 -0.4791 -0.6212
 1292SOL    HW115509   0.356   2.956  13.733  0.1333 -1.4312 -1.1837
 1292SOL    HW215510   0.507   2.958  13.749  1.1250 -0.2479 -1.9298
 1293SOL     OW15511   0.279   2.841   1.928 -0.4021 -0.1967 -0.8194
 1293SOL    HW115512   0.261   2.748   1.938 -2.2781 -0.1298 -3.6184
 1293SOL    HW215513   0.270   2.863   2.020 -3.0165 -1.5824 -0.7559
 1294SOL     OW15514   1.334   3.605   2.950 -0.2184  0.5247  0.0670
 1294SOL    HW115515   1.398   3.676   2.943  1.6185 -1.1125  0.0920
 1294SOL    HW215516   1.282   3.606   2.870  0.9969  0.7135 -0.7127
 1295SOL     OW15517   2.445   0.779  10.770  0.7912 -0.4852 -0.2711
 1295SOL    HW115518   2.404   0.705  10.726  0.9461 -0.9115  0.3087
 1295SOL    HW215519   2.375   0.804  10.830 -1.1118 -0.6150 -2.4265
 1296SOL     OW15520   1.629   0.783   4.160 -0.5167  0.2323 -0.7056
 1296SOL    HW115521   1.544   0.775   4.116  0.2652 -2.0726 -1.7720
 1296SOL    HW215522   1.650   0.695   4.189  1.7356  1.3694  1.0708
 1297SOL     OW15523   4.281   1.377  10.293 -0.0684  0.8490  0.7678
 1297SOL    HW115524   4.287   1.462  10.251 -2.1219 -0.3062 -1.8238
 1297SOL    HW215525   4.362   1.374  10.344  0.1907 -0.9323  0.2450
 1298SOL     OW15526   2.723   0.950  15.014 -0.6563 -0.2858 -0.3162
 1298SOL    HW115527   2.709   0.993  15.098  1.9864  0.3151 -0.2035
 1298SOL    HW215528   2.818   0.950  15.019 -0.6689 -0.7801 -0.0609
 1299SOL     OW15529   1.963   2.434   2.729  0.2427 -0.8197  0.3757
 1299SOL    HW115530   2.056   2.432   2.750  0.2777  0.0940  0.3345
 1299SOL    HW215531   1.936   2.525   2.743  0.9939 -0.7063  1.0560
 1300SOL     OW15532   2.249   0.830   8.879 -0.2469  0.0072 -0.6973
 1300SOL    HW115533   2.275   0.892   8.947 -0.8198 -1.1338  0.5522
 1300SOL    HW215534   2.318   0.767   8.899 -1.8158 -1.7334 -0.7939
 1301SOL     OW15535   1.922   1.491   4.648  0.1889 -0.2260 -0.4134
 1301SOL    HW115536   1.958   1.412   4.609  0.1774 -1.1199  1.4035
 1301SOL    HW215537   1.831   1.480   4.621  0.1369  1.6940 -1.0196
 1302SOL     OW15538   2.137   3.420  17.720 -0.5046  0.0038 -0.4294
 1302SOL    HW115539   2.139   3.439   0.076  0.8652  0.8705 -0.6359
 1302SOL    HW215540   2.075   3.486  17.689  0.5470  1.0454 -0.3197
 1303SOL     OW15541   3.912   2.175   2.012 -0.3225 -0.0125 -0.7299
 1303SOL    HW115542   3.884   2.194   2.102  1.5559  1.3636 -0.4370
 1303SOL    HW215543   3.981   2.238   1.993  0.4274 -0.7303 -0.3519
 1304SOL     OW15544   2.556   2.883   3.523 -0.0121 -0.1038  0.3084
 1304SOL    HW115545   2.516   2.970   3.517  1.1255  0.4526  0.7801
 1304SOL    HW215546   2.552   2.875   3.619 -1.4205  1.8179  0.4074
 1305SOL     OW15547   2.868   0.915   8.523  0.0723 -0.5556 -0.2957
 1305SOL    HW115548   2.832   0.879   8.605 -1.6405 -0.3137 -0.9336
 1305SOL    HW215549   2.947   0.945   8.567 -0.7751  0.0493  0.8343
 1306SOL     OW15550   1.883   3.504  16.155  0.3976  0.5662 -0.7581
 1306SOL    HW115551   1.858   3.413  16.168 -0.4637  0.6457 -1.8884
 1306SOL    HW215552   1.909   3.529  16.243 -0.3364  1.2915 -0.7462
 1307SOL     OW15553   0.872   3.383   9.192 -0.1210  0.1712  0.6613
 1307SOL    HW115554   0.863   3.415   9.102  2.2489  0.7396  0.6187
 1307SOL    HW215555   0.913   3.299   9.171  1.0362  0.7094  0.7226
 1308SOL     OW15556   3.366   3.695   8.231  0.2464  0.1108  0.1878
 1308SOL    HW115557   3.297   3.648   8.184  0.8300 -1.8988  1.3447
 1308SOL    HW215558   3.332   3.784   8.220  2.1276  0.7801 -0.2470
 1309SOL     OW15559   4.080   4.515   0.496  0.4869 -0.3345 -0.5590
 1309SOL    HW115560   4.007   4.463   0.530  0.8620 -1.5914 -1.6333
 1309SOL    HW215561   4.071   4.498   0.402  1.2113 -3.0027 -0.1659
 1310SOL     OW15562   2.869   3.447  12.516 -0.8646  0.2622  0.2047
 1310SOL    HW115563   2.937   3.515  12.518  0.9451 -1.6200  2.2844
 1310SOL    HW215564   2.898   3.397  12.440  0.3367  1.0531  0.1323
 1311SOL     OW15565   1.101   1.031  11.551 -0.0084  0.5439 -0.1883
 1311SOL    HW115566   1.094   1.027  11.455 -2.0713  1.7524 -0.0843
 1311SOL    HW215567   1.136   0.942  11.557  1.1431  1.0994  1.3193
 1312SOL     OW15568   4.461   0.739  15.348  0.3024  0.8594 -0.6170
 1312SOL    HW115569   4.520   0.791  15.403 -0.5384  0.1733  0.9304
 1312SOL    HW215570   4.397   0.703  15.410  0.0783  0.9338 -0.8047
 1313SOL     OW15571   2.589   0.133   7.544 -0.6957  0.0133 -0.4651
 1313SOL    HW115572   2.623   0.208   7.593  0.0216 -0.3154 -0.4595
 1313SOL    HW215573   2.533   0.093   7.611 -1.2328 -1.3552 -1.7300
 1314SOL     OW15574   3.638   1.803   1.370  0.1118 -0.4067 -0.4018
 1314SOL    HW115575   3.733   1.788   1.377  0.0485 -1.3533 -1.7393
 1314SOL    HW215576   3.615   1.805   1.463 -0.8689  1.3208 -0.6827
 1315SOL     OW15577   1.181   3.349   4.505 -0.3335 -0.1309  0.3546
 1315SOL    HW115578   1.146   3.317   4.588  1.8974 -1.8147  0.6430
 1315SOL    HW215579   1.114   3.413   4.478  1.0377  0.5377 -1.4528
 1316SOL     OW15580   3.056   0.640   4.726  0.2710 -0.3822  0.5285
 1316SOL    HW115581   3.000   0.567   4.752 -1.1373  0.1823 -0.8705
 1316SOL    HW215582   3.144   0.603   4.735 -0.1070 -1.4536 -0.2257
 1317SOL     OW15583   3.008   1.350  10.215  0.1325 -0.2804 -0.3485
 1317SOL    HW115584   3.099   1.327  10.198  0.8871  2.1870  0.4553
 1317SOL    HW215585   3.009   1.395  10.299  0.3970 -0.4909 -0.2403
 1318SOL     OW15586   3.974   1.918   9.829 -0.0794  0.4100  0.2424
 1318SOL    HW115587   4.069   1.919   9.816 -0.2818 -0.5010 -1.3993
 1318SOL    HW215588   3.966   1.918   9.924  1.5062 -1.3771  0.3968
 1319SOL     OW15589   4.708   3.579   5.893  0.4529  0.0941  0.1419
 1319SOL    HW115590   0.030   3.643   5.850  0.8714 -0.3767  0.0005
 1319SOL    HW215591   0.009   3.560   5.979  1.6582 -1.4591 -0.7054
 1320SOL     OW15592   0.615   0.417   4.013 -0.7058  0.3626  0.1300
 1320SOL    HW115593   0.545   0.398   3.952  1.0145 -0.9680 -1.4096
 1320SOL    HW215594   0.619   0.337   4.066 -0.1364  1.1971  1.3494
 1321SOL     OW15595   1.274   0.955   7.871  0.1443 -0.2188  0.2380
 1321SOL    HW115596   1.344   0.938   7.809  0.6798 -0.2404  0.8497
 1321SOL    HW215597   1.227   0.872   7.858  0.8733 -0.5291 -0.3846
 1322SOL     OW15598   0.843   2.948   7.687  0.1605 -0.5754 -0.0051
 1322SOL    HW115599   0.807   2.983   7.606  1.9253  0.2949 -0.4018
 1322SOL    HW215600   0.891   2.869   7.662 -1.0723 -1.0326 -0.9206
 1323SOL     OW15601   4.555   1.127   5.691 -0.7666 -0.0846  0.1383
 1323SOL    HW115602   4.495   1.150   5.620  2.2868  1.2429 -1.9871
 1323SOL    HW215603   4.622   1.195   5.692 -0.6639 -0.1604 -1.3939
 1324SOL     OW15604   3.135   2.732  15.670 -0.0393  0.4273  0.2478
 1324SOL    HW115605   3.084   2.777  15.737 -1.7507 -1.3880  0.1410
 1324SOL    HW215606   3.226   2.728  15.701  0.2103  1.1767 -0.3856
 1325SOL     OW15607   2.572   0.123   9.659  0.2578 -0.3893  0.3308
 1325SOL    HW115608   2.622   0.177   9.598 -0.0838  0.3164  0.6738
 1325SOL    HW215609   2.496   0.180   9.668  2.0328  1.6148  2.7027
 1326SOL     OW15610   2.543   0.763   0.936 -0.0190  0.1815 -0.3529
 1326SOL    HW115611   2.561   0.808   0.853 -2.5995 -0.1977 -1.1191
 1326SOL    HW215612   2.601   0.688   0.920 -3.1924 -2.3850  0.2686
 1327SOL     OW15613   0.921   0.662   3.606  0.1877  0.3634 -0.4639
 1327SOL    HW115614   1.011   0.654   3.638 -0.2813  0.3799  0.8675
 1327SOL    HW215615   0.926   0.752   3.574 -0.9374 -0.1377 -2.0288
 1328SOL     OW15616   0.239   2.256  17.022  0.6675 -0.5423  0.0114
 1328SOL    HW115617   0.325   2.257  16.979  1.2963  0.3781  1.3199
 1328SOL    HW215618   0.267   2.288  17.107 -2.4113  1.8043  0.1326
 1329SOL     OW15619   3.131   2.773   2.786 -0.5114  0.0498  0.3034
 1329SOL    HW115620   3.208   2.722   2.760 -1.5743 -2.6344  2.3736
 1329SOL    HW215621   3.168   2.833   2.850  1.3268  0.6215 -1.3148
 1330SOL     OW15622   3.226   2.791   9.253 -0.4205 -0.1295 -0.1175
 1330SOL    HW115623   3.297   2.827   9.307  0.5465 -1.5571 -0.4471
 1330SOL    HW215624   3.151   2.844   9.279 -1.4708 -1.9899  0.5951
 1331SOL     OW15625   1.606   3.530   6.033 -0.2731  0.2248  0.9274
 1331SOL    HW115626   1.618   3.557   6.124 -0.2349  0.9482  0.7082
 1331SOL    HW215627   1.590   3.436   6.042  1.5722 -0.0364  1.6026
 1332SOL     OW15628   0.186   2.970  11.364  0.2013 -0.5492  0.3741
 1332SOL    HW115629   0.187   2.903  11.432  0.2997 -0.0007  0.9211
 1332SOL    HW215630   0.102   3.012  11.383  0.3353 -0.9704  1.8764
 1333SOL     OW15631   0.798   0.837   7.747 -0.0571  0.3363 -0.1627
 1333SOL    HW115632   0.777   0.887   7.668  1.9400 -0.1366 -1.0045
 1333SOL    HW215633   0.714   0.821   7.790  0.0571  0.9836  0.2969
 1334SOL     OW15634   2.181   1.346   0.147 -0.1509  0.4231  0.6700
 1334SOL    HW115635   2.190   1.259   0.107 -0.3485  0.1335  1.2582
 1334SOL    HW215636   2.257   1.381   0.102  0.8122  0.3459  2.2641
 1335SOL     OW15637   2.737   4.249  12.934  0.1362  0.1117  0.1809
 1335SOL    HW115638   2.751   4.343  12.922 -0.3086 -0.0283 -1.5166
 1335SOL    HW215639   2.740   4.252  13.029 -1.1669 -0.9892  0.2648
 1336SOL     OW15640   1.147   3.748  15.648  0.1152  0.3014 -0.4846
 1336SOL    HW115641   1.226   3.790  15.684 -1.3481  1.4536  1.3930
 1336SOL    HW215642   1.108   3.717  15.729 -0.7171 -0.4260 -1.1666
 1337SOL     OW15643   0.887   2.117   2.026  0.0833 -0.2762 -0.2143
 1337SOL    HW115644   0.974   2.136   1.991  0.7332 -0.9024  1.0583
 1337SOL    HW215645   0.822   2.170   1.981 -0.3515 -1.3542 -0.8683
 1338SOL     OW15646   2.371   0.558  10.635  0.6846 -0.1125 -0.0412
 1338SOL    HW115647   2.308   0.580  10.566 -1.6685  1.3573  2.5592
 1338SOL    HW215648   2.401   0.471  10.609  1.8930  0.7429 -1.5487
 1339SOL     OW15649   3.130   0.092  14.606 -0.1472  0.3864  0.2095
 1339SOL    HW115650   3.191   0.089  14.679 -0.9075  1.5662  0.8979
 1339SOL    HW215651   3.070   0.022  14.635  0.2251  0.5404  1.3428
 1340SOL     OW15652   4.207   2.273  10.014  0.0379  0.1315  0.2436
 1340SOL    HW115653   4.237   2.315   9.934 -0.5140 -0.9099 -0.5151
 1340SOL    HW215654   4.294   2.247  10.044 -0.2239 -0.9208  0.0880
 1341SOL     OW15655   2.538   0.792   4.477 -0.3182 -0.4157 -1.0436
 1341SOL    HW115656   2.444   0.777   4.490  0.1477  0.1970  3.1705
 1341SOL    HW215657   2.546   0.809   4.383  0.4816  0.9752 -0.7268
 1342SOL     OW15658   1.410   3.042  15.830  0.6790  0.5123  0.2289
 1342SOL    HW115659   1.393   3.046  15.736  0.0325  1.1516  0.3773
 1342SOL    HW215660   1.505   3.034  15.829  0.6503  0.0861  0.8893
 1343SOL     OW15661   4.322   0.654   3.942 -0.5608  0.2319 -0.7170
 1343SOL    HW115662   4.261   0.599   3.991  1.0645 -1.0708 -0.1271
 1343SOL    HW215663   4.407   0.641   3.984 -0.2726 -0.7141 -1.5750
 1344SOL     OW15664   1.493   1.256  15.941 -0.2425  0.1105  0.8809
 1344SOL    HW115665   1.487   1.245  15.846  0.5823  1.6204  0.6670
 1344SOL    HW215666   1.401   1.270  15.964 -0.0342  0.1315  1.6900
 1345SOL     OW15667   1.631   0.280   3.970 -0.0156 -0.1964  0.4224
 1345SOL    HW115668   1.547   0.267   4.015  0.0525  1.3026  0.9716
 1345SOL    HW215669   1.635   0.211   3.903 -2.0938  0.7519 -0.6854
 1346SOL     OW15670   1.487   2.695  14.591  0.0789 -0.0196  0.7904
 1346SOL    HW115671   1.571   2.735  14.612  0.1322  0.4030 -0.2196
 1346SOL    HW215672   1.474   2.650  14.674  1.4990 -0.9245  0.5268
 1347SOL     OW15673   2.420   2.350   7.753  0.1006  0.1730 -0.7835
 1347SOL    HW115674   2.512   2.373   7.737  0.1919  0.7360  0.5854
 1347SOL    HW215675   2.381   2.374   7.669  0.0451 -0.7628 -1.0220
 1348SOL     OW15676   3.827   0.949  10.782 -0.2477 -0.4369 -0.2758
 1348SOL    HW115677   3.910   0.992  10.759 -0.1762  1.3219  3.3150
 1348SOL    HW215678   3.861   0.860  10.770  0.0325  0.0759 -3.5117
 1349SOL     OW15679   2.505   1.974   4.793  0.1452  0.0097  0.5047
 1349SOL    HW115680   2.489   1.881   4.776 -0.3022 -0.0181  1.0706
 1349SOL    HW215681   2.571   1.952   4.859  0.5688 -2.0527 -0.5795
 1350SOL     OW15682   3.139   1.758   4.470  0.2975 -0.2044  0.2215
 1350SOL    HW115683   3.162   1.693   4.536 -0.5365  0.0620  0.7733
 1350SOL    HW215684   3.082   1.818   4.518 -0.9431  0.1248 -1.6429
 1351SOL     OW15685   3.157   4.702  15.841 -0.2170 -0.2439 -0.1703
 1351SOL    HW115686   3.154   0.062  15.851  2.5142 -0.2302  0.5314
 1351SOL    HW215687   3.089   4.685  15.906 -1.0893  0.2910 -0.9564
 1352SOL     OW15688   0.128   2.280   5.081 -0.4895 -0.2822  0.2958
 1352SOL    HW115689   0.202   2.324   5.040  0.5717 -2.1998  0.1647
 1352SOL    HW215690   0.132   2.198   5.033 -0.0809 -0.7534  1.1407
 1353SOL     OW15691   4.592   0.538   7.922  0.5257  0.3001 -0.3513
 1353SOL    HW115692   4.682   0.561   7.899  0.2506  1.7772  0.0174
 1353SOL    HW215693   4.551   0.622   7.943 -0.0432  0.1385 -0.8167
 1354SOL     OW15694   4.297   1.238   2.141  0.5943 -0.3174 -0.1147
 1354SOL    HW115695   4.368   1.174   2.141  0.0199 -0.9448  0.4614
 1354SOL    HW215696   4.262   1.220   2.053 -1.5882  2.9745  0.0871
 1355SOL     OW15697   0.555   1.795   3.842  0.0303  0.4787 -0.0570
 1355SOL    HW115698   0.470   1.798   3.886 -0.3229  0.4376 -0.7341
 1355SOL    HW215699   0.556   1.883   3.803  2.7287  0.1952 -0.6211
 1356SOL     OW15700   3.691   4.113   2.496  0.0325 -0.3710 -0.2791
 1356SOL    HW115701   3.720   4.184   2.438 -1.6758  0.3199 -0.2816
 1356SOL    HW215702   3.729   4.034   2.458  2.3751 -0.0399  1.3936
 1357SOL     OW15703   3.435   1.960   7.610  0.3323  0.4465  0.3440
 1357SOL    HW115704   3.526   1.946   7.584  0.4074 -0.5301  1.1260
 1357SOL    HW215705   3.446   1.906   7.688 -1.8081  0.6331  0.7719
 1358SOL     OW15706   0.354   2.181   6.174 -0.0420 -0.1274  0.5669
 1358SOL    HW115707   0.282   2.240   6.151 -0.5661 -1.0368 -0.1256
 1358SOL    HW215708   0.371   2.225   6.258  0.0241 -2.3201  1.6932
 1359SOL     OW15709   1.417   0.954   2.618  0.9465 -0.1401  0.1393
 1359SOL    HW115710   1.388   1.042   2.642 -0.2833 -0.3873 -0.4411
 1359SOL    HW215711   1.347   0.923   2.561 -0.3560 -0.6206  1.9771
 1360SOL     OW15712   1.775   4.097   4.916  0.0079  0.3183  0.8560
 1360SOL    HW115713   1.778   4.003   4.899  0.5279  0.5678 -0.4116
 1360SOL    HW215714   1.784   4.128   4.826 -1.7439 -3.4592 -0.5850
 1361SOL     OW15715   4.301   3.178   2.649 -0.0373 -0.3905 -0.7942
 1361SOL    HW115716   4.368   3.166   2.716  1.1063  1.1139 -1.6737
 1361SOL    HW215717   4.279   3.090   2.618 -1.9926 -0.2893  0.3367
 1362SOL     OW15718   3.849   2.817   8.531  0.7616 -0.4160  0.4652
 1362SOL    HW115719   3.767   2.774   8.554  1.1789 -0.6091  1.5774
 1362SOL    HW215720   3.854   2.878   8.605  1.1259  1.5528 -1.1750
 1363SOL     OW15721   4.181   0.297   8.492  0.1293 -0.7384  0.2192
 1363SOL    HW115722   4.237   0.310   8.568 -0.2020  0.9698  0.1551
 1363SOL    HW215723   4.223   0.364   8.438 -0.8183  0.9304  1.5815
 1364SOL     OW15724   2.150   3.345  13.298 -0.4558 -0.1710  0.1414
 1364SOL    HW115725   2.078   3.355  13.236 -0.3813  2.6551  0.5181
 1364SOL    HW215726   2.210   3.419  13.286  1.3493 -1.4800  1.1026
 1365SOL     OW15727   2.274   4.666   0.761  0.2693  0.3111 -0.7937
 1365SOL    HW115728   2.209   4.642   0.828  1.1514  2.3548  0.7816
 1365SOL    HW215729   2.229   0.000   0.713 -0.5963  0.2584 -0.0773
 1366SOL     OW15730   4.455   2.128   3.007 -0.3973  0.7871  0.0499
 1366SOL    HW115731   4.521   2.065   3.036  0.9905  1.5117 -1.5600
 1366SOL    HW215732   4.501   2.212   3.006 -0.7236  1.0151  2.8522
 1367SOL     OW15733   0.007   0.070   8.704  0.3346 -0.0654 -0.2052
 1367SOL    HW115734   0.061   0.129   8.651 -1.7675  2.1124  0.0817
 1367SOL    HW215735   4.682   0.133   8.745 -2.0571 -1.2019 -1.9277
 1368SOL     OW15736   0.651   1.043   1.928 -0.2793  0.3935 -0.6414
 1368SOL    HW115737   0.713   1.005   1.867  1.4269  0.6742  0.9210
 1368SOL    HW215738   0.583   0.977   1.913  1.9465 -1.8798 -0.7168
 1369SOL     OW15739   4.189   2.235   4.237 -0.5775 -0.1048 -0.0928
 1369SOL    HW115740   4.207   2.319   4.195 -3.2770  0.6700  0.2970
 1369SOL    HW215741   4.225   2.176   4.169  2.7054  2.1075 -0.2806
 1370SOL     OW15742   4.574   3.384   0.579 -0.5814 -0.4900 -0.0366
 1370SOL    HW115743   4.656   3.337   0.560  0.1690  0.0843  1.7828
 1370SOL    HW215744   4.565   3.338   0.663 -0.9835 -0.0654  0.1502
 1371SOL     OW15745   3.593   0.638   8.327  0.0728 -0.6628  0.2641
 1371SOL    HW115746   3.532   0.707   8.354  0.3594 -0.1349 -0.4372
 1371SOL    HW215747   3.665   0.693   8.296  0.7042 -2.5497 -1.6075
 1372SOL     OW15748   1.851   4.492   3.525  0.4083 -0.8414 -0.1350
 1372SOL    HW115749   1.780   4.554   3.536 -0.2541 -1.7548  0.7349
 1372SOL    HW215750   1.928   4.541   3.554 -1.5419  2.2175 -0.1317
 1373SOL     OW15751   3.438   3.027  14.083 -0.0654  0.0268  0.1334
 1373SOL    HW115752   3.425   3.050  13.991  0.6340 -0.8173 -0.1752
 1373SOL    HW215753   3.446   2.932  14.084  2.0717  0.2016  0.0136
 1374SOL     OW15754   1.702   4.600   8.606 -0.4068  0.8653 -0.4255
 1374SOL    HW115755   1.634   4.594   8.673 -1.9662 -0.5432 -2.1445
 1374SOL    HW215756   1.743   4.685   8.623  1.3320  0.2692 -1.6116
 1375SOL     OW15757   2.339   4.063   8.340  0.1323  0.1946 -0.1142
 1375SOL    HW115758   2.432   4.040   8.341  0.0727  0.0002  0.9987
 1375SOL    HW215759   2.302   3.989   8.292 -0.3810  0.3835 -0.0132
 1376SOL     OW15760   3.664   3.433   1.805  0.4301 -0.6106 -0.1313
 1376SOL    HW115761   3.692   3.363   1.864 -0.2826 -0.2735  0.6022
 1376SOL    HW215762   3.635   3.378   1.732 -1.5053  0.7689 -0.3888
 1377SOL     OW15763   4.159   0.952   7.122 -0.6827  0.3963  0.2211
 1377SOL    HW115764   4.141   0.905   7.040 -0.0312  1.1257 -0.3379
 1377SOL    HW215765   4.075   0.992   7.142 -1.7478 -1.9056  0.3327
 1378SOL     OW15766   2.901   2.165   4.241 -0.5330 -0.3051  0.2813
 1378SOL    HW115767   2.909   2.259   4.224  0.3237 -0.0580  2.0281
 1378SOL    HW215768   2.842   2.168   4.316 -0.6564  2.2943  0.0933
 1379SOL     OW15769   1.150   2.802  16.458  0.1680  0.2273 -0.1768
 1379SOL    HW115770   1.176   2.850  16.537 -2.8888 -0.3028  1.1718
 1379SOL    HW215771   1.079   2.744  16.487  0.8285 -1.0868 -1.2451
 1380SOL     OW15772   4.413   1.789   1.750 -0.0434 -0.3925 -0.1517
 1380SOL    HW115773   4.321   1.765   1.761 -0.0036 -0.7583 -0.6315
 1380SOL    HW215774   4.433   1.752   1.837  1.6888  0.2764 -0.2556
 1381SOL     OW15775   1.028   2.742   1.797  0.4127 -0.1652 -0.4450
 1381SOL    HW115776   1.012   2.835   1.815 -0.6102 -0.7250  1.4698
 1381SOL    HW215777   0.940   2.721   1.765  1.4029 -4.0972 -0.5530
 1382SOL     OW15778   3.349   2.579   8.308  0.5670 -0.0272 -0.9895
 1382SOL    HW115779   3.329   2.532   8.227 -0.8983  0.1797 -0.7553
 1382SOL    HW215780   3.444   2.587   8.297  0.9720  0.6262  3.0405
 1383SOL     OW15781   3.447   0.961   2.107 -0.2937  0.2076  0.4216
 1383SOL    HW115782   3.539   0.938   2.119  0.1252  1.2239 -0.7861
 1383SOL    HW215783   3.407   0.876   2.093  0.6186 -0.1411 -0.1007
 1384SOL     OW15784   2.153   1.971   5.047  0.7406  1.0008  0.0149
 1384SOL    HW115785   2.146   1.998   5.138  2.1640 -1.0210  0.7186
 1384SOL    HW215786   2.237   1.926   5.054  0.3228 -0.1301 -2.2858
 1385SOL     OW15787   1.193   4.439   7.885 -0.1252 -0.2986  0.0401
 1385SOL    HW115788   1.278   4.424   7.925 -0.0321 -1.2304 -0.5259
 1385SOL    HW215789   1.142   4.364   7.914 -0.5913  0.9582  2.5336
 1386SOL     OW15790   0.431   4.528   5.277  0.2465 -0.5203  0.6329
 1386SOL    HW115791   0.494   4.458   5.255 -2.5894 -2.0632 -2.5136
 1386SOL    HW215792   0.493   4.600   5.267 -0.9797  0.5549  0.8389
 1387SOL     OW15793   2.123   1.961  15.985  0.4180 -0.6752  0.1435
 1387SOL    HW115794   2.183   2.034  15.995 -1.0425  0.3207  1.5817
 1387SOL    HW215795   2.166   1.917  15.911  0.3876 -0.9564  0.2918
 1388SOL     OW15796   1.052   3.006   6.773 -0.2305  0.1503  0.1938
 1388SOL    HW115797   0.961   3.035   6.766 -1.3647 -3.5723 -0.1324
 1388SOL    HW215798   1.031   2.916   6.796 -1.5135  0.5031  0.3799
 1389SOL     OW15799   1.061   1.890   7.092  0.0871 -0.2649  0.5187
 1389SOL    HW115800   1.070   1.984   7.104  0.8376 -0.2905  0.1552
 1389SOL    HW215801   1.129   1.863   7.154  0.7707 -3.1819 -1.4546
 1390SOL     OW15802   4.649   3.656   0.608 -0.1924 -0.4300  0.0773
 1390SOL    HW115803   4.598   3.602   0.548 -1.1800  0.2997  0.2571
 1390SOL    HW215804   4.716   3.592   0.630 -0.0206  0.2511  1.5585
 1391SOL     OW15805   3.833   4.263   6.004 -0.1140 -0.5648  0.2190
 1391SOL    HW115806   3.913   4.301   5.968 -0.0579  2.4170  3.5849
 1391SOL    HW215807   3.826   4.310   6.087  1.5183  2.7439 -1.5226
 1392SOL     OW15808   1.572   3.338  13.646  0.0438  0.2076 -0.0056
 1392SOL    HW115809   1.577   3.383  13.561 -0.1742 -1.8652 -1.1142
 1392SOL    HW215810   1.655   3.291  13.642  0.4474  0.9974 -1.0986
 1393SOL     OW15811   3.112   3.865   9.577  0.1939  0.4688  0.2579
 1393SOL    HW115812   3.207   3.879   9.582  0.5548 -1.5274 -1.1126
 1393SOL    HW215813   3.097   3.875   9.483 -1.6255 -2.0501  0.2920
 1394SOL     OW15814   0.580   3.317   1.638  0.9156 -0.4092  0.0199
 1394SOL    HW115815   0.519   3.247   1.662 -1.1024  2.0193  2.0083
 1394SOL    HW215816   0.519   3.388   1.619  1.0906 -0.1328  0.4674
 1395SOL     OW15817   2.577   0.346  17.161  0.2942  0.0312  0.2106
 1395SOL    HW115818   2.536   0.354  17.075  0.6879  1.2842  0.1366
 1395SOL    HW215819   2.638   0.277  17.135 -0.0408  0.3791 -1.4640
 1396SOL     OW15820   3.265   3.948   6.629  0.1698  0.8878 -0.2211
 1396SOL    HW115821   3.288   4.036   6.659  0.6905  0.3524  0.9123
 1396SOL    HW215822   3.262   3.958   6.534  1.3989  0.5484 -0.2953
 1397SOL     OW15823   0.667   1.906   7.940 -0.5483 -0.2283  0.3952
 1397SOL    HW115824   0.638   1.989   7.977 -1.4116 -0.0049 -0.7774
 1397SOL    HW215825   0.583   1.875   7.905  0.6403 -0.3972 -2.2962
 1398SOL     OW15826   0.537   2.702   1.080 -0.2413  0.0854 -0.2529
 1398SOL    HW115827   0.559   2.734   0.993  1.4253  0.0766  0.1623
 1398SOL    HW215828   0.452   2.665   1.055 -0.1191 -0.9124  0.7564
 1399SOL     OW15829   4.290   1.551  13.765  0.5097 -0.4623 -0.1232
 1399SOL    HW115830   4.213   1.607  13.778 -1.5763 -2.8818 -1.8531
 1399SOL    HW215831   4.286   1.551  13.670 -2.2254  0.6807 -0.0387
 1400SOL     OW15832   3.093   0.888   0.413 -0.4884 -0.2752 -0.5647
 1400SOL    HW115833   3.045   0.957   0.457 -1.8338 -1.6702  0.1616
 1400SOL    HW215834   3.182   0.924   0.420 -0.9999  0.6889  0.9216
 1401SOL     OW15835   4.413   0.735   8.303  0.0035  0.1854  0.1704
 1401SOL    HW115836   4.342   0.703   8.358 -1.9088 -0.2975 -2.5563
 1401SOL    HW215837   4.385   0.826   8.295  0.8300  0.4602  0.3594
 1402SOL     OW15838   1.586   1.824   8.956 -0.0370  0.1355  0.1079
 1402SOL    HW115839   1.567   1.906   8.911  0.4160  0.7380  0.9917
 1402SOL    HW215840   1.507   1.808   9.007 -0.7651 -1.3857 -1.4961
 1403SOL     OW15841   0.270   1.114  16.449  0.0595 -0.4951 -0.2412
 1403SOL    HW115842   0.187   1.066  16.453  0.9145 -1.8846  0.9487
 1403SOL    HW215843   0.278   1.145  16.539  1.3725 -1.1332 -0.1272
 1404SOL     OW15844   3.920   0.983   3.532  0.1889 -0.5804 -0.3976
 1404SOL    HW115845   3.892   0.915   3.471  3.2940 -1.7359 -0.5123
 1404SOL    HW215846   3.913   1.051   3.465  1.2677 -1.1507 -1.0861
 1405SOL     OW15847   3.395   2.134   6.759  0.0926 -0.7660  0.1572
 1405SOL    HW115848   3.328   2.100   6.818  0.6832  1.7428  2.2517
 1405SOL    HW215849   3.398   2.062   6.695 -0.0167 -0.0805 -0.6262
 1406SOL     OW15850   4.376   1.152   6.565  0.5563  0.2153 -0.5200
 1406SOL    HW115851   4.320   1.084   6.529  1.5777 -2.2097  2.4103
 1406SOL    HW215852   4.303   1.206   6.596  2.1554  2.9766 -1.5742
 1407SOL     OW15853   3.849   0.998  11.737 -0.0133  0.1871  0.2061
 1407SOL    HW115854   3.837   0.979  11.644  0.8389 -1.5012  0.4446
 1407SOL    HW215855   3.853   1.093  11.744  0.2692  0.1748  0.2221
 1408SOL     OW15856   1.325   3.530   6.811 -0.2836 -0.5448 -0.2669
 1408SOL    HW115857   1.230   3.517   6.816 -0.5286  1.7306  0.8428
 1408SOL    HW215858   1.340   3.516   6.905  0.2566 -1.4724 -0.4908
 1409SOL     OW15859   3.070   0.813   9.421 -0.3028 -0.2234  0.1778
 1409SOL    HW115860   3.046   0.896   9.462 -0.0367 -0.4520  0.8064
 1409SOL    HW215861   2.997   0.759   9.452  0.2881 -1.2062 -0.1401
 1410SOL     OW15862   3.029   2.260   8.761 -0.1123  0.2621 -0.0015
 1410SOL    HW115863   2.967   2.326   8.793 -1.3252 -0.6605 -0.4637
 1410SOL    HW215864   2.967   2.197   8.726 -2.4797  3.9813 -2.5190
 1411SOL     OW15865   1.324   0.696  15.890  0.0231  0.5505 -0.0596
 1411SOL    HW115866   1.272   0.671  15.966  0.6482 -1.5676 -0.3312
 1411SOL    HW215867   1.412   0.711  15.925 -0.6751  0.0948  1.8467
 1412SOL     OW15868   0.624   2.227   5.335 -0.3031  0.1714  0.2436
 1412SOL    HW115869   0.576   2.197   5.258  1.0739  2.2076 -1.4176
 1412SOL    HW215870   0.576   2.179   5.402  0.2491 -0.4484  0.1961
 1413SOL     OW15871   3.533   3.775   2.462  0.0091  0.1622 -0.6485
 1413SOL    HW115872   3.518   3.854   2.514 -1.6181 -0.3927 -0.2910
 1413SOL    HW215873   3.590   3.814   2.395 -0.1561  0.6141 -0.5283
 1414SOL     OW15874   3.449   0.301   7.715 -0.5414 -0.2838  0.2070
 1414SOL    HW115875   3.412   0.362   7.778  1.4970  0.7254  0.4345
 1414SOL    HW215876   3.542   0.324   7.711 -0.1591 -2.1414 -1.8236
 1415SOL     OW15877   3.659   0.569   9.694  0.2050  0.0500 -0.2270
 1415SOL    HW115878   3.606   0.540   9.769  0.8809  2.5754  1.2206
 1415SOL    HW215879   3.709   0.640   9.735  0.9333 -1.1540  1.0045
 1416SOL     OW15880   3.345   1.163   8.956 -0.2604  0.1124 -0.2282
 1416SOL    HW115881   3.289   1.183   9.030  0.8459  0.2587  0.5748
 1416SOL    HW215882   3.273   1.160   8.893  0.3107 -0.8842 -0.8495
 1417SOL     OW15883   2.635   1.204   4.387 -0.5885 -0.2687 -0.5012
 1417SOL    HW115884   2.611   1.296   4.375 -0.9573 -0.0880  1.6289
 1417SOL    HW215885   2.549   1.174   4.414 -1.2871  0.3296 -2.0901
 1418SOL     OW15886   4.073   0.015   2.134  0.4679 -0.3117 -0.4709
 1418SOL    HW115887   4.078   4.674   2.191 -0.9221 -0.6198 -0.7487
 1418SOL    HW215888   4.020   4.710   2.065  0.8612  1.0559 -1.5757
 1419SOL     OW15889   4.272   1.613  13.502  0.3876 -0.1344 -0.4686
 1419SOL    HW115890   4.197   1.662  13.467  0.1919  0.8753  1.3121
 1419SOL    HW215891   4.347   1.658  13.463 -0.2770  0.0442 -1.5272
 1420SOL     OW15892   3.639   2.522  12.104  0.4787  0.4028  0.1497
 1420SOL    HW115893   3.596   2.586  12.047  0.2947  1.0391  1.0088
 1420SOL    HW215894   3.577   2.450  12.089 -2.6094  2.9216  0.6493
 1421SOL     OW15895   4.503   3.396   8.806  0.4726  0.4637 -0.5949
 1421SOL    HW115896   4.519   3.426   8.716  2.9056 -0.9314 -0.6399
 1421SOL    HW215897   4.446   3.464   8.840 -0.6029 -0.0925 -1.2744
 1422SOL     OW15898   1.510   2.441   7.691 -0.6716  0.2084  0.0157
 1422SOL    HW115899   1.445   2.511   7.701  1.0806  1.6917  0.8541
 1422SOL    HW215900   1.559   2.466   7.612 -1.1413 -1.9709 -0.9699
 1423SOL     OW15901   3.419   3.742   3.527  0.4536 -0.2359  0.1265
 1423SOL    HW115902   3.357   3.792   3.581  2.6665  2.1416  0.4748
 1423SOL    HW215903   3.416   3.659   3.573 -0.9127  1.6996  3.5590
 1424SOL     OW15904   2.518   0.466   2.823  0.2643  0.4685  0.2122
 1424SOL    HW115905   2.514   0.431   2.912 -1.4823  0.5489  0.1579
 1424SOL    HW215906   2.426   0.491   2.822 -0.0814 -0.8892 -1.3101
 1425SOL     OW15907   0.997   0.856   5.373  0.4497  0.8813  0.0450
 1425SOL    HW115908   0.944   0.840   5.451 -0.7746  0.7778 -0.8070
 1425SOL    HW215909   1.043   0.931   5.410 -0.1574  0.8124  0.9512
 1426SOL     OW15910   3.738   1.041  12.478 -0.5633  0.4821 -0.1987
 1426SOL    HW115911   3.796   1.030  12.402 -0.9408 -1.2211 -0.2345
 1426SOL    HW215912   3.787   1.094  12.540 -1.5950  1.6362 -0.3847
 1427SOL     OW15913   0.736   3.690   2.089 -0.2292 -0.0247 -0.0545
 1427SOL    HW115914   0.759   3.725   2.003  0.6101  0.8332  0.5246
 1427SOL    HW215915   0.716   3.766   2.144  1.9476  1.6014 -1.4873
 1428SOL     OW15916   1.780   0.714   6.191  0.0141 -0.1394 -0.3337
 1428SOL    HW115917   1.844   0.656   6.149 -0.4767 -1.7283  1.1151
 1428SOL    HW215918   1.696   0.671   6.178  1.0585 -2.3235  0.1733
 1429SOL     OW15919   0.106   1.073   5.168  0.1872 -0.1206  0.1872
 1429SOL    HW115920   0.065   0.995   5.205  0.5089  1.1929  3.2311
 1429SOL    HW215921   0.180   1.090   5.225  1.4548  2.2119 -2.1770
 1430SOL     OW15922   0.676   1.538   7.467 -0.1115 -0.2510 -0.2458
 1430SOL    HW115923   0.741   1.606   7.452 -0.8626  0.4935 -0.1329
 1430SOL    HW215924   0.734   1.465   7.487 -0.7436 -0.6223  0.2464
 1431SOL     OW15925   1.647   1.025  11.776  0.2325 -0.0558  0.5989
 1431SOL    HW115926   1.596   1.011  11.697 -0.5292 -0.0741  1.0926
 1431SOL    HW215927   1.729   0.985  11.747  0.5651  2.3187 -1.7402
 1432SOL     OW15928   2.362   2.798   8.504  0.2657  0.4850  0.1099
 1432SOL    HW115929   2.404   2.862   8.562  0.6103 -0.9135  1.4041
 1432SOL    HW215930   2.335   2.859   8.435  0.9248 -0.0677 -0.6265
 1433SOL     OW15931   0.451   4.303  12.275 -0.1640 -0.3801  0.0877
 1433SOL    HW115932   0.479   4.394  12.282 -1.2604 -0.1047  0.8899
 1433SOL    HW215933   0.387   4.296  12.346 -3.4343 -0.1417 -2.8378
 1434SOL     OW15934   2.426   0.838  12.176 -0.2825  0.4487 -0.4122
 1434SOL    HW115935   2.431   0.760  12.231  0.9479  0.2443 -0.8091
 1434SOL    HW215936   2.441   0.904  12.243  0.6901  0.1804 -0.3579
 1435SOL     OW15937   4.342   2.232   7.218  1.2365 -0.1323 -0.1019
 1435SOL    HW115938   4.267   2.254   7.163  0.1863 -0.6373  1.1317
 1435SOL    HW215939   4.347   2.304   7.280 -0.5452 -1.5011  1.5943
 1436SOL     OW15940   2.439   4.622  10.884  0.0293  0.5045 -0.1822
 1436SOL    HW115941   2.480   4.696  10.839 -2.3330  3.1781  2.0678
 1436SOL    HW215942   2.351   4.659  10.893  0.1134  0.6094  0.2367
 1437SOL     OW15943   2.001   2.270   4.587 -0.0220 -0.5765 -0.6514
 1437SOL    HW115944   1.999   2.196   4.648  1.0050  0.2038  0.3361
 1437SOL    HW215945   1.948   2.225   4.522  3.2142 -1.0242 -2.9624
 1438SOL     OW15946   1.746   1.856  16.786  0.1354  0.0278  0.0558
 1438SOL    HW115947   1.830   1.821  16.756 -0.0818  0.6720 -1.3413
 1438SOL    HW215948   1.769   1.944  16.815 -0.6770 -0.0033  0.8003
 1439SOL     OW15949   3.851   3.863   6.752  0.2572 -0.0235  0.0857
 1439SOL    HW115950   3.937   3.822   6.766 -0.3037 -1.5526 -1.0796
 1439SOL    HW215951   3.818   3.863   6.842  0.4972 -0.1674  0.1734
 1440SOL     OW15952   2.578   2.113   7.528  0.2650 -0.3734  0.3643
 1440SOL    HW115953   2.615   2.154   7.606 -2.1720  1.6991  0.4325
 1440SOL    HW215954   2.542   2.196   7.496 -1.4225 -0.0710  3.0245
 1441SOL     OW15955   0.081   2.712  14.163 -0.3820 -0.3541 -0.0943
 1441SOL    HW115956   0.084   2.635  14.221 -0.0682 -0.0314  0.3179
 1441SOL    HW215957   0.063   2.679  14.075  1.2960  0.1559 -0.6162
 1442SOL     OW15958   4.524   2.956   3.804 -0.3106  0.0078 -0.1303
 1442SOL    HW115959   4.435   2.967   3.839  0.8146  5.5974  0.8589
 1442SOL    HW215960   4.558   2.897   3.872  1.0092 -0.2382 -0.9988
 1443SOL     OW15961   0.099   2.775   4.026  0.0191  0.0155 -0.3943
 1443SOL    HW115962   0.117   2.689   3.987 -1.9276 -0.0192 -1.2085
 1443SOL    HW215963   0.192   2.791   4.037  0.3092 -2.5469  1.0207
 1444SOL     OW15964   1.673   0.471   9.348 -0.3908  0.0681 -0.5029
 1444SOL    HW115965   1.629   0.509   9.272 -0.7985  1.0298  0.2189
 1444SOL    HW215966   1.627   0.387   9.355 -0.5624  0.3087  1.1314
 1445SOL     OW15967   2.180   2.361   0.809  0.7278 -0.6915 -0.6032
 1445SOL    HW115968   2.088   2.355   0.836  0.6730 -0.0108 -0.6473
 1445SOL    HW215969   2.155   2.341   0.719 -0.3775 -1.6212 -0.0932
 1446SOL     OW15970   2.886   0.289   7.329 -0.3472  0.4274 -0.4480
 1446SOL    HW115971   2.903   0.324   7.242  0.7686 -0.3021 -0.5211
 1446SOL    HW215972   2.973   0.260   7.356  0.3157  1.6099 -1.3220
 1447SOL     OW15973   3.731   1.262   3.619  0.2814 -0.0775 -0.7191
 1447SOL    HW115974   3.760   1.337   3.671 -1.3682 -1.4715  2.1838
 1447SOL    HW215975   3.754   1.286   3.529  1.7761 -0.6586 -0.4881
 1448SOL     OW15976   1.194   4.407   3.224  0.0970  0.7564  0.1395
 1448SOL    HW115977   1.280   4.390   3.187  0.5202  2.1613  0.4824
 1448SOL    HW215978   1.150   4.400   3.139  0.2260  1.6910 -0.0128
 1449SOL     OW15979   2.809   1.710  13.393  0.2051 -0.3710  0.6989
 1449SOL    HW115980   2.745   1.748  13.332  1.8728 -0.2634 -0.9557
 1449SOL    HW215981   2.894   1.732  13.356  0.8634 -0.1482  2.3305
 1450SOL     OW15982   4.055   2.862   2.483  0.0422 -0.1881 -0.2388
 1450SOL    HW115983   4.081   2.773   2.459 -1.9895 -1.5190  2.6491
 1450SOL    HW215984   4.126   2.902   2.533  2.8469 -0.2910 -4.1020
 1451SOL     OW15985   3.413   3.228  10.571  0.1192  0.5249  0.7588
 1451SOL    HW115986   3.450   3.197  10.653  0.0304  0.9032  0.9401
 1451SOL    HW215987   3.451   3.316  10.576 -1.3523  1.3271 -2.0882
 1452SOL     OW15988   3.708   4.068  11.060 -0.5889  0.3949  0.1030
 1452SOL    HW115989   3.699   4.010  11.136 -1.2695  1.7298  1.0395
 1452SOL    HW215990   3.630   4.123  11.071  0.5447  1.6076  2.0341
 1453SOL     OW15991   3.144   2.253   7.437  0.2026 -0.5668 -0.0864
 1453SOL    HW115992   3.178   2.205   7.361  1.4314  2.1486 -1.2574
 1453SOL    HW215993   3.180   2.225   7.521 -1.3422 -1.4277  0.2916
 1454SOL     OW15994   2.443   3.074   3.952  0.1752 -0.4963  0.1559
 1454SOL    HW115995   2.391   3.140   3.906  1.6267 -0.0516 -0.8600
 1454SOL    HW215996   2.396   2.995   3.925 -3.2630  1.4421  0.4118
 1455SOL     OW15997   1.413   1.128  16.353  0.0108 -0.2865 -0.1023
 1455SOL    HW115998   1.415   1.052  16.411  2.3874 -1.1856 -1.3603
 1455SOL    HW215999   1.433   1.192  16.422 -1.0632 -0.4817  0.3905
 1456SOL     OW16000   1.422   4.139   8.875  0.5746 -0.3934 -0.7211
 1456SOL    HW116001   1.494   4.183   8.920 -1.1708 -0.0133  1.7154
 1456SOL    HW216002   1.365   4.129   8.951  0.8265  1.7538 -0.2367
 1457SOL     OW16003   4.118   1.575   2.355 -0.1384  0.0315  0.3357
 1457SOL    HW116004   4.038   1.542   2.395  0.3802 -2.6199 -0.7644
 1457SOL    HW216005   4.127   1.667   2.377 -0.6181 -0.0829  0.9949
 1458SOL     OW16006   2.517   3.272  12.698 -0.2599  0.2820  0.0998
 1458SOL    HW116007   2.458   3.306  12.630  0.0873 -2.9726 -1.8488
 1458SOL    HW216008   2.458   3.276  12.773 -0.1444  2.3058  0.0765
 1459SOL     OW16009   4.402   1.028  10.878  0.4727 -0.5234 -0.1768
 1459SOL    HW116010   4.490   1.046  10.846 -0.2031 -2.0386 -2.9255
 1459SOL    HW216011   4.366   1.104  10.833  0.9635 -0.6264 -0.7550
 1460SOL     OW16012   4.232   4.687  14.046 -0.5996 -0.1127  0.3510
 1460SOL    HW116013   4.187   0.018  13.993  0.7168  0.4998 -0.0123
 1460SOL    HW216014   4.274   4.630  13.981  3.4563  1.3756  1.6518
 1461SOL     OW16015   2.528   0.410   8.556  0.3097  0.2774 -0.0892
 1461SOL    HW116016   2.544   0.335   8.499  1.9378  1.0738 -0.6880
 1461SOL    HW216017   2.435   0.399   8.577  0.6402  1.0550  1.7562
 1462SOL     OW16018   3.545   2.773  15.337  0.4788 -0.3499 -0.0033
 1462SOL    HW116019   3.488   2.797  15.263  1.0823 -1.0095 -0.6827
 1462SOL    HW216020   3.523   2.681  15.353 -1.2361  0.1927  0.8157
 1463SOL     OW16021   0.779   0.892   3.301 -0.2106  0.4562  0.0820
 1463SOL    HW116022   0.841   0.866   3.233  1.1974  2.9964  0.3975
 1463SOL    HW216023   0.837   0.881   3.376 -1.6807  3.0444  1.5875
 1464SOL     OW16024   2.082   0.417   3.444  0.1489  0.1558 -0.4498
 1464SOL    HW116025   2.134   0.483   3.490  0.5470 -0.0287 -0.6442
 1464SOL    HW216026   2.073   0.464   3.361  0.0322 -1.5092 -1.3621
 1465SOL     OW16027   3.251   3.827   1.021 -0.7327 -0.0053 -0.2767
 1465SOL    HW116028   3.337   3.786   1.010 -0.9722 -0.9808  1.4030
 1465SOL    HW216029   3.207   3.764   1.078  1.3314 -1.8676 -0.7628
 1466SOL     OW16030   2.017   0.167   3.305 -0.1015 -0.2888  0.0811
 1466SOL    HW116031   2.052   0.255   3.321 -0.1041 -0.1075 -0.8565
 1466SOL    HW216032   1.985   0.192   3.218 -1.0752  0.0350  0.5352
 1467SOL     OW16033   1.450   3.663  12.703 -0.3888 -0.2126 -0.2319
 1467SOL    HW116034   1.390   3.599  12.740  0.1888 -1.2114 -1.0204
 1467SOL    HW216035   1.438   3.655  12.609 -2.1349  0.2705 -0.0466
 1468SOL     OW16036   2.195   1.819   3.944 -0.2668 -0.5628 -0.0702
 1468SOL    HW116037   2.260   1.821   4.014 -2.7303  1.3318  2.1930
 1468SOL    HW216038   2.239   1.759   3.884  0.2909 -0.1732 -0.0557
 1469SOL     OW16039   0.685   1.822   6.114 -0.5649 -0.2193 -0.0289
 1469SOL    HW116040   0.641   1.902   6.085 -2.1209 -0.5610  1.3825
 1469SOL    HW216041   0.665   1.773   6.034 -1.6800  0.0461  0.0765
 1470SOL     OW16042   1.222   3.382  11.306 -0.6430  0.3341  0.2283
 1470SOL    HW116043   1.247   3.440  11.378  0.0826  0.3410 -0.0270
 1470SOL    HW216044   1.128   3.391  11.319 -1.1498 -3.6100 -0.7869
 1471SOL     OW16045   1.629   1.843   4.350 -0.3617  0.4385 -0.4413
 1471SOL    HW116046   1.683   1.765   4.339 -2.6548 -0.7925 -3.0048
 1471SOL    HW216047   1.593   1.835   4.439  1.2196 -1.6987 -0.0037
 1472SOL     OW16048   4.039   0.929   1.863 -0.3190  0.3441  0.0935
 1472SOL    HW116049   3.992   0.845   1.856 -0.8635  0.4720  2.2492
 1472SOL    HW216050   3.972   0.990   1.831 -0.6744  0.0585  0.2812
 1473SOL     OW16051   1.306   1.682   7.028 -0.5879  0.1265  0.0175
 1473SOL    HW116052   1.230   1.625   7.037 -1.7830  1.3302 -2.3847
 1473SOL    HW216053   1.372   1.632   6.980 -0.0928 -0.4519  1.3096
 1474SOL     OW16054   3.479   0.204   5.940  0.1462 -0.0930 -0.0169
 1474SOL    HW116055   3.467   0.248   5.855 -0.6057  1.5381  0.9395
 1474SOL    HW216056   3.455   0.120   5.901  1.5412 -0.0499 -0.9651
 1475SOL     OW16057   4.625   0.376   1.874 -0.0114  0.0621  0.0205
 1475SOL    HW116058   4.624   0.311   1.804 -0.1499 -1.7162  1.6772
 1475SOL    HW216059   4.674   0.339   1.947 -0.8043  0.5427  0.7880
 1476SOL     OW16060   3.331   1.469   5.333 -0.0585 -0.0537 -0.2489
 1476SOL    HW116061   3.347   1.441   5.243 -0.1311 -0.3906 -0.1563
 1476SOL    HW216062   3.304   1.387   5.375 -1.0010  0.2761 -0.2252
 1477SOL     OW16063   1.756   1.287   2.789 -0.2411 -0.3200 -1.0037
 1477SOL    HW116064   1.676   1.258   2.835 -2.3346  4.4994 -1.6472
 1477SOL    HW216065   1.717   1.338   2.718  0.7848  1.2357 -0.4476
 1478SOL     OW16066   0.684   3.199  17.139  0.4368  0.4822 -0.3986
 1478SOL    HW116067   0.619   3.131  17.123  0.7745  0.6302 -2.4878
 1478SOL    HW216068   0.676   3.197  17.234  0.3204 -2.2163 -0.4669
 1479SOL     OW16069   0.937   2.182   2.492 -0.0821 -0.1220 -0.0635
 1479SOL    HW116070   0.920   2.205   2.584  0.0338 -2.8988  0.6506
 1479SOL    HW216071   0.980   2.098   2.506 -0.9067 -0.9951 -2.8109
 1480SOL     OW16072   2.142   3.950   3.228 -0.1758  0.6867 -0.6416
 1480SOL    HW116073   2.229   3.971   3.195 -0.0026  1.8606  0.5749
 1480SOL    HW216074   2.136   4.019   3.294  1.1236 -0.2444  0.4666
 1481SOL     OW16075   2.444   4.595   6.197  0.0590 -0.1557  0.2451
 1481SOL    HW116076   2.400   4.661   6.145  2.0582 -0.5657 -1.9565
 1481SOL    HW216077   2.478   4.653   6.265  1.4908  0.2102 -0.7679
 1482SOL     OW16078   1.162   1.386   8.069  0.2418  0.0628 -0.4851
 1482SOL    HW116079   1.143   1.292   8.077  1.0143 -0.1444 -1.0865
 1482SOL    HW216080   1.228   1.388   8.000  0.2118 -1.0243 -0.5452
 1483SOL     OW16081   0.645   1.588   7.992  0.2180  0.6664  0.6160
 1483SOL    HW116082   0.554   1.617   8.001 -0.1900 -1.1029  2.2042
 1483SOL    HW216083   0.657   1.601   7.898 -3.0702  0.9343  0.2103
 1484SOL     OW16084   2.726   0.041   5.098 -0.7214 -0.1059 -0.0155
 1484SOL    HW116085   2.680   0.079   5.023  0.6273  0.1964 -0.6921
 1484SOL    HW216086   2.758   0.114   5.150  0.5630 -1.3003  0.8551
 1485SOL     OW16087   4.143   1.206   8.792  0.0336 -0.0247  0.2201
 1485SOL    HW116088   4.052   1.224   8.770 -0.1040 -0.4527  0.4529
 1485SOL    HW216089   4.162   1.131   8.735 -0.2461  1.5091 -1.9138
 1486SOL     OW16090   2.919   0.338   1.699  0.0663  0.1189  0.2776
 1486SOL    HW116091   2.948   0.279   1.630 -1.2475 -1.7442  1.3079
 1486SOL    HW216092   2.964   0.421   1.681  3.7842 -1.7724  0.9116
 1487SOL     OW16093   0.001   3.102  17.543 -0.8171  0.3429  0.1606
 1487SOL    HW116094   0.073   3.145  17.589  0.4463 -0.4557 -1.0790
 1487SOL    HW216095   0.044   3.027  17.504  0.2179  1.3047 -0.5596
 1488SOL     OW16096   2.500   2.012   6.916  0.5857 -0.3104  0.1824
 1488SOL    HW116097   2.465   2.096   6.944 -0.9890 -0.8663 -0.1223
 1488SOL    HW216098   2.487   1.968   7.000 -0.5440 -2.3807 -1.0930
 1489SOL     OW16099   3.703   1.102   1.822  0.2654  0.2830  0.1170
 1489SOL    HW116100   3.613   1.133   1.811  0.6636  0.6795 -2.0112
 1489SOL    HW216101   3.700   1.030   1.760 -0.3900 -1.9801  2.7922
 1490SOL     OW16102   3.501   0.437  13.127  0.0728 -0.4176  0.2648
 1490SOL    HW116103   3.586   0.408  13.092  0.7400 -0.0566  1.6026
 1490SOL    HW216104   3.482   0.507  13.065 -0.7615  0.0648  1.0801
 1491SOL     OW16105   1.836   3.426  15.732  0.3411  0.1677  0.1500
 1491SOL    HW116106   1.832   3.522  15.734 -1.1296  0.1395 -1.4491
 1491SOL    HW216107   1.883   3.414  15.650  1.3338 -1.3591  0.9501
 1492SOL     OW16108   1.129   0.603   3.012  0.3703  0.3989 -0.0483
 1492SOL    HW116109   1.220   0.610   2.983  0.1289  1.2001 -0.6165
 1492SOL    HW216110   1.134   0.515   3.049  3.3891  0.3278 -0.6035
 1493SOL     OW16111   2.081   3.880   3.574 -0.0086 -0.0205  0.4928
 1493SOL    HW116112   2.101   3.931   3.495 -0.3821  0.4277  0.6899
 1493SOL    HW216113   2.071   3.949   3.640 -2.8028 -0.7267  0.7992
 1494SOL     OW16114   1.640   3.740   5.629 -0.0707  0.6558 -0.5889
 1494SOL    HW116115   1.550   3.766   5.648 -1.4788 -2.0734 -3.5920
 1494SOL    HW216116   1.628   3.652   5.592 -0.0312  1.4620 -2.4914
 1495SOL     OW16117   2.874   4.281  11.362  0.0678 -1.0020 -0.3053
 1495SOL    HW116118   2.806   4.280  11.430 -0.1898  0.7055 -0.5298
 1495SOL    HW216119   2.822   4.332  11.300 -0.1931  0.3697  1.0307
 1496SOL     OW16120   2.013   3.377  16.930 -0.1674 -0.6448 -0.7807
 1496SOL    HW116121   1.974   3.293  16.904  2.3222 -1.3349 -2.2507
 1496SOL    HW216122   1.939   3.434  16.910  0.8599  1.3457  1.1174
 1497SOL     OW16123   4.733   0.549  12.989 -0.0629  0.4628  0.2107
 1497SOL    HW116124   0.084   0.537  12.950  0.4041 -0.9357  1.6668
 1497SOL    HW216125   4.727   0.460  13.024  2.0856  0.3322  0.2191
 1498SOL     OW16126   2.753   2.106  14.976  0.2612  0.0406 -0.6041
 1498SOL    HW116127   2.723   2.065  14.895 -1.2912  0.3027 -0.1553
 1498SOL    HW216128   2.748   2.199  14.956  0.3536 -0.1252 -1.4174
 1499SOL     OW16129   0.136   1.397   4.240  0.7332 -0.2775  0.7169
 1499SOL    HW116130   0.111   1.423   4.151 -0.1473 -1.4386  0.6242
 1499SOL    HW216131   0.143   1.302   4.223  0.6471 -0.1980  0.2373
 1500SOL     OW16132   3.835   2.954   7.795  0.3069  0.1435 -0.1040
 1500SOL    HW116133   3.929   2.957   7.812  0.1199 -1.7461  1.2441
 1500SOL    HW216134   3.788   2.902   7.860 -2.9168  1.0301 -1.7154
 1501SOL     OW16135   3.473   3.250  17.558  0.5616 -0.0207  0.4247
 1501SOL    HW116136   3.487   3.220  17.468  2.4876 -2.1967  1.4325
 1501SOL    HW216137   3.503   3.170  17.601 -1.1805  0.2394  2.1437
 1502SOL     OW16138   1.662   1.598   2.727 -0.5831 -0.0906 -0.0756
 1502SOL    HW116139   1.629   1.683   2.697  2.2978  1.2237  0.5542
 1502SOL    HW216140   1.666   1.619   2.820  1.7764  3.2169 -0.9094
 1503SOL     OW16141   1.246   3.423  14.891  0.5718  0.3937 -0.0450
 1503SOL    HW116142   1.294   3.419  14.973 -1.5104 -0.2011  1.1394
 1503SOL    HW216143   1.153   3.428  14.916  1.1468  0.4398  2.0032
 1504SOL     OW16144   2.142   2.200   7.534 -0.1777 -0.4928 -0.4542
 1504SOL    HW116145   2.129   2.136   7.604 -1.0819  3.2005  2.7700
 1504SOL    HW216146   2.061   2.249   7.525 -0.3449 -0.6987 -0.0440
 1505SOL     OW16147   2.057   2.884   6.067 -0.4155  0.0515  0.6784
 1505SOL    HW116148   2.011   2.813   6.112  0.0414 -0.1959  0.7493
 1505SOL    HW216149   2.106   2.850   5.993 -0.8626  0.3559  0.2402
 1506SOL     OW16150   1.793   3.119   5.858 -0.0461  0.0033 -0.1375
 1506SOL    HW116151   1.874   3.112   5.908 -1.2471 -1.2558  1.6626
 1506SOL    HW216152   1.799   3.035   5.813  0.0252 -0.5679  0.9258
 1507SOL     OW16153   2.245   3.807   8.159 -0.6297 -0.5111  0.3102
 1507SOL    HW116154   2.152   3.802   8.179 -0.0993  1.2491  3.1286
 1507SOL    HW216155   2.236   3.799   8.064  1.1852 -0.4488  0.1306
 1508SOL     OW16156   2.626   2.763   5.539 -0.0906 -0.0083 -0.1499
 1508SOL    HW116157   2.547   2.762   5.484  0.5888  3.1684 -1.2005
 1508SOL    HW216158   2.612   2.687   5.595  4.3130 -2.2565 -2.1293
 1509SOL     OW16159   2.759   2.495   9.081 -0.3596 -0.0796 -0.4582
 1509SOL    HW116160   2.831   2.433   9.069 -2.3969 -2.2502 -1.2917
 1509SOL    HW216161   2.684   2.437   9.092 -0.2406 -0.0617  0.4758
 1510SOL     OW16162   0.085   1.668   0.296  0.0517  0.2586 -0.0267
 1510SOL    HW116163   0.073   1.747   0.349  1.5228  0.5251 -0.1102
 1510SOL    HW216164   0.069   1.706   0.210 -0.4372 -1.0755 -0.5227
 1511SOL     OW16165   1.298   3.012   8.433 -0.1314 -0.3534  0.1922
 1511SOL    HW116166   1.288   2.924   8.395 -1.5253 -0.2023  0.2115
 1511SOL    HW216167   1.381   3.007   8.480 -0.4912 -2.7488  0.5904
 1512SOL     OW16168   2.870   2.965  15.634 -0.5651 -0.1666  0.0884
 1512SOL    HW116169   2.842   3.050  15.668 -0.2380  0.1651 -0.4834
 1512SOL    HW216170   2.832   2.903  15.696  1.8411 -1.2460  0.4864
 1513SOL     OW16171   2.171   0.938  12.738  0.3774  0.9942  0.5876
 1513SOL    HW116172   2.185   1.032  12.727  0.5221  0.7795 -1.0316
 1513SOL    HW216173   2.081   0.938  12.770  0.6411 -0.6542  1.3424
 1514SOL     OW16174   1.366   4.367   6.214 -0.2024  0.6303  0.2997
 1514SOL    HW116175   1.455   4.377   6.181 -0.7234  2.5954 -0.5170
 1514SOL    HW216176   1.309   4.396   6.143 -0.0191  0.1343 -0.0435
 1515SOL     OW16177   1.789   0.611  16.778 -0.1051 -0.0267  0.7572
 1515SOL    HW116178   1.780   0.549  16.850 -2.5690  0.0999  0.5481
 1515SOL    HW216179   1.768   0.683  16.837 -1.3137 -0.1508  0.4759
 1516SOL     OW16180   3.704   4.355  11.818  0.1071 -0.4652  0.0741
 1516SOL    HW116181   3.755   4.423  11.773 -0.4640  0.8951  1.4551
 1516SOL    HW216182   3.630   4.406  11.851 -0.3642 -0.5968 -0.7786
 1517SOL     OW16183   4.530   3.864   1.557 -0.3578 -0.5245 -0.2243
 1517SOL    HW116184   4.533   3.942   1.612 -0.4701 -0.0904 -0.8286
 1517SOL    HW216185   4.438   3.841   1.569 -0.3791  0.0833  0.6966
 1518SOL     OW16186   1.549   1.070   4.526 -0.4335 -0.2942 -0.2209
 1518SOL    HW116187   1.567   1.164   4.522  0.0147 -0.4036 -0.7419
 1518SOL    HW216188   1.492   1.076   4.603  0.1026 -0.0053  0.1633
 1519SOL     OW16189   4.251   3.479   9.423  0.3823 -0.6288 -0.8376
 1519SOL    HW116190   4.192   3.547   9.455  1.6757  0.2434 -0.3469
 1519SOL    HW216191   4.278   3.533   9.349 -1.1428  2.4648  0.8347
 1520SOL     OW16192   0.905   1.711   2.961  0.1833 -0.5588 -0.0614
 1520SOL    HW116193   0.890   1.695   2.868 -2.5886  1.4390  0.0630
 1520SOL    HW216194   0.826   1.757   2.987 -0.1267 -0.6317 -0.8801
 1521SOL     OW16195   2.782   4.133  13.991 -0.6545 -0.4381  0.1021
 1521SOL    HW116196   2.787   4.222  13.956 -0.9755 -0.8050 -0.8909
 1521SOL    HW216197   2.875   4.119  14.009 -0.6198 -0.0439  0.2385
 1522SOL     OW16198   0.195   2.742  11.498 -0.0573 -0.4408 -0.0496
 1522SOL    HW116199   0.111   2.756  11.543  0.0903 -1.0645  0.4318
 1522SOL    HW216200   0.203   2.646  11.502  1.0786 -0.3203  0.8076
 1523SOL     OW16201   4.199   1.580   6.629  0.6135  0.3393 -0.1913
 1523SOL    HW116202   4.283   1.624   6.644 -0.4382  2.4432 -0.4848
 1523SOL    HW216203   4.157   1.647   6.575 -0.4624 -0.2475 -0.0868
 1524SOL     OW16204   3.419   4.190   3.954 -0.1741 -0.1901 -0.4376
 1524SOL    HW116205   3.327   4.165   3.965 -0.2863  0.4933  0.1470
 1524SOL    HW216206   3.397   4.251   3.883 -1.9168 -0.0400  0.2312
 1525SOL     OW16207   1.874   1.915   5.298 -0.6373  0.9148 -0.5899
 1525SOL    HW116208   1.915   1.893   5.382 -2.0060  1.8976  0.3332
 1525SOL    HW216209   1.796   1.862   5.312  1.1746 -1.9145 -1.0850
 1526SOL     OW16210   4.524   3.064   1.877  0.3137  0.4566 -0.2593
 1526SOL    HW116211   4.598   3.116   1.845  0.3370  0.1445 -0.7027
 1526SOL    HW216212   4.521   3.101   1.965 -3.5299  0.0443 -0.2322
 1527SOL     OW16213   3.028   4.110  15.441  0.2570  0.3588  0.2349
 1527SOL    HW116214   3.031   4.196  15.484 -2.2637 -0.5654  2.2842
 1527SOL    HW216215   3.118   4.113  15.409 -0.1961 -2.5300 -1.2734
 1528SOL     OW16216   1.163   3.962   7.127  0.7981  0.4008 -0.4767
 1528SOL    HW116217   1.254   3.981   7.103  1.2516  1.3154  1.9798
 1528SOL    HW216218   1.173   3.960   7.223  0.4186  4.6914 -0.3722
 1529SOL     OW16219   2.060   4.300  11.583  0.4046 -0.1478  0.0411
 1529SOL    HW116220   2.019   4.240  11.646 -0.0832  1.6985  1.4709
 1529SOL    HW216221   2.130   4.337  11.636  1.1853 -1.4167 -0.1037
 1530SOL     OW16222   2.978   2.002  12.032  0.5209 -0.0190  0.3458
 1530SOL    HW116223   2.892   1.962  12.023 -0.0699  1.2301  0.5524
 1530SOL    HW216224   2.960   2.065  12.101  0.7641  1.3883 -0.8845
 1531SOL     OW16225   4.685   0.785   8.301 -0.3552 -0.5193 -0.0646
 1531SOL    HW116226   4.667   0.830   8.383  1.1515  0.1450 -0.1097
 1531SOL    HW216227   4.599   0.746   8.289 -0.0428 -0.9583 -0.8568
 1532SOL     OW16228   3.233   1.582   1.722 -0.3516  0.1972 -0.0037
 1532SOL    HW116229   3.238   1.521   1.795 -0.1026 -0.3698 -0.5021
 1532SOL    HW216230   3.177   1.533   1.662 -0.2610 -2.3836  2.0113
 1533SOL     OW16231   1.320   4.192   8.468 -0.2965 -0.6806  0.6799
 1533SOL    HW116232   1.381   4.246   8.519 -0.9512  0.1214  0.6045
 1533SOL    HW216233   1.380   4.138   8.416 -0.0292 -0.5162  0.8188
 1534SOL     OW16234   4.307   3.878  16.718 -0.1405 -0.0319 -0.3825
 1534SOL    HW116235   4.213   3.891  16.707  0.3514  1.7269 -2.3345
 1534SOL    HW216236   4.344   3.879  16.630 -2.8404  0.8223 -1.5077
 1535SOL     OW16237   3.239   3.506   9.943 -0.2233  0.0124 -0.1781
 1535SOL    HW116238   3.235   3.580   9.883  1.6699  0.0652 -0.2399
 1535SOL    HW216239   3.276   3.560  10.013  0.9332 -1.5595  0.4294
 1536SOL     OW16240   3.614   2.480   4.882 -0.5815  0.3443  0.3298
 1536SOL    HW116241   3.616   2.575   4.895 -0.3964  0.4618 -0.5531
 1536SOL    HW216242   3.611   2.478   4.786  0.9122  0.1265  0.2926
 1537SOL     OW16243   3.113   1.701   7.959 -0.1364  0.3165 -0.6456
 1537SOL    HW116244   3.040   1.716   7.899 -1.1255 -0.5479  0.3400
 1537SOL    HW216245   3.194   1.712   7.910 -1.1804  0.7495 -2.2646
 1538SOL     OW16246   1.892   3.798  16.511  0.3482 -0.2475  0.7058
 1538SOL    HW116247   1.834   3.871  16.493  0.1794 -0.7452 -0.7480
 1538SOL    HW216248   1.977   3.840  16.497  0.0899  0.7904  2.1840
 1539SOL     OW16249   3.502   1.635   2.398  0.3874 -0.4793 -0.0996
 1539SOL    HW116250   3.465   1.718   2.427  0.7859 -0.7805  1.2782
 1539SOL    HW216251   3.575   1.671   2.348 -0.2021 -0.7346 -1.1356
 1540SOL     OW16252   4.291   3.888   2.730  0.3621 -0.0593 -0.7948
 1540SOL    HW116253   4.259   3.808   2.688 -1.5205 -0.3246  1.1107
 1540SOL    HW216254   4.386   3.884   2.715  0.8657  4.1150  1.3272
 1541SOL     OW16255   1.867   4.270  15.837  0.0916  0.7894 -0.3699
 1541SOL    HW116256   1.909   4.296  15.919  0.8112 -2.4370  0.2607
 1541SOL    HW216257   1.864   4.349  15.782  1.2382  1.8812  1.1319
 1542SOL     OW16258   3.736   4.497   7.347  0.0190  0.0071 -0.0102
 1542SOL    HW116259   3.713   4.505   7.254 -0.8742 -1.9871  0.0324
 1542SOL    HW216260   3.780   4.580   7.364 -0.0485  0.2527 -1.0184
 1543SOL     OW16261   2.708   0.863   0.285 -0.8978  0.3198  0.5384
 1543SOL    HW116262   2.732   0.827   0.199  0.4114 -1.3175  1.5919
 1543SOL    HW216263   2.619   0.829   0.291 -0.1282 -1.0210  4.1048
 1544SOL     OW16264   4.360   4.659  11.443  0.4687 -0.5424 -1.0290
 1544SOL    HW116265   4.321   4.707  11.370  4.0419 -1.4785 -3.5809
 1544SOL    HW216266   4.442   4.630  11.403  0.7314 -1.2626  0.0153
 1545SOL     OW16267   1.916   3.404  14.266  0.0030 -0.4774 -0.6027
 1545SOL    HW116268   1.986   3.424  14.205 -0.6188  1.5783 -0.6187
 1545SOL    HW216269   1.932   3.309  14.261  2.1984 -0.2054  1.4111
 1546SOL     OW16270   0.559   4.537  12.835 -0.0813 -0.1932 -0.2890
 1546SOL    HW116271   0.551   4.475  12.907 -1.6136  0.4225  0.0846
 1546SOL    HW216272   0.631   4.501  12.783  0.8112  1.8307 -0.4756
 1547SOL     OW16273   1.156   3.298  16.898  0.4435  0.5322 -0.1962
 1547SOL    HW116274   1.209   3.225  16.930  0.3604  0.8335  0.6266
 1547SOL    HW216275   1.176   3.308  16.804  0.6715 -2.2685 -0.4365
 1548SOL     OW16276   4.661   1.646   3.691  0.9991 -0.3495  0.4061
 1548SOL    HW116277   0.004   1.591   3.679  1.1010 -0.2859  0.7743
 1548SOL    HW216278   4.618   1.615   3.611  1.4902 -0.0401  0.0215
 1549SOL     OW16279   4.202   4.388  14.830  0.2445  0.0512 -0.1051
 1549SOL    HW116280   4.280   4.382  14.885  0.5924  0.0037 -0.6086
 1549SOL    HW216281   4.197   4.482  14.813  0.7488 -0.4792 -3.1661
 1550SOL     OW16282   0.783   0.252   7.388  0.5032 -0.2352 -0.3103
 1550SOL    HW116283   0.844   0.281   7.320  0.4767 -0.8780 -0.6096
 1550SOL    HW216284   0.730   0.193   7.335 -1.9161  0.5765  1.2079
 1551SOL     OW16285   0.450   3.660   4.647  0.0795 -0.4076  0.2970
 1551SOL    HW116286   0.367   3.662   4.599 -0.9251  1.1552  2.1387
 1551SOL    HW216287   0.454   3.564   4.644 -0.0810 -0.3907 -0.6410
 1552SOL     OW16288   0.083   3.778   7.773  0.3409  0.1796  0.4359
 1552SOL    HW116289   0.016   3.795   7.707 -1.1053 -0.8450  1.6410
 1552SOL    HW216290   0.041   3.712   7.829  1.6300 -1.0025  0.0301
 1553SOL     OW16291   4.356   1.193   2.642  0.3495 -0.6424  0.4536
 1553SOL    HW116292   4.313   1.225   2.562  1.8605 -1.5991 -0.7466
 1553SOL    HW216293   4.409   1.122   2.605 -0.5425 -0.6511 -0.7958
 1554SOL     OW16294   3.271   4.159   6.804  0.2835  0.7397 -0.6093
 1554SOL    HW116295   3.194   4.213   6.784 -1.6240 -1.6260  0.3764
 1554SOL    HW216296   3.242   4.127   6.889  0.7117  1.6837 -0.1056
 1555SOL     OW16297   4.060   2.024   1.250  0.0084  0.4123 -0.6309
 1555SOL    HW116298   4.123   2.047   1.319  0.3639 -0.7464 -0.5779
 1555SOL    HW216299   4.106   2.064   1.175  0.4059  0.3826 -0.4057
 1556SOL     OW16300   1.389   3.424   2.509  0.0808 -0.0268  0.0574
 1556SOL    HW116301   1.333   3.499   2.528  0.2248  0.0716  0.0931
 1556SOL    HW216302   1.476   3.463   2.513 -0.5975  1.3968  1.0860
 1557SOL     OW16303   1.997   0.858   3.463 -0.1911  0.4981 -0.1716
 1557SOL    HW116304   1.927   0.920   3.484  0.8573  1.9987 -1.0642
 1557SOL    HW216305   2.022   0.828   3.550 -0.1263 -0.6123 -0.5703
 1558SOL     OW16306   4.577   4.671  16.190 -0.2190 -0.1243  0.0475
 1558SOL    HW116307   4.574   4.604  16.258  0.5425  1.2803  1.4394
 1558SOL    HW216308   4.666   4.705  16.198  0.1224 -1.0841  0.3998
 1559SOL     OW16309   4.269   2.178   6.240 -0.1509  0.1250  0.2579
 1559SOL    HW116310   4.338   2.126   6.199  0.4918 -0.2003  1.7812
 1559SOL    HW216311   4.194   2.121   6.222 -0.3905  0.1898  1.0605
 1560SOL     OW16312   2.900   0.233  17.513  0.1078 -0.6081  0.6641
 1560SOL    HW116313   2.972   0.287  17.481 -1.2237  0.7737  0.0364
 1560SOL    HW216314   2.919   0.212  17.605  0.5724 -1.9872  0.2464
 1561SOL     OW16315   1.722   3.058   5.272 -0.3396 -0.3103 -0.1958
 1561SOL    HW116316   1.651   3.112   5.238 -1.2553  0.9132  3.5775
 1561SOL    HW216317   1.684   2.996   5.334  1.2765  0.2895  1.3953
 1562SOL     OW16318   2.048   3.190  13.531 -0.2953  0.2966  0.2425
 1562SOL    HW116319   2.060   3.253  13.460  1.3689  1.9146  1.9863
 1562SOL    HW216320   2.131   3.202  13.577 -1.8481 -0.5995  3.2234
 1563SOL     OW16321   3.520   4.667   4.648  0.5408 -0.2306 -0.0438
 1563SOL    HW116322   3.533   0.024   4.674  0.6055 -0.6692  1.4589
 1563SOL    HW216323   3.430   4.665   4.680 -0.0116 -0.4869 -1.6012
 1564SOL     OW16324   2.913   3.762  12.390 -0.1456  0.2396  0.2684
 1564SOL    HW116325   2.892   3.800  12.476  0.9402 -1.3792  1.2630
 1564SOL    HW216326   2.981   3.701  12.418 -0.5524  0.0975  0.9615
 1565SOL     OW16327   3.595   0.123   7.332  0.2174  0.1607 -0.0545
 1565SOL    HW116328   3.541   0.131   7.254 -0.2003 -2.3916 -0.0451
 1565SOL    HW216329   3.673   0.074   7.304 -0.4951 -1.7483  1.3094
 1566SOL     OW16330   0.336   4.686   7.656 -0.0986  0.6845  0.0811
 1566SOL    HW116331   0.293   0.032   7.628 -0.3816  0.5964  0.2576
 1566SOL    HW216332   0.262   4.646   7.701  1.1870  0.3791  1.8938
 1567SOL     OW16333   1.398   1.773  10.098 -0.0908  0.1759 -0.8836
 1567SOL    HW116334   1.388   1.816  10.013  0.7667  3.2212  0.5621
 1567SOL    HW216335   1.491   1.790  10.114 -0.7550  0.8657  2.3494
 1568SOL     OW16336   0.216   1.197   3.590 -0.0591 -0.0027 -0.3989
 1568SOL    HW116337   0.193   1.166   3.678 -0.8959  0.5091 -0.4332
 1568SOL    HW216338   0.138   1.174   3.539  0.5064  0.4908 -1.4826
 1569SOL     OW16339   2.053   3.612   3.394  0.3201  0.6290  0.0525
 1569SOL    HW116340   2.032   3.703   3.415 -0.4558  1.0522 -2.4683
 1569SOL    HW216341   2.147   3.610   3.410  0.0183  2.5364  1.9760
 1570SOL     OW16342   1.199   2.828   9.104  0.8842  1.1400  0.4727
 1570SOL    HW116343   1.207   2.923   9.092  0.6383  0.8293 -2.1191
 1570SOL    HW216344   1.173   2.823   9.196  1.8918 -2.0409  0.5714
 1571SOL     OW16345   1.076   2.446   5.702 -0.2470  0.4994  0.3419
 1571SOL    HW116346   0.982   2.431   5.698  0.0897 -1.4707 -0.4526
 1571SOL    HW216347   1.087   2.447   5.797  1.0708  0.9855  0.1888
 1572SOL     OW16348   1.059   3.847  16.586  0.0485  1.0592  0.1983
 1572SOL    HW116349   1.127   3.850  16.519 -0.3142  1.7275 -0.1452
 1572SOL    HW216350   0.982   3.876  16.537 -0.3682  0.2816  0.3928
 1573SOL     OW16351   4.179   3.838  14.467 -0.3938 -0.1553  0.3136
 1573SOL    HW116352   4.144   3.855  14.554 -0.6660 -1.2663  0.4094
 1573SOL    HW216353   4.173   3.924  14.425 -1.0364 -1.6792 -2.7621
 1574SOL     OW16354   3.228   1.243   5.451  0.4525  0.3715  0.2186
 1574SOL    HW116355   3.267   1.179   5.510 -0.3855  0.5939  1.0109
 1574SOL    HW216356   3.166   1.293   5.505  0.3560 -1.7539  2.0699
 1575SOL     OW16357   1.047   2.992   0.156  0.2941 -0.1642 -0.0952
 1575SOL    HW116358   1.105   2.943   0.215 -0.3354  0.2568  0.8795
 1575SOL    HW216359   0.979   3.026   0.215 -0.8391  0.6547 -1.8995
 1576SOL     OW16360   2.178   2.732   1.728  0.3192  0.1701  0.4635
 1576SOL    HW116361   2.104   2.675   1.747 -0.2534  0.6011 -0.4989
 1576SOL    HW216362   2.148   2.819   1.753  2.9471  0.8573  1.2672
 1577SOL     OW16363   3.990   0.288   9.355 -0.3712 -0.5397  0.2396
 1577SOL    HW116364   3.955   0.280   9.266 -2.5110 -0.6920  1.0959
 1577SOL    HW216365   3.935   0.232   9.409  1.5070 -0.3336  2.3729
 1578SOL     OW16366   3.231   2.845  12.640 -0.6433 -0.4398  0.3819
 1578SOL    HW116367   3.211   2.775  12.579 -0.1127 -1.5808  1.5272
 1578SOL    HW216368   3.323   2.862  12.620 -0.4261  0.7298  2.3319
 1579SOL     OW16369   1.421   2.792   5.614  0.1393 -0.2045  0.1920
 1579SOL    HW116370   1.493   2.753   5.563 -0.3415 -2.2653  1.0715
 1579SOL    HW216371   1.369   2.717   5.642  0.3845 -1.9406 -4.0702
 1580SOL     OW16372   2.879   0.207  15.686  0.1133  0.3526 -0.3232
 1580SOL    HW116373   2.914   0.124  15.655  0.3084  0.1695  0.4014
 1580SOL    HW216374   2.935   0.225  15.761 -0.6547 -0.3392  0.4142
 1581SOL     OW16375   0.521   4.630   8.164  0.1169 -0.2355  0.0545
 1581SOL    HW116376   0.540   4.721   8.143 -0.6219 -0.6813 -2.5284
 1581SOL    HW216377   0.493   4.602   8.077  0.0579  3.2363 -1.0429
 1582SOL     OW16378   1.722   1.519   4.102  0.2277 -0.0517  0.2883
 1582SOL    HW116379   1.748   1.605   4.069 -1.3016  0.0741 -0.5900
 1582SOL    HW216380   1.760   1.462   4.034 -2.4899 -1.1507 -0.3155
 1583SOL     OW16381   4.150   0.870   1.369  0.0561 -0.3949  0.0834
 1583SOL    HW116382   4.136   0.953   1.324 -0.4155 -0.6125 -0.1750
 1583SOL    HW216383   4.066   0.831   1.342  1.5474 -2.4847 -1.5247
 1584SOL     OW16384   4.180   0.603  14.795 -0.1910 -0.0953  0.1148
 1584SOL    HW116385   4.235   0.537  14.836 -0.2740  0.6003  1.3389
 1584SOL    HW216386   4.243   0.630  14.728 -0.0640 -0.0364  0.2582
 1585SOL     OW16387   2.557   2.590   7.087  0.0667 -0.0928  0.2193
 1585SOL    HW116388   2.570   2.496   7.074  0.1307 -0.1635  0.8343
 1585SOL    HW216389   2.470   2.589   7.126 -0.4706  0.2631 -0.9513
 1586SOL     OW16390   1.382   4.250   6.812  0.0228  0.3173  0.2777
 1586SOL    HW116391   1.335   4.328   6.842 -0.6884 -1.2257  3.2537
 1586SOL    HW216392   1.451   4.242   6.878 -0.3236 -1.8726  0.3969
 1587SOL     OW16393   4.386   4.128   7.643  1.2261  0.2359 -0.0963
 1587SOL    HW116394   4.436   4.130   7.562 -0.6718  2.0131 -1.2124
 1587SOL    HW216395   4.298   4.133   7.608 -0.0827  1.2086  3.2923
 1588SOL     OW16396   3.306   3.274  17.152 -0.1407 -0.1595  0.1419
 1588SOL    HW116397   3.244   3.334  17.110  1.0019  1.7088  1.0783
 1588SOL    HW216398   3.283   3.309  17.238 -0.0308  0.7266 -0.1831
 1589SOL     OW16399   0.216   4.373   9.918  0.3778  0.2535  0.0864
 1589SOL    HW116400   0.138   4.417   9.883  2.5771  1.6822 -2.9761
 1589SOL    HW216401   0.224   4.418  10.002  2.0405 -2.0596  1.1810
 1590SOL     OW16402   3.317   0.999   3.876  0.5843  0.1216  0.8557
 1590SOL    HW116403   3.275   1.075   3.915  0.3640 -0.6621  2.1231
 1590SOL    HW216404   3.263   0.989   3.797 -0.3316  1.8620  1.2704
 1591SOL     OW16405   4.334   3.343  14.101  0.3156  0.2477 -0.3122
 1591SOL    HW116406   4.412   3.316  14.053  0.9363  0.2692  0.6886
 1591SOL    HW216407   4.340   3.296  14.184 -1.5054  1.5154  0.5573
 1592SOL     OW16408   2.569   4.273  10.308  0.2700  0.0889 -0.0087
 1592SOL    HW116409   2.532   4.310  10.228  1.6343 -1.8164 -1.5187
 1592SOL    HW216410   2.519   4.191  10.318 -2.2994  1.7042  0.3081
 1593SOL     OW16411   2.793   0.006   5.528  0.3207  0.3002 -0.6057
 1593SOL    HW116412   2.763   0.003   5.437  0.0711  2.5181 -0.6033
 1593SOL    HW216413   2.755   0.089   5.557 -0.4688 -0.4554  0.5226
 1594SOL     OW16414   0.470   4.435   7.138 -0.4231 -0.3398 -0.2610
 1594SOL    HW116415   0.562   4.409   7.143 -0.4425 -0.3469  0.0453
 1594SOL    HW216416   0.433   4.398   7.218  0.4738 -0.9713 -0.1429
 1595SOL     OW16417   1.294   1.550  10.242 -0.1379  0.5883 -0.1621
 1595SOL    HW116418   1.323   1.479  10.186 -2.1698  0.9510 -1.6629
 1595SOL    HW216419   1.338   1.626  10.203 -0.9961  0.6834 -0.9439
 1596SOL     OW16420   1.702   3.266  12.248 -0.8352 -0.5133 -0.3194
 1596SOL    HW116421   1.661   3.258  12.334 -2.2501 -0.2160 -0.9660
 1596SOL    HW216422   1.709   3.360  12.235 -1.8740 -0.4496 -0.4224
 1597SOL     OW16423   3.865   1.761   8.695  0.3043 -0.7378  0.3386
 1597SOL    HW116424   3.772   1.744   8.712 -0.2784  1.5210 -0.6219
 1597SOL    HW216425   3.885   1.815   8.771 -0.1342  1.1325 -0.8927
 1598SOL     OW16426   3.772   2.224   3.664  0.4979 -0.2265 -0.0135
 1598SOL    HW116427   3.790   2.133   3.644 -1.0190 -1.1492  2.7264
 1598SOL    HW216428   3.860   2.257   3.681  0.8053 -0.5829 -0.9726
 1599SOL     OW16429   0.130   2.430   4.602  0.7991  0.3066 -1.1055
 1599SOL    HW116430   0.083   2.477   4.671  0.7364 -0.3537 -0.7034
 1599SOL    HW216431   0.214   2.477   4.601 -0.4893  2.5976 -1.8898
 1600SOL     OW16432   2.946   3.115   5.514 -0.3047 -0.7362 -0.2008
 1600SOL    HW116433   2.938   3.022   5.492  0.1920 -0.6016 -0.9687
 1600SOL    HW216434   2.908   3.142   5.431 -1.7181  0.9618  1.0010
 1601SOL     OW16435   3.715   1.645   5.052 -0.0682  0.2367 -0.3323
 1601SOL    HW116436   3.633   1.623   5.008 -0.7358 -0.1080  1.0789
 1601SOL    HW216437   3.676   1.723   5.092  0.1264  0.9041 -1.4369
 1602SOL     OW16438   2.741   1.458   9.239  0.6219  0.2421 -0.2684
 1602SOL    HW116439   2.650   1.447   9.266  1.5616  0.1048  2.9169
 1602SOL    HW216440   2.737   1.517   9.164 -2.7599  1.4316  0.8565
 1603SOL     OW16441   4.461   3.027   2.395 -0.3110 -0.2380  0.0130
 1603SOL    HW116442   4.420   2.980   2.323 -3.3344 -0.8845  2.1826
 1603SOL    HW216443   4.394   3.001   2.458 -0.7921 -3.0987 -1.6669
 1604SOL     OW16444   0.542   0.807  10.639 -0.6753  0.0311  0.8289
 1604SOL    HW116445   0.518   0.752  10.713  1.0033 -2.7337 -0.7038
 1604SOL    HW216446   0.452   0.826  10.612 -0.1080  4.5392  2.0240
 1605SOL     OW16447   2.730   1.430   7.333 -0.4874 -0.9139  0.4183
 1605SOL    HW116448   2.747   1.361   7.270  0.6176 -0.1971 -0.0530
 1605SOL    HW216449   2.636   1.447   7.321 -0.1894 -1.3210 -2.3126
 1606SOL     OW16450   1.046   0.225   4.178 -0.0558 -0.0153 -0.0814
 1606SOL    HW116451   1.115   0.239   4.244  0.7689  3.7545 -1.7165
 1606SOL    HW216452   0.985   0.295   4.201 -1.8820 -2.0432  1.2081
 1607SOL     OW16453   3.198   3.022  10.675  0.2435  0.5711  0.0033
 1607SOL    HW116454   3.293   3.013  10.683  0.0840  0.7349  2.0185
 1607SOL    HW216455   3.197   3.076  10.596  0.6546  2.9844  1.6489
 1608SOL     OW16456   3.336   1.776   8.684  0.6100  0.1178 -0.3112
 1608SOL    HW116457   3.310   1.813   8.600 -1.0063 -1.6533 -0.5940
 1608SOL    HW216458   3.427   1.801   8.697  0.6401 -0.5265  0.7271
 1609SOL     OW16459   3.064   2.922  10.362  0.2108 -0.0775 -0.2059
 1609SOL    HW116460   2.994   2.975  10.325 -0.1349 -1.0047 -0.8757
 1609SOL    HW216461   3.108   2.987  10.416 -0.5984 -0.7189  1.2328
 1610SOL     OW16462   1.547   2.957  14.811  0.3384  0.0295  0.4454
 1610SOL    HW116463   1.538   3.052  14.813  0.4968  0.0446  0.4343
 1610SOL    HW216464   1.591   2.944  14.727 -0.8360  0.5904 -0.2559
 1611SOL     OW16465   3.413   3.747   6.722  0.1959 -0.3272 -0.8100
 1611SOL    HW116466   3.499   3.787   6.738 -0.6566 -0.0450  3.1998
 1611SOL    HW216467   3.374   3.820   6.674 -2.1084 -1.2227 -0.2809
 1612SOL     OW16468   1.385   2.104   2.934  0.0401 -0.2076  0.2865
 1612SOL    HW116469   1.312   2.088   2.875 -0.3171  1.3203  0.3105
 1612SOL    HW216470   1.463   2.061   2.899  0.2404  0.6493 -0.3141
 1613SOL     OW16471   0.793   2.753  14.187  0.1725  0.0402 -1.1610
 1613SOL    HW116472   0.885   2.780  14.185  1.1291 -2.9825  1.7088
 1613SOL    HW216473   0.793   2.698  14.108 -1.0722 -0.4930 -0.7889
 1614SOL     OW16474   1.260   2.181  10.042  0.2804 -0.2750 -0.6003
 1614SOL    HW116475   1.166   2.180  10.055  0.3828 -4.1089  0.0883
 1614SOL    HW216476   1.269   2.200   9.949  1.1391 -2.6469 -1.0042
 1615SOL     OW16477   4.041   2.323   1.421  0.4020  0.2326 -0.5009
 1615SOL    HW116478   4.097   2.251   1.395  0.9911 -0.4168  2.6041
 1615SOL    HW216479   3.983   2.329   1.345  2.3883  1.1278 -1.9235
 1616SOL     OW16480   1.060   4.063   2.600  0.3202  0.5514  0.7703
 1616SOL    HW116481   1.043   4.152   2.568 -0.8229  0.4179  1.0323
 1616SOL    HW216482   0.966   4.048   2.594  0.5217 -0.4563  0.1335
 1617SOL     OW16483   3.358   4.478   4.455  0.6368 -0.9345  0.3838
 1617SOL    HW116484   3.270   4.454   4.427  0.2520  0.6775  0.2623
 1617SOL    HW216485   3.342   4.502   4.547  0.9632  1.6282 -0.2420
 1618SOL     OW16486   1.811   4.564   9.266  0.0386  0.0053  0.3895
 1618SOL    HW116487   1.728   4.573   9.218  0.9413  0.4113 -1.0903
 1618SOL    HW216488   1.840   4.654   9.253 -2.4549  0.7186 -0.3079
 1619SOL     OW16489   4.628   0.154   2.430  0.5048 -0.3824 -0.0344
 1619SOL    HW116490   4.677   0.233   2.456  1.4573 -0.8817 -0.2910
 1619SOL    HW216491   4.581   0.185   2.353 -0.8998  0.3093  1.0922
 1620SOL     OW16492   4.518   4.444  12.241 -0.1516 -0.0484 -0.0276
 1620SOL    HW116493   4.445   4.472  12.186 -0.8474  0.4059  1.1288
 1620SOL    HW216494   4.548   4.369  12.189 -1.4944  0.1850 -1.1486
 1621SOL     OW16495   0.651   0.477   7.569  0.2693 -0.3385 -0.0918
 1621SOL    HW116496   0.667   0.548   7.507 -0.9692 -0.9455 -1.1122
 1621SOL    HW216497   0.649   0.403   7.509 -1.0743 -0.5296  0.1961
 1622SOL     OW16498   3.802   3.253  16.306  0.5869  0.8096 -0.0996
 1622SOL    HW116499   3.828   3.255  16.399  0.9723  0.7645 -0.2048
 1622SOL    HW216500   3.891   3.257  16.272  1.1168 -0.6407  1.1152
 1623SOL     OW16501   1.505   3.913   2.142 -0.3178  0.6046  0.3233
 1623SOL    HW116502   1.556   3.913   2.062  1.6401 -1.7745  1.5662
 1623SOL    HW216503   1.417   3.905   2.104  0.1455  1.9323 -0.9885
 1624SOL     OW16504   2.759   1.207   7.183  0.4887  0.1592  0.0814
 1624SOL    HW116505   2.768   1.112   7.184  0.4175  0.1389 -2.4792
 1624SOL    HW216506   2.694   1.225   7.116 -1.1526 -2.0464  1.0614
 1625SOL     OW16507   3.712   2.036   9.554  0.4280  0.3052 -0.3460
 1625SOL    HW116508   3.684   2.032   9.646  0.7730 -0.4710 -0.2780
 1625SOL    HW216509   3.753   2.123   9.553  1.4433 -0.1439  1.7935
 1626SOL     OW16510   4.125   3.115   4.654  0.2170 -0.5893 -0.4056
 1626SOL    HW116511   4.050   3.058   4.672 -0.5817  0.1428 -1.4145
 1626SOL    HW216512   4.195   3.072   4.704 -0.2028  2.6590  2.9547
 1627SOL     OW16513   4.440   4.708  15.165  0.1743  0.0253  0.0279
 1627SOL    HW116514   4.484   0.055  15.142  4.3848 -2.5708 -1.1537
 1627SOL    HW216515   4.358   0.015  15.192 -0.8354 -0.5178 -2.2150
 1628SOL     OW16516   2.711   0.802   8.745  0.4527  0.6228  0.7134
 1628SOL    HW116517   2.642   0.855   8.705  0.4203 -0.1580 -0.2624
 1628SOL    HW216518   2.721   0.849   8.828 -2.0680  0.8733  0.8732
 1629SOL     OW16519   0.518   4.733   5.669 -0.5430  0.1487  0.1362
 1629SOL    HW116520   0.613   0.010   5.661 -0.8176  1.4035 -1.3065
 1629SOL    HW216521   0.517   4.638   5.657  0.7540  0.4161 -2.1861
 1630SOL     OW16522   1.962   1.418   8.396  0.1997 -0.0681 -0.0496
 1630SOL    HW116523   1.915   1.352   8.448 -2.0542  0.5862 -1.2375
 1630SOL    HW216524   1.949   1.376   8.311  0.3086  1.5028 -0.8389
 1631SOL     OW16525   3.253   3.091   9.644 -0.5672  0.0906 -0.0084
 1631SOL    HW116526   3.228   3.168   9.593  3.1929  2.5811  1.8897
 1631SOL    HW216527   3.339   3.116   9.677 -0.7203 -1.1787  1.3452
 1632SOL     OW16528   2.720   2.033   3.186  0.4957  0.1226 -0.1254
 1632SOL    HW116529   2.809   2.067   3.190  0.8267 -0.4734 -2.4983
 1632SOL    HW216530   2.683   2.121   3.177 -0.2948 -0.4303 -2.2927
 1633SOL     OW16531   0.715   2.813  15.510  0.3229 -0.0232  0.1286
 1633SOL    HW116532   0.790   2.781  15.459  0.5773  1.2525 -0.3010
 1633SOL    HW216533   0.648   2.750  15.482  1.3888 -0.6246 -1.0781
 1634SOL     OW16534   1.820   1.460  15.577  0.0592 -0.4013  0.1763
 1634SOL    HW116535   1.749   1.459  15.641 -0.0931  1.0368  0.0349
 1634SOL    HW216536   1.893   1.465  15.639  0.2853 -1.4300 -0.0051
 1635SOL     OW16537   3.783   4.282   1.733  0.1599 -0.0106  0.0514
 1635SOL    HW116538   3.770   4.288   1.638 -1.3527 -1.0228  0.2108
 1635SOL    HW216539   3.876   4.262   1.727  0.2950  1.0671 -1.5250
 1636SOL     OW16540   3.947   0.113   5.104 -0.1424 -0.3890  0.9544
 1636SOL    HW116541   3.943   0.040   5.042  1.4249  0.3411  0.0090
 1636SOL    HW216542   4.009   0.073   5.166  0.9917  2.9359  1.9515
 1637SOL     OW16543   1.548   2.393   6.869 -0.0190 -0.7246  0.0469
 1637SOL    HW116544   1.526   2.344   6.949  1.0731 -1.2310  0.0409
 1637SOL    HW216545   1.465   2.415   6.827 -0.4152  3.7014  3.1544
 1638SOL     OW16546   2.623   3.205  12.064 -0.1017  0.2258 -0.0834
 1638SOL    HW116547   2.605   3.137  12.130  1.5907 -0.5003 -0.3881
 1638SOL    HW216548   2.612   3.158  11.982 -2.3040 -0.2286  0.4546
 1639SOL     OW16549   2.099   3.336   4.797  0.2302  0.3551  0.1055
 1639SOL    HW116550   2.034   3.290   4.744 -1.8550  1.8937  1.3601
 1639SOL    HW216551   2.112   3.276   4.871 -0.6374 -0.6832 -0.5826
 1640SOL     OW16552   3.254   2.695   2.430  0.1625  0.5473 -0.2170
 1640SOL    HW116553   3.247   2.600   2.420  1.8393  0.3395  0.6606
 1640SOL    HW216554   3.270   2.702   2.525 -0.6441  0.7785 -0.0983
 1641SOL     OW16555   1.656   1.258  11.503 -0.7669  0.7959  0.1120
 1641SOL    HW116556   1.568   1.235  11.473 -0.0296  0.0146 -1.4451
 1641SOL    HW216557   1.647   1.252  11.598  1.4502 -3.2678  0.0781
 1642SOL     OW16558   3.586   4.654   5.547 -0.0463 -0.2070 -0.0507
 1642SOL    HW116559   3.507   4.690   5.588  1.4302  0.7390  1.9602
 1642SOL    HW216560   3.577   4.674   5.454  0.9660  0.6864  0.0584
 1643SOL     OW16561   2.349   4.636   2.200  0.2199 -0.1368  0.4399
 1643SOL    HW116562   2.286   4.595   2.141  2.6987 -2.3264 -0.7144
 1643SOL    HW216563   2.284   4.699   2.231 -0.1135  0.2417 -1.0374
 1644SOL     OW16564   2.552   1.975   2.292 -0.3605 -0.3473  0.2231
 1644SOL    HW116565   2.508   2.039   2.348 -1.9417 -1.7759  0.5821
 1644SOL    HW216566   2.634   2.024   2.282 -0.8775  0.5356  0.3545
 1645SOL     OW16567   3.338   3.714   3.882 -0.1419  0.0820  0.0790
 1645SOL    HW116568   3.275   3.687   3.949  0.2140 -1.0089 -0.0226
 1645SOL    HW216569   3.288   3.777   3.830 -1.3890 -0.7366  0.2798
 1646SOL     OW16570   3.623   1.474   5.764 -0.2207 -0.1296  0.1177
 1646SOL    HW116571   3.654   1.419   5.693 -0.9314  0.9347 -1.0115
 1646SOL    HW216572   3.636   1.425   5.846  1.2583 -2.7247 -1.6620
 1647SOL     OW16573   4.148   0.032   1.097  0.1570 -0.4712  0.0160
 1647SOL    HW116574   4.085   0.037   1.025 -0.5793  0.8475  0.7538
 1647SOL    HW216575   4.214   0.081   1.048  0.4383 -1.9060 -1.0436
 1648SOL     OW16576   3.170   1.622   9.233 -0.0810  0.5075 -0.3037
 1648SOL    HW116577   3.097   1.672   9.269  0.8216  1.7930 -0.2360
 1648SOL    HW216578   3.123   1.544   9.203 -1.5126  2.0238 -1.9696
 1649SOL     OW16579   4.368   3.493   1.928  0.1369  0.4237 -0.5074
 1649SOL    HW116580   4.445   3.438   1.947  0.8054  1.5149 -0.0916
 1649SOL    HW216581   4.416   3.575   1.921 -0.5795  0.9098  0.4013
 1650SOL     OW16582   1.462   3.485  14.097 -0.0503  0.4310  0.1194
 1650SOL    HW116583   1.461   3.423  14.170  0.3879  2.1545  1.6160
 1650SOL    HW216584   1.454   3.433  14.017  3.1523  0.6993 -0.3820
 1651SOL     OW16585   2.766   0.224   2.445 -0.2180 -0.5848 -0.4674
 1651SOL    HW116586   2.746   0.256   2.532 -1.1477 -0.9218 -0.5554
 1651SOL    HW216587   2.862   0.223   2.435 -0.1998  1.1361 -0.4701
 1652SOL     OW16588   2.998   3.463  16.516 -0.7182 -0.2284  0.0865
 1652SOL    HW116589   2.936   3.470  16.589 -0.4018  1.6713  0.1830
 1652SOL    HW216590   2.986   3.371  16.496 -0.5728 -0.3938  0.7590
 1653SOL     OW16591   2.423   1.886   2.776 -0.1485  0.4681 -0.7327
 1653SOL    HW116592   2.350   1.943   2.797  0.1659  0.1801  1.1848
 1653SOL    HW216593   2.493   1.917   2.834 -0.0681 -0.7375 -0.1758
 1654SOL     OW16594   1.344   4.451   8.975 -0.3301  0.0349 -0.5967
 1654SOL    HW116595   1.340   4.510   9.051  0.6250  0.8809 -1.2206
 1654SOL    HW216596   1.427   4.408   8.994 -1.0809 -1.0920  0.1546
 1655SOL     OW16597   2.738   0.378   4.174  0.2835 -0.3613  0.1839
 1655SOL    HW116598   2.695   0.323   4.240 -1.8575  0.5372 -0.4980
 1655SOL    HW216599   2.806   0.317   4.143  0.3499  0.3919 -1.1240
 1656SOL     OW16600   3.464   2.118  15.047 -0.5403 -0.2269 -0.4285
 1656SOL    HW116601   3.428   2.178  14.981 -1.4661 -1.1324 -0.7533
 1656SOL    HW216602   3.505   2.065  14.979  0.2326 -0.5434  0.2908
 1657SOL     OW16603   3.265   3.423   1.053 -0.1360 -0.7791 -0.4206
 1657SOL    HW116604   3.267   3.361   1.126 -3.5457 -0.5109 -0.0866
 1657SOL    HW216605   3.297   3.366   0.982  1.4719 -0.4967  0.0705
 1658SOL     OW16606   2.089   3.688   4.495 -0.0356 -0.2323 -0.7128
 1658SOL    HW116607   2.123   3.598   4.496  0.3233 -0.1057 -1.4166
 1658SOL    HW216608   2.168   3.741   4.492 -0.9779  1.1328 -1.9025
 1659SOL     OW16609   3.137   2.028   7.080 -0.1268 -0.2110  0.0696
 1659SOL    HW116610   3.163   2.118   7.096 -0.5953  0.0216 -0.4833
 1659SOL    HW216611   3.225   1.990   7.077  0.6111  1.5217  0.0107
 1660SOL     OW16612   2.805   4.626  10.298 -0.2347 -0.1130 -0.0227
 1660SOL    HW116613   2.764   4.546  10.266 -2.4728  0.7230  0.7844
 1660SOL    HW216614   2.725   4.674  10.318 -0.3195 -0.7390  1.1543
 1661SOL     OW16615   2.986   3.537   6.984 -0.2824  0.2173  0.2253
 1661SOL    HW116616   3.012   3.572   7.069  0.8934  2.3996 -1.0370
 1661SOL    HW216617   3.051   3.585   6.933 -0.8941 -0.1385 -0.9006
 1662SOL     OW16618   1.246   3.211  14.392  0.1797 -0.3188  0.2722
 1662SOL    HW116619   1.156   3.234  14.370  0.8594  1.3360 -0.7641
 1662SOL    HW216620   1.208   3.151  14.456 -1.1909 -0.2881 -0.5117
 1663SOL     OW16621   0.741   0.000   2.679 -0.0601  0.2438  0.6938
 1663SOL    HW116622   0.789   4.660   2.713 -0.3556 -0.8179 -1.2360
 1663SOL    HW216623   0.648   4.723   2.701 -0.7256 -0.8756 -2.6681
 1664SOL     OW16624   1.721   0.444   5.907 -0.3747 -0.0326 -0.1990
 1664SOL    HW116625   1.690   0.530   5.879 -1.6320 -1.1727 -2.3795
 1664SOL    HW216626   1.810   0.452   5.873  0.1570 -0.3992  1.1175
 1665SOL     OW16627   0.951   4.703   1.954  0.9248  0.7279  0.8530
 1665SOL    HW116628   0.955   0.059   1.924  0.8715  0.3877 -0.1693
 1665SOL    HW216629   1.030   4.696   2.007  1.3506 -1.8064 -0.1228
 1666SOL     OW16630   0.019   0.990   6.041  0.1439 -0.3419  0.3226
 1666SOL    HW116631   0.109   1.023   6.033 -0.0008  0.3734  1.6652
 1666SOL    HW216632   4.720   1.050   5.975  3.2398 -0.5749 -1.4724
 1667SOL     OW16633   3.568   1.125  15.480 -0.1756 -0.4172 -0.6602
 1667SOL    HW116634   3.589   1.032  15.480  2.9648  0.2884  3.0545
 1667SOL    HW216635   3.474   1.126  15.463  0.0748  0.0906 -2.0429
 1668SOL     OW16636   1.101   1.491   6.993  0.1465  0.2043 -0.0360
 1668SOL    HW116637   1.100   1.530   6.906  0.1013  0.2850  0.0009
 1668SOL    HW216638   1.107   1.402   6.959 -1.8481  0.1653 -0.2638
 1669SOL     OW16639   0.148   0.485   6.699 -0.2363  0.7455 -0.0651
 1669SOL    HW116640   0.102   0.568   6.687  0.6892  1.0815 -1.2687
 1669SOL    HW216641   0.082   0.428   6.661  1.7347 -0.9384 -0.9892
 1670SOL     OW16642   0.117   0.527   7.825 -0.2231 -0.1146 -0.1466
 1670SOL    HW116643   0.130   0.469   7.750  1.3805  0.6715 -0.4892
 1670SOL    HW216644   0.202   0.571   7.831  0.2169 -1.0633  0.5348
 1671SOL     OW16645   0.131   4.122  11.331  0.1122  0.8270  0.7328
 1671SOL    HW116646   0.129   4.140  11.237  1.6228 -2.7587  0.0174
 1671SOL    HW216647   0.056   4.169  11.370  0.3258  1.9013 -0.1470
 1672SOL     OW16648   2.788   2.384   4.406  0.5242 -0.3651  0.7139
 1672SOL    HW116649   2.772   2.303   4.455  0.3760 -1.3931 -1.0314
 1672SOL    HW216650   2.708   2.431   4.428  1.4640  1.4464  0.2459
 1673SOL     OW16651   0.213   2.380   7.824  0.0919 -0.2262 -0.6460
 1673SOL    HW116652   0.250   2.467   7.811 -0.1576 -0.0858 -0.3964
 1673SOL    HW216653   0.129   2.402   7.783  0.2476  2.3467  0.4088
 1674SOL     OW16654   3.440   2.667   3.510  0.4137 -0.3846  0.0929
 1674SOL    HW116655   3.403   2.733   3.568 -0.0971 -0.0005 -0.6735
 1674SOL    HW216656   3.481   2.592   3.554  3.0578 -1.4693 -4.1824
 1675SOL     OW16657   4.467   0.938   5.889 -0.1990 -0.0615  0.0534
 1675SOL    HW116658   4.552   0.931   5.933  0.3834  0.0387 -1.0499
 1675SOL    HW216659   4.489   1.007   5.828  0.0608 -0.3749 -0.2098
 1676SOL     OW16660   4.159   2.787   9.124 -0.5654 -0.2149 -0.6102
 1676SOL    HW116661   4.142   2.878   9.151 -1.9415 -1.3764  2.5373
 1676SOL    HW216662   4.174   2.814   9.034  0.4745 -1.0307 -0.6748
 1677SOL     OW16663   2.838   2.082   2.240 -0.8891  1.1558 -0.3546
 1677SOL    HW116664   2.823   2.079   2.146 -2.2339 -0.1099 -0.1100
 1677SOL    HW216665   2.884   2.165   2.253 -0.3626  0.8186 -0.0965
 1678SOL     OW16666   4.315   3.380   4.824 -0.0818  0.3097 -0.0760
 1678SOL    HW116667   4.303   3.416   4.912  2.0486 -2.7646  1.4920
 1678SOL    HW216668   4.406   3.398   4.801 -0.2608  0.6564 -0.5014
 1679SOL     OW16669   0.316   3.868   5.111 -0.0942  0.0322 -0.0503
 1679SOL    HW116670   0.318   3.828   5.024 -0.2746  1.0921 -0.5374
 1679SOL    HW216671   0.265   3.945   5.087 -0.0330  0.8430  2.4336
 1680SOL     OW16672   4.610   4.642  11.355 -0.3294  0.2571 -0.1819
 1680SOL    HW116673   4.614   4.731  11.389  1.6190 -0.1958  0.7877
 1680SOL    HW216674   4.703   4.625  11.338 -0.3710  0.7884 -0.9624
 1681SOL     OW16675   1.888   0.759  12.262 -0.3648  0.0874 -0.3305
 1681SOL    HW116676   1.958   0.708  12.221 -0.5755 -0.3808 -0.1179
 1681SOL    HW216677   1.932   0.841  12.285  1.2938 -0.6472 -0.8743
 1682SOL     OW16678   2.814   1.729   1.306  0.8257 -0.9628  0.1658
 1682SOL    HW116679   2.881   1.678   1.351  2.3611 -0.5050 -1.5805
 1682SOL    HW216680   2.778   1.663   1.247  0.3329  0.6626 -1.3576
 1683SOL     OW16681   2.960   1.086   3.289 -0.1067 -0.0381 -0.5817
 1683SOL    HW116682   2.959   1.166   3.341 -1.5918  0.0004 -0.6627
 1683SOL    HW216683   3.045   1.053   3.319  0.2351  0.2382 -1.2379
 1684SOL     OW16684   2.507   3.207  10.581 -0.5391  0.8243 -0.0269
 1684SOL    HW116685   2.444   3.138  10.601  0.9445 -0.3201  0.7042
 1684SOL    HW216686   2.488   3.273  10.647 -3.2557 -1.3312  1.3186
 1685SOL     OW16687   4.032   0.123  13.080  0.0304 -0.4882  0.2254
 1685SOL    HW116688   4.080   0.136  13.162 -1.0687 -0.5808  0.8823
 1685SOL    HW216689   3.967   0.057  13.102 -0.7580  0.1359 -0.2210
 1686SOL     OW16690   0.931   1.838  15.064  0.1424 -0.1405  0.3207
 1686SOL    HW116691   0.948   1.796  14.980  2.0099 -0.1005  0.6822
 1686SOL    HW216692   1.017   1.850  15.103  0.9442 -0.4009 -1.3533
 1687SOL     OW16693   0.834   2.967   4.770 -0.4435  0.7131 -0.6031
 1687SOL    HW116694   0.830   2.872   4.771  0.8581  0.6625  0.6800
 1687SOL    HW216695   0.873   3.003   4.690 -1.2909  1.4508 -0.6825
 1688SOL     OW16696   0.077   1.731  11.709  0.1450 -0.4491  0.2651
 1688SOL    HW116697   0.167   1.743  11.679  0.2998 -0.1663  0.8579
 1688SOL    HW216698   0.092   1.691  11.795 -0.2670 -1.5564 -0.1702
 1689SOL     OW16699   3.599   2.034   5.961  0.1182  0.2018  0.1392
 1689SOL    HW116700   3.549   1.991   5.892 -0.8775  1.9147 -0.1977
 1689SOL    HW216701   3.563   2.119   5.935  0.9541  0.9509  1.3638
 1690SOL     OW16702   0.173   0.239  15.804 -0.0092 -0.9326 -0.1216
 1690SOL    HW116703   0.227   0.307  15.845  0.0352  0.4143 -2.3706
 1690SOL    HW216704   0.180   0.271  15.713 -2.1140 -1.1818 -0.3877
 1691SOL     OW16705   2.533   3.896   4.785 -0.1891  0.8631 -0.1635
 1691SOL    HW116706   2.490   3.865   4.706 -0.4538 -0.2501  0.4257
 1691SOL    HW216707   2.523   3.992   4.781 -1.3642  0.6438 -2.4241
 1692SOL     OW16708   1.527   3.541   9.770 -0.0591 -0.2013 -0.2407
 1692SOL    HW116709   1.467   3.531   9.844 -1.7048 -0.9813 -1.6779
 1692SOL    HW216710   1.562   3.626   9.796 -1.9432 -0.1186  2.1299
 1693SOL     OW16711   3.227   4.398   7.052 -0.3064  0.0071  0.6640
 1693SOL    HW116712   3.151   4.405   7.109  1.1469 -0.7652  2.6865
 1693SOL    HW216713   3.224   4.305   7.032 -1.6198  0.2614 -0.3004
 1694SOL     OW16714   3.051   0.252   5.005 -0.5397  0.1525 -0.3867
 1694SOL    HW116715   3.120   0.295   5.056 -0.2851 -1.6115  0.7490
 1694SOL    HW216716   2.973   0.275   5.056 -0.1759  0.5620 -0.0171
 1695SOL     OW16717   3.653   3.618  16.542 -0.7383  0.4983  0.9020
 1695SOL    HW116718   3.701   3.545  16.580  1.7582  2.7100  2.0028
 1695SOL    HW216719   3.641   3.581  16.455 -2.1219  0.1442  1.2384
 1696SOL     OW16720   1.326   3.151   7.250  0.0292  0.3755 -0.5484
 1696SOL    HW116721   1.298   3.080   7.192  1.1073  1.6727 -2.6456
 1696SOL    HW216722   1.249   3.207   7.248  0.1758  0.5440 -1.6518
 1697SOL     OW16723   3.637   4.351   2.863 -0.2365 -0.1196 -0.7305
 1697SOL    HW116724   3.678   4.296   2.929 -0.4557  1.1869  0.5042
 1697SOL    HW216725   3.596   4.418   2.918 -0.6876  0.2526 -1.5298
 1698SOL     OW16726   4.433   0.683   2.278  0.2075  0.0904  0.5002
 1698SOL    HW116727   4.437   0.627   2.200  1.7611 -0.5597  1.0357
 1698SOL    HW216728   4.400   0.768   2.252 -1.0860 -0.4634  0.3494
 1699SOL     OW16729   2.772   1.084   4.638  0.7115 -0.3110  0.4677
 1699SOL    HW116730   2.729   1.001   4.656  0.9634 -0.5256  0.0654
 1699SOL    HW216731   2.784   1.069   4.544  3.3901  1.4688  0.5311
 1700SOL     OW16732   1.559   2.499   0.571 -0.1419  0.2243 -0.1837
 1700SOL    HW116733   1.650   2.524   0.552  0.3062 -0.0824  1.4747
 1700SOL    HW216734   1.569   2.407   0.594 -0.9397  0.2374  0.2169
 1701SOL     OW16735   1.307   3.427   6.553  0.7994  0.4496 -0.5033
 1701SOL    HW116736   1.241   3.496   6.560 -1.0040 -1.4644  1.2284
 1701SOL    HW216737   1.263   3.355   6.597  0.6112  0.3453 -0.8582
 1702SOL     OW16738   1.427   2.939   3.581  0.3284  0.1859  0.0766
 1702SOL    HW116739   1.432   2.965   3.489  2.0239  0.5898  0.2810
 1702SOL    HW216740   1.352   2.994   3.605  0.1147 -0.8374  1.7957
 1703SOL     OW16741   4.674   2.051  11.675  0.4189 -0.5551 -0.4256
 1703SOL    HW116742   0.014   1.995  11.654  1.5256  0.4996  0.6966
 1703SOL    HW216743   4.712   2.126  11.720 -0.1116 -0.7450  0.3353
 1704SOL     OW16744   2.080   2.346  14.135  0.8813 -0.3024  0.1614
 1704SOL    HW116745   2.119   2.433  14.129 -3.3033  1.5991  1.0079
 1704SOL    HW216746   2.160   2.298  14.112  0.3794 -1.6883  1.3214
 1705SOL     OW16747   3.654   0.310  11.196 -0.2639  0.5618 -0.5605
 1705SOL    HW116748   3.598   0.235  11.173  0.1531 -0.0105  0.2848
 1705SOL    HW216749   3.694   0.268  11.272  1.7300  1.0831 -1.3282
 1706SOL     OW16750   4.635   1.846   7.638  0.1043  0.1480  0.3478
 1706SOL    HW116751   4.618   1.926   7.589  2.5144 -0.3262 -1.2305
 1706SOL    HW216752   4.693   1.886   7.702  0.4850 -0.5766  0.4671
 1707SOL     OW16753   1.111   0.970   3.888  0.8676 -0.3040  0.4177
 1707SOL    HW116754   1.169   1.045   3.904 -1.0847  1.2714  0.0765
 1707SOL    HW216755   1.101   0.961   3.794 -0.1398  1.5919  0.3569
 1708SOL     OW16756   2.871   2.967   7.751 -0.0190  0.5531  0.7047
 1708SOL    HW116757   2.946   2.908   7.741 -0.5127 -0.3268  2.2275
 1708SOL    HW216758   2.822   2.917   7.816  0.2527 -1.4879 -0.6542
 1709SOL     OW16759   4.719   0.700   6.379 -0.1057 -0.1628  0.4071
 1709SOL    HW116760   4.706   0.606   6.388  0.5754 -0.3151 -0.1316
 1709SOL    HW216761   0.080   0.702   6.370 -0.2093  0.9351 -0.4655
 1710SOL     OW16762   2.604   0.971   5.408 -0.4109 -0.2302  0.1490
 1710SOL    HW116763   2.652   1.004   5.484 -1.1033  0.0848  0.4581
 1710SOL    HW216764   2.602   0.881   5.441  2.7262 -0.2824  0.1309
 1711SOL     OW16765   3.582   1.892   5.530 -0.3300  0.7644  0.7216
 1711SOL    HW116766   3.526   1.836   5.476  1.2158 -0.8394  0.8021
 1711SOL    HW216767   3.532   1.884   5.611 -1.9972 -0.1148 -0.3822
 1712SOL     OW16768   2.702   3.335   5.894  0.1705 -0.0579  0.0731
 1712SOL    HW116769   2.722   3.416   5.941  0.2511  0.3877 -0.7296
 1712SOL    HW216770   2.679   3.276   5.965 -2.2471 -0.9802 -1.4917
 1713SOL     OW16771   1.711   3.745   9.877 -0.4687 -0.3298 -0.5404
 1713SOL    HW116772   1.791   3.693   9.872 -0.0187  0.2973  0.0717
 1713SOL    HW216773   1.714   3.822   9.821 -0.6612  0.4935  0.5822
 1714SOL     OW16774   3.892   3.388   7.337  0.1579  0.2257  0.1469
 1714SOL    HW116775   3.911   3.366   7.428  1.1902  1.0344  0.1320
 1714SOL    HW216776   3.966   3.448   7.329  1.8164 -1.8777 -0.3034
 1715SOL     OW16777   1.038   3.238   0.039  0.0661 -0.0910  0.5076
 1715SOL    HW116778   1.040   3.223  17.682 -4.9339 -0.7229  0.4801
 1715SOL    HW216779   1.079   3.160   0.076 -0.8390 -0.8575 -0.1035
 1716SOL     OW16780   1.157   1.914   4.498  0.2429  0.1116 -0.4659
 1716SOL    HW116781   1.165   1.822   4.475 -0.0441 -0.1212  0.3594
 1716SOL    HW216782   1.082   1.910   4.557  0.1214  2.5881 -0.4496
 1717SOL     OW16783   2.123   3.067   3.052  0.8389 -0.2961 -0.2903
 1717SOL    HW116784   2.078   3.065   2.967 -2.1028 -2.0279  1.3212
 1717SOL    HW216785   2.142   2.976   3.072 -1.4961 -1.0876 -1.6077
 1718SOL     OW16786   0.712   2.233  17.235 -0.0717 -0.0590  0.4220
 1718SOL    HW116787   0.651   2.167  17.201  2.2947 -1.0849 -1.8768
 1718SOL    HW216788   0.686   2.234  17.327  0.9955  0.6402  0.7121
 1719SOL     OW16789   0.555   4.345   0.972  0.6076  0.1475  0.1888
 1719SOL    HW116790   0.549   4.267   0.918  4.6380 -0.2301  0.3088
 1719SOL    HW216791   0.624   4.392   0.925  0.0498  0.3509 -0.4241
 1720SOL     OW16792   4.049   2.193  16.336  0.7412  0.6289  0.1426
 1720SOL    HW116793   4.124   2.137  16.316 -0.8446 -1.2305 -0.5510
 1720SOL    HW216794   4.034   2.238  16.253 -0.8349  1.4554  0.8802
 1721SOL     OW16795   2.269   2.510  10.388 -0.0375 -0.1220 -0.6617
 1721SOL    HW116796   2.262   2.469  10.302 -1.0025 -0.5298 -0.3879
 1721SOL    HW216797   2.218   2.461  10.453  0.7771 -0.7077 -0.4522
 1722SOL     OW16798   1.284   3.777  11.895  0.6793 -0.2070  0.4977
 1722SOL    HW116799   1.340   3.777  11.972 -0.5174  1.6497  1.3828
 1722SOL    HW216800   1.241   3.863  11.891  1.1138  0.0284  0.8900
 1723SOL     OW16801   0.789   4.267   5.870 -0.1668  0.0793 -0.0845
 1723SOL    HW116802   0.753   4.332   5.930 -0.8512  1.1065 -1.6192
 1723SOL    HW216803   0.882   4.286   5.875 -0.4892  1.4247  0.7690
 1724SOL     OW16804   1.099   2.493   5.075 -0.2372  0.1338 -0.2547
 1724SOL    HW116805   1.100   2.401   5.046  0.7303  0.4904 -1.3295
 1724SOL    HW216806   1.014   2.509   5.116  0.1164 -2.6418  1.5574
 1725SOL     OW16807   3.812   0.395  13.076  0.6344 -0.3108 -0.3072
 1725SOL    HW116808   3.770   0.474  13.112 -1.3230 -0.7713 -1.5905
 1725SOL    HW216809   3.898   0.406  13.115 -0.0044  1.6142  0.5970
 1726SOL     OW16810   1.994   2.405   5.713 -0.1442 -0.2312 -0.0210
 1726SOL    HW116811   1.924   2.408   5.648  1.2296  1.4685 -1.4537
 1726SOL    HW216812   2.018   2.313   5.705  0.3780 -0.1043  0.0531
 1727SOL     OW16813   4.432   0.562  11.263 -0.6060 -0.1150  0.4266
 1727SOL    HW116814   4.505   0.519  11.219 -2.0135 -1.2367 -0.8533
 1727SOL    HW216815   4.366   0.555  11.194 -1.1074 -1.6462  1.0644
 1728SOL     OW16816   0.418   3.465   1.283  0.1686 -0.2248  0.2486
 1728SOL    HW116817   0.451   3.377   1.266 -2.2199 -1.1048  0.2095
 1728SOL    HW216818   0.484   3.527   1.250 -1.8086  1.1427 -1.1622
 1729SOL     OW16819   4.139   3.858  14.147 -0.1854 -0.3036  0.4427
 1729SOL    HW116820   4.216   3.912  14.163 -1.2031  1.3436 -0.2062
 1729SOL    HW216821   4.072   3.921  14.119 -0.9408 -1.3941 -0.2164
 1730SOL     OW16822   1.536   0.724   6.616  0.2448  0.5177 -0.4992
 1730SOL    HW116823   1.524   0.811   6.577  0.8517  0.5393 -0.6310
 1730SOL    HW216824   1.609   0.685   6.569 -0.5679 -0.3407 -1.0506
 1731SOL     OW16825   3.048   1.878   6.691  0.4960  0.2199 -0.1583
 1731SOL    HW116826   3.028   1.904   6.601 -1.1679  0.0446  0.1630
 1731SOL    HW216827   3.059   1.970   6.714 -1.8080 -0.3376  3.3258
 1732SOL     OW16828   3.633   1.499   7.033  0.0156 -0.6518  1.2937
 1732SOL    HW116829   3.602   1.527   7.119 -2.8203  1.0346 -0.3023
 1732SOL    HW216830   3.723   1.533   7.035 -0.2971  0.2862 -1.0829
 1733SOL     OW16831   4.183   4.338  11.028  0.5825  0.4126  0.2839
 1733SOL    HW116832   4.099   4.295  11.046  0.5272  0.1465 -0.5770
 1733SOL    HW216833   4.175   4.421  11.075  1.9462 -0.0919  1.3829
 1734SOL     OW16834   1.070   1.164  13.823 -0.2167  0.5970 -0.3709
 1734SOL    HW116835   1.120   1.116  13.890  1.6664 -0.4509 -2.5062
 1734SOL    HW216836   0.990   1.113  13.835 -0.1273  0.3357 -0.8668
 1735SOL     OW16837   2.920   3.480   4.175  0.7857 -0.6658  0.0728
 1735SOL    HW116838   2.929   3.388   4.198 -1.2788 -1.6338 -3.0478
 1735SOL    HW216839   2.888   3.507   4.261  0.1440 -0.7636 -0.1391
 1736SOL     OW16840   1.029   2.176   4.407  0.8251 -0.1356 -0.5584
 1736SOL    HW116841   1.076   2.095   4.426 -0.4529 -0.8509 -0.4766
 1736SOL    HW216842   1.097   2.222   4.359 -1.4984 -0.3330 -4.0388
 1737SOL     OW16843   3.015   1.777   4.119  0.3055 -0.5482  0.2035
 1737SOL    HW116844   3.097   1.729   4.128  1.4224  1.2908 -0.1936
 1737SOL    HW216845   3.049   1.863   4.093 -0.3199  0.2661  2.0974
 1738SOL     OW16846   4.317   3.555   8.898 -0.3973  0.0475 -0.1078
 1738SOL    HW116847   4.268   3.549   8.980 -1.1297 -2.5715 -0.7385
 1738SOL    HW216848   4.292   3.641   8.865 -0.3514  0.3083  0.5524
 1739SOL     OW16849   4.006   0.928   2.413  0.4632  0.5716 -0.4116
 1739SOL    HW116850   4.099   0.910   2.399  0.0997 -1.0698 -0.6943
 1739SOL    HW216851   3.993   0.912   2.507 -2.6817 -0.5253 -1.0399
 1740SOL     OW16852   4.102   3.895   8.383 -0.0030  0.1211  0.2441
 1740SOL    HW116853   4.197   3.893   8.375 -0.0986  0.6526 -1.0732
 1740SOL    HW216854   4.096   3.873   8.476  0.5076  2.1157  0.7575
 1741SOL     OW16855   1.610   2.881   8.104  0.2371 -0.4870 -0.1077
 1741SOL    HW116856   1.528   2.841   8.073  1.3892 -2.6361 -0.3924
 1741SOL    HW216857   1.654   2.806   8.144  0.0851 -0.4485  0.1294
 1742SOL     OW16858   2.314   3.085  13.307  0.5638  0.5226 -0.6589
 1742SOL    HW116859   2.367   3.120  13.379  0.2839 -0.0881 -0.1612
 1742SOL    HW216860   2.263   3.162  13.281  1.8369  1.7865  0.5550
 1743SOL     OW16861   4.382   1.594  14.906  0.1223 -0.3725 -0.6082
 1743SOL    HW116862   4.457   1.556  14.953 -1.3745 -1.8623  0.5803
 1743SOL    HW216863   4.318   1.598  14.977  0.7860 -0.2613 -0.0187
 1744SOL     OW16864   2.637   3.179   0.835 -0.3937 -0.1261 -0.0889
 1744SOL    HW116865   2.692   3.170   0.914 -1.4872  0.5949  0.7386
 1744SOL    HW216866   2.685   3.248   0.790 -1.0517  0.3003 -0.1199
 1745SOL     OW16867   4.033   1.751   6.858  0.0744 -0.8691  0.4428
 1745SOL    HW116868   4.034   1.770   6.764  1.1900  0.5515  0.7338
 1745SOL    HW216869   3.988   1.667   6.859  1.3621 -1.5410  1.4896
 1746SOL     OW16870   3.202   4.509   5.536  0.1736 -0.1341 -0.1313
 1746SOL    HW116871   3.170   4.477   5.451 -1.2189  3.4274 -0.9553
 1746SOL    HW216872   3.147   4.587   5.544 -2.1312 -1.6020 -1.7480
 1747SOL     OW16873   1.120   2.223   5.100  0.3850  0.0653 -0.0736
 1747SOL    HW116874   1.151   2.155   5.159 -1.0562 -1.4509 -1.0696
 1747SOL    HW216875   1.104   2.160   5.030  0.7636  1.3439 -1.3017
 1748SOL     OW16876   3.260   1.750  17.531  0.0696 -0.0205  0.2344
 1748SOL    HW116877   3.311   1.824  17.564  0.4869  0.0562 -0.5709
 1748SOL    HW216878   3.196   1.739  17.601  0.2259 -1.4373  0.1610
 1749SOL     OW16879   0.950   3.122   6.444 -0.4043 -0.3999  0.3420
 1749SOL    HW116880   1.005   3.077   6.381  0.7562  0.8628  0.4472
 1749SOL    HW216881   0.947   3.206   6.398 -0.7649 -0.6716 -0.1315
 1750SOL     OW16882   1.355   1.831   9.120 -0.3156 -0.4064  0.3086
 1750SOL    HW116883   1.321   1.877   9.043 -0.1506 -0.5294  0.1618
 1750SOL    HW216884   1.300   1.753   9.120 -0.7574 -0.1046  3.1130
 1751SOL     OW16885   2.036   3.813   9.882 -0.9321  0.0254 -0.3719
 1751SOL    HW116886   2.108   3.800   9.820 -0.3443  1.8273 -0.0521
 1751SOL    HW216887   2.009   3.896   9.843 -0.2687  0.7102  0.6090
 1752SOL     OW16888   3.729   0.057   2.157  0.8374 -0.6320  0.1631
 1752SOL    HW116889   3.772   0.002   2.091 -0.1842 -2.6740  1.2199
 1752SOL    HW216890   3.742   0.144   2.119  0.1005 -0.7202 -0.2882
 1753SOL     OW16891   2.900   0.623   6.160 -0.8159  0.0450 -0.3181
 1753SOL    HW116892   2.977   0.578   6.127 -0.7641  0.5888 -0.9445
 1753SOL    HW216893   2.904   0.603   6.253  0.8129 -1.0921 -0.6416
 1754SOL     OW16894   2.672   2.373  14.893  0.1134  0.3382  0.2686
 1754SOL    HW116895   2.626   2.355  14.811  0.4336 -0.0159  0.1668
 1754SOL    HW216896   2.713   2.459  14.891  0.7283  0.0444  0.1313
 1755SOL     OW16897   3.422   3.666  15.338  0.6002 -0.3686  0.3335
 1755SOL    HW116898   3.437   3.613  15.260 -1.3408  0.0022 -0.3091
 1755SOL    HW216899   3.441   3.623  15.421 -1.0395 -1.6188  0.0678
 1756SOL     OW16900   3.898   2.539   7.614  0.3492  0.6528  0.1024
 1756SOL    HW116901   3.901   2.452   7.654  1.3710  0.6022 -0.0903
 1756SOL    HW216902   3.829   2.519   7.550  0.7445  0.9694 -0.4274
 1757SOL     OW16903   1.695   0.003   2.743  0.1751 -0.3237 -0.1037
 1757SOL    HW116904   1.681   0.073   2.679  0.2024  0.1384  0.3954
 1757SOL    HW216905   1.768   4.685   2.712  0.1027 -0.3963 -0.1495
 1758SOL     OW16906   0.726   0.459  15.564  0.8224  0.3643 -1.1025
 1758SOL    HW116907   0.795   0.521  15.541  2.1023 -0.2071  1.1800
 1758SOL    HW216908   0.663   0.495  15.501 -1.6904 -1.3558  0.4248
 1759SOL     OW16909   4.186   4.295   6.465 -0.1671  0.3651 -0.5246
 1759SOL    HW116910   4.137   4.267   6.388 -0.4802 -0.6967  0.0597
 1759SOL    HW216911   4.270   4.255   6.444 -0.3139 -1.3212  2.0881
 1760SOL     OW16912   1.782   2.756   3.408  0.4986 -0.4322 -0.4539
 1760SOL    HW116913   1.716   2.739   3.475  1.5896  0.9131  0.9724
 1760SOL    HW216914   1.853   2.806   3.448 -0.4630 -0.2793  1.0770
 1761SOL     OW16915   3.735   0.730   2.991  0.3813 -0.0036  0.6066
 1761SOL    HW116916   3.784   0.648   2.995  0.1701 -0.1891 -0.7207
 1761SOL    HW216917   3.808   0.772   2.945  0.8821 -1.5065  0.0271
 1762SOL     OW16918   3.781   0.837   4.156  0.6583  0.6349 -0.4219
 1762SOL    HW116919   3.804   0.744   4.155  0.2982  0.5172  2.4904
 1762SOL    HW216920   3.697   0.825   4.112  0.0848 -0.3257  0.9118
 1763SOL     OW16921   3.894   2.504  10.150  0.2457  0.1180 -0.4630
 1763SOL    HW116922   3.879   2.550  10.233  0.9894  0.9634 -0.7963
 1763SOL    HW216923   3.803   2.498  10.119 -0.0640  0.3319  0.4025
 1764SOL     OW16924   1.312   1.812   5.415 -0.2048  0.0805 -0.1786
 1764SOL    HW116925   1.308   1.799   5.320 -0.7762 -2.2578  0.1759
 1764SOL    HW216926   1.222   1.792   5.442 -0.2797  0.8281  0.1312
 1765SOL     OW16927   1.935   0.860   2.127 -0.2349  0.4018 -0.5775
 1765SOL    HW116928   1.877   0.872   2.202  0.8284  0.2156  0.2681
 1765SOL    HW216929   1.883   0.903   2.059 -2.2982 -0.4582  0.4471
 1766SOL     OW16930   3.604   3.793   3.341  0.1523 -0.5175 -0.3200
 1766SOL    HW116931   3.545   3.775   3.414  1.7211 -0.6533  0.9319
 1766SOL    HW216932   3.610   3.710   3.293  1.0301  0.3023 -1.6317
 1767SOL     OW16933   4.340   2.090   4.460 -0.2254  0.2574 -0.1582
 1767SOL    HW116934   4.379   2.111   4.375  1.0763 -2.0266 -0.1143
 1767SOL    HW216935   4.262   2.147   4.459 -0.6329 -0.3322 -1.5434
 1768SOL     OW16936   3.376   3.794   7.515  0.0976  0.2570 -0.3647
 1768SOL    HW116937   3.424   3.795   7.598  0.8360  3.8945 -0.8225
 1768SOL    HW216938   3.418   3.869   7.473 -1.7513  0.8435 -1.1670
 1769SOL     OW16939   3.863   4.364   8.468 -0.1361  0.2568  0.4138
 1769SOL    HW116940   3.916   4.291   8.433 -0.0613 -1.0375  3.2150
 1769SOL    HW216941   3.786   4.317   8.498 -1.1310  2.0835  0.6998
 1770SOL     OW16942   0.659   3.141   3.942 -0.2033 -0.4016  0.0405
 1770SOL    HW116943   0.680   3.101   4.026 -1.5348  0.6997  0.8914
 1770SOL    HW216944   0.660   3.059   3.893 -0.8489  0.1962 -0.9795
 1771SOL     OW16945   2.836   4.630   0.174  0.0401 -0.4422 -0.1981
 1771SOL    HW116946   2.783   4.551   0.163 -0.2902 -0.3776  0.8546
 1771SOL    HW216947   2.889   4.636   0.095 -0.9159 -2.6568 -1.0117
 1772SOL     OW16948   0.359   1.554   1.383 -0.3553  0.1179  1.0543
 1772SOL    HW116949   0.272   1.593   1.381  0.1423  1.2348  1.1255
 1772SOL    HW216950   0.416   1.629   1.368 -1.6475  0.8833 -0.0017
 1773SOL     OW16951   1.869   3.658   6.629 -0.2900 -0.7194 -0.2381
 1773SOL    HW116952   1.883   3.752   6.627  0.5248 -0.8709 -2.0081
 1773SOL    HW216953   1.856   3.642   6.722  2.0534  2.1948  0.5510
 1774SOL     OW16954   3.772   3.103   9.827 -0.0976 -0.5369 -0.0355
 1774SOL    HW116955   3.813   3.166   9.886 -0.0608 -0.3846 -0.2212
 1774SOL    HW216956   3.822   3.026   9.852 -1.6356 -0.9847  1.6025
 1775SOL     OW16957   1.950   3.870   6.979  0.1916  0.6494 -0.3792
 1775SOL    HW116958   1.935   3.953   6.933  0.9405  0.5147 -0.8815
 1775SOL    HW216959   1.869   3.824   6.958 -0.8755  1.5935  1.6597
 1776SOL     OW16960   1.905   4.056  11.733 -0.0330  0.4739 -0.3516
 1776SOL    HW116961   1.922   4.022  11.645 -2.2334 -0.8390 -0.2765
 1776SOL    HW216962   1.994   4.043  11.767  0.3339 -0.1854 -1.5576
 1777SOL     OW16963   0.125   2.631   0.499  0.1218 -0.0830  0.0246
 1777SOL    HW116964   0.126   2.688   0.576  2.9022  1.1020 -0.8946
 1777SOL    HW216965   0.216   2.637   0.469 -0.1825 -1.0433 -1.1061
 1778SOL     OW16966   3.704   2.538   5.417 -0.0858  0.0232  0.1590
 1778SOL    HW116967   3.797   2.538   5.393  0.0338 -3.5323  0.6479
 1778SOL    HW216968   3.670   2.448   5.411  0.9346 -0.3779  0.4135
 1779SOL     OW16969   0.594   0.885   4.766  0.0449  0.1304  0.3786
 1779SOL    HW116970   0.688   0.873   4.753 -0.1557  1.2136 -2.1629
 1779SOL    HW216971   0.563   0.842   4.687  0.0329  2.3370 -0.8156
 1780SOL     OW16972   3.122   4.380   4.392  0.3014  0.0803  0.2770
 1780SOL    HW116973   3.074   4.433   4.328 -1.2068 -1.5999  0.0040
 1780SOL    HW216974   3.049   4.327   4.424 -0.7014  1.1531 -0.2207
 1781SOL     OW16975   3.504   0.958   7.781  0.1279  0.1934  0.0738
 1781SOL    HW116976   3.465   0.963   7.868 -0.7902  0.0775 -0.3402
 1781SOL    HW216977   3.577   1.020   7.788  0.0993  0.4394 -1.7391
 1782SOL     OW16978   3.024   2.688   5.581 -0.6556  0.4667  0.8883
 1782SOL    HW116979   3.107   2.734   5.570  1.2220 -3.5641 -1.9843
 1782SOL    HW216980   2.963   2.755   5.550  1.0000  1.8188  0.5236
 1783SOL     OW16981   3.171   1.192  17.332 -0.1534 -0.5985  0.0795
 1783SOL    HW116982   3.232   1.230  17.394  0.0370 -0.9607  0.1173
 1783SOL    HW216983   3.127   1.133  17.393  0.0279 -0.3684  0.4260
 1784SOL     OW16984   3.468   4.530   3.028 -0.5641  0.0416  0.0402
 1784SOL    HW116985   3.489   4.542   3.121  2.3846 -2.4973 -0.2847
 1784SOL    HW216986   3.375   4.550   3.038 -0.2001  0.1998  3.2420
 1785SOL     OW16987   3.789   2.713   4.138 -0.0345  0.0751 -0.0439
 1785SOL    HW116988   3.768   2.661   4.060 -0.0283  2.3160 -1.5255
 1785SOL    HW216989   3.877   2.683   4.161  0.4603 -0.2547 -2.3287
 1786SOL     OW16990   0.997   0.204   2.431 -0.2744 -0.4461 -0.2961
 1786SOL    HW116991   1.089   0.215   2.407  0.2499 -2.7919  0.5856
 1786SOL    HW216992   0.973   0.115   2.406  0.7762 -0.7425 -0.2144
 1787SOL     OW16993   2.260   3.353   3.557 -0.0572  0.2295 -0.3562
 1787SOL    HW116994   2.300   3.440   3.559  0.1866  0.1262 -0.9332
 1787SOL    HW216995   2.261   3.341   3.462  1.2021  0.6132 -0.3915
 1788SOL     OW16996   0.708   1.455   4.549 -0.2963 -0.0714 -0.0242
 1788SOL    HW116997   0.633   1.402   4.574 -0.4114 -0.2795 -0.8073
 1788SOL    HW216998   0.667   1.541   4.542 -1.2536 -0.6678 -1.5780
 1789SOL     OW16999   3.700   1.395  16.862 -0.7370 -0.0131 -0.2488
 1789SOL    HW117000   3.675   1.397  16.955 -1.5262 -0.9667 -0.4371
 1789SOL    HW217001   3.671   1.305  16.846 -1.0581  0.2601 -1.1685
 1790SOL     OW17002   4.012   4.064   2.003  0.0152 -0.0985 -0.0090
 1790SOL    HW117003   3.949   3.992   2.009  0.0090 -0.2104 -1.4769
 1790SOL    HW217004   3.995   4.102   1.917  2.1120 -0.4182 -0.5638
 1791SOL     OW17005   1.922   2.546   7.727  0.1281  0.0099 -0.0731
 1791SOL    HW117006   1.992   2.492   7.764 -0.2478  1.8066  3.2517
 1791SOL    HW217007   1.848   2.496   7.761  0.3472 -2.4952 -3.2807
 1792SOL     OW17008   4.454   3.866   5.735  0.5209 -0.3672  0.4250
 1792SOL    HW117009   4.393   3.939   5.748  1.8718  0.6672  0.9765
 1792SOL    HW217010   4.438   3.855   5.641  0.0830 -0.3189  0.4969
 1793SOL     OW17011   0.080   3.710   2.651  0.3253 -0.0313 -0.4716
 1793SOL    HW117012   0.020   3.655   2.599 -0.1207  1.1566 -1.2215
 1793SOL    HW217013   0.153   3.650   2.666  1.0617  0.0152 -3.8557
 1794SOL     OW17014   1.885   0.404   6.846  0.3447 -0.0247 -0.1403
 1794SOL    HW117015   1.906   0.487   6.889 -1.7448  0.1599  0.4762
 1794SOL    HW217016   1.803   0.431   6.806 -0.1386 -0.0843  0.8284
 1795SOL     OW17017   3.271   1.157   6.196 -0.2359 -0.0133 -0.4457
 1795SOL    HW117018   3.253   1.085   6.134 -2.4404 -0.6143  0.8789
 1795SOL    HW217019   3.359   1.170   6.161 -1.1234  0.5561 -2.5111
 1796SOL     OW17020   2.275   2.567   7.152 -0.3183  0.5448  0.0095
 1796SOL    HW117021   2.187   2.554   7.118 -0.5659 -0.4227  1.0575
 1796SOL    HW217022   2.242   2.593   7.238  1.0540  0.5382  0.5377
 1797SOL     OW17023   4.240   2.810  11.298 -0.1731  0.0491  0.2219
 1797SOL    HW117024   4.314   2.751  11.284 -1.0817 -0.7024 -1.3741
 1797SOL    HW217025   4.176   2.756  11.346 -1.0783  0.3750 -0.6274
 1798SOL     OW17026   0.224   3.198   1.444 -0.5897 -0.7692  0.1663
 1798SOL    HW117027   0.298   3.199   1.505 -1.9914 -0.4008  1.8272
 1798SOL    HW217028   0.167   3.139   1.492 -1.4011  0.0309  0.1957
 1799SOL     OW17029   1.273   1.613   8.715 -0.1565 -0.0624  0.0333
 1799SOL    HW117030   1.305   1.566   8.792  0.5468 -0.5893 -0.5824
 1799SOL    HW217031   1.179   1.594   8.715 -0.3065  0.6639 -0.1242
 1800SOL     OW17032   4.634   2.037   7.262 -0.7741  0.2155  0.0175
 1800SOL    HW117033   4.690   1.968   7.229 -1.2075  0.2366 -0.7596
 1800SOL    HW217034   4.596   2.068   7.180 -1.1539  1.5654  0.6868
 1801SOL     OW17035   1.188   2.409  11.389 -0.1473 -0.2793  0.2810
 1801SOL    HW117036   1.121   2.477  11.387 -1.6970 -1.7537  2.7167
 1801SOL    HW217037   1.139   2.331  11.365  1.8185 -1.2379 -0.6548
 1802SOL     OW17038   3.670   3.030   3.890  0.0656  0.1646 -0.2049
 1802SOL    HW117039   3.633   3.035   3.978 -0.3353  0.2111 -0.3732
 1802SOL    HW217040   3.707   2.942   3.892 -0.8236 -0.1841  1.3781
 1803SOL     OW17041   0.602   2.240   1.673 -0.3052  0.0383  0.0367
 1803SOL    HW117042   0.522   2.239   1.620  0.7569 -1.9797 -1.5327
 1803SOL    HW217043   0.659   2.290   1.616 -0.1369  2.7173  2.5841
 1804SOL     OW17044   1.046   4.094   7.700  0.5722  0.3450 -0.1955
 1804SOL    HW117045   1.141   4.083   7.696  0.4459 -1.0757  0.5920
 1804SOL    HW217046   1.032   4.188   7.701  0.7216  0.3625  2.8431
 1805SOL     OW17047   1.683   0.469   4.225 -0.4597 -0.1626  0.0888
 1805SOL    HW117048   1.628   0.443   4.152  0.8735  1.2159 -1.4047
 1805SOL    HW217049   1.769   0.461   4.185 -0.8896  0.0271 -0.8727
 1806SOL     OW17050   4.496   3.727   0.202 -0.4856 -0.4193 -0.1810
 1806SOL    HW117051   4.511   3.680   0.120 -0.0230  0.0540 -0.3661
 1806SOL    HW217052   4.469   3.815   0.177  1.4141  0.3953  0.6814
 1807SOL     OW17053   1.012   3.032   2.252 -0.4082  0.2432 -0.1334
 1807SOL    HW117054   1.090   3.069   2.292 -0.3457  1.0164 -0.9554
 1807SOL    HW217055   0.943   3.038   2.318  1.1787  1.7471  1.3645
 1808SOL     OW17056   1.781   2.628   2.123 -0.0637  0.1917 -0.6212
 1808SOL    HW117057   1.690   2.597   2.120 -0.0312  0.1858 -1.4398
 1808SOL    HW217058   1.762   2.722   2.127 -0.9240 -0.0003 -0.1591
 1809SOL     OW17059   2.556   1.409   4.689  0.2823 -0.0281  0.7077
 1809SOL    HW117060   2.514   1.326   4.667 -1.0571  0.4723  1.3316
 1809SOL    HW217061   2.639   1.393   4.645 -0.1951 -1.5643  0.3578
 1810SOL     OW17062   3.927   0.675   1.840 -0.7874  0.6976 -0.7450
 1810SOL    HW117063   3.842   0.675   1.795  0.0151  1.3761 -2.2409
 1810SOL    HW217064   3.900   0.642   1.926  0.0863  2.9857  0.4036
 1811SOL     OW17065   4.584   3.840   8.271 -0.5791 -0.1642  0.4221
 1811SOL    HW117066   4.678   3.841   8.290 -1.2322 -1.0786  3.7466
 1811SOL    HW217067   4.585   3.898   8.195  1.6042  0.2140  0.7455
 1812SOL     OW17068   0.120   3.817   5.812 -0.2332  0.3086 -0.2435
 1812SOL    HW117069   0.167   3.831   5.731 -1.4254  0.5667 -0.8949
 1812SOL    HW217070   0.195   3.827   5.871  0.1019 -1.9983 -0.2582
 1813SOL     OW17071   0.526   1.144   4.821 -0.0984 -0.4807 -0.1483
 1813SOL    HW117072   0.526   1.178   4.731  1.9462 -1.7661 -0.6321
 1813SOL    HW217073   0.543   1.051   4.812  0.8084 -0.3227 -0.0835
 1814SOL     OW17074   0.633   2.554  10.176 -0.7576 -0.2670 -0.5230
 1814SOL    HW117075   0.614   2.464  10.200 -0.3190  0.2775  1.8389
 1814SOL    HW217076   0.728   2.546  10.168 -0.6301 -0.9247  1.6576
 1815SOL     OW17077   1.635   0.565  11.084 -0.2860 -0.5385 -0.1564
 1815SOL    HW117078   1.693   0.605  11.148 -3.0171  0.2589  1.8200
 1815SOL    HW217079   1.640   0.471  11.102  0.3815 -0.0188  2.3174
 1816SOL     OW17080   3.729   3.099   8.123 -0.4598  0.0541  0.2364
 1816SOL    HW117081   3.683   3.142   8.050 -0.3066  1.3527  0.9002
 1816SOL    HW217082   3.659   3.057   8.173 -1.0614  0.2363 -0.4461
 1817SOL     OW17083   2.310   1.026   5.469  0.2727 -0.0213 -0.6003
 1817SOL    HW117084   2.255   1.063   5.400  0.9658  3.3239  0.5988
 1817SOL    HW217085   2.376   0.987   5.412 -3.3676 -3.0846 -2.7187
 1818SOL     OW17086   0.273   4.488  13.252  0.0535 -0.2125  0.4175
 1818SOL    HW117087   0.360   4.451  13.270  0.9460  0.9954 -1.4459
 1818SOL    HW217088   0.295   4.577  13.227  1.1582 -0.3275  0.9530
 1819SOL     OW17089   3.088   4.717   4.658 -0.2622  0.2266  0.1076
 1819SOL    HW117090   3.066   4.706   4.565  0.2240  1.0327 -0.0994
 1819SOL    HW217091   3.036   4.651   4.704  0.1123  0.2676  0.5793
 1820SOL     OW17092   3.985   2.740   6.472  0.2888 -0.2419  0.0303
 1820SOL    HW117093   4.003   2.720   6.380 -0.7147  0.6374 -0.3568
 1820SOL    HW217094   3.997   2.651   6.506 -1.0625  0.3036  1.9509
 1821SOL     OW17095   3.759   0.350   9.520  0.1068 -0.4835  0.3721
 1821SOL    HW117096   3.692   0.366   9.586 -0.1793  1.6431 -0.4408
 1821SOL    HW217097   3.714   0.361   9.436  0.7766  2.1880  0.3691
 1822SOL     OW17098   1.543   0.900   3.334 -0.3481  0.3514 -0.9543
 1822SOL    HW117099   1.543   0.966   3.265  1.4001 -0.8152 -2.0589
 1822SOL    HW217100   1.611   0.842   3.301 -0.3627 -0.1926 -0.0420
 1823SOL     OW17101   3.980   1.082   5.057 -0.1277  0.2612  0.4334
 1823SOL    HW117102   4.000   1.171   5.030  0.9990 -0.1214  0.0208
 1823SOL    HW217103   3.953   1.042   4.974 -2.4331 -1.5460  2.0567
 1824SOL     OW17104   3.301   0.675   0.468 -0.1319 -0.3079 -0.0761
 1824SOL    HW117105   3.224   0.732   0.458  1.1577  1.4334  0.0380
 1824SOL    HW217106   3.340   0.669   0.381 -0.7085  0.5347 -0.3904
 1825SOL     OW17107   0.167   2.867  17.462  0.7086 -0.1400 -0.1283
 1825SOL    HW117108   0.230   2.818  17.409 -1.2560  1.0009 -3.5273
 1825SOL    HW217109   0.158   2.812  17.539  0.8789 -1.2636 -0.9011
 1826SOL     OW17110   3.613   3.721   7.337 -0.1973 -0.3274 -0.3544
 1826SOL    HW117111   3.692   3.697   7.288  0.1412 -0.1131  0.0835
 1826SOL    HW217112   3.572   3.792   7.287  2.6025  0.7664 -1.1612
 1827SOL     OW17113   1.846   1.497   5.630  1.0835 -0.0751 -0.0088
 1827SOL    HW117114   1.756   1.465   5.635  1.0127 -0.1963 -2.1690
 1827SOL    HW217115   1.846   1.573   5.689  2.3670  0.8432 -1.1699
 1828SOL     OW17116   1.686   4.732   5.255 -0.0595 -0.3487  0.5957
 1828SOL    HW117117   1.736   0.064   5.208  0.7497 -0.4901  1.2636
 1828SOL    HW217118   1.600   0.004   5.212  0.4090 -1.4147 -0.5189
 1829SOL     OW17119   1.208   1.468   4.211 -0.2023 -0.4759  0.1654
 1829SOL    HW117120   1.219   1.373   4.211 -0.8852 -0.5501 -1.9201
 1829SOL    HW217121   1.287   1.496   4.165 -1.5058 -0.7408 -2.2609
 1830SOL     OW17122   3.159   3.910  16.443  0.1393  0.1347 -0.7975
 1830SOL    HW117123   3.107   3.945  16.515 -0.0589 -1.0305 -0.3681
 1830SOL    HW217124   3.128   3.820  16.434  1.4788 -0.3439 -0.5840
 1831SOL     OW17125   4.545   0.816   7.989  0.6769 -0.2682 -0.2638
 1831SOL    HW117126   4.577   0.871   7.918  0.9505  1.6337  1.3451
 1831SOL    HW217127   4.621   0.767   8.021 -0.7720 -1.9596  0.5859
 1832SOL     OW17128   0.584   0.029   5.292  0.2635 -0.6900 -0.4592
 1832SOL    HW117129   0.570   0.073   5.208 -0.3978  0.3942  0.2282
 1832SOL    HW217130   0.603   0.109   5.340  1.3368 -0.3957 -1.3588
 1833SOL     OW17131   3.398   2.802   1.764  0.3226 -0.2334  0.1237
 1833SOL    HW117132   3.473   2.789   1.822  0.5936  0.2473 -0.1194
 1833SOL    HW217133   3.433   2.853   1.691  0.2515 -0.6603 -0.2090
 1834SOL     OW17134   1.870   4.290   7.591  0.2826 -0.1856 -0.4572
 1834SOL    HW117135   1.892   4.359   7.528  1.2417  0.5053  0.6480
 1834SOL    HW217136   1.806   4.237   7.542 -0.2715  0.3572 -0.3223
 1835SOL     OW17137   2.113   3.643   6.951 -0.3467  0.4848 -0.1952
 1835SOL    HW117138   2.091   3.556   6.984  1.2758 -0.4424 -1.5672
 1835SOL    HW217139   2.027   3.685   6.959 -1.6492 -1.8084 -2.0917
 1836SOL     OW17140   4.125   3.595   5.507  0.5114 -0.0512 -0.3692
 1836SOL    HW117141   4.161   3.561   5.590  2.3368 -2.8324 -2.3039
 1836SOL    HW217142   4.108   3.685   5.533 -0.8047 -0.4126  0.0383
 1837SOL     OW17143   1.687   4.614   0.130 -0.1429 -0.1373  0.0887
 1837SOL    HW117144   1.761   4.668   0.105 -0.2419  0.0111  0.1147
 1837SOL    HW217145   1.621   4.683   0.136  0.9137  0.8509  0.1468
 1838SOL     OW17146   0.546   1.724   1.352  0.2556 -0.0475 -0.2731
 1838SOL    HW117147   0.608   1.735   1.424  0.0346 -1.3394  0.1261
 1838SOL    HW217148   0.553   1.810   1.311 -0.5185 -0.3305 -1.0114
 1839SOL     OW17149   2.934   2.486  17.600  0.1617 -0.2577 -0.0071
 1839SOL    HW117150   2.852   2.506  17.646  0.9680 -0.1901  1.3920
 1839SOL    HW217151   2.974   2.571  17.584 -1.0435  0.5747  1.4942
 1840SOL     OW17152   2.157   2.935   3.495 -0.2668 -0.3768  0.4987
 1840SOL    HW117153   2.070   2.970   3.476 -1.8062 -3.4574  1.8764
 1840SOL    HW217154   2.139   2.869   3.562  2.7543 -1.9311 -0.1831
 1841SOL     OW17155   1.054   2.292  17.042 -0.3826  0.0635 -0.8195
 1841SOL    HW117156   0.978   2.349  17.042  0.2115  0.8629 -0.2253
 1841SOL    HW217157   1.051   2.262  17.133 -0.3773  0.5989 -0.6419
 1842SOL     OW17158   4.552   2.304   5.786  0.4174  0.8349  0.1347
 1842SOL    HW117159   4.596   2.343   5.710 -0.6594  0.7523 -0.5269
 1842SOL    HW217160   4.544   2.385   5.836  0.2612  0.7399  0.2630
 1843SOL     OW17161   0.783   3.997   0.288  0.2410  0.2218 -0.0323
 1843SOL    HW117162   0.763   4.025   0.378 -1.7298  0.3311 -0.5209
 1843SOL    HW217163   0.745   3.910   0.298 -0.0350  0.2873 -0.5258
 1844SOL     OW17164   4.387   0.943   6.209  0.2489 -0.0708 -0.8235
 1844SOL    HW117165   4.329   0.913   6.140 -1.5609 -0.7116  0.9879
 1844SOL    HW217166   4.460   0.883   6.195  0.4722  0.0462 -0.1437
 1845SOL     OW17167   3.868   3.568   3.352  0.6526  0.1786  0.1900
 1845SOL    HW117168   3.869   3.584   3.257 -1.6820 -0.8723 -0.0204
 1845SOL    HW217169   3.858   3.659   3.380  0.2383 -0.5613  2.4394
 1846SOL     OW17170   4.721   3.766   3.283  0.0186 -0.0310 -0.0314
 1846SOL    HW117171   4.627   3.750   3.270  0.2085  0.4388 -1.9577
 1846SOL    HW217172   4.719   3.841   3.343  1.0714  0.2654 -0.3765
 1847SOL     OW17173   2.165   0.989   4.913  0.3240  0.0090 -0.2383
 1847SOL    HW117174   2.102   0.929   4.952 -0.6496  1.0113 -0.2642
 1847SOL    HW217175   2.136   1.003   4.823 -1.1371  1.7048  0.4973
 1848SOL     OW17176   2.101   0.978   8.269 -0.6633  0.1989  0.5859
 1848SOL    HW117177   2.109   0.947   8.360  0.3197 -0.7832  0.1583
 1848SOL    HW217178   2.176   1.037   8.276  1.3330 -2.2733 -0.2315
 1849SOL     OW17179   3.385   3.346   1.695  0.2877  0.0867  0.2572
 1849SOL    HW117180   3.389   3.396   1.613 -2.5943  0.8650  0.5847
 1849SOL    HW217181   3.381   3.406   1.770  0.3572  1.2206 -0.6430
 1850SOL     OW17182   3.138   0.219   6.362 -0.1918 -0.4034  1.7672
 1850SOL    HW117183   3.179   0.160   6.426  2.1383 -0.3896  0.2739
 1850SOL    HW217184   3.210   0.211   6.299 -2.1961  0.8063 -0.6254
 1851SOL     OW17185   4.362   1.384   0.516  0.1809 -0.2746  0.0038
 1851SOL    HW117186   4.447   1.374   0.473  0.2897  0.9214 -0.0601
 1851SOL    HW217187   4.374   1.472   0.553 -0.7808  0.0487 -0.4481
 1852SOL     OW17188   3.760   4.321   2.002 -0.4671  0.3545  0.0239
 1852SOL    HW117189   3.754   4.331   1.907 -0.8654  0.2358  0.0392
 1852SOL    HW217190   3.666   4.332   2.017 -0.7581 -0.9032 -0.8565
 1853SOL     OW17191   1.697   0.260   3.203  0.1374 -0.1551  0.3593
 1853SOL    HW117192   1.785   0.232   3.178 -0.8193 -1.6989 -1.2291
 1853SOL    HW217193   1.657   0.228   3.122 -0.0612  3.7297 -1.0552
 1854SOL     OW17194   4.495   4.240   7.404 -0.5147  0.2381  0.1223
 1854SOL    HW117195   4.576   4.287   7.425  1.4236 -1.0775 -4.3443
 1854SOL    HW217196   4.440   4.314   7.380 -0.8982  0.3694  1.4020
 1855SOL     OW17197   2.363   0.164   4.984  0.4113  0.1793 -0.3147
 1855SOL    HW117198   2.302   0.116   4.928 -0.4636 -0.2590  1.0044
 1855SOL    HW217199   2.445   0.144   4.939  0.9336  1.1519  0.1903
 1856SOL     OW17200   3.783   1.035   2.301 -0.1037 -0.4723 -0.1829
 1856SOL    HW117201   3.710   1.036   2.362  0.6335 -1.8692  0.7330
 1856SOL    HW217202   3.855   1.001   2.355  1.0097 -1.9950 -2.6276
 1857SOL     OW17203   2.656   4.410   3.937 -0.6442 -0.0912  0.0354
 1857SOL    HW117204   2.739   4.364   3.952  0.3393  0.9815 -2.1983
 1857SOL    HW217205   2.678   4.456   3.856  1.2654 -0.2876  0.4351
 1858SOL     OW17206   4.149   4.351   4.719 -0.4059 -0.4117 -0.4392
 1858SOL    HW117207   4.189   4.383   4.638  0.0503 -1.8357 -0.7841
 1858SOL    HW217208   4.142   4.429   4.774 -0.2628 -0.9312  0.3198
 1859SOL     OW17209   1.081   0.376  14.373 -0.1011 -0.3785 -0.1040
 1859SOL    HW117210   1.113   0.349  14.287  2.4196  0.7950  0.4841
 1859SOL    HW217211   1.019   0.306  14.394 -0.0902 -0.4818 -0.4230
 1860SOL     OW17212   1.363   0.000  16.954  0.3906  0.5488  0.2582
 1860SOL    HW117213   1.335   4.690  17.033  2.5472 -1.9581 -0.3873
 1860SOL    HW217214   1.457   4.715  16.958 -0.5065 -3.0662  2.6711
 1861SOL     OW17215   3.053   3.365   5.579 -0.0638  0.5199  0.3998
 1861SOL    HW117216   3.015   3.277   5.569 -1.7610  1.4886 -1.7705
 1861SOL    HW217217   3.045   3.378   5.673 -1.7456  0.0620  0.3263
 1862SOL     OW17218   1.200   1.484   5.044 -0.6154 -0.6218  0.7919
 1862SOL    HW117219   1.121   1.467   5.095 -1.1388  1.0847  0.5559
 1862SOL    HW217220   1.183   1.454   4.955  1.5825  0.9565 -0.1545
 1863SOL     OW17221   1.385   3.558  15.136 -0.9908  0.5634 -0.3521
 1863SOL    HW117222   1.318   3.622  15.110 -0.7468  0.2348 -1.7788
 1863SOL    HW217223   1.340   3.493  15.190 -1.7363  1.0453 -0.3904
 1864SOL     OW17224   1.005   4.159   4.871  0.0855  0.6008 -0.5857
 1864SOL    HW117225   0.940   4.100   4.909  2.2596 -1.4685 -0.0900
 1864SOL    HW217226   1.018   4.233   4.931 -0.0684  0.4452 -0.3623
 1865SOL     OW17227   1.176   0.396  13.611 -0.3085 -0.3551 -0.2660
 1865SOL    HW117228   1.168   0.305  13.581 -2.3835 -0.7562  1.5466
 1865SOL    HW217229   1.090   0.424  13.642 -0.2781 -0.4180 -0.1246
 1866SOL     OW17230   1.193   0.654   3.647 -0.0898  0.4876 -0.3051
 1866SOL    HW117231   1.250   0.625   3.718 -1.0705 -0.3957  0.1181
 1866SOL    HW217232   1.256   0.653   3.575 -0.0726  1.2296 -0.2986
 1867SOL     OW17233   1.925   3.501   7.924 -0.0753 -0.5654  0.2409
 1867SOL    HW117234   1.852   3.439   7.930  0.6329 -1.5277 -1.2569
 1867SOL    HW217235   1.996   3.459   7.876  2.5214  1.1965  2.5964
 1868SOL     OW17236   0.897   1.069   7.971  0.2080 -0.2674  0.4454
 1868SOL    HW117237   0.843   1.042   8.045 -2.3774  1.0479 -0.9518
 1868SOL    HW217238   0.873   0.998   7.911  0.4976  1.0943 -1.2943
 1869SOL     OW17239   0.385   4.573   4.082 -0.0610 -0.4505 -0.1491
 1869SOL    HW117240   0.426   4.572   4.169 -0.9845 -3.0103  0.2480
 1869SOL    HW217241   0.298   4.543   4.109 -0.2170 -0.5069 -0.7168
 1870SOL     OW17242   2.960   3.488   8.354  0.0755  0.0244 -0.1996
 1870SOL    HW117243   2.943   3.401   8.391  1.9984  0.9422  2.8508
 1870SOL    HW217244   2.897   3.529   8.413  0.9983 -0.1513  0.9165
 1871SOL     OW17245   3.745   2.965   6.173 -0.3617  0.2850  0.6436
 1871SOL    HW117246   3.749   2.972   6.268  0.5977  0.2250  0.6031
 1871SOL    HW217247   3.832   2.944   6.139 -0.4473  1.1223 -0.0950
 1872SOL     OW17248   0.762   4.572   2.403  0.3716 -0.1619 -0.1368
 1872SOL    HW117249   0.739   4.631   2.475 -1.0262 -0.4178 -0.3703
 1872SOL    HW217250   0.857   4.570   2.412  0.5038  0.2603 -1.4267
 1873SOL     OW17251   1.051   0.968   2.561 -0.5278 -0.4101  0.0903
 1873SOL    HW117252   0.972   0.968   2.507  0.4451  3.6765 -1.3545
 1873SOL    HW217253   1.111   0.959   2.487 -1.6763  1.7932 -1.0986
 1874SOL     OW17254   4.631   3.587   1.588  0.4785  0.0295  0.7843
 1874SOL    HW117255   4.640   3.672   1.631 -1.4504  1.4544 -1.6199
 1874SOL    HW217256   4.687   3.591   1.510 -2.4002  0.6309 -1.2564
 1875SOL     OW17257   0.501   3.530   7.892  0.5233 -0.5253 -0.5336
 1875SOL    HW117258   0.540   3.455   7.846  0.8615  0.8804 -2.5644
 1875SOL    HW217259   0.564   3.601   7.886  2.2359 -1.8524  2.2071
 1876SOL     OW17260   4.353   1.079  15.902  0.3138  0.0033 -0.1983
 1876SOL    HW117261   4.280   1.098  15.961  0.4073 -1.9850  0.5623
 1876SOL    HW217262   4.401   1.160  15.919  1.5535 -0.9321  0.8120
 1877SOL     OW17263   2.140   3.483   8.357 -0.3340  0.1131  0.0756
 1877SOL    HW117264   2.051   3.449   8.360 -0.4443  0.4104  0.2302
 1877SOL    HW217265   2.178   3.410   8.407  0.2178  1.7975  2.1196
 1878SOL     OW17266   1.405   0.312  10.445 -0.1920 -0.5111  0.2437
 1878SOL    HW117267   1.492   0.342  10.472  0.1704  0.5876 -2.0954
 1878SOL    HW217268   1.368   0.377  10.386  0.9183 -0.0816  0.0294
 1879SOL     OW17269   3.603   3.195   6.548 -0.1408  0.2759  0.7364
 1879SOL    HW117270   3.663   3.146   6.604  0.4082 -1.5761 -1.4379
 1879SOL    HW217271   3.514   3.165   6.567  0.3454 -1.9281 -0.4106
 1880SOL     OW17272   2.896   1.168   4.326  0.9662 -0.4614  0.3897
 1880SOL    HW117273   2.807   1.193   4.352  0.7512 -0.1863 -0.5698
 1880SOL    HW217274   2.878   1.092   4.270  1.7869  1.1009 -2.0293
 1881SOL     OW17275   3.577   1.750   6.390 -0.4169  0.2047  0.2628
 1881SOL    HW117276   3.644   1.686   6.415 -0.1352  1.4505  2.6892
 1881SOL    HW217277   3.621   1.786   6.314 -0.3097  2.3744  1.3651
 1882SOL     OW17278   3.939   2.184   6.366  0.6414  0.4111  0.1796
 1882SOL    HW117279   3.887   2.124   6.419 -1.2866 -0.2785 -2.5293
 1882SOL    HW217280   4.022   2.178   6.414  0.9009  0.8371 -0.2091
 1883SOL     OW17281   3.335   2.629   2.672  0.0130  1.0393  0.4870
 1883SOL    HW117282   3.430   2.617   2.669 -0.1657 -0.1541 -0.1181
 1883SOL    HW217283   3.315   2.544   2.634 -1.6107  1.8468 -0.4424
 1884SOL     OW17284   2.040   3.508   5.737 -0.1019  0.1437 -0.0499
 1884SOL    HW117285   1.962   3.539   5.783 -0.1947 -0.5901  0.2904
 1884SOL    HW217286   2.020   3.415   5.721  2.1109 -0.2869 -0.3548
 1885SOL     OW17287   0.354   4.239   1.994 -0.4562 -0.2547 -0.2571
 1885SOL    HW117288   0.444   4.265   1.976 -0.1041 -1.1304  0.2885
 1885SOL    HW217289   0.310   4.309   1.945 -2.8421 -1.5924 -0.0547
 1886SOL     OW17290   3.929   1.588   5.650 -0.1777 -0.0519 -0.5233
 1886SOL    HW117291   3.964   1.650   5.587 -1.4891  1.1644 -0.0521
 1886SOL    HW217292   3.874   1.536   5.593  1.5365 -2.5375  0.0675
 1887SOL     OW17293   4.114   3.938   4.710  0.7030 -0.2948  0.5093
 1887SOL    HW117294   4.193   3.967   4.755  1.2858  0.3880 -0.9640
 1887SOL    HW217295   4.157   3.879   4.649 -1.4197  0.7895 -2.0329
 1888SOL     OW17296   1.812   0.962   7.166 -0.0510 -0.2185  0.2236
 1888SOL    HW117297   1.748   0.947   7.236  1.5622  0.9484  1.9400
 1888SOL    HW217298   1.779   0.922   7.086  1.4363 -0.4510 -0.2733
 1889SOL     OW17299   0.788   3.699   6.312  0.5378 -0.1861 -0.3116
 1889SOL    HW117300   0.711   3.679   6.365  0.9695 -0.9699  0.0092
 1889SOL    HW217301   0.773   3.636   6.241  2.6574  1.1396 -1.9188
 1890SOL     OW17302   0.185   1.739  17.150  0.1794 -0.1783  0.0237
 1890SOL    HW117303   0.265   1.720  17.101 -0.0104 -0.6421 -0.1146
 1890SOL    HW217304   0.150   1.816  17.106 -0.3139 -1.0332 -1.0795
 1891SOL     OW17305   2.358   4.378   6.773 -0.3367 -0.0189  0.6446
 1891SOL    HW117306   2.402   4.323   6.709 -0.8046 -0.4788  0.7134
 1891SOL    HW217307   2.401   4.463   6.761  0.2589 -0.2360  1.2677
 1892SOL     OW17308   1.820   3.170   3.106 -1.0783  0.4532  0.2090
 1892SOL    HW117309   1.787   3.089   3.145  3.6586 -0.9031  1.4496
 1892SOL    HW217310   1.881   3.200   3.174 -1.4872  1.2421  0.2349
 1893SOL     OW17311   2.438   2.779   6.513 -0.2776 -0.2590 -0.5976
 1893SOL    HW117312   2.376   2.812   6.448  0.5620  2.7725  0.1669
 1893SOL    HW217313   2.390   2.706   6.553  1.5687 -1.2288 -0.1521
 1894SOL     OW17314   0.373   2.975   2.452  0.8993 -0.1430 -0.4829
 1894SOL    HW117315   0.342   2.921   2.525 -0.1318  0.3363 -0.5719
 1894SOL    HW217316   0.390   3.059   2.495 -0.7750  0.6185 -1.3104
 1895SOL     OW17317   1.590   4.538   5.566  0.6041  0.3292 -0.1598
 1895SOL    HW117318   1.557   4.497   5.487  0.2507 -0.1637  0.2483
 1895SOL    HW217319   1.666   4.481   5.581  0.9378  0.5449 -1.0212
 1896SOL     OW17320   0.770   0.580   5.601  0.0083 -0.7305  0.0764
 1896SOL    HW117321   0.687   0.546   5.634 -1.5419  1.4948 -1.5758
 1896SOL    HW217322   0.842   0.519   5.623  1.2764  0.2262 -1.4186
 1897SOL     OW17323   2.533   2.219  12.955 -0.4355  0.0188  0.4293
 1897SOL    HW117324   2.508   2.307  12.983 -0.1084  0.3202 -0.2276
 1897SOL    HW217325   2.535   2.173  13.039  1.0030 -0.7328 -0.0063
 1898SOL     OW17326   0.175   3.959   1.517 -0.4799 -0.3854  0.1508
 1898SOL    HW117327   0.167   4.012   1.596  0.5822 -0.3316  0.2203
 1898SOL    HW217328   0.090   3.974   1.474 -0.8717 -1.9468  0.4027
 1899SOL     OW17329   1.967   4.698   4.975  0.2677  0.2029  0.0479
 1899SOL    HW117330   2.043   4.642   4.989 -0.1491  0.1546  2.0924
 1899SOL    HW217331   1.923   4.664   4.897  2.5947 -0.1860 -1.0751
 1900SOL     OW17332   4.518   2.350   7.909  0.3618 -0.6399 -0.3142
 1900SOL    HW117333   4.482   2.383   7.991  1.8542 -0.9753  0.4872
 1900SOL    HW217334   4.447   2.295   7.875 -0.2337  0.2712 -0.5355
 1901SOL     OW17335   4.523   1.610  10.103  0.4037  0.9379  0.0950
 1901SOL    HW117336   4.518   1.518  10.078  0.0682 -0.0344  3.8577
 1901SOL    HW217337   4.582   1.638  10.032  1.2871 -1.2229 -0.0093
 1902SOL     OW17338   1.541   0.242  12.669  0.7311 -0.0340  0.2710
 1902SOL    HW117339   1.511   0.294  12.594  0.6801  0.9347  0.9625
 1902SOL    HW217340   1.489   0.278  12.740 -0.5078 -0.4042 -0.4595
 1903SOL     OW17341   2.258   0.641   4.704 -0.4264 -0.0475 -0.6801
 1903SOL    HW117342   2.166   0.621   4.718  0.5516 -3.5634  0.8669
 1903SOL    HW217343   2.253   0.675   4.615 -0.6935 -0.8237 -0.9682
 1904SOL     OW17344   0.499   1.012   3.591 -0.0692  0.3306 -0.2018
 1904SOL    HW117345   0.469   0.955   3.521 -0.0956 -0.9528  0.8550
 1904SOL    HW217346   0.415   0.996   3.633  0.1577 -2.9893 -1.0485
 1905SOL     OW17347   4.345   4.347   5.858  0.5970  0.2013  0.1075
 1905SOL    HW117348   4.407   4.280   5.886 -1.2867 -2.0295 -1.1134
 1905SOL    HW217349   4.368   4.355   5.766 -1.9841 -0.5897 -0.5988
 1906SOL     OW17350   2.593   0.710   2.714  0.0354 -0.3908  0.3155
 1906SOL    HW117351   2.564   0.771   2.782  1.7606  2.5336 -1.5916
 1906SOL    HW217352   2.561   0.628   2.752  0.1459 -0.4979  0.1790
 1907SOL     OW17353   3.358   0.839   4.107 -0.3033  0.3458 -0.0446
 1907SOL    HW117354   3.384   0.907   4.170  1.2801 -0.4390  0.1418
 1907SOL    HW217355   3.324   0.899   4.040  0.4054  0.3804 -0.3673
 1908SOL     OW17356   0.234   1.123  10.264  0.2068 -0.1803 -0.0474
 1908SOL    HW117357   0.193   1.040  10.288  0.0428  0.1857  0.9479
 1908SOL    HW217358   0.298   1.132  10.335  0.1901  1.0304 -0.1906
 1909SOL     OW17359   0.897   2.480   7.473 -0.0892 -0.2420 -0.2489
 1909SOL    HW117360   0.843   2.446   7.402 -0.7495  0.8973 -0.2905
 1909SOL    HW217361   0.937   2.401   7.509 -0.8983  1.1055  3.6028
 1910SOL     OW17362   0.893   3.109   4.506 -0.7027 -0.2298  0.0179
 1910SOL    HW117363   0.971   3.154   4.539 -1.6704  2.0099 -0.7706
 1910SOL    HW217364   0.880   3.159   4.425  0.2287  1.4264  0.9003
 1911SOL     OW17365   3.500   3.469  10.628 -0.4095  0.2170  0.0876
 1911SOL    HW117366   3.421   3.518  10.647  0.5497  2.0537 -0.6044
 1911SOL    HW217367   3.558   3.535  10.591 -0.5151  0.4252  0.2964
 1912SOL     OW17368   3.825   4.443   4.235  0.1353 -0.2594  0.3366
 1912SOL    HW117369   3.782   4.504   4.295 -0.3678 -1.4428  1.2015
 1912SOL    HW217370   3.806   4.363   4.284  0.3251  0.2278  1.2086
 1913SOL     OW17371   1.670   4.722   3.854  0.6655  0.4401  0.0918
 1913SOL    HW117372   1.764   4.707   3.863  0.2216 -1.2466  2.2153
 1913SOL    HW217373   1.631   4.669   3.924  0.8336 -0.0964 -0.2232
 1914SOL     OW17374   2.218   4.253   8.969  0.3304  0.1345 -0.0444
 1914SOL    HW117375   2.187   4.310   8.899 -3.1112 -2.2496 -0.4551
 1914SOL    HW217376   2.138   4.249   9.021  0.3909  1.5789  0.1621
 1915SOL     OW17377   1.066   1.015   4.281  0.4913  0.3664  0.0628
 1915SOL    HW117378   0.981   1.046   4.250  0.2044  1.7970  2.2893
 1915SOL    HW217379   1.123   1.077   4.236 -0.5324  1.3682  0.1492
 1916SOL     OW17380   3.431   4.676   3.456 -0.1652 -0.0585 -0.2747
 1916SOL    HW117381   3.460   0.031   3.469  0.2158 -0.1303 -0.6146
 1916SOL    HW217382   3.363   4.666   3.522  0.5959 -1.6103  0.2699
 1917SOL     OW17383   1.482   0.491  11.777  0.3826  0.2532 -0.5402
 1917SOL    HW117384   1.558   0.472  11.723  2.5506  1.3314  2.1559
 1917SOL    HW217385   1.470   0.585  11.762  0.0026  0.2294 -0.3893
 1918SOL     OW17386   3.402   2.166   9.958 -0.1485 -0.0553 -0.5121
 1918SOL    HW117387   3.461   2.143  10.030 -0.3381  0.4696 -0.1879
 1918SOL    HW217388   3.379   2.256   9.982 -1.1510 -0.3990 -0.1899
 1919SOL     OW17389   4.245   0.882  11.619  0.7360  1.0836 -0.3643
 1919SOL    HW117390   4.174   0.856  11.678 -0.4375 -1.5806 -2.9514
 1919SOL    HW217391   4.190   0.896  11.542 -1.9240  1.4439  1.5688
 1920SOL     OW17392   4.529   3.994   3.664 -0.5578  0.1450  0.6881
 1920SOL    HW117393   4.435   4.005   3.650 -0.6643 -0.5253  0.9215
 1920SOL    HW217394   4.535   3.929   3.733 -0.1377 -1.0678 -0.4905
 1921SOL     OW17395   3.416   2.931   7.499 -0.4979  0.2256  0.4907
 1921SOL    HW117396   3.325   2.960   7.509 -0.1430  1.5903 -0.3184
 1921SOL    HW217397   3.423   2.891   7.586 -0.6097 -0.5648  0.1409
 1922SOL     OW17398   0.393   3.839  12.254  0.1219 -0.1640 -0.0732
 1922SOL    HW117399   0.414   3.782  12.327 -1.8250  0.0044  0.6300
 1922SOL    HW217400   0.299   3.855  12.268  0.0460  1.2069 -2.0942
 1923SOL     OW17401   1.535   1.143   1.810 -0.1384 -0.0730 -0.2458
 1923SOL    HW117402   1.498   1.082   1.746 -2.2057  0.2830  0.6205
 1923SOL    HW217403   1.569   1.209   1.749  1.1134  0.4336  1.0126
 1924SOL     OW17404   0.186   4.623   8.442  0.1218  0.1206 -0.2725
 1924SOL    HW117405   0.120   4.608   8.509 -0.9873 -1.2218 -1.6739
 1924SOL    HW217406   0.139   4.596   8.363 -2.4547  0.6140  1.0907
 1925SOL     OW17407   0.139   1.677   2.567  0.0486 -0.5616  0.6763
 1925SOL    HW117408   0.086   1.718   2.498  4.0579 -0.7850 -2.4935
 1925SOL    HW217409   0.074   1.615   2.601 -0.0797  1.4266  4.0288
 1926SOL     OW17410   1.268   2.891  12.239 -0.2950 -0.2168  0.4012
 1926SOL    HW117411   1.344   2.833  12.240 -0.9590 -1.1182 -1.5700
 1926SOL    HW217412   1.200   2.827  12.258 -0.1255 -0.6351 -0.3985
 1927SOL     OW17413   4.421   3.414   1.615  0.3711  0.0909  0.1917
 1927SOL    HW117414   4.491   3.476   1.595  0.8056 -1.0894 -1.9278
 1927SOL    HW217415   4.391   3.458   1.695  1.8422  0.6955  0.4044
 1928SOL     OW17416   0.796   4.617   7.526  0.1899  0.3934 -0.7112
 1928SOL    HW117417   0.836   4.611   7.439  2.0973  1.8292  0.0570
 1928SOL    HW217418   0.707   4.619   7.491  0.1184 -0.8373 -0.6141
 1929SOL     OW17419   3.553   1.160   3.944 -0.3935  0.2759  0.5426
 1929SOL    HW117420   3.626   1.157   3.882  0.1591  1.0760  1.1509
 1929SOL    HW217421   3.484   1.108   3.904 -1.1059  2.2582 -0.7853
 1930SOL     OW17422   3.044   3.000   8.137 -0.3454 -0.0104 -0.5657
 1930SOL    HW117423   2.959   3.043   8.132 -0.0454  0.4246 -1.9725
 1930SOL    HW217424   3.086   3.041   8.213  0.2557 -1.1632 -0.2752
 1931SOL     OW17425   2.865   4.443   2.907 -0.9496 -0.4135 -0.3195
 1931SOL    HW117426   2.878   4.359   2.864  1.7950  1.0443 -2.3264
 1931SOL    HW217427   2.956   4.474   2.909 -1.1358  0.0350  1.2038
 1932SOL     OW17428   4.611   2.679  17.371 -0.0898 -0.0918  0.4350
 1932SOL    HW117429   4.591   2.772  17.372 -0.8088 -0.2459  0.3258
 1932SOL    HW217430   4.534   2.654  17.319 -0.0339  0.3701  0.1271
 1933SOL     OW17431   3.086   3.016   2.653 -0.0412 -0.0023  0.2481
 1933SOL    HW117432   3.161   3.016   2.593  0.2823  1.2031  0.6372
 1933SOL    HW217433   3.100   2.933   2.699 -1.2791 -0.2457  0.1663
 1934SOL     OW17434   0.968   2.781  14.756  0.4439 -0.0931 -0.3227
 1934SOL    HW117435   0.957   2.857  14.700  0.3094 -0.4937 -0.8464
 1934SOL    HW217436   1.057   2.801  14.784  1.5118 -3.4403 -1.2352
 1935SOL     OW17437   2.861   1.474   7.806  0.1903 -0.3059  0.1981
 1935SOL    HW117438   2.870   1.450   7.714  0.3083  0.7323 -0.0675
 1935SOL    HW217439   2.893   1.564   7.810 -0.2457 -0.0720 -1.4594
 1936SOL     OW17440   0.991   0.974   7.069  0.3821  0.3000  0.6028
 1936SOL    HW117441   0.950   1.045   7.019  0.6099  0.3128  0.4341
 1936SOL    HW217442   1.079   0.990   7.034 -0.1971 -1.5113 -1.6931
 1937SOL     OW17443   1.739   2.645  15.999  0.0504 -0.0297  0.4772
 1937SOL    HW117444   1.658   2.627  16.048  0.2267 -2.8115 -0.2323
 1937SOL    HW217445   1.721   2.594  15.920 -0.3781  2.7567 -1.1998
 1938SOL     OW17446   2.065   2.779  15.100 -0.2015 -0.1794 -0.2191
 1938SOL    HW117447   2.017   2.744  15.025  0.8814 -1.3373 -0.3722
 1938SOL    HW217448   2.023   2.751  15.182  0.5764  0.4890  0.4074
 1939SOL     OW17449   2.797   1.339  10.608 -0.2142 -0.6188  0.7396
 1939SOL    HW117450   2.813   1.263  10.552  0.5161  0.0799 -0.0013
 1939SOL    HW217451   2.704   1.329  10.631 -0.6853  0.7838 -0.5507
 1940SOL     OW17452   3.842   1.960   8.923  0.4348 -0.5108  0.2045
 1940SOL    HW117453   3.799   1.893   8.976 -1.8480 -0.1556 -1.2119
 1940SOL    HW217454   3.850   2.034   8.982  0.5915 -0.1229 -0.3006
 1941SOL     OW17455   3.900   1.349   8.827 -0.4541 -0.4252 -0.3257
 1941SOL    HW117456   3.914   1.413   8.897  0.5166 -1.0128  0.0122
 1941SOL    HW217457   3.859   1.410   8.766  1.3802  0.6122 -0.5064
 1942SOL     OW17458   4.662   4.020   3.396 -0.0781  0.4015 -0.4107
 1942SOL    HW117459   4.567   4.019   3.389 -0.0994 -0.8773  0.0016
 1942SOL    HW217460   4.676   4.114   3.405 -1.3629  0.6815 -1.4158
 1943SOL     OW17461   2.518   0.556  12.871  0.0776 -0.3948  0.2572
 1943SOL    HW117462   2.466   0.626  12.832  1.1014  0.8185  1.1004
 1943SOL    HW217463   2.451   0.487  12.881  0.5490 -0.6751  1.4568
 1944SOL     OW17464   2.196   4.047   4.351 -0.1384  0.0788  0.0072
 1944SOL    HW117465   2.159   4.116   4.406  0.3362  2.7272 -2.9886
 1944SOL    HW217466   2.218   3.970   4.404  0.1231 -0.7890 -1.3720
 1945SOL     OW17467   1.345   2.040   7.929 -0.3011  0.4384  0.3215
 1945SOL    HW117468   1.329   2.043   7.835  0.9766 -0.2409  0.0773
 1945SOL    HW217469   1.422   1.983   7.931 -0.8677 -0.4368 -2.2675
 1946SOL     OW17470   0.079   2.487   5.281  0.2912  0.4835 -0.4211
 1946SOL    HW117471   0.115   2.428   5.214 -2.5575 -1.3977 -0.2943
 1946SOL    HW217472   0.049   2.565   5.234 -3.4136  0.4221  1.9434
 1947SOL     OW17473   2.857   0.606   9.588  0.6415 -0.7030 -0.3081
 1947SOL    HW117474   2.793   0.658   9.539 -0.6100 -0.5165  1.4984
 1947SOL    HW217475   2.804   0.536   9.626  1.9269 -0.8966  1.1630
 1948SOL     OW17476   1.281   2.331   7.968 -0.0042 -0.9133 -0.1458
 1948SOL    HW117477   1.305   2.241   7.988 -2.9006 -2.1053 -1.9340
 1948SOL    HW217478   1.200   2.318   7.918  0.8251 -1.5269 -1.3330
 1949SOL     OW17479   4.532   4.709  17.539 -0.3456  0.1661  0.2574
 1949SOL    HW117480   4.557   4.656  17.615  0.0410  0.7041  0.5124
 1949SOL    HW217481   4.577   0.058  17.549 -0.0131 -0.0403  0.5080
 1950SOL     OW17482   2.634   0.385  17.530  0.3316 -0.4790 -0.0863
 1950SOL    HW117483   2.698   0.319  17.557  1.2781  0.1720 -0.7109
 1950SOL    HW217484   2.690   0.452  17.491  1.3218 -1.1898  0.1238
 1951SOL     OW17485   3.163   3.033   2.106  0.4466 -0.0273 -0.2195
 1951SOL    HW117486   3.241   3.002   2.152  0.7424  2.8811  1.2006
 1951SOL    HW217487   3.193   3.119   2.077  2.4725 -0.7358 -0.2078
 1952SOL     OW17488   4.124   1.260   3.108  0.0869  0.0337 -0.0877
 1952SOL    HW117489   4.189   1.315   3.066 -0.9636  1.1762 -0.2240
 1952SOL    HW217490   4.111   1.190   3.043 -0.2618  1.4127 -1.4910
 1953SOL     OW17491   1.802   3.419   5.137 -0.2133  0.2347  0.2016
 1953SOL    HW117492   1.777   3.411   5.230  1.3303 -2.1963  0.4028
 1953SOL    HW217493   1.789   3.509   5.109 -1.0138 -0.8369 -2.9146
 1954SOL     OW17494   1.464   2.131  14.950  0.7087 -0.0603  0.2479
 1954SOL    HW117495   1.535   2.195  14.955  0.4722  0.2842 -0.8426
 1954SOL    HW217496   1.417   2.148  15.032 -2.7477  3.3370 -2.4431
 1955SOL     OW17497   3.196   4.425   6.182 -0.0056  0.3381 -0.1128
 1955SOL    HW117498   3.157   4.385   6.105  2.4627 -1.2325 -0.5763
 1955SOL    HW217499   3.273   4.367   6.182  0.9980  1.6717  0.5579
 1956SOL     OW17500   3.493   1.921   2.934  0.5234  0.0620 -0.3615
 1956SOL    HW117501   3.470   1.846   2.989 -1.2633  1.6200  1.0535
 1956SOL    HW217502   3.517   1.877   2.853  3.3040  0.9012  0.0174
 1957SOL     OW17503   3.607   4.673   2.853 -0.2974  0.8140  0.0920
 1957SOL    HW117504   3.672   0.004   2.876  0.8088 -0.6945  1.2957
 1957SOL    HW217505   3.582   4.619   2.928  1.9599  1.6378  1.4407
 1958SOL     OW17506   4.103   0.982   8.004 -0.1178  0.2673  0.1245
 1958SOL    HW117507   4.192   0.976   8.039 -0.1424 -1.3494 -0.1051
 1958SOL    HW217508   4.109   0.921   7.931 -2.4433 -0.1361  0.2627
 1959SOL     OW17509   1.159   2.590  13.328 -0.1526  0.1684 -0.6369
 1959SOL    HW117510   1.230   2.537  13.291 -0.5582 -0.5572 -0.3597
 1959SOL    HW217511   1.099   2.607  13.255  0.7834  2.1844 -0.9559
 1960SOL     OW17512   0.859   2.444  10.970  0.2930  0.2012  0.4312
 1960SOL    HW117513   0.945   2.418  11.001 -0.8109  0.4824  3.7214
 1960SOL    HW217514   0.843   2.381  10.900 -2.4176  0.0551  1.1573
 1961SOL     OW17515   2.676   2.092   8.948  0.0724 -0.2325  0.5738
 1961SOL    HW117516   2.660   2.158   9.015 -1.2922 -1.3825  1.3779
 1961SOL    HW217517   2.756   2.047   8.975  0.8385  0.6956 -0.1895
 1962SOL     OW17518   0.246   3.233  14.649 -0.4059  0.6183  0.1875
 1962SOL    HW117519   0.252   3.151  14.599  0.8834  0.7679  0.0885
 1962SOL    HW217520   0.169   3.274  14.609 -0.2750  0.1977 -0.5013
 1963SOL     OW17521   4.526   1.648   3.941  0.1565 -0.0832  0.3403
 1963SOL    HW117522   4.446   1.596   3.934  0.5800 -1.0568  2.7750
 1963SOL    HW217523   4.562   1.655   3.852 -2.3651 -1.7970 -0.8155
 1964SOL     OW17524   4.574   1.054   6.403  0.5258  0.2162 -0.0044
 1964SOL    HW117525   4.497   1.037   6.349 -1.0500  0.6886  2.0910
 1964SOL    HW217526   4.523   1.103   6.468 -0.8387 -2.2014  0.7508
 1965SOL     OW17527   3.646   2.264   6.453 -0.1959 -0.2743  0.1764
 1965SOL    HW117528   3.682   2.286   6.367 -0.3376  0.0190  0.1953
 1965SOL    HW217529   3.563   2.311   6.447  0.7329  1.3180  0.0296
 1966SOL     OW17530   1.620   2.071   2.259 -0.3265  0.1177  0.1901
 1966SOL    HW117531   1.570   2.121   2.194 -1.5651 -1.7261 -0.2804
 1966SOL    HW217532   1.591   2.117   2.338 -1.2262 -0.4034  0.1546
 1967SOL     OW17533   2.015   0.515   9.108 -0.5229  0.1836 -0.0563
 1967SOL    HW117534   2.092   0.527   9.053 -0.5728 -1.7606 -0.5485
 1967SOL    HW217535   2.046   0.470   9.187  1.0141 -1.1732 -1.4501
 1968SOL     OW17536   0.546   0.768   8.843 -0.1075  0.5498  0.5715
 1968SOL    HW117537   0.494   0.695   8.875 -0.6241  1.1086  1.0200
 1968SOL    HW217538   0.571   0.810   8.925 -1.8180  0.5518  1.1073
 1969SOL     OW17539   2.865   4.446   2.204  0.3169  0.8607 -0.8083
 1969SOL    HW117540   2.921   4.459   2.281 -1.2197 -0.7502  0.5787
 1969SOL    HW217541   2.790   4.498   2.233 -0.7840 -1.2508  0.1290
 1970SOL     OW17542   2.610   1.437   8.338  0.5542  0.1328  0.1420
 1970SOL    HW117543   2.612   1.437   8.434  2.3597 -1.3263  0.1115
 1970SOL    HW217544   2.518   1.460   8.327  0.6168 -0.6944 -1.9861
 1971SOL     OW17545   3.653   0.703   4.506 -0.3283  0.2563  0.2733
 1971SOL    HW117546   3.568   0.734   4.476 -0.0319  1.0008  0.1996
 1971SOL    HW217547   3.706   0.775   4.471 -0.8316  0.8887  0.8219
 1972SOL     OW17548   0.548   1.441   5.984  0.1776  0.0320 -0.1487
 1972SOL    HW117549   0.534   1.466   6.075 -2.4070  0.0835 -0.5723
 1972SOL    HW217550   0.457   1.416   5.972 -0.7250  1.8754  2.8633
 1973SOL     OW17551   0.690   1.035   0.579 -0.5059  0.1734  0.3176
 1973SOL    HW117552   0.710   1.069   0.666 -0.6385 -1.5407  1.0044
 1973SOL    HW217553   0.601   1.002   0.590 -0.2817  0.3718  2.7009
 1974SOL     OW17554   3.110   0.165   9.989  0.0674  0.2923 -0.5007
 1974SOL    HW117555   3.058   0.091  10.019  0.5489 -0.3901 -1.3334
 1974SOL    HW217556   3.084   0.227  10.057  2.3495 -0.1462  0.7953
 1975SOL     OW17557   4.140   1.425   6.014  0.3930 -0.5697 -0.1612
 1975SOL    HW117558   4.163   1.338   6.046  2.2673 -0.8087 -2.1041
 1975SOL    HW217559   4.050   1.440   6.042  0.6325 -0.1367  0.3616
 1976SOL     OW17560   1.335   2.143   9.151 -0.0390  0.0792  0.7391
 1976SOL    HW117561   1.271   2.129   9.221 -0.2301  2.1981  0.9917
 1976SOL    HW217562   1.285   2.117   9.073  3.2530  0.4376 -1.4962
 1977SOL     OW17563   3.874   2.100   6.749 -0.4816  0.3711 -0.2419
 1977SOL    HW117564   3.794   2.148   6.772  0.3624  0.5737  2.3665
 1977SOL    HW217565   3.842   2.047   6.676  0.1101  2.6894 -2.1682
 1978SOL     OW17566   1.590   0.328   6.644 -0.1822  0.7063  0.1222
 1978SOL    HW117567   1.579   0.276   6.724 -1.5249 -2.0739 -1.8823
 1978SOL    HW217568   1.674   0.296   6.611 -0.6854 -0.4745 -0.0349
 1979SOL     OW17569   1.441   1.235  12.754 -0.5514  0.3934  0.3263
 1979SOL    HW117570   1.446   1.220  12.848 -0.8348 -0.3401  0.2195
 1979SOL    HW217571   1.349   1.213  12.739  0.0693 -1.4554 -0.7494
 1980SOL     OW17572   1.847   3.632   8.167  0.3848 -0.1038  0.1660
 1980SOL    HW117573   1.854   3.722   8.136 -1.5667 -0.9203 -2.6315
 1980SOL    HW217574   1.906   3.580   8.111  0.4046 -2.4536  2.3525
 1981SOL     OW17575   1.913   2.836   5.227  0.3623  0.0951  0.3600
 1981SOL    HW117576   1.845   2.894   5.260 -1.4319 -1.7326 -0.1329
 1981SOL    HW217577   1.874   2.783   5.158 -0.8201 -0.4713  1.4830
 1982SOL     OW17578   3.397   4.205  11.111 -0.3299  0.3567 -0.0313
 1982SOL    HW117579   3.411   4.217  11.205  1.6472  0.3105 -0.3107
 1982SOL    HW217580   3.456   4.271  11.074  0.6912  0.2532  1.4066
 1983SOL     OW17581   1.635   0.893  16.696  0.0963 -0.2922  0.4851
 1983SOL    HW117582   1.672   0.945  16.767  4.1028 -0.8290 -1.2408
 1983SOL    HW217583   1.711   0.877  16.641 -0.3449  1.1276 -0.5434
 1984SOL     OW17584   1.895   4.492   5.852  0.0925  0.1787 -0.4220
 1984SOL    HW117585   1.968   4.430   5.847 -0.7847 -0.9232  0.3146
 1984SOL    HW217586   1.830   4.434   5.812  0.3409 -1.5419  1.6714
 1985SOL     OW17587   3.482   3.533  13.397 -0.2066 -0.0315 -0.0926
 1985SOL    HW117588   3.524   3.607  13.440 -0.4146  0.1407 -0.1839
 1985SOL    HW217589   3.483   3.556  13.304 -1.9633 -0.8673 -0.3295
 1986SOL     OW17590   3.381   2.455   1.722 -0.5436 -0.0659  0.0479
 1986SOL    HW117591   3.373   2.545   1.752 -1.5853 -0.6106  1.4073
 1986SOL    HW217592   3.300   2.455   1.671  0.4408  0.5329 -1.5168
 1987SOL     OW17593   3.769   4.268   7.662 -0.1118  0.0729 -0.4192
 1987SOL    HW117594   3.702   4.335   7.646 -0.3780 -0.0230  0.3043
 1987SOL    HW217595   3.839   4.330   7.680  0.6277 -1.6073  2.3607
 1988SOL     OW17596   3.690   1.730  14.465 -0.6428 -0.4330  0.3494
 1988SOL    HW117597   3.763   1.717  14.524  0.3041 -0.3322 -0.8020
 1988SOL    HW217598   3.734   1.683  14.395 -0.3067  1.0910 -0.4641
 1989SOL     OW17599   2.617   2.376   7.396  0.1850 -0.0344 -0.2480
 1989SOL    HW117600   2.530   2.412   7.408  0.6213  1.6244 -2.0006
 1989SOL    HW217601   2.611   2.352   7.304  3.3244 -1.9340  0.0391
 1990SOL     OW17602   0.729   1.253   8.680  0.4281  0.5418  0.0917
 1990SOL    HW117603   0.760   1.252   8.771 -0.6214 -1.4414  0.4305
 1990SOL    HW217604   0.687   1.339   8.675  0.3214  0.4772 -0.1176
 1991SOL     OW17605   4.054   0.673  12.107  0.0253 -0.4009  0.9207
 1991SOL    HW117606   4.075   0.598  12.163  1.1372 -1.9174 -1.5227
 1991SOL    HW217607   3.968   0.645  12.077  1.0632 -0.0874 -2.2767
 1992SOL     OW17608   2.325   1.947   8.851  0.3155 -0.7730 -0.0289
 1992SOL    HW117609   2.251   1.889   8.871 -0.1175 -0.6048 -1.1204
 1992SOL    HW217610   2.286   2.011   8.791  2.5094  0.9270  0.4058
 1993SOL     OW17611   1.338   0.190  14.357 -0.0341 -0.7285  0.4991
 1993SOL    HW117612   1.314   0.161  14.269  0.1949  1.0710 -0.1473
 1993SOL    HW217613   1.416   0.136  14.367  2.4463  3.0286  1.4505
 1994SOL     OW17614   1.813   4.208   2.277  0.0935 -0.0940  0.0287
 1994SOL    HW117615   1.777   4.197   2.189 -2.2845 -0.6996  1.0579
 1994SOL    HW217616   1.735   4.192   2.330 -0.8531 -1.8461 -1.9037
 1995SOL     OW17617   1.354   2.898   8.800  0.0989 -0.7592 -0.9537
 1995SOL    HW117618   1.273   2.946   8.783  0.8680  1.3166  1.0720
 1995SOL    HW217619   1.317   2.811   8.793 -0.0034 -0.8166  0.3625
 1996SOL     OW17620   4.141   2.824   7.911 -0.1197 -0.1813 -0.2531
 1996SOL    HW117621   4.106   2.741   7.880 -1.1405  0.1381  0.0349
 1996SOL    HW217622   4.213   2.825   7.847 -1.3692 -2.0409 -1.6905
 1997SOL     OW17623   4.612   2.195   2.114 -0.1284 -0.4521 -0.2678
 1997SOL    HW117624   4.585   2.111   2.152  1.3753 -0.4540  0.7451
 1997SOL    HW217625   4.685   2.155   2.066 -0.2829 -0.3886 -0.5615
 1998SOL     OW17626   4.360   0.200  17.279 -0.0056 -0.6259 -0.1668
 1998SOL    HW117627   4.405   0.221  17.197  0.1093 -0.9298 -0.1833
 1998SOL    HW217628   4.283   0.161  17.238 -0.9990 -0.8475  1.9130
 1999SOL     OW17629   2.085   3.059  15.155  0.1252  0.0792  0.1177
 1999SOL    HW117630   2.088   2.964  15.141 -1.1285 -0.0339  0.6623
 1999SOL    HW217631   2.002   3.079  15.113  0.4765 -0.6554 -0.9289
 2000SOL     OW17632   2.330   3.789  17.060 -0.1826 -0.1044 -0.0200
 2000SOL    HW117633   2.319   3.814  16.969  1.6412  2.3840  0.4269
 2000SOL    HW217634   2.310   3.695  17.058 -0.3301 -0.0457 -1.3046
 2001SOL     OW17635   3.055   0.812   3.106  0.6491 -0.3564 -0.0834
 2001SOL    HW117636   3.005   0.893   3.097  1.7542  0.5102  1.8309
 2001SOL    HW217637   3.135   0.837   3.153  0.9247 -1.3198 -0.0365
 2002SOL     OW17638   2.743   3.369  15.989 -0.2290 -0.2477 -0.4459
 2002SOL    HW117639   2.720   3.460  16.005  0.6666 -0.3000  1.0982
 2002SOL    HW217640   2.839   3.369  15.987 -0.2309  0.0039 -0.5009
 2003SOL     OW17641   3.524   1.793   7.259 -0.3627 -0.7861  0.5393
 2003SOL    HW117642   3.609   1.766   7.224 -0.3850 -1.3313  0.9209
 2003SOL    HW217643   3.482   1.711   7.285  1.0027 -2.0881 -1.3960
 2004SOL     OW17644   0.346   3.869  10.751  0.3327  0.4569 -0.1941
 2004SOL    HW117645   0.334   3.813  10.674 -0.2638 -0.1206  0.3254
 2004SOL    HW217646   0.438   3.860  10.776  0.9369  0.7717 -2.2270
 2005SOL     OW17647   2.304   2.044   3.155  0.3776 -0.2297  0.8271
 2005SOL    HW117648   2.361   2.067   3.081  1.3652  1.1206  1.9954
 2005SOL    HW217649   2.303   2.126   3.205 -1.3855  0.4317 -0.2800
 2006SOL     OW17650   2.545   1.054   3.649 -0.4066  0.4528 -0.4815
 2006SOL    HW117651   2.603   1.111   3.598  0.4861  1.2853  1.4701
 2006SOL    HW217652   2.529   1.106   3.728  1.1594  2.2204 -1.3157
 2007SOL     OW17653   1.427   3.873  15.255  0.3008  0.0583  0.2773
 2007SOL    HW117654   1.423   3.777  15.256 -0.3661  0.0925  0.2844
 2007SOL    HW217655   1.350   3.900  15.305  0.3017 -2.5942  1.7140
 2008SOL     OW17656   3.129   1.091   7.979  0.3775 -0.2404  0.0545
 2008SOL    HW117657   3.058   1.094   8.044  2.6403 -2.2847  2.5784
 2008SOL    HW217658   3.077   1.117   7.903 -0.9342 -0.1251  0.9849
 2009SOL     OW17659   0.334   0.909  16.280  0.2366 -0.2666 -0.2025
 2009SOL    HW117660   0.389   0.882  16.354 -1.1111 -1.2026  0.4692
 2009SOL    HW217661   0.306   0.997  16.306  1.0298  0.0990 -0.5933
 2010SOL     OW17662   1.593   3.411  17.094 -0.4475 -0.1541  0.7153
 2010SOL    HW117663   1.521   3.455  17.141  0.1769  0.7263  0.8529
 2010SOL    HW217664   1.573   3.323  17.125 -2.0566 -0.7198 -1.9115
 2011SOL     OW17665   4.322   4.047  10.105  0.1714  0.0852 -0.5815
 2011SOL    HW117666   4.276   4.036  10.022 -0.1543  1.2068 -0.5440
 2011SOL    HW217667   4.293   3.966  10.146  1.4623  2.5862  5.3111
 2012SOL     OW17668   3.946   0.660  11.053 -0.6135  0.0361 -0.0114
 2012SOL    HW117669   4.035   0.696  11.043  0.1223 -1.8930 -0.3181
 2012SOL    HW217670   3.909   0.706  11.128 -0.1024  0.5674 -0.0780
 2013SOL     OW17671   0.671   1.999  14.414 -0.0202  0.5044  0.0028
 2013SOL    HW117672   0.706   2.084  14.386 -2.1606  1.4127  0.0528
 2013SOL    HW217673   0.750   1.968  14.458 -0.8425  0.5811  1.5220
 2014SOL     OW17674   1.568   1.279   4.857 -0.0624  0.5948  0.1856
 2014SOL    HW117675   1.623   1.351   4.887  1.6123 -0.7646  0.3974
 2014SOL    HW217676   1.535   1.323   4.779 -0.4988 -0.6587 -0.3346
 2015SOL     OW17677   2.292   2.462  16.020  0.2631  0.1508  0.4862
 2015SOL    HW117678   2.214   2.421  15.983  1.2206 -1.6937  0.5120
 2015SOL    HW217679   2.249   2.509  16.092  2.2966  0.0768  1.7430
 2016SOL     OW17680   2.281   3.738   4.023 -0.1406  0.3941 -0.0080
 2016SOL    HW117681   2.359   3.686   4.044 -0.9471 -0.7464  0.1719
 2016SOL    HW217682   2.218   3.685   4.071  0.1684  0.2430  0.2324
 2017SOL     OW17683   1.241   2.461  15.199  0.6426 -0.2985 -0.2030
 2017SOL    HW117684   1.283   2.547  15.193  1.5334 -0.7707 -0.7677
 2017SOL    HW217685   1.165   2.471  15.141 -0.2932 -2.4982  0.6600
 2018SOL     OW17686   1.492   0.974   8.804 -0.6149 -0.5975  0.4477
 2018SOL    HW117687   1.417   1.034   8.808  0.1839  0.1152  4.6444
 2018SOL    HW217688   1.532   0.992   8.889 -0.1535  1.0047 -0.1120
 2019SOL     OW17689   3.016   3.646   3.751 -0.7146  0.4765 -0.4222
 2019SOL    HW117690   2.927   3.609   3.751 -0.2729 -0.5795  1.3238
 2019SOL    HW217691   2.994   3.739   3.762  0.5830  0.4606  2.2848
 2020SOL     OW17692   3.308   3.347   5.496 -0.6650  0.2679 -0.1455
 2020SOL    HW117693   3.214   3.351   5.514 -0.7775  0.8556 -0.8783
 2020SOL    HW217694   3.316   3.353   5.401 -0.3747  0.5034 -0.1079
 2021SOL     OW17695   0.444   0.093  17.486  0.8974  0.0961  0.1002
 2021SOL    HW117696   0.485   0.027  17.542  0.2460  1.2255  1.9002
 2021SOL    HW217697   0.513   0.153  17.459  0.5171 -0.3943 -1.9878
 2022SOL     OW17698   4.526   1.174   7.347  0.5409 -0.0179  0.1568
 2022SOL    HW117699   4.441   1.129   7.340  0.7176 -0.0533 -1.6279
 2022SOL    HW217700   4.578   1.094   7.343 -0.0453 -0.2758 -2.4592
 2023SOL     OW17701   0.014   1.688   1.773  0.2562  0.1730  0.3781
 2023SOL    HW117702   4.688   1.615   1.781  1.5488 -1.0265 -0.8117
 2023SOL    HW217703   0.095   1.637   1.776 -0.1000 -0.4197 -0.2486
 2024SOL     OW17704   2.382   3.300  12.935 -0.4515  0.1880 -0.5828
 2024SOL    HW117705   2.393   3.393  12.953 -0.2096 -0.4972  2.9544
 2024SOL    HW217706   2.297   3.285  12.977 -1.9506  3.4716 -2.4455
 2025SOL     OW17707   3.036   1.103  17.118 -0.6973 -0.6825  0.4774
 2025SOL    HW117708   2.950   1.129  17.149 -1.6655 -2.5261 -0.6366
 2025SOL    HW217709   3.083   1.131  17.197  0.1399  2.0250 -0.9955
 2026SOL     OW17710   0.401   0.054   1.593 -0.0280  0.6804 -0.5883
 2026SOL    HW117711   0.444   0.048   1.507  0.3531  0.0326 -0.3559
 2026SOL    HW217712   0.375   4.697   1.602 -0.3071  0.6364 -1.7617
 2027SOL     OW17713   1.138   0.106   1.410  0.2026 -0.2813 -0.4354
 2027SOL    HW117714   1.076   0.095   1.338  1.4451  0.2714 -1.5870
 2027SOL    HW217715   1.137   0.201   1.412 -1.1085 -0.2871 -0.1547
 2028SOL     OW17716   0.161   2.180   2.927  0.1990  0.0938 -0.2450
 2028SOL    HW117717   0.083   2.233   2.913 -0.8550 -0.9982  1.5929
 2028SOL    HW217718   0.218   2.193   2.852  1.6544  0.2281  0.8716
 2029SOL     OW17719   0.712   1.863   5.346 -0.0221  0.5384  0.1506
 2029SOL    HW117720   0.658   1.797   5.303 -0.9980  0.5848  1.3152
 2029SOL    HW217721   0.645   1.912   5.394  0.0165  0.8620 -0.1274
 2030SOL     OW17722   0.909   0.693   6.360  0.2515 -0.1132  0.3293
 2030SOL    HW117723   0.974   0.655   6.301  0.5600 -0.4006  0.8559
 2030SOL    HW217724   0.963   0.714   6.437 -2.1121  0.4122  1.8538
 2031SOL     OW17725   2.238   2.549  11.758 -0.3035  0.1196 -0.2537
 2031SOL    HW117726   2.229   2.551  11.663 -0.9212  1.3873 -0.1587
 2031SOL    HW217727   2.162   2.600  11.787 -0.8276 -0.5659 -0.4159
 2032SOL     OW17728   0.131   4.526  10.430  0.4658 -0.3546 -0.3934
 2032SOL    HW117729   0.093   4.607  10.463  1.2927 -0.8764  1.8618
 2032SOL    HW217730   0.064   4.490  10.372 -0.0481  0.0927 -0.0739
 2033SOL     OW17731   2.887   0.131   8.539  0.0574  0.2731  0.0175
 2033SOL    HW117732   2.905   0.185   8.615  1.2258  0.5825 -0.4862
 2033SOL    HW217733   2.798   0.166   8.525  0.0430 -0.1934 -1.1331
 2034SOL     OW17734   3.682   3.703   6.447  0.5806  0.4127 -0.1386
 2034SOL    HW117735   3.775   3.687   6.461  0.4284  0.1994  0.6643
 2034SOL    HW217736   3.639   3.618   6.456  1.1160  0.1675  0.0686
 2035SOL     OW17737   4.538   0.993   3.393 -0.5457 -0.3007 -0.2209
 2035SOL    HW117738   4.522   0.899   3.400  0.5991 -0.4355  0.4654
 2035SOL    HW217739   4.448   1.025   3.384 -1.4786 -3.2310 -1.0599
 2036SOL     OW17740   4.433   3.167  13.831 -0.3024  0.0525 -0.6047
 2036SOL    HW117741   4.491   3.196  13.902 -1.2073  0.2276  0.0623
 2036SOL    HW217742   4.465   3.080  13.810  2.6594  0.8220  0.6451
 2037SOL     OW17743   4.573   0.693  10.261 -0.5344 -0.2285  0.0679
 2037SOL    HW117744   4.543   0.754  10.193  3.0309 -0.9818 -2.1900
 2037SOL    HW217745   4.615   0.632  10.200  1.8620 -0.1492  1.6576
 2038SOL     OW17746   3.470   0.240  17.690 -0.3162  0.0364  0.7163
 2038SOL    HW117747   3.412   0.195   0.014 -2.0505 -1.1560 -1.7925
 2038SOL    HW217748   3.537   0.173  17.676  1.4120  1.9271 -0.0281
 2039SOL     OW17749   4.096   4.519   2.241  0.3369 -0.2752 -0.3083
 2039SOL    HW117750   4.076   4.500   2.332 -2.9180  1.8679 -0.6037
 2039SOL    HW217751   4.125   4.434   2.208  0.0161 -0.0845 -1.0807
 2040SOL     OW17752   0.174   2.312   3.910 -0.5202  0.7831  0.3358
 2040SOL    HW117753   0.156   2.404   3.891  4.6830  1.5830 -0.5427
 2040SOL    HW217754   0.160   2.265   3.828  1.5522 -0.8528  0.9007
 2041SOL     OW17755   3.888   4.003   8.896 -0.2508  0.1531  1.0143
 2041SOL    HW117756   3.967   4.019   8.844 -2.2024  2.0626 -1.3503
 2041SOL    HW217757   3.827   3.970   8.830 -0.0468  2.4447 -0.2800
 2042SOL     OW17758   3.272   2.404   6.672  0.6597  0.0566 -0.3644
 2042SOL    HW117759   3.276   2.312   6.695 -1.4008 -0.3131 -1.4856
 2042SOL    HW217760   3.336   2.399   6.601 -0.0976 -0.7378 -0.9834
 2043SOL     OW17761   0.283   1.803   5.392 -0.0959  0.2246 -0.0065
 2043SOL    HW117762   0.248   1.890   5.413  0.9080 -0.1761  3.2591
 2043SOL    HW217763   0.225   1.776   5.320 -1.9050 -0.9933  1.8834
 2044SOL     OW17764   4.483   1.357  15.450  0.0345  0.1818 -0.3634
 2044SOL    HW117765   4.512   1.296  15.518 -0.2838 -0.4507 -0.7992
 2044SOL    HW217766   4.507   1.438  15.495 -0.3996 -0.9189  1.8431
 2045SOL     OW17767   0.181   2.801   4.844 -0.2948  0.0963 -0.2588
 2045SOL    HW117768   0.182   2.894   4.819  3.3445  0.2197  0.2820
 2045SOL    HW217769   0.236   2.764   4.774  0.3852 -1.4741  1.1102
 2046SOL     OW17770   3.759   1.265   4.736  0.6853 -0.6427 -0.3353
 2046SOL    HW117771   3.727   1.175   4.743  0.8370 -0.3825  3.4269
 2046SOL    HW217772   3.699   1.311   4.795  1.5156  0.9089 -0.6960
 2047SOL     OW17773   1.596   0.649   2.426  0.2781 -0.1243  0.0183
 2047SOL    HW117774   1.552   0.723   2.384 -0.7375  0.0293  1.3557
 2047SOL    HW217775   1.680   0.658   2.381  0.0177 -0.5766 -0.5668
 2048SOL     OW17776   0.542   4.244  10.694 -0.5293  0.3470  0.7335
 2048SOL    HW117777   0.523   4.305  10.623 -0.9419  0.1624  0.6862
 2048SOL    HW217778   0.591   4.175  10.649  1.6827  0.7724  2.4822
 2049SOL     OW17779   4.131   2.955   8.149 -0.7112  0.1766 -0.1275
 2049SOL    HW117780   4.094   3.040   8.126 -0.2768  0.7152  1.1805
 2049SOL    HW217781   4.152   2.924   8.061  1.7895 -0.2743  0.6298
 2050SOL     OW17782   0.069   1.426   6.038  0.2826 -0.2591  0.1719
 2050SOL    HW117783   0.122   1.505   6.027 -1.7788  0.9372 -1.2235
 2050SOL    HW217784   0.077   1.384   5.952 -0.0882  0.7851 -0.3695
 2051SOL     OW17785   1.904   2.070   7.979  0.8670 -0.0032  0.0975
 2051SOL    HW117786   1.948   2.099   8.059 -0.2114  2.0152 -0.0508
 2051SOL    HW217787   1.824   2.121   7.991  0.0234 -0.9810 -1.2591
 2052SOL     OW17788   3.854   1.872   2.710  0.1732 -0.9050  0.1790
 2052SOL    HW117789   3.759   1.873   2.698  0.2466  1.3920 -0.3272
 2052SOL    HW217790   3.879   1.931   2.639 -0.9609  1.0389  1.3988
 2053SOL     OW17791   4.458   0.704   7.302 -0.2584 -0.2997  0.4975
 2053SOL    HW117792   4.393   0.640   7.273 -1.7311  1.4681 -0.1105
 2053SOL    HW217793   4.511   0.718   7.223 -0.5868  1.0664  0.5238
 2054SOL     OW17794   3.050   2.365   6.872  0.0504  0.4389 -0.0750
 2054SOL    HW117795   3.021   2.446   6.913  1.6300  0.1194  1.6641
 2054SOL    HW217796   3.104   2.394   6.798  0.4119  0.4050  0.1747
 2055SOL     OW17797   1.592   1.295  11.778 -0.4158 -0.3527  0.3415
 2055SOL    HW117798   1.535   1.316  11.852 -2.1930  1.1195 -1.4286
 2055SOL    HW217799   1.613   1.205  11.800 -0.4487  0.0616  2.0625
 2056SOL     OW17800   2.661   4.434  10.514  0.0188  0.2659  0.6516
 2056SOL    HW117801   2.753   4.448  10.492 -0.5375  0.5072 -1.4593
 2056SOL    HW217802   2.646   4.371  10.443 -1.9211  1.3545  0.0953
 2057SOL     OW17803   3.140   2.484   2.008 -0.1246  0.2536 -0.2633
 2057SOL    HW117804   3.044   2.488   2.013  0.0593  2.2263  1.6161
 2057SOL    HW217805   3.157   2.576   1.990 -0.3941  0.4963  0.7080
 2058SOL     OW17806   2.292   3.454   8.941  0.0580 -0.0189 -0.0691
 2058SOL    HW117807   2.334   3.501   8.869 -1.1308  1.6184  0.3131
 2058SOL    HW217808   2.361   3.394   8.969 -1.1703 -1.6521 -0.4844
 2059SOL     OW17809   3.043   1.728  17.682  0.1576  0.1417  0.0252
 2059SOL    HW117810   3.012   1.752   0.032 -0.0499  0.7215 -0.2054
 2059SOL    HW217811   2.993   1.652  17.652  2.0476 -1.1320  0.0987
 2060SOL     OW17812   4.023   4.433  12.087 -0.9280 -0.3751 -0.2965
 2060SOL    HW117813   3.964   4.451  12.159 -1.3973  1.2539 -1.0887
 2060SOL    HW217814   3.978   4.357  12.050 -1.2147 -0.6130  0.5481
 2061SOL     OW17815   1.244   0.768   5.237  0.3828 -0.0975 -0.5238
 2061SOL    HW117816   1.313   0.734   5.293  1.4515  0.5167 -1.4703
 2061SOL    HW217817   1.183   0.777   5.310  1.6606  1.2079  0.3661
 2062SOL     OW17818   0.659   0.338   4.571  0.2423  0.0462  0.1284
 2062SOL    HW117819   0.675   0.426   4.539  0.0398 -0.8569 -2.5191
 2062SOL    HW217820   0.650   0.359   4.663 -1.7481 -0.1899 -0.0014
 2063SOL     OW17821   1.234   4.633   3.425 -0.2174 -0.2745 -0.5239
 2063SOL    HW117822   1.233   4.548   3.380  0.3342 -0.7138  0.2991
 2063SOL    HW217823   1.318   4.669   3.397  0.7314 -1.1304  1.2681
 2064SOL     OW17824   0.697   1.296   8.311  0.5169 -0.4175 -0.1594
 2064SOL    HW117825   0.628   1.296   8.378  0.5523  0.2656 -0.1218
 2064SOL    HW217826   0.756   1.241   8.364 -2.5740 -1.9967  1.6549
 2065SOL     OW17827   4.541   3.205  16.698 -0.2990  0.3819  0.8779
 2065SOL    HW117828   4.494   3.262  16.638  0.4563 -0.8149 -0.8544
 2065SOL    HW217829   4.624   3.205  16.649 -0.4373  1.8322  0.6624
 2066SOL     OW17830   2.821   4.602   0.575  0.1156 -0.5687  1.0705
 2066SOL    HW117831   2.747   4.544   0.556  0.1396 -0.2389 -0.0381
 2066SOL    HW217832   2.774   4.669   0.625  0.8337 -0.4251  1.5467
 2067SOL     OW17833   0.499   4.580   0.500 -0.5612  0.4600  0.4972
 2067SOL    HW117834   0.418   4.592   0.550 -0.5734 -1.8322  1.0288
 2067SOL    HW217835   0.494   4.640   0.426  1.2028 -0.4478 -0.3668
 2068SOL     OW17836   2.959   3.905  10.419  0.6325 -0.1238  0.5643
 2068SOL    HW117837   2.925   3.859  10.343 -0.7548 -0.5503  1.4375
 2068SOL    HW217838   2.901   3.982  10.420  1.6608  0.6300  1.9216
 2069SOL     OW17839   1.293   0.858   1.423 -0.7712  0.0468 -0.1562
 2069SOL    HW117840   1.300   0.934   1.365 -1.1457 -0.1591 -0.4705
 2069SOL    HW217841   1.226   0.804   1.382 -0.9100  0.2707 -0.2195
 2070SOL     OW17842   2.733   1.509   3.350  0.7332  0.4137 -0.2490
 2070SOL    HW117843   2.809   1.486   3.297 -1.3255 -1.9816 -2.1139
 2070SOL    HW217844   2.761   1.593   3.388 -0.1873  0.9159 -0.6825
 2071SOL     OW17845   2.852   2.682   9.264 -0.8383 -0.0701 -0.2885
 2071SOL    HW117846   2.876   2.622   9.335 -0.6602  0.3326 -0.0068
 2071SOL    HW217847   2.864   2.628   9.187  2.5226  0.2580 -0.0231
 2072SOL     OW17848   0.384   1.486  10.467 -0.3792 -0.3951 -0.8198
 2072SOL    HW117849   0.412   1.501  10.377  4.3858  2.1289  1.0673
 2072SOL    HW217850   0.383   1.575  10.503  2.9726 -0.3861 -0.7493
 2073SOL     OW17851   3.689   4.193   5.086 -0.1659 -0.1417 -0.5926
 2073SOL    HW117852   3.711   4.193   4.993 -0.2444 -1.2508 -0.6182
 2073SOL    HW217853   3.737   4.116   5.118  0.5704 -0.2605 -1.9926
 2074SOL     OW17854   4.264   2.002   6.605 -0.4938  0.3140 -0.6039
 2074SOL    HW117855   4.271   2.031   6.696  1.5035  1.2661 -1.0787
 2074SOL    HW217856   4.189   1.942   6.613 -0.5386  0.1747 -2.1385
 2075SOL     OW17857   4.422   2.205   9.696 -0.6850 -0.2939  0.3230
 2075SOL    HW117858   4.351   2.268   9.700 -0.6856 -0.3509  1.1383
 2075SOL    HW217859   4.428   2.210   9.601  0.1343  1.7459  0.4825
 2076SOL     OW17860   2.622   2.904   8.226  0.2033  0.1102 -0.3202
 2076SOL    HW117861   2.600   2.813   8.241  1.4115 -0.0938  0.2267
 2076SOL    HW217862   2.535   2.943   8.224 -0.4347 -1.3601 -1.6428
 2077SOL     OW17863   2.305   2.222  12.445  0.1676  0.1620 -0.0470
 2077SOL    HW117864   2.311   2.144  12.390  0.0855  0.6939 -0.8076
 2077SOL    HW217865   2.375   2.225  12.511  0.3352 -0.5190 -0.1936
 2078SOL     OW17866   4.071   4.128   8.713 -0.1047  0.0180  0.2313
 2078SOL    HW117867   4.043   4.051   8.663  0.1187  0.6596 -0.8788
 2078SOL    HW217868   3.992   4.182   8.719 -2.2446 -2.9654 -1.2703
 2079SOL     OW17869   0.313   0.898   3.817  0.2350  0.0042  0.5102
 2079SOL    HW117870   0.276   0.968   3.870  1.5992  1.9682 -1.1533
 2079SOL    HW217871   0.233   0.849   3.798  0.7362 -0.4292 -0.4864
 2080SOL     OW17872   1.212   4.427   5.685  0.0499 -0.2671 -0.2571
 2080SOL    HW117873   1.227   4.497   5.621  0.0786  0.0589  0.1048
 2080SOL    HW217874   1.118   4.414   5.683 -0.2247  1.7762 -1.1852
 2081SOL     OW17875   2.769   1.157   0.791  0.0682  0.5880 -0.5557
 2081SOL    HW117876   2.775   1.075   0.839 -1.2724  0.8819  0.0850
 2081SOL    HW217877   2.675   1.172   0.790  0.0376  0.4210  0.2281
 2082SOL     OW17878   0.766   2.875   6.442 -0.0731  0.6083  0.2374
 2082SOL    HW117879   0.838   2.914   6.392  0.0922 -0.9058 -0.7320
 2082SOL    HW217880   0.745   2.943   6.506 -0.5833 -0.2804  1.0110
 2083SOL     OW17881   3.641   4.610   1.924  0.1661  0.0745 -0.0979
 2083SOL    HW117882   3.610   4.564   2.002 -2.1208  0.3660 -0.8496
 2083SOL    HW217883   3.561   4.629   1.875  0.1787 -0.0197 -0.1554
 2084SOL     OW17884   0.297   3.447  15.095  0.4593 -0.1149 -0.0131
 2084SOL    HW117885   0.248   3.364  15.087 -0.5437  0.4386  0.3670
 2084SOL    HW217886   0.270   3.476  15.181  0.1456  0.3896 -0.2837
 2085SOL     OW17887   0.316   2.199   2.688  0.1437 -0.1097  0.1485
 2085SOL    HW117888   0.399   2.244   2.702 -0.2338  1.3131 -2.1553
 2085SOL    HW217889   0.333   2.134   2.620 -1.6340 -1.1289  0.6714
 2086SOL     OW17890   0.438   0.794  16.509  0.2731  0.0075 -0.6744
 2086SOL    HW117891   0.519   0.807  16.558  0.7447 -2.6821 -0.7353
 2086SOL    HW217892   0.373   0.797  16.580 -0.7539 -0.6833 -1.5877
 2087SOL     OW17893   0.617   1.436   3.251 -0.4059  0.1416 -0.2781
 2087SOL    HW117894   0.586   1.493   3.181 -1.3487  2.1111  1.7394
 2087SOL    HW217895   0.586   1.355   3.210 -0.1855  0.4196 -0.9826
 2088SOL     OW17896   4.326   1.546   3.241 -0.0941  0.0245 -0.2350
 2088SOL    HW117897   4.403   1.587   3.202  0.0663  3.3572  3.6087
 2088SOL    HW217898   4.282   1.495   3.172 -1.3104  1.2057 -0.3245
 2089SOL     OW17899   1.649   2.994   7.308 -0.0592  0.0749 -0.1623
 2089SOL    HW117900   1.683   2.905   7.298  1.4925  0.9227 -2.5060
 2089SOL    HW217901   1.666   3.007   7.401  1.3573 -0.1660 -0.3862
 2090SOL     OW17902   3.183   1.074   3.622 -0.7057 -0.3074 -0.1135
 2090SOL    HW117903   3.087   1.069   3.621 -0.8260  1.3326  3.8405
 2090SOL    HW217904   3.199   1.168   3.615 -1.0624  0.0142  3.4247
 2091SOL     OW17905   0.976   3.129   5.451 -0.2876  0.4522 -0.1483
 2091SOL    HW117906   0.903   3.071   5.467  0.4937  0.2719  2.7521
 2091SOL    HW217907   0.962   3.126   5.356 -0.6131  1.7065 -0.1446
 2092SOL     OW17908   0.066   1.568   4.993  0.1089 -0.0716  0.3989
 2092SOL    HW117909   0.030   1.580   5.081  4.0353 -3.1093  2.4092
 2092SOL    HW217910   4.718   1.526   4.968 -0.9618  2.2515 -0.0335
 2093SOL     OW17911   0.924   3.971   2.015 -0.2895  0.0526  0.0265
 2093SOL    HW117912   0.861   4.040   1.997  0.6903 -0.1554 -4.2339
 2093SOL    HW217913   0.894   3.899   1.960 -0.6088 -0.6046  1.0774
 2094SOL     OW17914   0.994   4.642   3.039 -0.0055 -0.3753  0.3454
 2094SOL    HW117915   1.083   4.677   3.034 -0.8920  1.9338  0.7080
 2094SOL    HW217916   0.982   4.584   2.964 -1.2821 -1.9749  1.7913
 2095SOL     OW17917   2.274   2.353   6.131  0.6801 -0.2631 -0.0561
 2095SOL    HW117918   2.354   2.325   6.175  0.5494  0.0121  0.3530
 2095SOL    HW217919   2.224   2.274   6.151 -0.9823  0.6823 -0.5002
 2096SOL     OW17920   4.106   0.482  12.304 -0.1703 -0.1923 -0.0202
 2096SOL    HW117921   4.085   0.431  12.381  1.0960 -0.3881  0.1984
 2096SOL    HW217922   4.201   0.475  12.297 -0.1347  0.0408  0.2224
 2097SOL     OW17923   3.812   4.655  11.469  1.1636  0.5115  0.4194
 2097SOL    HW117924   3.793   0.013  11.456  1.6516  0.4639 -0.6784
 2097SOL    HW217925   3.862   4.652  11.387 -0.1257 -0.2987 -0.3356
 2098SOL     OW17926   0.183   0.793   4.540  0.2666 -0.8075  0.3328
 2098SOL    HW117927   0.096   0.780   4.580  0.3837  2.3428  1.6299
 2098SOL    HW217928   0.202   0.703   4.513 -0.7902 -1.1199  0.5985
 2099SOL     OW17929   2.677   3.651   8.261 -0.0197 -0.4034  0.0970
 2099SOL    HW117930   2.763   3.609   8.271 -0.0523 -0.3725  0.5066
 2099SOL    HW217931   2.621   3.594   8.207  1.6210 -1.3616 -0.6116
 2100SOL     OW17932   0.606   3.036  13.449  0.1495 -0.3152  0.5765
 2100SOL    HW117933   0.539   3.019  13.515 -0.8347 -0.2564 -0.4007
 2100SOL    HW217934   0.586   3.128  13.428  1.2067 -0.2012  0.0251
 2101SOL     OW17935   4.400   2.576  17.202 -0.7087  0.0566 -0.0481
 2101SOL    HW117936   4.377   2.592  17.111 -1.8696  2.6058  0.7069
 2101SOL    HW217937   4.360   2.491  17.225  0.6818 -0.8156 -0.8662
 2102SOL     OW17938   1.045   4.433  17.173  0.1748  0.0383  0.7740
 2102SOL    HW117939   1.013   4.371  17.239 -1.3978 -0.0080 -0.0372
 2102SOL    HW217940   0.999   4.406  17.094 -1.2589  3.2331  0.5444
 2103SOL     OW17941   0.059   4.587  13.370 -0.0998 -0.4451  0.4925
 2103SOL    HW117942   0.145   4.560  13.338  0.2429  1.6202 -0.3352
 2103SOL    HW217943   0.013   4.516  13.326  0.2969 -0.2222 -0.2722
 2104SOL     OW17944   2.254   2.640   0.315 -0.0480 -0.3055  0.3489
 2104SOL    HW117945   2.285   2.563   0.266 -0.2373 -0.1535 -0.0106
 2104SOL    HW217946   2.185   2.673   0.258  0.6296  2.4913  1.1393
 2105SOL     OW17947   0.845   3.729  14.342  0.4914  0.4126  0.5565
 2105SOL    HW117948   0.776   3.711  14.279 -0.4041 -0.7160  1.8799
 2105SOL    HW217949   0.924   3.722  14.287  0.0810  3.6196 -0.4490
 2106SOL     OW17950   4.562   0.203   4.799 -0.1832  0.1591 -0.1680
 2106SOL    HW117951   4.649   0.243   4.793  0.1896 -0.6254  0.0195
 2106SOL    HW217952   4.548   0.187   4.892 -2.1137  1.2723 -0.2551
 2107SOL     OW17953   2.162   2.747   5.020  0.3958 -0.5357  0.5022
 2107SOL    HW117954   2.083   2.695   5.037 -2.0311  3.0602  0.2256
 2107SOL    HW217955   2.171   2.806   5.095 -0.3939  0.6550 -0.3366
 2108SOL     OW17956   1.750   2.705   0.073  0.0385 -0.0198 -0.1870
 2108SOL    HW117957   1.736   2.799   0.063 -0.1616  0.1200  1.3062
 2108SOL    HW217958   1.665   2.681   0.036  0.2697  0.8007 -1.2381
 2109SOL     OW17959   0.566   4.053   5.026 -0.2609 -0.5092  0.3805
 2109SOL    HW117960   0.504   4.026   5.093  0.0355 -4.6983 -1.0177
 2109SOL    HW217961   0.513   4.127   4.996 -0.5933 -1.5546 -1.6162
 2110SOL     OW17962   1.272   0.507   3.391 -0.0967 -0.5635 -0.4295
 2110SOL    HW117963   1.271   0.424   3.439  0.6341  0.4928  1.4106
 2110SOL    HW217964   1.182   0.525   3.366 -1.0747 -1.0786  2.8141
 2111SOL     OW17965   1.211   3.517  13.397 -0.2491  0.2648 -0.1670
 2111SOL    HW117966   1.142   3.504  13.332 -0.1009  1.2659 -0.5224
 2111SOL    HW217967   1.155   3.568  13.456 -2.6160 -1.5429 -0.8304
 2112SOL     OW17968   0.431   2.685   5.036 -0.1836  0.2857 -0.1258
 2112SOL    HW117969   0.358   2.641   4.993 -0.1802  0.0733  0.0876
 2112SOL    HW217970   0.443   2.637   5.118 -1.5558  0.6274  0.2777
 2113SOL     OW17971   3.378   0.287   4.498  0.6102  0.2660 -0.3277
 2113SOL    HW117972   3.340   0.319   4.416 -0.2310  0.6541  0.2136
 2113SOL    HW217973   3.471   0.272   4.481 -0.1843 -1.9977 -2.6436
 2114SOL     OW17974   3.278   1.765   5.676 -0.2059  0.7664 -0.3693
 2114SOL    HW117975   3.208   1.733   5.733  0.3531  1.6503  0.8148
 2114SOL    HW217976   3.305   1.847   5.717  2.1096  0.1671 -0.6912
 2115SOL     OW17977   1.174   0.761   4.988  0.0157  0.5259  0.4660
 2115SOL    HW117978   1.094   0.712   5.005  1.5683 -2.0449  0.3052
 2115SOL    HW217979   1.200   0.767   5.080  2.5968 -2.4302 -0.0762
 2116SOL     OW17980   1.216   3.170   5.207 -0.4142 -0.6551  0.2791
 2116SOL    HW117981   1.308   3.187   5.187 -0.4425 -0.2760  0.4827
 2116SOL    HW217982   1.231   3.091   5.259 -0.7938 -1.2650 -0.5375
 2117SOL     OW17983   0.428   1.150  10.756 -0.3994  0.3371 -0.2576
 2117SOL    HW117984   0.336   1.135  10.777  0.1868  0.6952  2.5992
 2117SOL    HW217985   0.465   1.190  10.835  1.1956 -0.2044 -0.7457
 2118SOL     OW17986   0.972   2.904   2.973 -0.6884 -0.1828  0.4898
 2118SOL    HW117987   1.007   2.964   2.908  0.1812 -1.6277 -0.3574
 2118SOL    HW217988   1.044   2.848   3.002  1.0270  3.7090  3.8452
 2119SOL     OW17989   3.623   1.203   1.419  0.6877  0.1225 -0.6086
 2119SOL    HW117990   3.707   1.193   1.375 -0.3485 -1.9260 -2.1317
 2119SOL    HW217991   3.626   1.296   1.441 -1.6303 -0.2274  1.1883
 2120SOL     OW17992   1.137   4.405   6.994 -0.0998  0.5513 -0.5113
 2120SOL    HW117993   1.057   4.458   6.989 -0.2417  0.4980  1.2646
 2120SOL    HW217994   1.197   4.448   6.933 -0.0500  1.3491  0.1106
 2121SOL     OW17995   3.175   3.622  16.649 -0.6322 -0.4334 -0.7044
 2121SOL    HW117996   3.106   3.578  16.599 -0.8614 -1.6824  0.7460
 2121SOL    HW217997   3.240   3.612  16.579 -0.7393  0.4622 -0.9375
 2122SOL     OW17998   1.512   2.190   7.062 -0.2410  0.1240  0.2254
 2122SOL    HW117999   1.595   2.212   7.103 -0.0782 -1.4388  0.7436
 2122SOL    HW218000   1.524   2.098   7.036  3.5276  1.0928 -1.4512
 2123SOL     OW18001   1.614   2.252   3.695 -0.0490  0.0160 -0.1128
 2123SOL    HW118002   1.559   2.192   3.644  0.2216  0.8635 -1.4147
 2123SOL    HW218003   1.681   2.191   3.727  0.1619  0.8053  0.9227
 2124SOL     OW18004   1.053   4.165  16.157  0.2681  0.7097 -0.1509
 2124SOL    HW118005   1.023   4.256  16.150  0.5231  0.8530  0.5824
 2124SOL    HW218006   0.998   4.121  16.092  1.3220 -0.5349 -0.1934
 2125SOL     OW18007   4.374   3.990   4.014 -0.3407 -0.0501 -0.7001
 2125SOL    HW118008   4.284   3.961   3.995 -1.1954  2.1213  0.0112
 2125SOL    HW218009   4.413   3.933   3.948 -0.5392 -0.5086 -0.4256
 2126SOL     OW18010   2.356   1.947   9.915 -0.2717  0.3042  0.9158
 2126SOL    HW118011   2.401   1.919   9.994  2.3079 -1.8605 -1.2974
 2126SOL    HW218012   2.268   1.958   9.950  0.1934 -1.0195  2.4720
 2127SOL     OW18013   0.468   0.858  14.009 -0.9169 -0.0368  0.1803
 2127SOL    HW118014   0.393   0.872  13.952  0.3933  3.3443 -0.7186
 2127SOL    HW218015   0.449   0.927  14.073 -2.6171  0.9009 -1.3485
 2128SOL     OW18016   0.256   0.680   6.363 -0.2969 -0.5005  0.1355
 2128SOL    HW118017   0.314   0.756   6.357 -0.8503 -0.1176 -0.3758
 2128SOL    HW218018   0.320   0.609   6.373  1.8462  1.4708  0.4532
 2129SOL     OW18019   1.404   1.313  13.993  0.1841  0.1687  0.2377
 2129SOL    HW118020   1.455   1.391  14.013  1.9528 -1.1066  0.7020
 2129SOL    HW218021   1.318   1.345  14.020 -0.0979 -0.0500 -0.4100
 2130SOL     OW18022   1.012   4.229   1.475  0.6205 -0.3497 -0.0766
 2130SOL    HW118023   0.962   4.287   1.417  2.0651  1.4218  0.4427
 2130SOL    HW218024   0.951   4.205   1.545  0.1023 -0.5769 -0.6065
 2131SOL     OW18025   4.444   2.180  10.090 -0.4265 -0.1668 -0.5005
 2131SOL    HW118026   4.517   2.215  10.038 -0.4981 -0.6489 -0.9288
 2131SOL    HW218027   4.483   2.102  10.128 -2.1864 -0.7876  0.0055
 2132SOL     OW18028   1.294   2.441   9.016 -0.2027 -0.0988  0.0382
 2132SOL    HW118029   1.354   2.509   9.046 -0.9877  0.0567  1.2236
 2132SOL    HW218030   1.320   2.365   9.068 -0.3171 -1.1988 -1.4918
 2133SOL     OW18031   3.117   1.123   0.546 -0.1497  0.2595 -0.0686
 2133SOL    HW118032   3.211   1.131   0.555 -0.2937 -0.1676  1.7534
 2133SOL    HW218033   3.095   1.129   0.453  0.3603  3.1440  0.0004
 2134SOL     OW18034   1.153   3.804  17.545  0.3187 -0.4380  0.3510
 2134SOL    HW118035   1.230   3.799  17.602  0.1319  1.4798  0.7614
 2134SOL    HW218036   1.120   3.716  17.562  2.6006 -1.0326  1.7124
 2135SOL     OW18037   2.250   4.529   8.574  0.3040 -0.5492  0.0150
 2135SOL    HW118038   2.162   4.562   8.552 -0.0315 -0.0513  2.0674
 2135SOL    HW218039   2.237   4.436   8.559  1.8428 -0.5237 -1.4086
 2136SOL     OW18040   4.019   2.073   8.716 -0.3710  0.4153  0.5037
 2136SOL    HW118041   3.951   2.125   8.674  2.0820  2.2238 -1.2541
 2136SOL    HW218042   3.958   2.023   8.769 -0.4572  0.7402  0.7052
 2137SOL     OW18043   3.008   1.495   2.529 -0.0917  0.6018  0.2734
 2137SOL    HW118044   2.936   1.456   2.578  1.0501 -0.3593  1.1841
 2137SOL    HW218045   2.969   1.539   2.454 -0.0737 -0.8278 -0.5712
 2138SOL     OW18046   2.367   1.069   4.438  0.1307 -0.0324  0.7617
 2138SOL    HW118047   2.325   0.983   4.427  1.2424 -0.3718 -0.8450
 2138SOL    HW218048   2.344   1.107   4.353  0.4484 -0.9954  0.2409
 2139SOL     OW18049   2.478   2.120   9.591  0.7593 -0.1085  0.4306
 2139SOL    HW118050   2.561   2.073   9.596  1.0093  0.2435 -0.2755
 2139SOL    HW218051   2.470   2.147   9.682  0.9277 -1.0650  0.7290
 2140SOL     OW18052   0.817   2.412   6.488  0.6742 -0.1005 -0.3360
 2140SOL    HW118053   0.879   2.355   6.534 -0.2736 -2.7272 -2.2688
 2140SOL    HW218054   0.739   2.358   6.473  0.7795 -0.7366  1.3965
 2141SOL     OW18055   3.737   3.213   2.010  0.0157 -0.8576  0.1781
 2141SOL    HW118056   3.781   3.289   2.047  0.3177 -0.4928 -0.9455
 2141SOL    HW218057   3.810   3.166   1.969  0.1704  0.9333 -1.6082
 2142SOL     OW18058   4.056   0.310  12.582 -0.5745 -0.0634  0.2855
 2142SOL    HW118059   4.078   0.358  12.662  1.4109  0.2968 -0.4661
 2142SOL    HW218060   4.126   0.245  12.580  0.4832  1.1423 -1.9125
 2143SOL     OW18061   3.818   3.786   7.845 -0.6563 -0.2092 -0.8587
 2143SOL    HW118062   3.900   3.735   7.842 -1.3004 -1.5384  3.0026
 2143SOL    HW218063   3.843   3.878   7.851  0.3152 -0.5368  0.4395
 2144SOL     OW18064   4.323   4.581   8.627  0.1208  0.0336  0.4365
 2144SOL    HW118065   4.346   4.660   8.579 -0.3669  1.8714  3.2240
 2144SOL    HW218066   4.228   4.588   8.619 -0.0333 -0.9994  1.3555
 2145SOL     OW18067   2.784   3.910   7.319  0.3477  0.1038  0.0895
 2145SOL    HW118068   2.719   3.979   7.305 -0.7877 -1.6815 -3.5219
 2145SOL    HW218069   2.779   3.860   7.237 -0.0097  0.0897  0.1223
 2146SOL     OW18070   1.673   1.548   4.578 -0.4875  0.2303  0.0281
 2146SOL    HW118071   1.617   1.625   4.592  2.3758  2.7164 -2.3717
 2146SOL    HW218072   1.725   1.580   4.505 -1.6590 -2.0735 -1.8356
 2147SOL     OW18073   3.444   0.702   7.736 -0.2091 -0.2397  0.4816
 2147SOL    HW118074   3.350   0.696   7.752 -0.3181 -0.1075 -0.1155
 2147SOL    HW218075   3.451   0.797   7.746 -3.9746  0.1221 -0.4044
 2148SOL     OW18076   2.658   3.133   3.805 -0.2538 -0.3059  0.0349
 2148SOL    HW118077   2.575   3.122   3.851 -0.2500  0.0021  0.1172
 2148SOL    HW218078   2.698   3.199   3.862 -0.8063 -2.0180  2.4370
 2149SOL     OW18079   4.272   3.307   3.996 -0.4247 -0.6317 -0.9480
 2149SOL    HW118080   4.309   3.308   4.084  0.4760  2.6121 -1.3938
 2149SOL    HW218081   4.338   3.263   3.943 -0.9033 -0.9481 -1.2920
 2150SOL     OW18082   3.007   3.188   4.198  0.5132  0.3072  0.5124
 2150SOL    HW118083   2.975   3.100   4.176 -3.1145  0.9721  3.1024
 2150SOL    HW218084   2.983   3.190   4.291 -1.0323  1.4611  0.0884
 2151SOL     OW18085   2.460   3.291  11.657  0.0839 -0.6478  0.1865
 2151SOL    HW118086   2.445   3.245  11.574  1.0559 -1.2531  0.3473
 2151SOL    HW218087   2.544   3.334  11.645 -0.8030  0.7918 -0.9076
 2152SOL     OW18088   3.170   3.639   6.808  0.1452  0.4257  0.0139
 2152SOL    HW118089   3.245   3.689   6.773 -0.3984  0.2249 -1.4376
 2152SOL    HW218090   3.208   3.551   6.814 -0.0416  0.2782 -0.9736
 2153SOL     OW18091   4.526   2.706  12.114 -0.7482  0.3515  0.1452
 2153SOL    HW118092   4.452   2.670  12.163 -0.3967 -0.4591  0.0811
 2153SOL    HW218093   4.532   2.801  12.124 -3.5411  0.4919  0.5813
 2154SOL     OW18094   4.640   2.864   6.216 -0.1801  0.4224  0.9251
 2154SOL    HW118095   4.688   2.932   6.265  0.2382 -0.0975  1.2352
 2154SOL    HW218096   4.625   2.797   6.282 -3.8794  0.0717 -0.3206
 2155SOL     OW18097   2.989   0.496   8.754 -0.1391  0.7551  0.0642
 2155SOL    HW118098   2.994   0.565   8.820 -2.8295 -0.7920  1.8581
 2155SOL    HW218099   2.896   0.496   8.733 -0.4507  1.1522  1.5006
 2156SOL     OW18100   1.232   1.380   3.608  0.0884 -0.2522  0.0133
 2156SOL    HW118101   1.160   1.427   3.568 -0.3453  0.5071  1.6800
 2156SOL    HW218102   1.191   1.293   3.614  1.2794 -0.7302  1.5604
 2157SOL     OW18103   0.500   3.883  15.762  0.2811  0.3194  0.2148
 2157SOL    HW118104   0.548   3.809  15.801 -0.3533 -0.0518  0.2957
 2157SOL    HW218105   0.445   3.907  15.837  2.8923 -2.3205  3.0039
 2158SOL     OW18106   3.354   0.639  12.217  0.5547 -0.0790  0.6441
 2158SOL    HW118107   3.310   0.701  12.276  0.5951  0.0911  0.4929
 2158SOL    HW218108   3.327   0.674  12.132  1.1015  0.1546  0.5687
 2159SOL     OW18109   1.053   2.613   9.018 -0.7268  0.6766  0.0337
 2159SOL    HW118110   1.114   2.539   9.021 -0.3086  1.0880  1.5008
 2159SOL    HW218111   1.106   2.685   9.052  2.6389 -2.1438  0.7227
 2160SOL     OW18112   3.008   0.950   3.905 -0.4127  0.6608  0.4087
 2160SOL    HW118113   2.917   0.946   3.933 -1.0215 -2.7962 -1.9881
 2160SOL    HW218114   3.032   0.875   3.958  1.2501  0.6685 -0.3368
 2161SOL     OW18115   2.294   2.800   2.972 -0.0392  0.0531  0.2575
 2161SOL    HW118116   2.315   2.754   3.053 -0.4004  1.5402  1.1879
 2161SOL    HW218117   2.379   2.821   2.932 -0.1265 -2.0858 -1.0243
 2162SOL     OW18118   0.571   3.541   8.198 -0.3660  0.0828  0.0576
 2162SOL    HW118119   0.626   3.523   8.123 -0.1928 -1.6250  0.5891
 2162SOL    HW218120   0.558   3.453   8.235 -0.9956  0.7737  1.5060
 2163SOL     OW18121   1.032   3.672   4.411  1.0116 -0.5110 -0.7485
 2163SOL    HW118122   0.984   3.658   4.329  0.6955 -0.4918 -0.5672
 2163SOL    HW218123   0.984   3.750   4.441  1.7051 -1.1760  2.0326
 2164SOL     OW18124   3.018   1.277  12.211  0.7735 -0.2394  0.1452
 2164SOL    HW118125   3.078   1.290  12.285 -1.1028  0.6696  1.5133
 2164SOL    HW218126   3.063   1.221  12.148  2.1915 -0.3305  1.2445
 2165SOL     OW18127   3.439   2.053   4.949 -0.1291 -0.5178  0.2344
 2165SOL    HW118128   3.531   2.065   4.973 -0.0356 -2.3697  0.8032
 2165SOL    HW218129   3.436   1.964   4.914  2.0755 -0.2554 -0.6095
 2166SOL     OW18130   1.272   1.365   5.514 -0.3278 -0.1149 -0.5931
 2166SOL    HW118131   1.334   1.421   5.561  0.7220 -0.7413 -1.2117
 2166SOL    HW218132   1.208   1.432   5.490 -1.0823 -0.3507  0.7873
 2167SOL     OW18133   1.508   2.480   9.243  0.0948  0.2936  0.2661
 2167SOL    HW118134   1.552   2.401   9.275  0.0300  1.2009  2.5618
 2167SOL    HW218135   1.457   2.522   9.312 -1.3519 -0.8785 -0.0796
 2168SOL     OW18136   2.238   4.097   7.852  0.3731  0.4192  0.1816
 2168SOL    HW118137   2.292   4.135   7.922  1.2822 -1.2716  0.4114
 2168SOL    HW218138   2.180   4.039   7.901  0.0799  0.6197  0.0691
 2169SOL     OW18139   1.299   3.341  17.495 -0.3426  0.1813  0.6753
 2169SOL    HW118140   1.264   3.326  17.407  0.1332  0.5666  0.4162
 2169SOL    HW218141   1.304   3.437  17.498  0.4846  0.1732 -0.5345
 2170SOL     OW18142   3.005   4.006   4.325  0.1422  0.1605  0.5354
 2170SOL    HW118143   3.008   4.044   4.238  2.8155  2.9389  1.8232
 2170SOL    HW218144   3.094   4.021   4.360  0.3507  0.2121 -0.0202
 2171SOL     OW18145   0.305   2.925   8.620  0.1228  0.1804 -0.1370
 2171SOL    HW118146   0.237   2.985   8.651  2.5349  2.0514  1.5570
 2171SOL    HW218147   0.349   2.984   8.559  0.6157 -1.5644 -1.4769
 2172SOL     OW18148   0.326   4.089   7.524 -0.5220  0.1035  0.4858
 2172SOL    HW118149   0.363   4.024   7.466  0.0155  0.2597  0.6531
 2172SOL    HW218150   0.328   4.044   7.608  0.2286 -0.9453 -0.1013
 2173SOL     OW18151   0.652   1.573   2.450 -0.0338  0.3415  0.1230
 2173SOL    HW118152   0.713   1.590   2.378  1.9119 -2.5224  1.0928
 2173SOL    HW218153   0.598   1.501   2.417  1.9840 -0.1798 -2.0100
 2174SOL     OW18154   1.549   3.708   8.217  0.1578  0.7772  0.0352
 2174SOL    HW118155   1.462   3.713   8.178 -0.0471 -0.9236  0.2694
 2174SOL    HW218156   1.606   3.731   8.143  0.7784 -0.2602  0.1842
 2175SOL     OW18157   0.483   1.270   3.650 -0.1134 -0.1035  0.4811
 2175SOL    HW118158   0.398   1.227   3.639  0.5022 -1.4197  0.8666
 2175SOL    HW218159   0.546   1.199   3.641 -1.5173 -1.1310 -1.4411
 2176SOL     OW18160   2.026   4.193   5.218 -0.2567  0.7792  0.0618
 2176SOL    HW118161   2.029   4.132   5.291 -0.1602  0.1089 -0.5018
 2176SOL    HW218162   2.107   4.182   5.167 -1.6012 -1.3261 -1.5926
 2177SOL     OW18163   1.346   3.470  16.699 -0.4128  0.3838 -0.2779
 2177SOL    HW118164   1.375   3.521  16.623 -2.4122  0.7071 -0.8145
 2177SOL    HW218165   1.426   3.434  16.737 -0.2612  0.1213 -0.8434
 2178SOL     OW18166   2.180   1.536  13.122 -0.3763  0.2002 -0.7170
 2178SOL    HW118167   2.225   1.582  13.050 -1.0470 -1.4922 -2.2295
 2178SOL    HW218168   2.230   1.561  13.200 -3.1086  0.0563  1.0646
 2179SOL     OW18169   0.782   4.057   7.114  0.2854 -0.0127 -0.1808
 2179SOL    HW118170   0.687   4.054   7.109  0.2491  0.9090 -0.2046
 2179SOL    HW218171   0.788   4.063   7.210  1.6188  1.0803 -0.3268
 2180SOL     OW18172   1.232   3.164   4.203  0.2089 -0.6061  0.3447
 2180SOL    HW118173   1.244   3.249   4.161 -1.4850  0.7464  2.6054
 2180SOL    HW218174   1.151   3.185   4.250  0.1767 -0.5907  0.2822
 2181SOL     OW18175   2.199   3.191   4.247  0.4997 -0.5098  0.3889
 2181SOL    HW118176   2.122   3.186   4.305  0.5197 -2.0088  0.2841
 2181SOL    HW218177   2.156   3.247   4.182  0.7789 -3.0391 -1.9609
 2182SOL     OW18178   3.328   3.060   5.514 -0.4760 -1.0558  0.2707
 2182SOL    HW118179   3.311   3.147   5.550  1.9362  0.1578 -1.4846
 2182SOL    HW218180   3.421   3.035   5.516  0.1479  1.0173 -2.7636
 2183SOL     OW18181   2.249   4.733   3.392 -1.1073  0.4312 -0.1152
 2183SOL    HW118182   2.172   0.040   3.353 -0.9409  1.2226  0.3915
 2183SOL    HW218183   2.314   0.033   3.331 -0.1589 -0.8267  0.1762
 2184SOL     OW18184   3.819   0.435   2.987  0.0826  0.7515 -0.2532
 2184SOL    HW118185   3.789   0.420   2.897  1.7465  0.2683 -0.7340
 2184SOL    HW218186   3.908   0.415   2.959 -0.1964 -0.7883 -0.0136
 2185SOL     OW18187   4.118   3.071   5.272 -0.3550 -0.1660 -0.0427
 2185SOL    HW118188   4.027   3.044   5.283  0.1958 -1.8231  0.4211
 2185SOL    HW218189   4.134   3.060   5.178 -0.1512 -1.1281  0.1045
 2186SOL     OW18190   3.741   3.073  10.871  0.2150 -0.2323 -0.2415
 2186SOL    HW118191   3.708   2.987  10.843  2.1087 -1.2358  0.6269
 2186SOL    HW218192   3.705   3.133  10.806  0.5567 -0.5849 -0.7542
 2187SOL     OW18193   0.095   3.302   7.197  0.3235 -0.3087 -0.3907
 2187SOL    HW118194   0.024   3.272   7.254 -0.9002  1.7577 -0.8134
 2187SOL    HW218195   0.172   3.289   7.251 -0.9413 -1.0674  1.2305
 2188SOL     OW18196   0.749   3.091   6.631 -0.1146 -0.3563 -0.4225
 2188SOL    HW118197   0.830   3.100   6.580 -1.7045 -1.2819 -3.1091
 2188SOL    HW218198   0.689   3.157   6.595 -0.1205  0.4063  0.9708
 2189SOL     OW18199   4.505   0.199   8.854 -0.0386  0.9573  0.3625
 2189SOL    HW118200   4.434   0.136   8.867 -0.5694  1.7492  1.2984
 2189SOL    HW218201   4.550   0.186   8.937  4.0300 -2.0945 -2.3320
 2190SOL     OW18202   0.955   2.631   6.411  0.1600  0.3775  0.0440
 2190SOL    HW118203   0.892   2.560   6.422 -2.1188  2.5303  0.7621
 2190SOL    HW218204   0.917   2.697   6.353 -0.5430  2.3628  2.7666
 2191SOL     OW18205   3.633   4.476   8.717  0.0347 -0.0205 -0.2201
 2191SOL    HW118206   3.665   4.537   8.651 -0.9692 -2.4715 -2.9907
 2191SOL    HW218207   3.660   4.391   8.683  3.7208 -0.5570  3.9321
 2192SOL     OW18208   0.005   3.857   2.897  0.4353 -0.5008 -0.7932
 2192SOL    HW118209   0.072   3.829   2.960 -0.5307  3.1900  1.8574
 2192SOL    HW218210   0.013   3.789   2.829 -0.8718  0.1890 -1.6277
 2193SOL     OW18211   1.459   1.894   4.133 -0.2857 -0.3181  0.2246
 2193SOL    HW118212   1.521   1.873   4.203 -0.2050 -2.1639 -0.4179
 2193SOL    HW218213   1.504   1.966   4.088  0.2890  0.0381  1.3591
 2194SOL     OW18214   3.369   2.521   9.489 -0.4555 -0.3048  0.2883
 2194SOL    HW118215   3.437   2.552   9.430  0.4027  0.5514  1.7268
 2194SOL    HW218216   3.382   2.426   9.486  1.6828  0.0168 -0.6362
 2195SOL     OW18217   3.484   0.984   8.774 -0.4133  0.1649 -0.3266
 2195SOL    HW118218   3.446   1.072   8.772  0.5616  0.5879 -0.2737
 2195SOL    HW218219   3.578   0.999   8.773 -0.5178  0.6850 -2.1851
 2196SOL     OW18220   0.536   3.396   5.547 -0.6573  0.2004  0.1044
 2196SOL    HW118221   0.631   3.381   5.554 -0.6976  0.7972  2.0729
 2196SOL    HW218222   0.506   3.328   5.608 -3.3140  0.1571 -1.2411
 2197SOL     OW18223   3.871   0.681   7.068 -0.0619 -0.1468  0.9103
 2197SOL    HW118224   3.894   0.671   6.976 -1.2182 -1.8319  0.8105
 2197SOL    HW218225   3.782   0.715   7.064 -0.8011 -2.3395 -1.6543
 2198SOL     OW18226   4.090   2.108   1.654  0.0808 -0.2487  0.6232
 2198SOL    HW118227   4.008   2.112   1.606  0.2329  0.6603  0.4426
 2198SOL    HW218228   4.070   2.046   1.724 -0.7367  0.8844  1.3940
 2199SOL     OW18229   1.589   3.766   5.144 -0.0247  0.1106  0.0891
 2199SOL    HW118230   1.586   3.824   5.221 -1.9969  0.1069  0.0103
 2199SOL    HW218231   1.563   3.806   5.061  1.1937  0.1922 -0.2635
 2200SOL     OW18232   2.876   3.696   0.988 -0.1676 -0.3515  0.3347
 2200SOL    HW118233   2.959   3.727   1.024  0.5364 -0.4665 -1.1879
 2200SOL    HW218234   2.865   3.761   0.919 -2.1237 -1.3128 -0.2614
 2201SOL     OW18235   0.282   2.268   7.053  0.5728  0.7129 -0.3091
 2201SOL    HW118236   0.299   2.177   7.079  1.2626  1.1140  0.6498
 2201SOL    HW218237   0.249   2.304   7.136 -0.7887 -0.4462 -0.3552
 2202SOL     OW18238   3.708   3.387   3.033  0.4612  0.2914 -0.4935
 2202SOL    HW118239   3.757   3.353   2.958 -1.9972  0.6416 -2.2801
 2202SOL    HW218240   3.669   3.306   3.066  1.0002  0.9953  1.8349
 2203SOL     OW18241   0.079   0.328   4.293  0.0194  0.3365 -0.2771
 2203SOL    HW118242   0.025   0.267   4.343  2.7050 -1.6862  0.1312
 2203SOL    HW218243   0.040   0.314   4.207 -3.3182 -0.4272  1.3591
 2204SOL     OW18244   3.697   1.810  16.811  0.3019  0.0120  0.0479
 2204SOL    HW118245   3.651   1.776  16.888 -0.8500 -2.5804 -1.7646
 2204SOL    HW218246   3.784   1.839  16.837 -0.4677  1.2472  1.2308
 2205SOL     OW18247   0.449   0.328   7.080 -0.1957 -0.4358  0.0076
 2205SOL    HW118248   0.475   0.348   6.991 -2.0775 -1.2282 -0.7196
 2205SOL    HW218249   0.464   0.412   7.123 -1.6929  0.9721 -2.2478
 2206SOL     OW18250   4.201   2.101   3.563 -0.1077 -0.1824  0.3365
 2206SOL    HW118251   4.235   2.157   3.492 -2.9497  1.1516  0.0002
 2206SOL    HW218252   4.131   2.158   3.594  0.3482  0.3581  0.3741
 2207SOL     OW18253   4.234   2.310   7.727  0.1221  0.2271 -1.0349
 2207SOL    HW118254   4.210   2.217   7.725  1.1632 -0.0558 -0.2487
 2207SOL    HW218255   4.227   2.332   7.820  0.5002  0.1138 -0.9801
 2208SOL     OW18256   1.267   2.130  14.592  0.4877 -0.1071 -0.1044
 2208SOL    HW118257   1.238   2.040  14.583  0.2846 -0.2065  1.4592
 2208SOL    HW218258   1.353   2.127  14.550  0.9985  0.3227  0.9120
 2209SOL     OW18259   4.317   1.529   5.136  0.0609 -0.1414  0.1656
 2209SOL    HW118260   4.387   1.536   5.201  1.8644  0.6015 -1.8496
 2209SOL    HW218261   4.241   1.560   5.185 -0.2921 -0.9528  0.1297
 2210SOL     OW18262   0.881   0.311   2.182  0.9112 -0.3084  0.1808
 2210SOL    HW118263   0.795   0.275   2.206 -0.0581  1.5969 -0.4544
 2210SOL    HW218264   0.936   0.285   2.256  1.0259  1.1435  0.5866
 2211SOL     OW18265   0.148   4.094   0.885 -0.1571 -0.4398 -0.0508
 2211SOL    HW118266   0.152   4.109   0.979 -0.3256 -2.9195  0.3544
 2211SOL    HW218267   0.242   4.092   0.865 -0.5344 -0.2701 -1.8806
 2212SOL     OW18268   2.752   4.266   6.768 -0.5815 -0.2323 -0.3025
 2212SOL    HW118269   2.749   4.199   6.837  0.8115  1.0234  0.9853
 2212SOL    HW218270   2.713   4.337   6.821 -1.0724  0.3544 -1.4534
 2213SOL     OW18271   2.152   1.927   3.572  0.1321  0.2792 -0.1003
 2213SOL    HW118272   2.138   1.834   3.586 -0.1525  0.5106  1.1778
 2213SOL    HW218273   2.075   1.953   3.522  0.5687  0.1146 -0.8421
 2214SOL     OW18274   1.794   4.106   6.109  0.0867  0.4797 -0.0639
 2214SOL    HW118275   1.783   4.016   6.080 -0.4937  0.7038 -0.5427
 2214SOL    HW218276   1.887   4.110   6.130  0.0475 -1.0976  0.3890
 2215SOL     OW18277   4.006   3.934   3.761 -0.4622  0.7376  0.6033
 2215SOL    HW118278   3.951   3.863   3.795 -0.3178 -0.2870 -1.2962
 2215SOL    HW218279   3.971   4.013   3.801  0.3583  0.9900  0.8167
 2216SOL     OW18280   4.625   4.174   3.838 -0.1418 -0.4389  0.1375
 2216SOL    HW118281   4.541   4.219   3.848 -0.1172  0.2977 -2.8129
 2216SOL    HW218282   4.602   4.122   3.761 -0.6604  0.3949 -0.2823
 2217SOL     OW18283   4.545   0.403  11.638  0.7135  0.4644  0.0406
 2217SOL    HW118284   4.513   0.357  11.716  0.7672  0.8590  0.2940
 2217SOL    HW218285   4.464   0.424  11.591  1.4662  0.7956 -1.1131
 2218SOL     OW18286   0.519   0.594   8.318  0.2878 -0.5270 -0.0695
 2218SOL    HW118287   0.598   0.639   8.348 -0.7801 -0.3936  2.5112
 2218SOL    HW218288   0.549   0.563   8.232  0.3117 -3.5104  1.0384
 2219SOL     OW18289   0.568   1.517   2.991  0.0845  0.0040  0.5692
 2219SOL    HW118290   0.529   1.451   2.933  0.7064  0.3954 -0.2941
 2219SOL    HW218291   0.654   1.522   2.949 -0.0800  1.1827  0.3832
 2220SOL     OW18292   3.882   1.084  10.167 -0.3012  0.1581 -0.8017
 2220SOL    HW118293   3.911   0.999  10.136 -0.4233  0.0766 -0.6938
 2220SOL    HW218294   3.960   1.134  10.192  1.0481 -1.6903 -1.3279
 2221SOL     OW18295   0.828   3.370   6.348 -0.3567  0.1114 -0.1568
 2221SOL    HW118296   0.743   3.344   6.384  0.2075 -2.6323 -0.7537
 2221SOL    HW218297   0.803   3.397   6.260 -2.6055 -0.3741  0.3209
 2222SOL     OW18298   3.916   0.849  15.202  0.1492  0.0607 -0.1363
 2222SOL    HW118299   4.002   0.863  15.241 -0.2843 -1.9454  1.5082
 2222SOL    HW218300   3.918   0.886  15.113 -2.3195 -1.2792 -0.7497
 2223SOL     OW18301   1.461   1.248  16.613 -0.1099  0.0128 -0.1677
 2223SOL    HW118302   1.537   1.194  16.635  0.2010  0.8726  0.8368
 2223SOL    HW218303   1.484   1.322  16.668 -2.6018  0.9935 -0.4454
 2224SOL     OW18304   3.310   1.241  13.815 -0.4241  0.0128  0.1501
 2224SOL    HW118305   3.395   1.218  13.854  0.7016  1.7929 -1.2803
 2224SOL    HW218306   3.266   1.160  13.841 -1.1487  0.2634 -0.2898
 2225SOL     OW18307   1.193   2.771   0.335  0.6266 -0.1328 -0.4485
 2225SOL    HW118308   1.187   2.675   0.336 -1.3293 -0.0071 -0.6984
 2225SOL    HW218309   1.241   2.781   0.417  0.5114  0.3162 -0.4374
 2226SOL     OW18310   1.935   1.324   9.087 -0.2967 -0.0234 -0.1577
 2226SOL    HW118311   2.014   1.281   9.054 -0.9389 -0.6278 -0.9055
 2226SOL    HW218312   1.977   1.399   9.129  0.6894  0.1270 -1.4207
 2227SOL     OW18313   2.902   0.425   7.092  0.2344  0.1438  0.0412
 2227SOL    HW118314   2.985   0.392   7.056 -0.5606 -1.2430 -0.4858
 2227SOL    HW218315   2.845   0.381   7.029 -0.3516  1.0509 -0.0586
 2228SOL     OW18316   1.720   2.568   3.195 -0.5567 -0.2370  0.2099
 2228SOL    HW118317   1.785   2.616   3.144  0.0437 -0.0515  1.1601
 2228SOL    HW218318   1.735   2.617   3.276 -1.0972  3.5706 -2.0112
 2229SOL     OW18319   1.013   2.410   9.660  0.0180 -0.2657 -0.5614
 2229SOL    HW118320   0.930   2.366   9.678 -0.1533  0.0183 -0.6555
 2229SOL    HW218321   0.997   2.447   9.574  0.2114 -0.4367 -0.6705
 2230SOL     OW18322   2.127   1.874   2.060  0.1886 -0.4890 -0.4669
 2230SOL    HW118323   2.125   1.961   2.100 -2.9486  0.2856 -2.3085
 2230SOL    HW218324   2.213   1.847   2.093 -0.0595 -0.8105 -0.0903
 2231SOL     OW18325   2.642   2.247   5.136  0.1697 -0.3761  0.3070
 2231SOL    HW118326   2.596   2.236   5.220 -0.0627 -1.5078  0.0349
 2231SOL    HW218327   2.576   2.232   5.068  0.0110  1.9084 -0.0592
 2232SOL     OW18328   1.792   0.073  11.409  0.0264 -0.4575 -0.0258
 2232SOL    HW118329   1.779   4.722  11.369 -3.5470  0.8331 -1.5988
 2232SOL    HW218330   1.878   0.055  11.447 -0.7945 -1.4855  1.3268
 2233SOL     OW18331   0.316   3.652   8.155  0.4230 -0.3064 -0.2551
 2233SOL    HW118332   0.296   3.644   8.248  2.0571  1.6049  0.2554
 2233SOL    HW218333   0.398   3.604   8.146  1.3015  1.0992  0.1797
 2234SOL     OW18334   3.782   3.246   6.889 -0.1416 -0.3437  0.8147
 2234SOL    HW118335   3.781   3.228   6.984  0.2248  1.4736  1.1564
 2234SOL    HW218336   3.713   3.312   6.889 -1.7168 -2.0099  0.9297
 2235SOL     OW18337   2.993   3.468  15.895 -0.2909  0.1590 -0.5707
 2235SOL    HW118338   2.957   3.552  15.924 -0.4304 -1.3748  3.6541
 2235SOL    HW218339   3.017   3.493  15.805 -3.4552 -0.0036 -1.4840
 2236SOL     OW18340   2.400   0.406  16.669  0.2030 -0.1668 -0.1478
 2236SOL    HW118341   2.339   0.475  16.644  3.5142  2.7009 -0.2393
 2236SOL    HW218342   2.476   0.433  16.617  1.4811 -1.1314  1.1955
 2237SOL     OW18343   1.976   1.562   5.132  0.2619 -0.2125  0.5395
 2237SOL    HW118344   1.962   1.517   5.049  1.6208  1.0293 -0.3584
 2237SOL    HW218345   1.986   1.651   5.099  2.7407 -0.8530 -0.3930
 2238SOL     OW18346   1.684   3.009  13.957  0.1917  0.8500 -0.4664
 2238SOL    HW118347   1.625   3.045  14.023  2.2101  1.6472  0.8849
 2238SOL    HW218348   1.619   2.948  13.920  1.4480 -0.5135 -0.4197
 2239SOL     OW18349   3.780   0.267   3.780  0.0929 -0.6617  0.4113
 2239SOL    HW118350   3.764   0.173   3.775  1.6229 -0.9850  1.6673
 2239SOL    HW218351   3.874   0.274   3.764 -0.0519  0.8692  0.1591
 2240SOL     OW18352   0.575   4.246   8.215  0.2785  0.6379 -0.5476
 2240SOL    HW118353   0.617   4.303   8.280 -0.2859  0.7101 -0.2428
 2240SOL    HW218354   0.574   4.304   8.139  0.2934  1.4117  0.0338
 2241SOL     OW18355   4.390   1.475   5.896  1.0542 -0.7079  0.4632
 2241SOL    HW118356   4.436   1.447   5.975  0.0564  0.0669  1.3208
 2241SOL    HW218357   4.305   1.464   5.938  0.4791 -3.7337 -1.4622
 2242SOL     OW18358   2.977   2.469  12.462  0.1076  0.3283  0.1896
 2242SOL    HW118359   2.937   2.475  12.376 -0.8722 -0.2441  0.5972
 2242SOL    HW218360   2.902   2.439  12.513  1.3909  0.7559  2.3436
 2243SOL     OW18361   4.714   3.079  13.692 -0.0899  0.3676 -0.3985
 2243SOL    HW118362   0.011   3.018  13.625  0.7334 -0.9440  1.2070
 2243SOL    HW218363   4.672   3.038  13.767 -1.4262  0.6056 -1.0084
 2244SOL     OW18364   0.721   4.501   3.997 -0.4393 -0.3315 -0.8684
 2244SOL    HW118365   0.812   4.475   3.980 -1.0092 -3.0343  0.2800
 2244SOL    HW218366   0.741   4.562   4.068  1.2208 -2.2546  0.3118
 2245SOL     OW18367   2.493   4.340   8.867 -0.1649  0.7048  0.0433
 2245SOL    HW118368   2.546   4.308   8.940  1.8185  3.2612 -0.2508
 2245SOL    HW218369   2.407   4.327   8.906  0.0781 -0.5512  0.1728
 2246SOL     OW18370   0.721   4.356   7.210  0.4948 -0.5479  0.4147
 2246SOL    HW118371   0.777   4.434   7.214  2.0394 -1.5673 -1.3908
 2246SOL    HW218372   0.774   4.290   7.255 -1.5422 -2.0328  0.6339
 2247SOL     OW18373   1.589   2.617   5.327  0.1287 -0.7510  0.2261
 2247SOL    HW118374   1.603   2.674   5.252 -0.8090  1.0746  1.4437
 2247SOL    HW218375   1.493   2.611   5.323  0.1184 -0.8054  0.5011
 2248SOL     OW18376   0.512   2.032   7.409 -0.1019  0.3670  0.4315
 2248SOL    HW118377   0.560   1.971   7.353  0.6074  0.8116  0.5540
 2248SOL    HW218378   0.574   2.102   7.427  0.3233 -0.3371  1.7361
 2249SOL     OW18379   0.710   3.754   5.955 -0.3747  0.1001 -0.2108
 2249SOL    HW118380   0.694   3.698   5.879 -1.3350 -0.6678  0.5582
 2249SOL    HW218381   0.698   3.839   5.911 -0.6465  0.3441  0.3339
 2250SOL     OW18382   0.999   1.148  15.375 -0.0435 -0.3761 -0.7019
 2250SOL    HW118383   1.074   1.139  15.315  0.5624 -1.3116  0.1954
 2250SOL    HW218384   0.929   1.188  15.323  0.8239  1.4809 -0.4582
 2251SOL     OW18385   0.196   1.511  16.035 -0.1697 -0.3925 -0.0139
 2251SOL    HW118386   0.223   1.457  15.961 -0.8485 -0.4729 -0.1974
 2251SOL    HW218387   0.266   1.494  16.098 -0.8114  0.1053  0.8388
 2252SOL     OW18388   0.421   2.662   3.113  0.9862  0.3353  0.3321
 2252SOL    HW118389   0.413   2.718   3.190  0.8565  0.5863  0.1356
 2252SOL    HW218390   0.470   2.585   3.141 -1.6863 -1.4991 -0.0302
 2253SOL     OW18391   3.567   4.162   5.861 -0.2978 -0.1247 -0.8567
 2253SOL    HW118392   3.649   4.193   5.900  0.8601 -1.8470 -1.9317
 2253SOL    HW218393   3.540   4.240   5.811  0.3359  1.3974  1.1866
 2254SOL     OW18394   4.093   3.169   2.857 -0.8011  0.2471  0.1653
 2254SOL    HW118395   4.166   3.182   2.798 -0.0435 -2.8499  0.4524
 2254SOL    HW218396   4.090   3.078   2.884  1.9563  1.2959  4.0100
 2255SOL     OW18397   0.190   0.241   5.006  1.2271 -0.1077 -0.8178
 2255SOL    HW118398   0.274   0.287   5.009  1.4887 -0.6776  0.6958
 2255SOL    HW218399   0.133   0.289   4.946  0.4487  0.3574  0.2854
 2256SOL     OW18400   2.440   1.328   7.946  0.1489 -0.1995  0.6476
 2256SOL    HW118401   2.528   1.363   7.959 -0.2628  1.3332 -0.7323
 2256SOL    HW218402   2.435   1.346   7.852  0.5662 -0.2639  0.6130
 2257SOL     OW18403   3.163   2.865   7.257  0.0342 -0.1865 -0.8323
 2257SOL    HW118404   3.166   2.802   7.329  2.0771  1.2711  0.3447
 2257SOL    HW218405   3.157   2.947   7.307  0.6145 -0.4073 -0.4170
 2258SOL     OW18406   4.125   4.683  10.112  0.2792 -0.1421  0.2455
 2258SOL    HW118407   4.197   4.646  10.162  0.7094 -2.1474 -1.8567
 2258SOL    HW218408   4.127   4.625  10.035 -2.3107 -0.5097  0.4377
 2259SOL     OW18409   4.624   4.251   8.676  0.3626 -0.5526  0.1382
 2259SOL    HW118410   4.651   4.274   8.587  0.3023  1.7935  0.7468
 2259SOL    HW218411   4.537   4.212   8.666 -0.0904  0.3446  0.6562
 2260SOL     OW18412   0.269   4.235   7.797  0.4633 -0.1646 -0.0895
 2260SOL    HW118413   0.229   4.251   7.882 -2.7934  1.6399 -1.9584
 2260SOL    HW218414   0.314   4.151   7.809 -1.0021 -1.1272 -1.2841
 2261SOL     OW18415   1.268   2.911   5.259 -0.9474 -0.0920  0.3535
 2261SOL    HW118416   1.289   2.914   5.352 -0.7265  1.4531  0.2685
 2261SOL    HW218417   1.205   2.839   5.259  0.3809 -1.2651 -2.5024
 2262SOL     OW18418   1.421   1.943   6.918  0.2434 -0.2371  0.2678
 2262SOL    HW118419   1.345   1.917   6.865  0.5125 -0.1163 -0.1737
 2262SOL    HW218420   1.388   1.909   7.001 -3.2188  0.2367 -0.9015
 2263SOL     OW18421   0.459   3.257  14.941 -0.1645  0.2856 -0.2888
 2263SOL    HW118422   0.364   3.254  14.956  0.3300 -2.1000  2.4393
 2263SOL    HW218423   0.501   3.282  15.023 -0.9491 -0.9824  0.5157
 2264SOL     OW18424   3.919   4.697   6.098  0.1783 -0.1996 -0.1124
 2264SOL    HW118425   3.989   4.692   6.034 -0.9058 -0.3159 -1.2957
 2264SOL    HW218426   3.851   0.003   6.045 -0.4149 -1.7736 -0.5714
 2265SOL     OW18427   0.179   0.461   6.181  0.2176  0.2230  0.5231
 2265SOL    HW118428   0.116   0.390   6.193  0.4721 -0.1011 -0.0251
 2265SOL    HW218429   0.229   0.457   6.262  0.2474 -1.2376  0.4369
 2266SOL     OW18430   3.320   4.390   8.354  0.1319  0.2578  0.0521
 2266SOL    HW118431   3.341   4.482   8.368 -0.7816  0.8887 -2.8569
 2266SOL    HW218432   3.231   4.384   8.319 -0.3436 -1.3615  1.5394
 2267SOL     OW18433   2.132   4.382   2.746  0.1252  0.4731 -0.1461
 2267SOL    HW118434   2.131   4.437   2.668 -0.2108  2.7426  1.4320
 2267SOL    HW218435   2.120   4.294   2.710  1.5845  0.2827 -0.1754
 2268SOL     OW18436   3.956   1.593   7.292 -0.3205 -0.3457 -0.0973
 2268SOL    HW118437   3.930   1.522   7.350 -2.7705 -1.3132 -2.4041
 2268SOL    HW218438   3.988   1.658   7.356 -3.2082 -0.2971  1.2780
 2269SOL     OW18439   0.234   1.617   6.753 -0.1735  0.3839 -0.6004
 2269SOL    HW118440   0.299   1.575   6.697 -0.1682 -0.8272  0.3054
 2269SOL    HW218441   0.203   1.678   6.686  1.4286 -0.9141 -2.5126
 2270SOL     OW18442   0.354   0.783   5.038 -0.2923 -0.0618  0.0473
 2270SOL    HW118443   0.402   0.847   5.091 -1.5274  0.3568  0.6387
 2270SOL    HW218444   0.315   0.839   4.971 -4.7960 -1.5534  1.4436
 2271SOL     OW18445   1.962   2.084   1.142  0.6335  0.3892  0.0823
 2271SOL    HW118446   2.029   2.015   1.138 -1.1239 -1.2644 -0.4271
 2271SOL    HW218447   1.922   2.055   1.224  1.0249 -0.6748 -0.1039
 2272SOL     OW18448   0.121   2.945  14.292 -0.4569  0.6597  0.2799
 2272SOL    HW118449   0.078   2.863  14.267  1.5351 -0.5696  0.9212
 2272SOL    HW218450   0.095   2.999  14.217 -2.0151 -0.8915 -0.3057
 2273SOL     OW18451   0.898   3.574   8.667 -0.3999  0.4759 -0.1753
 2273SOL    HW118452   0.867   3.488   8.638 -2.7443  1.5516 -0.8534
 2273SOL    HW218453   0.980   3.567   8.618 -0.4379  1.0242 -0.3159
 2274SOL     OW18454   2.414   1.598   8.289 -0.0216  0.0931  0.2316
 2274SOL    HW118455   2.347   1.575   8.354 -0.5836 -0.0925 -0.4211
 2274SOL    HW218456   2.440   1.677   8.337  1.5435 -0.7658  0.7958
 2275SOL     OW18457   3.318   0.629   5.018  0.1642 -0.7993  0.5003
 2275SOL    HW118458   3.251   0.607   5.082  0.4561 -0.5016  0.9084
 2275SOL    HW218459   3.399   0.632   5.069  2.2834  1.3606 -2.9485
 2276SOL     OW18460   1.451   0.135   5.184  0.6717 -0.6312  0.3226
 2276SOL    HW118461   1.505   0.200   5.139  0.7427 -1.2511 -0.4764
 2276SOL    HW218462   1.447   0.177   5.270 -0.7916  0.0026 -0.0591
 2277SOL     OW18463   3.160   2.276   4.468  0.2928 -0.1023  0.1129
 2277SOL    HW118464   3.076   2.284   4.514  1.1493 -1.9254  1.9652
 2277SOL    HW218465   3.197   2.194   4.499 -1.3757 -0.3117  1.5572
 2278SOL     OW18466   4.704   4.419   6.216 -0.6818 -0.3087  0.3858
 2278SOL    HW118467   4.679   4.503   6.253 -3.1669 -0.8565 -0.0102
 2278SOL    HW218468   4.691   4.364   6.293  2.3545 -0.8889  0.4792
 2279SOL     OW18469   2.979   2.180  13.483  0.1148 -0.0542 -0.7631
 2279SOL    HW118470   2.932   2.102  13.514  0.7333 -0.8525 -1.8234
 2279SOL    HW218471   2.991   2.162  13.389  1.3942  0.5668 -0.7105
 2280SOL     OW18472   0.142   0.628   2.095  0.2693 -0.0676 -0.0252
 2280SOL    HW118473   0.211   0.562   2.109  1.9680  1.8947  0.8268
 2280SOL    HW218474   0.201   0.703   2.094  0.0028  0.1447  0.2034
 2281SOL     OW18475   0.366   4.538   0.134 -0.4939 -0.0569 -0.0235
 2281SOL    HW118476   0.428   4.599   0.174  1.3309 -2.5938  0.9412
 2281SOL    HW218477   0.402   4.450   0.144 -3.7078 -1.0886  2.6004
 2282SOL     OW18478   0.261   3.638  15.843  0.1708 -0.4267 -0.1474
 2282SOL    HW118479   0.293   3.609  15.928  0.5823  0.6188  0.0595
 2282SOL    HW218480   0.244   3.733  15.844  2.8418  0.0810 -1.1163
 2283SOL     OW18481   4.360   2.723  10.504 -0.0681  0.2078  0.4744
 2283SOL    HW118482   4.355   2.800  10.561 -1.5418  0.5223 -0.1039
 2283SOL    HW218483   4.452   2.733  10.479 -0.7359 -0.9781 -2.4029
 2284SOL     OW18484   0.838   1.249   2.390  0.2516  0.3489  0.2676
 2284SOL    HW118485   0.784   1.282   2.318  2.4244 -0.7448 -1.8410
 2284SOL    HW218486   0.864   1.325   2.441  0.3453  0.5169 -0.0293
 2285SOL     OW18487   2.479   0.501   3.693 -0.3446 -0.5250 -0.0058
 2285SOL    HW118488   2.475   0.458   3.608 -1.6520  1.7163 -1.0741
 2285SOL    HW218489   2.461   0.593   3.674 -1.1589 -1.0059 -1.5561
 2286SOL     OW18490   2.843   4.377   4.506  0.5307  0.3459 -0.2849
 2286SOL    HW118491   2.800   4.343   4.427 -0.4089 -2.7314  1.5514
 2286SOL    HW218492   2.765   4.410   4.551 -0.8961 -2.3352 -0.7250
 2287SOL     OW18493   3.404   3.542   1.924 -0.0242  0.1000  0.0877
 2287SOL    HW118494   3.485   3.568   1.967 -0.2565  2.6992 -1.1072
 2287SOL    HW218495   3.336   3.556   1.990  0.9146 -0.2579  1.1289
 2288SOL     OW18496   1.591   3.021   4.019 -0.3203 -0.5867  0.2638
 2288SOL    HW118497   1.654   3.029   3.947  0.7311 -0.8520  1.1572
 2288SOL    HW218498   1.605   3.108   4.055 -0.5958 -0.8074  0.8924
 2289SOL     OW18499   2.741   1.685   6.979 -0.0208 -0.3672 -0.5566
 2289SOL    HW118500   2.734   1.773   7.017 -0.6722  0.2208 -2.0596
 2289SOL    HW218501   2.696   1.630   7.043  0.9407  0.7693  1.0987
 2290SOL     OW18502   0.577   3.359  15.165  0.2660  0.0628 -0.0380
 2290SOL    HW118503   0.607   3.441  15.126 -0.6460  0.1833 -0.5079
 2290SOL    HW218504   0.500   3.385  15.216 -0.1495  0.0009 -0.6241
 2291SOL     OW18505   2.323   3.325   3.844 -0.1328  0.1594  1.1146
 2291SOL    HW118506   2.355   3.387   3.779 -1.3372  0.1895  0.5420
 2291SOL    HW218507   2.235   3.314   3.808  0.3439  0.4971 -0.1440
 2292SOL     OW18508   0.811   2.064  10.982 -0.9831 -0.1170  0.1646
 2292SOL    HW118509   0.784   2.113  11.059  3.1364 -0.0666  1.5855
 2292SOL    HW218510   0.771   2.118  10.914 -1.9604 -1.0240  0.0174
 2293SOL     OW18511   0.109   0.792   4.060  0.5735 -0.3686 -0.0212
 2293SOL    HW118512   0.168   0.724   4.092  1.5291  0.6807  0.4515
 2293SOL    HW218513   0.094   0.838   4.143 -0.0588  0.2141 -0.4654
 2294SOL     OW18514   2.666   3.011   5.714 -0.2283 -0.0221 -0.1357
 2294SOL    HW118515   2.641   3.061   5.636  0.5009  2.5022  1.2627
 2294SOL    HW218516   2.642   2.925   5.679 -1.1069  0.8854 -1.7619
 2295SOL     OW18517   0.920   2.449   7.137 -0.1772  0.1120  0.1019
 2295SOL    HW118518   0.925   2.378   7.073  1.1642 -0.7924  1.2044
 2295SOL    HW218519   0.996   2.422   7.189 -0.6281  0.9411  1.1839
 2296SOL     OW18520   0.904   0.780   5.724 -0.5401 -0.5664 -0.0552
 2296SOL    HW118521   0.875   0.696   5.688  0.9020 -0.4860 -1.4104
 2296SOL    HW218522   0.819   0.820   5.743 -0.3307 -0.8083  1.3360
 2297SOL     OW18523   4.356   1.719   7.342 -0.6933  0.2228 -0.3337
 2297SOL    HW118524   4.395   1.632   7.336  0.1104  0.6195 -0.8335
 2297SOL    HW218525   4.374   1.748   7.253 -0.3620  1.7795  0.2423
 2298SOL     OW18526   0.194   1.143   3.874  0.5046 -0.2209 -0.6787
 2298SOL    HW118527   0.150   1.153   3.958 -0.8577  2.0950 -1.6467
 2298SOL    HW218528   0.274   1.191   3.895 -0.5795  0.9725  0.7149
 2299SOL     OW18529   3.985   1.373   5.792  0.3410 -0.0903  0.3822
 2299SOL    HW118530   3.995   1.441   5.725  1.2070  1.0523  1.6679
 2299SOL    HW218531   4.027   1.410   5.870 -1.3856 -0.7631  1.6244
 2300SOL     OW18532   1.202   0.587  12.821 -0.0268  0.2419 -0.7246
 2300SOL    HW118533   1.151   0.603  12.900  2.5984 -0.4439  1.1113
 2300SOL    HW218534   1.147   0.632  12.756 -3.9229 -0.6601  1.9530
 2301SOL     OW18535   1.324   3.454   3.644 -0.2177 -0.1076  0.1657
 2301SOL    HW118536   1.411   3.462   3.682  0.4213 -1.9544 -0.9774
 2301SOL    HW218537   1.277   3.531   3.678  1.2804  0.7849  0.2064
 2302SOL     OW18538   3.570   4.469   5.142  0.0023 -0.6306 -0.0841
 2302SOL    HW118539   3.486   4.435   5.175 -0.3445  1.5671  1.2690
 2302SOL    HW218540   3.607   4.383   5.120  0.0501 -0.4596 -0.6619
 2303SOL     OW18541   0.291   2.531  13.613  0.0041  1.2372 -0.2643
 2303SOL    HW118542   0.360   2.469  13.637  1.2510  2.3432 -0.9852
 2303SOL    HW218543   0.251   2.540  13.700 -1.6383 -1.6838 -0.7075
 2304SOL     OW18544   3.982   0.814   2.926 -0.5114  0.2598 -0.1625
 2304SOL    HW118545   4.059   0.758   2.934  0.2158  1.4995  1.4301
 2304SOL    HW218546   3.986   0.830   2.832  0.5856 -1.0275 -0.3258
 2305SOL     OW18547   2.286   1.752  11.049 -0.1341 -0.0768  0.7063
 2305SOL    HW118548   2.324   1.837  11.074 -0.7920  0.4802 -0.1664
 2305SOL    HW218549   2.219   1.782  10.987 -0.3320 -0.2589  0.8326
 2306SOL     OW18550   4.407   0.346   3.383 -0.1411 -0.2299 -0.2864
 2306SOL    HW118551   4.475   0.279   3.379 -1.0125 -1.2274  1.4132
 2306SOL    HW218552   4.455   0.422   3.350  0.4096 -0.3287  0.3142
 2307SOL     OW18553   0.843   0.403   5.954 -0.6349  0.1894 -0.1307
 2307SOL    HW118554   0.748   0.410   5.949 -0.5507 -0.5846 -2.5215
 2307SOL    HW218555   0.857   0.421   5.862 -0.9755  1.5659  0.0873
 2308SOL     OW18556   2.716   1.158   4.898 -0.1001 -0.0463  0.0397
 2308SOL    HW118557   2.686   1.154   4.807 -1.2912  1.6045  0.3748
 2308SOL    HW218558   2.794   1.104   4.883 -0.3913 -0.5464  0.3517
 2309SOL     OW18559   0.493   2.311   3.855 -0.3197  0.3104  0.0420
 2309SOL    HW118560   0.561   2.365   3.894  2.1011 -2.2283 -0.6132
 2309SOL    HW218561   0.419   2.353   3.897  0.6014 -0.0887  2.0837
 2310SOL     OW18562   0.276   1.455   3.853 -0.0386 -0.2064  0.0383
 2310SOL    HW118563   0.190   1.474   3.890  0.0132  0.0838  0.0121
 2310SOL    HW218564   0.260   1.494   3.767 -0.7959 -1.7894 -0.5299
 2311SOL     OW18565   2.169   1.987   8.325  0.3636 -0.5609  0.1143
 2311SOL    HW118566   2.169   2.049   8.253 -0.6386 -0.1125  0.4944
 2311SOL    HW218567   2.259   1.957   8.319  0.2813 -1.4628  3.2471
 2312SOL     OW18568   1.877   1.742   4.059  0.1709  0.5793 -0.0913
 2312SOL    HW118569   1.864   1.789   3.977  0.8661  1.1213  0.1112
 2312SOL    HW218570   1.971   1.728   4.048 -0.2002 -2.1873  0.1118
 2313SOL     OW18571   0.723   0.684   8.471  0.2183  0.1627 -0.1300
 2313SOL    HW118572   0.808   0.704   8.432  0.3866  0.4063  0.3691
 2313SOL    HW218573   0.745   0.657   8.560  0.6533  2.0973  0.3373
 2314SOL     OW18574   0.950   1.251  12.252 -0.0404 -0.0032  0.1444
 2314SOL    HW118575   0.857   1.268  12.240 -0.2636 -0.3053  1.4713
 2314SOL    HW218576   0.938   1.157  12.261 -0.0656 -0.0283 -0.1406
 2315SOL     OW18577   1.077   0.577  14.951  0.3350 -0.6398 -0.0571
 2315SOL    HW118578   1.042   0.663  14.973  0.9155 -0.4901  0.2897
 2315SOL    HW218579   1.146   0.568  15.017  1.1994 -4.7076 -1.5559
 2316SOL     OW18580   0.249   0.207   7.260  0.1288  0.0923 -0.1077
 2316SOL    HW118581   0.210   0.292   7.276  2.9322  1.1111  1.2904
 2316SOL    HW218582   0.330   0.226   7.212  0.5375 -2.6627 -0.5672
 2317SOL     OW18583   1.591   0.098  10.731 -0.4178  0.0196  0.2512
 2317SOL    HW118584   1.592   0.151  10.811  0.0545 -0.1297  0.3469
 2317SOL    HW218585   1.497   0.099  10.717 -0.1653 -0.0787 -1.4937
 2318SOL     OW18586   0.277   3.585   0.708  0.0621  0.5914  0.1292
 2318SOL    HW118587   0.268   3.648   0.779 -1.8355 -0.6396  0.9577
 2318SOL    HW218588   0.198   3.536   0.728 -0.6227  1.1960 -1.0987
 2319SOL     OW18589   3.461   4.154   7.073  0.6647 -1.0686  0.0630
 2319SOL    HW118590   3.381   4.103   7.087 -1.3340  1.7493 -1.0561
 2319SOL    HW218591   3.447   4.200   7.156 -2.0998  0.9591 -1.5366
 2320SOL     OW18592   0.786   0.521   7.810  0.0333  0.8709 -0.2501
 2320SOL    HW118593   0.803   0.613   7.831  0.1549  0.7741  0.0744
 2320SOL    HW218594   0.740   0.514   7.726 -1.6720  3.0588  0.5039
 2321SOL     OW18595   1.175   2.298   6.956  0.2453  0.3790 -0.0614
 2321SOL    HW118596   1.114   2.267   7.023 -0.2296 -2.2924 -1.7507
 2321SOL    HW218597   1.186   2.226   6.894  1.8990 -0.0195  0.6723
 2322SOL     OW18598   1.551   3.381   7.433 -0.3249 -0.1407 -0.7295
 2322SOL    HW118599   1.609   3.456   7.430 -1.3120  0.6086 -1.2902
 2322SOL    HW218600   1.474   3.429   7.400 -1.4130 -1.4470 -0.1107
 2323SOL     OW18601   1.850   3.946   6.676 -0.4393  0.2651 -0.4960
 2323SOL    HW118602   1.929   3.979   6.718 -1.3082 -0.7984  1.9403
 2323SOL    HW218603   1.835   4.031   6.633 -2.2752 -0.7284 -1.8034
 2324SOL     OW18604   2.915   0.781   6.731 -0.3238  0.2902  0.0817
 2324SOL    HW118605   2.887   0.841   6.800 -0.7370 -0.4352  0.5471
 2324SOL    HW218606   2.842   0.722   6.714  1.2276 -1.2434 -1.3108
 2325SOL     OW18607   0.842   2.969  13.606 -0.1729  0.2745 -0.2313
 2325SOL    HW118608   0.786   3.024  13.553 -1.1717  0.6134  1.1834
 2325SOL    HW218609   0.899   3.031  13.651  0.8620 -1.6314  1.1168
 2326SOL     OW18610   2.697   0.032  13.474 -0.0868 -0.2004  0.0856
 2326SOL    HW118611   2.712   4.702  13.404  1.0213  0.6646 -0.4953
 2326SOL    HW218612   2.788   0.043  13.503  0.7307 -1.2770 -2.0418
 2327SOL     OW18613   0.922   1.443   2.568 -0.3285 -0.2832  0.1922
 2327SOL    HW118614   1.008   1.402   2.562 -0.5223 -0.5576 -0.7197
 2327SOL    HW218615   0.942   1.534   2.549  0.5915 -0.7054 -0.8603
 2328SOL     OW18616   0.934   4.553   2.772  0.2968 -0.3791  0.0492
 2328SOL    HW118617   1.020   4.534   2.733  0.2395 -0.6703  0.0642
 2328SOL    HW218618   0.894   4.470   2.746  1.3423 -1.0721  0.6619
 2329SOL     OW18619   3.751   4.165   3.034  0.1760  0.0248  0.5317
 2329SOL    HW118620   3.685   4.126   3.092  0.4883 -1.3055 -0.0234
 2329SOL    HW218621   3.801   4.091   3.002  0.3514  0.1923  0.4189
 2330SOL     OW18622   2.844   2.489   8.806  0.0400  0.1658  0.0839
 2330SOL    HW118623   2.787   2.476   8.882 -1.5196  0.4131 -1.0372
 2330SOL    HW218624   2.897   2.564   8.831  0.7758  0.0898 -1.2783
 2331SOL     OW18625   2.630   0.447  16.530 -0.4326 -0.3216  0.4477
 2331SOL    HW118626   2.608   0.414  16.443  1.9534 -2.5228  0.7000
 2331SOL    HW218627   2.678   0.524  16.499 -0.2332 -0.9502 -0.7716
 2332SOL     OW18628   2.985   3.329   2.559  0.1750 -0.1042  0.1145
 2332SOL    HW118629   3.028   3.401   2.606 -1.1542  0.5686  0.3036
 2332SOL    HW218630   3.051   3.301   2.496  0.9912  2.9289 -0.3808
 2333SOL     OW18631   3.393   1.574   3.339  0.0076  0.1941  0.0424
 2333SOL    HW118632   3.378   1.570   3.433  0.6362  0.0691  0.1389
 2333SOL    HW218633   3.403   1.479   3.332  0.5458  0.1550  1.3366
 2334SOL     OW18634   3.654   0.104  10.016 -1.0395  0.1262  0.4127
 2334SOL    HW118635   3.671   0.069  10.103  0.2868  1.1323  0.5566
 2334SOL    HW218636   3.717   0.177  10.008 -1.7002  0.5484 -0.8899
 2335SOL     OW18637   3.731   0.429   2.194  0.1588 -0.0773  0.6122
 2335SOL    HW118638   3.796   0.394   2.133 -0.0179 -1.5897  1.2862
 2335SOL    HW218639   3.714   0.514   2.153  0.1237 -0.3775 -0.0014
 2336SOL     OW18640   1.114   2.337   2.932 -0.4342  0.3798  0.0374
 2336SOL    HW118641   1.111   2.241   2.934  1.0209  0.3409  0.1134
 2336SOL    HW218642   1.153   2.346   2.845  0.0789  0.1860  0.2533
 2337SOL     OW18643   2.517   2.790   8.778  0.5228  0.3390 -0.0967
 2337SOL    HW118644   2.540   2.697   8.769 -0.9136 -0.2547  2.1571
 2337SOL    HW218645   2.578   2.833   8.719  0.7837 -0.4801 -0.4249
 2338SOL     OW18646   2.382   3.997   1.513  0.5183 -0.5152  0.1234
 2338SOL    HW118647   2.445   3.999   1.586  0.6679 -0.7762  0.0041
 2338SOL    HW218648   2.314   3.938   1.546  0.4264 -0.9988 -0.9397
 2339SOL     OW18649   3.010   1.451  12.615 -0.0956 -0.1129 -0.2095
 2339SOL    HW118650   3.088   1.495  12.647 -0.1801 -1.9358  2.4978
 2339SOL    HW218651   2.990   1.485  12.528 -0.5731 -3.1090 -1.2702
 2340SOL     OW18652   3.051   2.792   4.060  0.4059 -0.0421  0.1842
 2340SOL    HW118653   3.093   2.837   3.986  0.3910 -0.0680  0.1601
 2340SOL    HW218654   2.977   2.850   4.078 -0.1737  0.0983 -2.6328
 2341SOL     OW18655   1.805   2.019   5.697  0.3898  0.2393 -0.4093
 2341SOL    HW118656   1.736   1.954   5.709  1.0527 -0.3255  0.3521
 2341SOL    HW218657   1.754   2.097   5.720 -0.3388 -0.4276  0.2165
 2342SOL     OW18658   1.427   0.343   9.303  0.1003  0.4521  0.1710
 2342SOL    HW118659   1.398   0.415   9.247  1.9627 -0.9273 -2.6038
 2342SOL    HW218660   1.422   0.373   9.394 -1.3357  1.1515 -0.1433
 2343SOL     OW18661   4.263   1.197   6.136  0.3022 -0.3212 -0.0480
 2343SOL    HW118662   4.202   1.152   6.078  0.7239 -1.0498  0.0763
 2343SOL    HW218663   4.294   1.129   6.195 -1.0764 -0.2638  0.7524
 2344SOL     OW18664   2.299   3.578  13.310  0.1019  0.2505  0.2682
 2344SOL    HW118665   2.303   3.614  13.221 -2.2373 -0.0202  0.0549
 2344SOL    HW218666   2.287   3.663  13.352  0.1278  0.2618  0.2526
 2345SOL     OW18667   1.290   1.667  10.964 -0.1315 -0.3308  0.5533
 2345SOL    HW118668   1.380   1.693  10.981  0.1946 -1.5403  0.6752
 2345SOL    HW218669   1.299   1.586  10.914  0.8053  0.5466 -0.6804
 2346SOL     OW18670   4.466   3.799   3.837 -0.5108  0.1992 -0.1782
 2346SOL    HW118671   4.414   3.719   3.833 -0.4047  0.0526  1.4453
 2346SOL    HW218672   4.537   3.772   3.894  0.2155 -0.7366 -1.5385
 2347SOL     OW18673   3.643   3.810  12.953  0.4445 -0.8331  0.0916
 2347SOL    HW118674   3.673   3.899  12.936 -3.1124  0.2307 -0.7178
 2347SOL    HW218675   3.705   3.753  12.908  0.4405 -2.0432  1.6298
 2348SOL     OW18676   1.792   2.796  17.208 -0.3704 -0.1879 -0.2869
 2348SOL    HW118677   1.748   2.779  17.124 -1.2715 -0.1596  0.1699
 2348SOL    HW218678   1.720   2.787  17.271  1.1327 -1.6206  1.2005
 2349SOL     OW18679   0.814   2.321  14.029 -0.6632 -0.7109  0.1183
 2349SOL    HW118680   0.848   2.233  14.044 -0.8432 -0.7906  0.0437
 2349SOL    HW218681   0.808   2.320  13.934 -0.3864  0.6552  0.0804
 2350SOL     OW18682   0.972   1.810   8.298  0.2576  0.1323  0.3278
 2350SOL    HW118683   1.037   1.743   8.319 -0.4476  0.4505  3.6478
 2350SOL    HW218684   0.925   1.775   8.223  0.5724 -0.7784  0.5521
 2351SOL     OW18685   2.060   2.335   7.822  0.2409  0.0348 -0.0392
 2351SOL    HW118686   2.074   2.246   7.789 -0.1182 -0.5928  1.5481
 2351SOL    HW218687   2.134   2.348   7.881  1.2422  2.4850 -1.8270
 2352SOL     OW18688   3.539   4.495  16.334 -0.1874 -0.1556  0.2826
 2352SOL    HW118689   3.484   4.574  16.339  2.4423  1.6089  1.3204
 2352SOL    HW218690   3.479   4.431  16.297 -0.5253  0.4335 -0.1937
 2353SOL     OW18691   2.858   2.554   7.013  0.3521 -0.0648  0.2323
 2353SOL    HW118692   2.790   2.555   6.946  0.5531 -0.9078  0.0233
 2353SOL    HW218693   2.852   2.648   7.029 -0.7771 -0.0129 -0.4945
 2354SOL     OW18694   1.509   2.445   3.551 -0.9751 -0.3708 -0.1081
 2354SOL    HW118695   1.542   2.379   3.612 -2.4986 -0.3110  0.7962
 2354SOL    HW218696   1.504   2.400   3.467  2.1881  0.9170 -0.9597
 2355SOL     OW18697   0.394   0.409   2.690  0.0975 -0.2878  0.3059
 2355SOL    HW118698   0.361   0.464   2.619 -2.7070 -2.7522 -0.3325
 2355SOL    HW218699   0.467   0.368   2.644  1.1174  0.6362  1.1237
 2356SOL     OW18700   0.693   3.478   4.299 -0.2037 -0.1427  0.0921
 2356SOL    HW118701   0.606   3.439   4.289 -0.2231  0.1406 -0.7832
 2356SOL    HW218702   0.666   3.550   4.243  0.1302 -0.3850 -0.3763
 2357SOL     OW18703   4.382   0.473  16.799 -0.3498 -0.5350  0.6221
 2357SOL    HW118704   4.306   0.487  16.744  1.1140 -0.4918 -1.4042
 2357SOL    HW218705   4.433   0.416  16.740 -1.4838 -1.7587  0.8103
 2358SOL     OW18706   3.860   0.380  12.073 -0.2474  0.5037  0.1856
 2358SOL    HW118707   3.820   0.380  12.160  1.1781  2.0488  0.8191
 2358SOL    HW218708   3.813   0.303  12.040  0.6336  0.3657 -0.7516
 2359SOL     OW18709   3.989   1.600   9.883 -0.0284 -0.2317 -0.4866
 2359SOL    HW118710   3.939   1.681   9.868  0.9221  0.4368 -0.0345
 2359SOL    HW218711   3.999   1.564   9.795 -0.9997  1.5056 -1.3139
 2360SOL     OW18712   2.799   0.346   7.577 -0.3929 -0.5481  0.8906
 2360SOL    HW118713   2.875   0.298   7.610  0.9477  0.3422 -0.9324
 2360SOL    HW218714   2.821   0.360   7.485 -1.1922  3.0358  1.2300
 2361SOL     OW18715   1.389   3.331   8.384 -0.1972 -0.2699  0.1305
 2361SOL    HW118716   1.373   3.366   8.471  2.9373 -0.6164  0.8344
 2361SOL    HW218717   1.452   3.394   8.347  1.0186 -0.8766  1.1710
 2362SOL     OW18718   3.477   1.530   3.641  0.2689  0.2030  0.4706
 2362SOL    HW118719   3.461   1.605   3.698 -1.2750  0.9521 -0.9726
 2362SOL    HW218720   3.556   1.559   3.594  1.1219 -1.8503  0.6248
 2363SOL     OW18721   4.423   4.276  11.295 -0.5376 -0.0126 -0.0834
 2363SOL    HW118722   4.415   4.201  11.235 -1.1337 -1.2913  1.5871
 2363SOL    HW218723   4.491   4.325  11.248 -0.0428 -2.2756 -1.7749
 2364SOL     OW18724   3.518   0.104   9.711  0.3670 -0.2574 -0.1083
 2364SOL    HW118725   3.424   0.124   9.702  0.2317 -1.0857 -0.6087
 2364SOL    HW218726   3.510   0.093   9.806 -0.3092 -0.8546 -0.2255
 2365SOL     OW18727   3.316   2.720   3.091  0.5018 -0.2349 -0.5489
 2365SOL    HW118728   3.334   2.639   3.044 -2.6447  0.1419 -2.4121
 2365SOL    HW218729   3.318   2.786   3.021  0.8995  2.8697  2.3652
 2366SOL     OW18730   1.055   4.113  17.540 -0.0122  0.0216  0.1984
 2366SOL    HW118731   1.130   4.054  17.548 -1.1988 -1.6101 -0.7394
 2366SOL    HW218732   0.986   4.047  17.541 -0.1606  0.1552 -0.7165
 2367SOL     OW18733   1.008   2.982   3.942 -0.2604  0.2006  0.1838
 2367SOL    HW118734   1.099   2.974   3.914  0.3898  1.1579  2.0853
 2367SOL    HW218735   0.987   3.072   3.919 -1.9758 -0.1853  0.1917
 2368SOL     OW18736   1.552   3.854  14.909  0.7220 -0.1115 -0.0129
 2368SOL    HW118737   1.512   3.768  14.896  0.6246  0.0212 -0.5866
 2368SOL    HW218738   1.594   3.871  14.824 -0.5990  0.9344 -0.4592
 2369SOL     OW18739   1.538   3.163  17.155  0.0182 -0.4598  0.1219
 2369SOL    HW118740   1.466   3.138  17.097  2.1249 -3.7117 -1.1311
 2369SOL    HW218741   1.612   3.129  17.104  0.3941 -2.9777  2.3681
 2370SOL     OW18742   4.507   1.456   7.303  0.1461  0.3733  0.0666
 2370SOL    HW118743   4.544   1.374   7.334  0.1957  0.7410  0.9827
 2370SOL    HW218744   4.578   1.510   7.335  1.6671 -0.7808 -1.3730
 2371SOL     OW18745   3.301   3.618   9.465 -0.2092  0.2733 -0.0294
 2371SOL    HW118746   3.354   3.691   9.432  2.4320 -1.2099  0.8993
 2371SOL    HW218747   3.357   3.541   9.474 -0.4381 -0.0760 -1.4788
 2372SOL     OW18748   1.071   4.103   3.259 -0.0202  0.7473  0.7283
 2372SOL    HW118749   1.121   4.181   3.235  2.6442 -1.3826 -0.6145
 2372SOL    HW218750   1.102   4.088   3.348  0.3675  0.7378  0.5902
 2373SOL     OW18751   0.758   2.289  10.775  0.5949 -0.4657 -0.4482
 2373SOL    HW118752   0.732   2.316  10.687  0.5719 -1.7574 -0.8425
 2373SOL    HW218753   0.676   2.273  10.822 -0.2438 -0.4139 -1.8900
 2374SOL     OW18754   0.758   0.849   8.137 -0.2814 -0.1114 -0.0226
 2374SOL    HW118755   0.719   0.831   8.223 -0.4787  3.4661  0.6416
 2374SOL    HW218756   0.844   0.807   8.145  0.0515  0.3139 -1.4027
 2375SOL     OW18757   3.511   4.292   9.101 -0.2390 -0.0345  0.1938
 2375SOL    HW118758   3.486   4.373   9.055  0.5196  0.3024  0.3795
 2375SOL    HW218759   3.483   4.233   9.031  0.0799  0.0835 -0.0284
 2376SOL     OW18760   3.647   1.337   7.743  0.4877 -0.1493  0.2976
 2376SOL    HW118761   3.679   1.427   7.739 -1.2340  0.4726  0.4739
 2376SOL    HW218762   3.574   1.347   7.804  0.1522  1.1837 -0.3299
 2377SOL     OW18763   0.646   0.749  13.109  0.0580  0.3336 -0.2204
 2377SOL    HW118764   0.633   0.711  13.196  1.6691 -0.8026 -0.4821
 2377SOL    HW218765   0.730   0.713  13.083  0.1823  1.3729 -1.2546
 2378SOL     OW18766   1.732   0.898   4.423  0.3966 -0.1331  0.3192
 2378SOL    HW118767   1.693   0.887   4.336 -2.1662 -1.3500  1.6194
 2378SOL    HW218768   1.668   0.955   4.464 -1.3431 -0.7000 -1.6300
 2379SOL     OW18769   1.091   3.254   7.150  0.0521 -0.0918 -0.1109
 2379SOL    HW118770   1.057   3.177   7.197  0.3254  0.7180  1.4173
 2379SOL    HW218771   1.031   3.234   7.079 -2.8653  0.1422  2.2630
 2380SOL     OW18772   1.643   0.253  11.235  0.0762 -0.3169 -0.0975
 2380SOL    HW118773   1.610   0.318  11.297  0.2579 -0.2476 -0.0733
 2380SOL    HW218774   1.708   0.199  11.281 -0.4605  0.8609  2.0216
 2381SOL     OW18775   0.731   1.603   9.198  0.2926  0.4714  0.3186
 2381SOL    HW118776   0.655   1.563   9.240 -0.9824 -0.6486 -3.1050
 2381SOL    HW218777   0.768   1.531   9.146 -1.2626  0.6704 -1.0422
 2382SOL     OW18778   3.563   0.531   2.636  0.4244  0.3721  0.3947
 2382SOL    HW118779   3.617   0.523   2.557  1.3856 -0.4366  1.1296
 2382SOL    HW218780   3.594   0.458   2.690 -0.7693 -2.2705 -2.4619
 2383SOL     OW18781   1.108   2.374  11.042 -0.0650 -0.0533  0.1426
 2383SOL    HW118782   1.089   2.405  11.131  1.8174 -0.0248  0.5217
 2383SOL    HW218783   1.200   2.399  11.036 -0.5837  1.2221 -2.5747
 2384SOL     OW18784   2.970   3.254  12.351 -0.7281  0.2977 -0.4331
 2384SOL    HW118785   2.920   3.173  12.351  2.4154 -1.6413  1.5261
 2384SOL    HW218786   3.056   3.220  12.329  0.1501  1.9910  0.3364
 2385SOL     OW18787   2.217   4.242   4.747 -0.3816 -0.2094  0.0157
 2385SOL    HW118788   2.143   4.266   4.802 -2.0943 -1.2958 -1.8465
 2385SOL    HW218789   2.193   4.262   4.656  0.3347 -1.4126 -0.4390
 2386SOL     OW18790   2.755   3.635   3.449 -0.1971 -0.4204 -0.3505
 2386SOL    HW118791   2.750   3.728   3.472 -1.9776 -0.8947  1.1638
 2386SOL    HW218792   2.781   3.594   3.531  1.6071  2.0733  0.3282
 2387SOL     OW18793   4.594   2.738   7.101  0.3598 -0.0213  0.1138
 2387SOL    HW118794   4.532   2.666   7.110  1.3217 -1.2220 -2.7402
 2387SOL    HW218795   4.679   2.695   7.113 -0.1132 -1.2458 -0.9086
 2388SOL     OW18796   1.333   1.939  13.541 -0.2521 -0.6218  0.1685
 2388SOL    HW118797   1.393   1.959  13.612  2.0775  0.7693 -2.1829
 2388SOL    HW218798   1.391   1.885  13.487  1.6989 -0.8449  2.5126
 2389SOL     OW18799   2.105   3.085   8.233 -0.7233 -0.0602  0.0113
 2389SOL    HW118800   2.077   3.116   8.319  0.1043 -1.5257  0.8006
 2389SOL    HW218801   2.050   3.010   8.212  0.8621 -0.8255 -1.4026
 2390SOL     OW18802   3.756   1.970   6.524  0.3664 -0.1427  0.3339
 2390SOL    HW118803   3.692   1.898   6.528  1.2764 -0.8363  2.7168
 2390SOL    HW218804   3.700   2.047   6.528 -1.9384 -1.6245 -3.0315
 2391SOL     OW18805   4.608   0.715   3.771  0.1698 -0.3600 -0.4502
 2391SOL    HW118806   4.662   0.779   3.725  0.0575 -0.4720 -0.7460
 2391SOL    HW218807   4.587   0.761   3.852  0.4799  1.7165 -1.5470
 2392SOL     OW18808   4.673   0.925  12.802  0.6876 -0.0273  0.1005
 2392SOL    HW118809   0.022   0.879  12.810  1.4057  0.9676 -1.5741
 2392SOL    HW218810   4.609   0.855  12.790  0.2194  0.8437 -2.6521
 2393SOL     OW18811   3.204   3.931   8.745 -0.2276  0.4132 -0.3143
 2393SOL    HW118812   3.270   3.874   8.786 -1.0632  0.2584  0.7969
 2393SOL    HW218813   3.125   3.898   8.787  0.9659 -2.0367  0.0404
 2394SOL     OW18814   3.824   2.829   5.775 -0.0741  0.4827 -0.3694
 2394SOL    HW118815   3.760   2.795   5.713  0.8119  0.8611 -1.4833
 2394SOL    HW218816   3.799   2.921   5.783  0.1753  0.4554  0.7959
 2395SOL     OW18817   1.804   0.802   9.098  0.3002 -0.8332 -0.1982
 2395SOL    HW118818   1.803   0.893   9.125 -0.7210 -1.6679  2.5590
 2395SOL    HW218819   1.861   0.793   9.021  1.5217  3.2640  0.2545
 2396SOL     OW18820   3.610   3.252   5.308 -0.5420 -0.2569  0.0408
 2396SOL    HW118821   3.633   3.269   5.216 -0.5642  2.4634  0.5217
 2396SOL    HW218822   3.631   3.334   5.352  3.2488 -2.5468  2.4510
 2397SOL     OW18823   3.123   1.124   6.687  0.2435 -0.0769 -0.2141
 2397SOL    HW118824   3.216   1.129   6.710  0.9356 -3.0977 -2.4285
 2397SOL    HW218825   3.119   1.063   6.614 -1.2288  1.8941 -1.8006
 2398SOL     OW18826   2.264   0.250   6.381  0.2721  0.5769  0.2645
 2398SOL    HW118827   2.185   0.199   6.401  0.1785  0.5653 -0.1286
 2398SOL    HW218828   2.331   0.182   6.381  1.3324  1.6113  1.7029
 2399SOL     OW18829   1.456   2.611  15.852  0.1088  0.2149  0.0538
 2399SOL    HW118830   1.413   2.673  15.911  0.8613 -0.9846  1.8782
 2399SOL    HW218831   1.489   2.547  15.915  2.9387  1.8678  0.2122
 2400SOL     OW18832   1.632   2.517   8.857 -0.2331 -0.2475 -0.0747
 2400SOL    HW118833   1.560   2.506   8.795 -1.0156  0.2830  0.7312
 2400SOL    HW218834   1.646   2.611   8.850 -0.0038 -0.4970 -2.9361
 2401SOL     OW18835   1.200   2.704   6.313  0.0602  0.0143 -0.0754
 2401SOL    HW118836   1.123   2.689   6.368  0.7092 -2.0322  0.2681
 2401SOL    HW218837   1.192   2.638   6.244 -2.5013  1.5558 -1.2623
 2402SOL     OW18838   2.719   1.541  17.124  0.5318 -0.0043 -0.2274
 2402SOL    HW118839   2.705   1.636  17.130  2.0602  0.2119  0.0415
 2402SOL    HW218840   2.667   1.508  17.197  0.5808 -2.7349 -1.4265
 2403SOL     OW18841   0.265   1.209   1.548 -0.5721 -0.4321 -0.1342
 2403SOL    HW118842   0.346   1.177   1.509 -0.7698 -0.7774 -0.2578
 2403SOL    HW218843   0.283   1.297   1.582  1.3700 -0.6436 -0.6305
 2404SOL     OW18844   3.287   3.805   5.804  0.3640 -0.5543 -0.3656
 2404SOL    HW118845   3.201   3.847   5.809  0.8989  0.3582  1.0812
 2404SOL    HW218846   3.272   3.729   5.860  2.6198 -1.3877 -0.9076
 2405SOL     OW18847   3.494   1.075   4.189 -0.4126 -0.2837  0.0846
 2405SOL    HW118848   3.438   1.144   4.225  0.1155  1.3318 -2.1660
 2405SOL    HW218849   3.528   1.112   4.107 -1.2934  1.4407  0.4996
 2406SOL     OW18850   0.325   4.103   5.981 -0.1307  0.8616  0.8243
 2406SOL    HW118851   0.235   4.076   6.002  0.0871 -0.9000 -0.5839
 2406SOL    HW218852   0.367   4.095   6.067  1.3586 -1.0624 -0.1167
 2407SOL     OW18853   2.227   1.495   8.459 -0.4156 -0.6607 -0.1271
 2407SOL    HW118854   2.251   1.405   8.482  4.1402  0.4625 -0.4959
 2407SOL    HW218855   2.140   1.473   8.427 -0.6724  0.4761 -0.2056
 2408SOL     OW18856   3.319   3.065   9.224 -0.4732  0.1877 -0.1245
 2408SOL    HW118857   3.376   2.998   9.262 -3.4184 -2.5227 -0.4959
 2408SOL    HW218858   3.391   3.126   9.206  0.9017 -0.6028  2.7504
 2409SOL     OW18859   3.898   4.436   9.775 -0.3513 -0.1208  0.1946
 2409SOL    HW118860   3.952   4.435   9.854 -1.9116  1.1257  1.2795
 2409SOL    HW218861   3.869   4.527   9.782 -1.0046 -0.2076 -1.4459
 2410SOL     OW18862   1.582   2.457  16.747  0.1804 -0.1341 -0.5420
 2410SOL    HW118863   1.676   2.445  16.734  0.2058 -1.6355  1.1045
 2410SOL    HW218864   1.561   2.366  16.764  0.5300 -0.0262  0.4848
 2411SOL     OW18865   1.270   3.428   7.966  0.3249 -0.4914 -0.0764
 2411SOL    HW118866   1.284   3.362   8.034  0.3663  0.1328  0.5162
 2411SOL    HW218867   1.289   3.377   7.887 -1.9524  0.5648 -1.2910
 2412SOL     OW18868   3.998   3.469   8.584  0.0180  0.3895 -0.8821
 2412SOL    HW118869   3.970   3.384   8.620  2.9029 -0.9025 -1.6450
 2412SOL    HW218870   3.938   3.520   8.638  0.9026 -0.7125  1.1553
 2413SOL     OW18871   2.082   0.921   6.516  0.1960 -0.0632  0.0905
 2413SOL    HW118872   2.168   0.959   6.535 -0.7889  2.3169 -0.1755
 2413SOL    HW218873   2.091   0.905   6.422  1.0059  0.1807  0.1259
 2414SOL     OW18874   4.729   1.586   5.252 -0.5468 -0.7739  0.0326
 2414SOL    HW118875   4.656   1.590   5.314  1.5851  3.3287  2.2615
 2414SOL    HW218876   0.010   1.679   5.234 -1.6881 -0.9810 -1.9924
 2415SOL     OW18877   2.912   0.287   3.613 -0.1356 -0.3374 -0.4421
 2415SOL    HW118878   2.925   0.373   3.652 -0.5465 -0.6901  0.4678
 2415SOL    HW218879   2.918   0.228   3.688  1.6338  0.4967  0.0733
 2416SOL     OW18880   4.115   0.156  14.381  0.3607 -0.2674 -0.8912
 2416SOL    HW118881   4.115   0.177  14.475 -1.7728  1.1022 -1.1937
 2416SOL    HW218882   4.178   0.217  14.342 -0.0592 -0.4949 -1.9232
 2417SOL     OW18883   1.738   2.305  11.744  0.2599  0.1708  0.1589
 2417SOL    HW118884   1.775   2.239  11.803 -0.5144  0.8373  1.3921
 2417SOL    HW218885   1.816   2.316  11.689 -0.7901  0.3096 -1.2902
 2418SOL     OW18886   4.367   3.213  15.423 -0.2740 -0.5183  0.2215
 2418SOL    HW118887   4.320   3.296  15.415 -0.0438 -0.1688  2.4470
 2418SOL    HW218888   4.299   3.149  15.444 -1.6608  1.0239  0.4412
 2419SOL     OW18889   1.348   2.985  16.215  0.4978  0.8629 -0.1647
 2419SOL    HW118890   1.385   2.939  16.291 -3.2130  2.3922  2.5397
 2419SOL    HW218891   1.303   3.046  16.273  1.1976  0.2482  1.0434
 2420SOL     OW18892   4.218   2.913   7.477  0.4910  0.3403  0.2737
 2420SOL    HW118893   4.148   2.856   7.446  1.2903 -0.8114  0.5607
 2420SOL    HW218894   4.212   2.909   7.573 -0.5479  0.8385  0.2199
 2421SOL     OW18895   3.961   3.562  15.770  0.2174  0.2531 -0.1721
 2421SOL    HW118896   4.012   3.498  15.821 -1.2804 -2.1022 -1.6244
 2421SOL    HW218897   3.945   3.523  15.684 -2.0892 -0.5040  0.6112
 2422SOL     OW18898   1.583   2.768   8.820  0.5196  0.4445  0.5173
 2422SOL    HW118899   1.520   2.840   8.808  0.6510  0.5688  0.5703
 2422SOL    HW218900   1.639   2.797   8.892 -0.4614  2.5256  0.4451
 2423SOL     OW18901   4.064   4.370   0.178  0.1709 -0.4202  0.0428
 2423SOL    HW118902   4.029   4.459   0.174 -1.1751 -1.0562 -2.5244
 2423SOL    HW218903   4.156   4.388   0.157 -0.5162  1.7105 -1.2119
 2424SOL     OW18904   3.875   2.884   9.980 -0.0424  0.5466  0.5721
 2424SOL    HW118905   3.946   2.912  10.038 -0.2141  3.5549 -0.6523
 2424SOL    HW218906   3.805   2.862  10.041 -2.0733 -0.1478 -1.9952
 2425SOL     OW18907   4.020   2.762   8.332 -0.0392 -0.0730 -0.1468
 2425SOL    HW118908   4.069   2.844   8.325  3.4180 -1.9741  1.9397
 2425SOL    HW218909   3.982   2.773   8.419  1.3451 -1.1147  0.5807
 2426SOL     OW18910   1.856   0.378  16.442 -0.0399  0.7374  0.3515
 2426SOL    HW118911   1.847   0.300  16.388 -1.3660  1.4489 -0.4341
 2426SOL    HW218912   1.943   0.410  16.418 -0.2858  0.3409 -1.0523
 2427SOL     OW18913   1.605   2.401   2.691  0.3389 -0.4501  0.2941
 2427SOL    HW118914   1.655   2.480   2.674 -1.7550  0.4846 -1.3921
 2427SOL    HW218915   1.557   2.429   2.769  0.0519  0.2158 -0.1291
 2428SOL     OW18916   3.516   1.337  17.095  0.0899 -0.6577  0.3557
 2428SOL    HW118917   3.430   1.309  17.062 -1.7248  2.1023  2.7717
 2428SOL    HW218918   3.506   1.431  17.083  0.5427 -0.8664 -1.6163
 2429SOL     OW18919   1.125   1.223  10.301 -0.6978 -0.6584 -0.3832
 2429SOL    HW118920   1.071   1.169  10.360 -0.8218 -0.0939  0.0214
 2429SOL    HW218921   1.101   1.182  10.218  1.4513 -2.0295 -0.3099
 2430SOL     OW18922   0.105   1.419   0.099 -0.6608  0.4004 -0.2097
 2430SOL    HW118923   0.115   1.475   0.022 -0.7961 -0.1056 -0.5997
 2430SOL    HW218924   0.027   1.370   0.074 -0.8267 -0.6728  2.4184
 2431SOL     OW18925   1.680   2.480   0.879 -0.2071  0.0323  0.1859
 2431SOL    HW118926   1.764   2.441   0.857 -0.5887 -0.9162  0.4172
 2431SOL    HW218927   1.645   2.399   0.916  0.7999 -0.3468  0.2846
 2432SOL     OW18928   0.183   4.178   0.553 -0.1219  0.1048  0.2411
 2432SOL    HW118929   0.128   4.178   0.632  1.0609 -1.1370  1.0508
 2432SOL    HW218930   0.178   4.096   0.505  1.6009  0.0031  0.2692
 2433SOL     OW18931   4.700   1.296   4.767  0.5091 -0.0974  0.6854
 2433SOL    HW118932   4.656   1.323   4.848  1.9712  0.0306  1.4458
 2433SOL    HW218933   4.698   1.201   4.768 -0.2483 -0.0736  1.4166
 2434SOL     OW18934   4.614   3.226   5.799  0.0088 -0.4019 -0.3834
 2434SOL    HW118935   4.585   3.204   5.711 -1.0057 -1.1378  0.1488
 2434SOL    HW218936   4.689   3.167   5.803  0.0579 -0.1826  2.2156
 2435SOL     OW18937   2.364   4.593   9.777 -0.3832 -0.1137 -0.1218
 2435SOL    HW118938   2.433   4.540   9.736 -0.3643 -0.1264 -0.0727
 2435SOL    HW218939   2.331   4.653   9.709 -1.5838 -0.6928 -0.0450
 2436SOL     OW18940   2.391   4.696   4.609 -0.0180 -0.1419  0.0299
 2436SOL    HW118941   2.485   4.695   4.630 -0.0052  0.4665  0.0016
 2436SOL    HW218942   2.398   0.040   4.554  1.4750  1.1398  2.0224
 2437SOL     OW18943   0.353   1.498   2.038  0.3087 -0.2263  0.1434
 2437SOL    HW118944   0.418   1.432   2.063 -0.1223 -1.2337 -1.3780
 2437SOL    HW218945   0.306   1.480   2.119  2.3418 -0.7719  1.2068
 2438SOL     OW18946   2.230   1.741   6.003  0.2830  0.2640  0.2866
 2438SOL    HW118947   2.281   1.662   5.983  0.2298 -0.0257  1.2900
 2438SOL    HW218948   2.186   1.751   5.918  0.3510  0.5792  0.2881
 2439SOL     OW18949   4.052   0.605  11.548 -0.3410 -0.3892  0.2700
 2439SOL    HW118950   4.079   0.696  11.538 -0.1948 -0.5684 -0.9458
 2439SOL    HW218951   4.059   0.592  11.643 -1.3928 -0.7668  0.2930
 2440SOL     OW18952   4.567   4.692   1.329  0.7222  0.1939  0.3749
 2440SOL    HW118953   4.488   0.005   1.303  0.2670 -0.2716  0.8929
 2440SOL    HW218954   4.628   4.713   1.258 -0.2403  1.1417 -0.1808
 2441SOL     OW18955   0.932   1.483   8.812  0.4710 -0.3480  0.4200
 2441SOL    HW118956   0.929   1.478   8.908 -3.5509 -0.3415  0.2899
 2441SOL    HW218957   0.931   1.579   8.810  1.1556 -0.3015  2.4066
 2442SOL     OW18958   0.814   1.496   3.577 -0.0652  0.3935  0.0641
 2442SOL    HW118959   0.802   1.587   3.601  1.7662  0.5152  0.5241
 2442SOL    HW218960   0.721   1.478   3.588  0.0181 -0.6926 -1.0293
 2443SOL     OW18961   1.079   2.833  15.828  0.1810  0.6034  0.2407
 2443SOL    HW118962   1.140   2.848  15.756 -0.6562  1.6922 -0.2481
 2443SOL    HW218963   1.143   2.821  15.898  0.2085  0.2626  0.1554
 2444SOL     OW18964   4.132   0.216   7.451 -0.4754 -0.2993 -0.3375
 2444SOL    HW118965   4.080   0.225   7.371 -3.3809  0.3244  1.6413
 2444SOL    HW218966   4.086   0.163   7.516 -0.7045  0.1831 -0.1066
 2445SOL     OW18967   4.295   1.679  10.265  0.3329  0.0472 -0.6423
 2445SOL    HW118968   4.314   1.654  10.174 -1.1278  1.6190 -1.3667
 2445SOL    HW218969   4.377   1.728  10.272  0.8477 -0.9199  0.1375
 2446SOL     OW18970   1.125   0.416   4.840 -0.2302 -0.2133  0.1807
 2446SOL    HW118971   1.197   0.394   4.781 -0.2044 -0.1988  0.2066
 2446SOL    HW218972   1.157   0.383   4.924 -0.2954  0.6136  0.5278
 2447SOL     OW18973   0.480   0.426  13.390  0.5578  0.7176 -0.3174
 2447SOL    HW118974   0.536   0.427  13.467 -0.5987  0.9401  0.5168
 2447SOL    HW218975   0.505   0.508  13.348  0.2610 -0.0523 -2.0121
 2448SOL     OW18976   1.592   1.675   6.345  0.3167  0.1747  0.3994
 2448SOL    HW118977   1.549   1.597   6.381 -0.3639 -0.0145 -0.8282
 2448SOL    HW218978   1.571   1.746   6.404 -2.2074 -1.2884  1.2609
 2449SOL     OW18979   0.210   2.791   6.375  0.2867  0.9812  0.0521
 2449SOL    HW118980   0.143   2.858   6.361  2.1219  2.3139 -2.2160
 2449SOL    HW218981   0.276   2.850   6.409  2.5275 -0.6971 -1.4065
 2450SOL     OW18982   4.108   3.107   0.997 -0.6750  0.3580 -0.5694
 2450SOL    HW118983   4.027   3.067   0.966  0.3460 -0.1253 -2.6149
 2450SOL    HW218984   4.078   3.186   1.041  0.8740  1.2787 -1.1357
 2451SOL     OW18985   2.191   3.433   6.412 -0.1652  0.3476 -0.2091
 2451SOL    HW118986   2.124   3.443   6.345  0.1034 -1.8305 -0.8092
 2451SOL    HW218987   2.203   3.524   6.438  0.5997  0.2328 -0.1350
 2452SOL     OW18988   2.917   4.484   4.230  0.1359 -0.0959 -0.8002
 2452SOL    HW118989   2.915   4.535   4.311  0.7785  0.2360 -0.9941
 2452SOL    HW218990   2.836   4.526   4.201 -1.4701 -4.0871 -2.0937
 2453SOL     OW18991   2.959   4.663  16.034  0.2972 -0.1391  0.4762
 2453SOL    HW118992   2.963   4.678  16.128  2.0064 -0.7317  0.4902
 2453SOL    HW218993   2.874   4.704  16.017  0.5042 -0.5152 -1.4263
 2454SOL     OW18994   4.343   2.376   4.037 -0.0505  0.0751 -0.5755
 2454SOL    HW118995   4.330   2.351   3.946 -2.3098 -0.0027 -0.2234
 2454SOL    HW218996   4.421   2.322   4.052  0.7843  0.8035 -2.3204
 2455SOL     OW18997   3.029   3.542   9.260 -0.0829  0.0168  0.5989
 2455SOL    HW118998   3.028   3.547   9.355 -4.1169  1.1376  0.5144
 2455SOL    HW218999   2.962   3.476   9.240  0.4736 -0.4549  0.3073
 2456SOL     OW19000   0.440   2.066   5.710  0.5879 -0.4251 -0.3058
 2456SOL    HW119001   0.416   2.157   5.722 -0.7655 -0.5513 -1.9215
 2456SOL    HW219002   0.508   2.062   5.776  0.7548 -1.5980 -0.5333
 2457SOL     OW19003   3.035   4.307   8.077 -0.7425  0.3317  0.1311
 2457SOL    HW119004   2.977   4.257   8.020  0.5636 -0.2486 -0.6815
 2457SOL    HW219005   3.038   4.251   8.155  0.8933 -1.8361 -1.5034
 2458SOL     OW19006   4.336   3.609  16.778 -0.5900 -0.0489 -0.1947
 2458SOL    HW119007   4.246   3.576  16.773 -0.2042 -1.1766  0.4264
 2458SOL    HW219008   4.335   3.699  16.746  0.9795  0.5646  1.4761
 2459SOL     OW19009   1.861   4.286   4.271 -0.2921  0.3198  0.3817
 2459SOL    HW119010   1.843   4.337   4.349  3.2539  1.2680  0.5295
 2459SOL    HW219011   1.878   4.355   4.207 -1.2304 -1.9879 -2.3936
 2460SOL     OW19012   0.161   0.311   1.776 -0.0499  0.1998  0.4734
 2460SOL    HW119013   0.133   0.375   1.710 -2.7626 -3.0870 -1.5457
 2460SOL    HW219014   0.156   0.234   1.720  1.1162  2.2432 -2.4796
 2461SOL     OW19015   1.301   0.288   0.747  0.1109 -0.5277 -0.5380
 2461SOL    HW119016   1.271   0.352   0.812 -1.3408 -0.3840 -1.3606
 2461SOL    HW219017   1.380   0.334   0.719  0.8631 -1.5904 -0.1433
 2462SOL     OW19018   3.181   4.152   4.699  0.5390 -0.2490 -0.1395
 2462SOL    HW119019   3.153   4.063   4.718 -1.6532  0.4819  0.0211
 2462SOL    HW219020   3.203   4.175   4.790  1.1349  1.5583 -0.7286
 2463SOL     OW19021   4.725   3.377   1.759  0.2650 -0.1011 -0.1179
 2463SOL    HW119022   4.680   3.322   1.695 -0.2860  0.7292 -0.4392
 2463SOL    HW219023   0.017   3.444   1.696 -1.4302  0.9421  0.2839
 2464SOL     OW19024   2.138   0.827   3.725  0.2083 -0.0056 -0.4874
 2464SOL    HW119025   2.110   0.905   3.772 -1.9257  0.1014 -1.9089
 2464SOL    HW219026   2.086   0.768   3.779  0.8764 -0.0815  0.0689
 2465SOL     OW19027   4.532   1.249  11.127 -0.0225 -0.5157 -0.1221
 2465SOL    HW119028   4.441   1.237  11.152 -0.1977  0.5758 -0.2330
 2465SOL    HW219029   4.548   1.336  11.162  1.5601 -1.9127  2.6112
 2466SOL     OW19030   0.878   1.099  10.397  0.2211  0.1906 -0.1178
 2466SOL    HW119031   0.867   1.126  10.488 -0.1268 -0.5501  0.0661
 2466SOL    HW219032   0.802   1.138  10.355  0.3291 -0.4785 -0.9378
 2467SOL     OW19033   4.299   4.616  11.856 -0.4855  0.1198  0.5320
 2467SOL    HW119034   4.353   4.693  11.841 -1.7657  1.0001  0.4418
 2467SOL    HW219035   4.274   4.589  11.768  0.7400  0.0892  0.2044
 2468SOL     OW19036   3.708   0.896  15.379 -0.0098  0.8389  0.2907
 2468SOL    HW119037   3.802   0.886  15.397 -0.0916 -2.2050 -0.8910
 2468SOL    HW219038   3.707   0.916  15.285 -0.8700 -0.2206  0.0750
 2469SOL     OW19039   4.702   3.564  11.987 -0.5250 -0.1949  0.3951
 2469SOL    HW119040   4.720   3.527  11.900  0.9131 -0.2019  0.6885
 2469SOL    HW219041   4.608   3.582  11.984 -0.6756 -0.6565  2.2981
 2470SOL     OW19042   4.193   2.487   8.644 -0.0891 -0.2949 -0.7225
 2470SOL    HW119043   4.133   2.474   8.571 -1.1184 -0.2803  0.1247
 2470SOL    HW219044   4.202   2.582   8.636 -2.3106  0.2489  3.3045
 2471SOL     OW19045   3.494   4.699   2.304  0.8354  0.7160 -0.4380
 2471SOL    HW119046   3.551   0.038   2.283 -0.9612  2.6738  1.6602
 2471SOL    HW219047   3.538   4.626   2.261 -2.0490 -1.1407 -0.2414
 2472SOL     OW19048   1.321   1.957   1.252 -0.1125  0.0182 -0.0721
 2472SOL    HW119049   1.256   2.027   1.253 -1.6404 -1.3590 -3.3673
 2472SOL    HW219050   1.297   1.917   1.336  0.4697  0.3848  0.2649
 2473SOL     OW19051   1.452   0.085   8.508 -0.2566 -0.1217 -0.4832
 2473SOL    HW119052   1.360   0.061   8.523 -0.0336 -0.2868  0.6320
 2473SOL    HW219053   1.491   0.058   8.591 -1.8701  0.0839  0.3574
 2474SOL     OW19054   3.354   1.497  10.654  0.2191  0.1203  0.1629
 2474SOL    HW119055   3.407   1.576  10.647 -1.2975  1.1367  0.1287
 2474SOL    HW219056   3.314   1.486  10.568 -0.4964 -0.2209  0.5408
 2475SOL     OW19057   0.591   3.342  17.656  0.1656 -0.2765  0.0254
 2475SOL    HW119058   0.683   3.340  17.683  0.6187  1.6729 -1.3511
 2475SOL    HW219059   0.582   3.435  17.632 -0.4691 -1.2860 -3.5605
 2476SOL     OW19060   2.638   1.089   8.511  0.0474  0.0020 -0.1010
 2476SOL    HW119061   2.657   1.130   8.427 -0.1599 -3.5335 -1.8833
 2476SOL    HW219062   2.713   1.029   8.514  0.9780  1.0832 -2.0197
 2477SOL     OW19063   1.934   1.844  12.447 -0.0916 -0.2141  0.7644
 2477SOL    HW119064   1.984   1.763  12.461  0.1785 -0.2995 -0.7056
 2477SOL    HW219065   1.973   1.911  12.504 -0.4706  0.9961 -0.3932
 2478SOL     OW19066   1.632   4.236  12.994 -0.2213 -0.2473 -0.1763
 2478SOL    HW119067   1.692   4.162  12.983  1.1526  0.4878  2.4066
 2478SOL    HW219068   1.555   4.214  12.941 -0.5452  0.7561 -0.1119
 2479SOL     OW19069   1.806   0.449   4.485 -0.2535 -0.2225 -0.0507
 2479SOL    HW119070   1.791   0.543   4.474 -1.2700 -0.1978  1.4449
 2479SOL    HW219071   1.871   0.438   4.416  2.8773 -0.5497  3.0009
 2480SOL     OW19072   4.257   0.939   6.442  0.0046  0.0453  0.0020
 2480SOL    HW119073   4.194   1.002   6.407 -0.5351  0.0624  0.9887
 2480SOL    HW219074   4.314   0.928   6.366  0.5058 -0.5378  0.4592
 2481SOL     OW19075   3.705   1.261   8.543  0.3456  0.4998 -0.1442
 2481SOL    HW119076   3.686   1.182   8.494  0.8602 -0.4000  1.0916
 2481SOL    HW219077   3.772   1.317   8.503  0.5227  0.4341  0.0598
 2482SOL     OW19078   0.790   0.259   5.409  0.0140  0.7038  0.6417
 2482SOL    HW119079   0.753   0.331   5.360 -1.0516  1.0702  1.9759
 2482SOL    HW219080   0.880   0.253   5.377 -0.6791 -3.4527 -0.5700
 2483SOL     OW19081   1.831   3.183   4.771  0.1293 -0.6188 -0.4664
 2483SOL    HW119082   1.858   3.183   4.862 -1.2913 -1.5165 -0.0395
 2483SOL    HW219083   1.741   3.154   4.783  0.7723 -2.6863 -0.6669
 2484SOL     OW19084   3.764   0.297  10.822  0.8557 -0.4031 -0.1587
 2484SOL    HW119085   3.718   0.381  10.825  0.1701 -0.6956 -2.5472
 2484SOL    HW219086   3.757   0.268  10.731  0.7999 -1.5531  0.2097
 2485SOL     OW19087   4.190   0.496   1.413 -0.1520 -0.0841  0.2695
 2485SOL    HW119088   4.107   0.464   1.448  0.2259  0.3705  1.5662
 2485SOL    HW219089   4.181   0.458   1.325 -2.1020  0.2059  0.3534
 2486SOL     OW19090   3.100   2.683   4.675  0.3362  0.1627 -0.2907
 2486SOL    HW119091   3.191   2.698   4.699  0.2816  0.9430 -0.5584
 2486SOL    HW219092   3.056   2.660   4.757  0.1720 -0.7926 -0.6467
 2487SOL     OW19093   2.322   4.006   4.072 -0.1663 -0.1225 -0.4576
 2487SOL    HW119094   2.307   4.036   4.162 -1.0350  1.2601 -1.0592
 2487SOL    HW219095   2.297   3.914   4.061 -1.9892  0.3521 -0.2408
 2488SOL     OW19096   1.648   0.045   1.772 -0.1041  0.0293  0.4827
 2488SOL    HW119097   1.642   4.693   1.813  1.5574 -0.9540 -1.3549
 2488SOL    HW219098   1.561   0.082   1.786 -0.0915  0.6175 -0.9753
 2489SOL     OW19099   3.703   0.905   5.704  0.1530  0.4548 -0.2030
 2489SOL    HW119100   3.793   0.929   5.727 -0.5941  3.6222 -0.7076
 2489SOL    HW219101   3.692   0.930   5.612 -0.8193 -0.6434 -0.3889
 2490SOL     OW19102   3.990   1.086   1.607 -0.4348  0.2974  0.0006
 2490SOL    HW119103   3.961   0.995   1.609 -1.1093  0.5238  0.9427
 2490SOL    HW219104   4.083   1.084   1.628 -0.5497  0.1983  0.5038
 2491SOL     OW19105   1.572   3.504   7.902  0.1282  0.3354 -0.0879
 2491SOL    HW119106   1.622   3.582   7.879 -0.1151  0.7738  0.8631
 2491SOL    HW219107   1.492   3.547   7.932  0.2266  1.6844 -1.8026
 2492SOL     OW19108   4.620   3.792   6.259  0.1195 -0.1136  0.2001
 2492SOL    HW119109   4.540   3.741   6.258  0.4255 -0.6032  1.2069
 2492SOL    HW219110   4.594   3.864   6.201  0.0110 -0.7276 -0.5223
 2493SOL     OW19111   3.547   1.482   8.611  0.3980  0.8393  0.5285
 2493SOL    HW119112   3.572   1.405   8.561 -0.6847  1.0699 -0.3669
 2493SOL    HW219113   3.465   1.453   8.652 -0.2482  1.3873 -0.3824
 2494SOL     OW19114   0.487   1.386   2.332  0.2761 -0.1113 -0.5745
 2494SOL    HW119115   0.510   1.315   2.273 -0.3747 -1.7014  1.0757
 2494SOL    HW219116   0.440   1.337   2.400  0.6618  0.7796  0.3335
 2495SOL     OW19117   3.068   4.539   8.316 -0.0782  0.1422  0.3623
 2495SOL    HW119118   3.069   4.615   8.374 -1.7472  0.5898 -0.1958
 2495SOL    HW219119   2.998   4.486   8.356  0.7060  0.7731  2.5858
 2496SOL     OW19120   3.725   4.065  13.055  0.2835 -0.2809  0.3928
 2496SOL    HW119121   3.783   4.084  12.982 -1.7296 -0.8057 -1.3466
 2496SOL    HW219122   3.655   4.129  13.041 -1.5972 -2.2604  0.7484
 2497SOL     OW19123   3.549   2.635   2.175 -0.3108 -0.4927 -0.2457
 2497SOL    HW119124   3.575   2.649   2.266 -0.6880 -2.5928  0.1910
 2497SOL    HW219125   3.596   2.556   2.148 -0.4514 -1.3189  1.8691
 2498SOL     OW19126   1.238   0.858   7.250 -0.2897  0.1268  0.2056
 2498SOL    HW119127   1.292   0.790   7.290 -2.3641 -0.7118  1.5758
 2498SOL    HW219128   1.152   0.818   7.239  0.9759 -2.4441 -0.2781
 2499SOL     OW19129   4.262   3.290   8.282 -0.2176 -0.2421  0.1524
 2499SOL    HW119130   4.240   3.378   8.312  1.1578  0.3925 -0.7523
 2499SOL    HW219131   4.284   3.261   8.371 -3.7194  1.5363  1.6027
 2500SOL     OW19132   1.185   4.341   4.126 -0.4213  0.2412  0.4470
 2500SOL    HW119133   1.243   4.290   4.182 -1.4707 -0.5123  0.8679
 2500SOL    HW219134   1.213   4.322   4.036 -0.7732 -3.8413  1.2105
 2501SOL     OW19135   1.511   2.723   7.374  0.0645  0.0566  0.4163
 2501SOL    HW119136   1.455   2.796   7.401 -0.9029 -0.7345  0.5848
 2501SOL    HW219137   1.496   2.722   7.279  0.3874  1.6683  0.3606
 2502SOL     OW19138   2.037   1.793  13.011 -0.8910  0.3490  0.7048
 2502SOL    HW119139   1.969   1.763  13.071 -1.4876  0.6864  0.1893
 2502SOL    HW219140   2.006   1.773  12.923 -1.4572 -3.1811  1.7088
 2503SOL     OW19141   1.072   3.749   8.230 -0.4249  0.4378 -0.1042
 2503SOL    HW119142   1.059   3.839   8.200  0.3965  0.7716  0.5251
 2503SOL    HW219143   1.079   3.705   8.146 -1.5210  2.3038 -1.1704
 2504SOL     OW19144   3.502   1.467   6.056 -0.0040  1.4139  0.2193
 2504SOL    HW119145   3.528   1.477   6.148  2.2682  0.0016 -0.2934
 2504SOL    HW219146   3.442   1.541   6.041 -3.4646 -1.2265  0.8494
 2505SOL     OW19147   3.141   0.021   8.472  0.9655  0.0903  0.1195
 2505SOL    HW119148   3.175   0.090   8.416 -1.0216  1.0859  0.1379
 2505SOL    HW219149   3.057   0.061   8.493  0.5989  0.5223 -2.1026
 2506SOL     OW19150   2.100   3.533   1.991  0.8461 -0.0820 -0.1268
 2506SOL    HW119151   2.181   3.510   1.946  1.1025  0.1938  0.1905
 2506SOL    HW219152   2.133   3.554   2.078  0.9355  1.9001 -0.6337
 2507SOL     OW19153   2.959   1.273   6.475  0.0050  0.1423  0.3177
 2507SOL    HW119154   2.933   1.191   6.517  2.0971 -0.2846  0.7994
 2507SOL    HW219155   3.050   1.245   6.468  0.8188  2.9142 -0.1094
 2508SOL     OW19156   3.365   2.793   6.524 -0.2147  0.1779 -0.2698
 2508SOL    HW119157   3.276   2.787   6.557 -0.5648  0.9278 -1.0786
 2508SOL    HW219158   3.354   2.806   6.430  2.4287 -1.0965 -0.7536
 2509SOL     OW19159   4.453   3.775   3.203  0.4472  0.5080  0.1572
 2509SOL    HW119160   4.382   3.712   3.201 -0.6060  1.6776  0.6325
 2509SOL    HW219161   4.407   3.854   3.231 -0.8238 -1.3359  3.2812
 2510SOL     OW19162   1.887   3.094   2.555 -0.4645 -0.7123  0.4970
 2510SOL    HW119163   1.935   3.090   2.637  1.0426  0.0498 -0.3293
 2510SOL    HW219164   1.792   3.096   2.567 -0.2672 -1.4536  2.1049
 2511SOL     OW19165   1.611   3.266   6.056  0.1372 -0.5887 -0.1860
 2511SOL    HW119166   1.652   3.227   5.978 -0.3610 -0.7321 -0.3770
 2511SOL    HW219167   1.601   3.186   6.108  0.9527 -0.3688  0.3029
 2512SOL     OW19168   0.360   3.909   0.083 -0.4633  0.3614  0.0399
 2512SOL    HW119169   0.391   3.821   0.063 -0.4742  0.4656 -0.4417
 2512SOL    HW219170   0.266   3.912   0.066 -0.1537  1.4615 -1.4728
 2513SOL     OW19171   4.322   1.840  10.648  0.4414  0.0770  0.3127
 2513SOL    HW119172   4.232   1.842  10.616  1.1540  1.1992 -1.5984
 2513SOL    HW219173   4.366   1.787  10.582  0.5317  0.8955 -0.2724
 2514SOL     OW19174   4.082   4.188   8.153 -0.0702 -0.2035  0.4473
 2514SOL    HW119175   4.017   4.254   8.129 -1.0389 -0.9411  1.0422
 2514SOL    HW219176   4.036   4.106   8.134  0.3485 -0.2409 -0.3632
 2515SOL     OW19177   3.798   2.721   2.818  0.2684  0.4324  0.0346
 2515SOL    HW119178   3.786   2.626   2.820 -1.0092  0.5777 -0.9627
 2515SOL    HW219179   3.838   2.735   2.905  0.1784 -0.5191  0.2274
 2516SOL     OW19180   1.819   4.406   9.511 -0.0955  0.0716  0.2855
 2516SOL    HW119181   1.879   4.336   9.485 -1.0367 -1.2039  1.5407
 2516SOL    HW219182   1.802   4.450   9.427  1.9154 -0.5571 -0.4611
 2517SOL     OW19183   0.459   3.679  17.703  0.5720  0.4178 -0.5774
 2517SOL    HW119184   0.465   3.723  17.618  0.6295 -0.7033 -1.1578
 2517SOL    HW219185   0.428   3.592  17.678 -1.4409  0.6542  1.1855
 2518SOL     OW19186   4.562   4.084  12.436  0.7859  0.1308 -0.3315
 2518SOL    HW119187   4.542   4.096  12.343  3.1684  1.6271 -0.6409
 2518SOL    HW219188   4.624   4.156  12.445  1.1345 -0.1697 -0.3508
 2519SOL     OW19189   4.005   3.896   5.338  0.0330 -0.0276 -0.4628
 2519SOL    HW119190   3.968   3.840   5.407 -0.5421  0.4304 -0.3996
 2519SOL    HW219191   4.038   3.832   5.274 -2.0775  0.1486 -1.7213
 2520SOL     OW19192   3.883   2.067   5.915 -0.2202 -0.2788  0.4414
 2520SOL    HW119193   3.918   1.978   5.926  3.0721  1.2358  2.2884
 2520SOL    HW219194   3.792   2.052   5.939 -1.1998  0.8016 -2.5606
 2521SOL     OW19195   2.924   3.226   3.199  0.5948  0.2007 -0.2111
 2521SOL    HW119196   2.991   3.291   3.221  0.9729 -0.5356  0.8043
 2521SOL    HW219197   2.958   3.140   3.224  2.0350  0.4176 -1.4867
 2522SOL     OW19198   0.751   1.669   8.559  0.6014 -0.4130  0.2238
 2522SOL    HW119199   0.721   1.684   8.469 -1.3738 -1.1189  0.7535
 2522SOL    HW219200   0.813   1.741   8.566 -1.9339  1.8372 -0.5597
 2523SOL     OW19201   1.293   3.297   1.274 -0.7720  0.2343  0.2891
 2523SOL    HW119202   1.260   3.383   1.248  3.7222  1.7519 -0.5544
 2523SOL    HW219203   1.210   3.251   1.263 -0.2756 -0.8922  1.2394
 2524SOL     OW19204   0.261   0.203   0.161  0.6479 -0.6225 -0.4373
 2524SOL    HW119205   0.220   0.209   0.075 -1.0990 -0.7154  0.3792
 2524SOL    HW219206   0.326   0.273   0.158  0.9903 -0.9375 -0.4490
 2525SOL     OW19207   3.899   2.197  13.219 -0.4882  0.3763  0.5983
 2525SOL    HW119208   3.932   2.121  13.172  0.2746  0.8127  0.4195
 2525SOL    HW219209   3.808   2.169  13.223 -0.8763  1.7981  1.8033
 2526SOL     OW19210   2.895   2.441   0.651  0.9525 -0.2075 -0.0476
 2526SOL    HW119211   2.979   2.482   0.669 -0.2109  2.6002 -1.1163
 2526SOL    HW219212   2.860   2.431   0.740 -0.4214 -1.1183 -0.6756
 2527SOL     OW19213   3.333   2.047   7.371 -0.6042 -0.6504 -0.1709
 2527SOL    HW119214   3.425   2.055   7.347  0.2315 -2.3321  2.5205
 2527SOL    HW219215   3.345   2.018   7.461  2.1127 -2.6533 -1.1841
 2528SOL     OW19216   4.350   0.060   7.677  0.4154  0.3819 -0.4502
 2528SOL    HW119217   4.391   0.141   7.706  0.7917  0.4544 -1.1894
 2528SOL    HW219218   4.360   4.734   7.751  2.1234  1.0651 -0.1295
 2529SOL     OW19219   0.765   4.478  10.165 -0.1318  0.0768  0.3753
 2529SOL    HW119220   0.789   4.571  10.162  0.3647 -0.0949 -1.0338
 2529SOL    HW219221   0.697   4.483  10.098  2.2865  1.4061 -1.9766
 2530SOL     OW19222   1.770   1.159   3.215 -0.4324  0.1925 -0.0193
 2530SOL    HW119223   1.852   1.203   3.190 -0.4139 -0.5178 -1.2089
 2530SOL    HW219224   1.730   1.123   3.136  1.9100 -0.5280 -0.8998
 2531SOL     OW19225   2.643   0.424   2.246  0.9541  0.0850  0.3831
 2531SOL    HW119226   2.607   0.508   2.275 -0.8025 -0.8717  0.9645
 2531SOL    HW219227   2.636   0.369   2.324 -0.7590 -1.3696 -0.8020
 2532SOL     OW19228   2.340   2.407   2.299 -0.0460  0.7183 -0.4227
 2532SOL    HW119229   2.256   2.426   2.340 -0.5660  0.8915 -1.5506
 2532SOL    HW219230   2.308   2.399   2.209 -0.4514 -0.2844 -0.1845
 2533SOL     OW19231   4.112   0.232   3.253 -0.2837 -0.0637  0.2925
 2533SOL    HW119232   4.206   0.213   3.256 -0.2726 -0.0092  0.2852
 2533SOL    HW219233   4.114   0.279   3.170  1.5702 -0.2503  0.2252
 2534SOL     OW19234   1.754   2.927   9.307 -0.2909  0.2829 -0.7509
 2534SOL    HW119235   1.695   3.001   9.327 -0.0403  0.4274 -0.5544
 2534SOL    HW219236   1.838   2.969   9.288  0.0959 -1.4867 -3.0378
 2535SOL     OW19237   3.655   1.616   7.624  0.7337 -0.0049  0.0193
 2535SOL    HW119238   3.582   1.593   7.566 -1.9999  0.7118  3.1296
 2535SOL    HW219239   3.659   1.711   7.614  2.5973 -0.0906 -0.0685
 2536SOL     OW19240   1.186   1.813   7.354 -0.6465 -0.1002 -0.8542
 2536SOL    HW119241   1.212   1.894   7.398  0.8080 -1.4928  0.8997
 2536SOL    HW219242   1.108   1.783   7.399 -1.0698 -1.7325 -2.6831
 2537SOL     OW19243   3.684   1.647   3.498 -0.4779  0.7837  0.3487
 2537SOL    HW119244   3.772   1.626   3.468 -0.4436  1.1029  0.2274
 2537SOL    HW219245   3.636   1.634   3.417 -0.4626 -1.4938  0.7066
 2538SOL     OW19246   3.035   4.554   6.870 -0.2783  0.2668 -0.1152
 2538SOL    HW119247   3.026   4.583   6.779  2.2388  1.9428  0.1716
 2538SOL    HW219248   3.065   4.464   6.869  2.0522  1.0307  0.2604
 2539SOL     OW19249   4.539   1.470   8.260 -0.5719  0.4902 -0.5409
 2539SOL    HW119250   4.479   1.477   8.186  0.3892 -1.0800 -1.4565
 2539SOL    HW219251   4.542   1.557   8.299 -0.4157  0.5115 -0.6011
 2540SOL     OW19252   1.442   1.009   4.267  0.2735  0.5428  0.3535
 2540SOL    HW119253   1.474   1.003   4.357 -1.5638  2.3789  1.1239
 2540SOL    HW219254   1.480   0.930   4.226  2.5495  1.8314 -0.0146
 2541SOL     OW19255   3.322   3.235   7.757  0.3679 -0.1567 -0.0294
 2541SOL    HW119256   3.340   3.273   7.843  0.9128 -0.3002 -0.0773
 2541SOL    HW219257   3.228   3.251   7.758  0.9473  3.0548  1.5872
 2542SOL     OW19258   2.330   1.745   5.053 -0.4319 -0.2033 -0.2253
 2542SOL    HW119259   2.379   1.673   5.013  1.7373  0.8391  0.5443
 2542SOL    HW219260   2.340   1.710   5.141 -0.5379 -0.4828 -0.3249
 2543SOL     OW19261   0.842   1.075   5.579 -0.6579 -0.1752 -0.1886
 2543SOL    HW119262   0.802   0.996   5.545  0.8339 -1.8516  1.9541
 2543SOL    HW219263   0.781   1.099   5.649 -1.2160  1.3234 -1.1799
 2544SOL     OW19264   1.219   2.242   8.349  0.5275  0.3043  0.2401
 2544SOL    HW119265   1.183   2.329   8.370 -2.1392 -0.8086  0.2682
 2544SOL    HW219266   1.307   2.266   8.321  0.6523 -1.2905 -0.6923
 2545SOL     OW19267   1.311   2.375   0.542 -0.0562  0.4928  0.1509
 2545SOL    HW119268   1.254   2.407   0.472 -1.3799 -1.0900  0.5102
 2545SOL    HW219269   1.383   2.439   0.544 -1.3972  2.1057 -3.2486
 2546SOL     OW19270   4.672   3.451   4.136 -0.0523 -0.4478  0.1765
 2546SOL    HW119271   4.602   3.405   4.182 -0.0238 -0.9856 -0.3104
 2546SOL    HW219272   4.689   3.383   4.070  0.7618 -1.7564  1.7224
 2547SOL     OW19273   0.624   2.557   8.874  0.4130  0.1359  0.4791
 2547SOL    HW119274   0.545   2.567   8.820  1.3429  0.4699 -0.8050
 2547SOL    HW219275   0.623   2.463   8.889 -3.2537  0.0718 -0.0846
 2548SOL     OW19276   3.936   1.124  14.299  0.0886 -0.3098  0.5783
 2548SOL    HW119277   4.013   1.094  14.348 -0.6765 -3.7402 -0.2861
 2548SOL    HW219278   3.887   1.043  14.314  3.6379 -2.1484  2.1794
 2549SOL     OW19279   2.563   1.245   0.096 -0.3777 -0.1303 -0.0568
 2549SOL    HW119280   2.515   1.193   0.031  0.9646 -0.4894 -0.7402
 2549SOL    HW219281   2.640   1.271   0.046  1.0823 -1.0170  1.7847
 2550SOL     OW19282   1.610   0.853   8.604 -0.1641  0.0899  0.3575
 2550SOL    HW119283   1.572   0.891   8.683 -1.3556 -0.0676 -0.1370
 2550SOL    HW219284   1.578   0.920   8.543 -1.4499  0.1580  1.1247
 2551SOL     OW19285   2.494   1.357  17.052 -0.4337  0.4238 -0.2134
 2551SOL    HW119286   2.457   1.409  16.980 -2.0998 -1.1863 -0.5179
 2551SOL    HW219287   2.561   1.423  17.070  0.6159 -0.4245 -1.0290
 2552SOL     OW19288   1.304   2.460   2.452 -0.4501  0.0853 -0.1354
 2552SOL    HW119289   1.248   2.499   2.385 -0.6513 -0.5616 -0.3468
 2552SOL    HW219290   1.385   2.511   2.457  0.0744 -0.6399 -1.2151
 2553SOL     OW19291   4.126   2.978   8.469  0.1995 -0.4509 -0.7364
 2553SOL    HW119292   4.180   3.056   8.456  0.4846 -0.1665  1.9871
 2553SOL    HW219293   4.048   3.019   8.432  0.7197 -0.1640 -1.5099
 2554SOL     OW19294   0.014   2.551   8.078  0.0679 -1.0640  0.3296
 2554SOL    HW119295   4.727   2.558   8.171 -1.7993  0.0645 -0.1920
 2554SOL    HW219296   4.675   2.502   8.044 -0.2026  0.9956 -2.0750
 2555SOL     OW19297   3.629   1.468   2.564 -0.0395 -0.0847  0.4756
 2555SOL    HW119298   3.570   1.499   2.495 -1.8893 -1.2479  1.5398
 2555SOL    HW219299   3.582   1.498   2.642  0.1760  0.1225  0.5256
 2556SOL     OW19300   1.470   0.803   3.575  0.0535  0.3949 -0.0784
 2556SOL    HW119301   1.508   0.725   3.616  0.8167  0.6408 -0.3268
 2556SOL    HW219302   1.518   0.803   3.493  0.5725  3.3923  0.2336
 2557SOL     OW19303   3.458   0.930   4.820  0.3087 -0.0022  0.1109
 2557SOL    HW119304   3.461   0.835   4.807  3.3132  0.0809  0.1279
 2557SOL    HW219305   3.370   0.934   4.856  1.8619  1.7791  3.6864
 2558SOL     OW19306   3.129   1.938  17.123  0.0432  0.2670 -0.2981
 2558SOL    HW119307   3.097   2.026  17.104  0.5719  0.3544 -0.7690
 2558SOL    HW219308   3.214   1.946  17.081  0.3268 -2.4938 -0.2388
 2559SOL     OW19309   4.659   1.876  14.704 -0.2241 -0.0394 -0.1448
 2559SOL    HW119310   0.011   1.858  14.740  0.5803  2.1527 -0.9958
 2559SOL    HW219311   4.681   1.908  14.617 -1.2664 -0.2767 -0.5055
 2560SOL     OW19312   2.817   2.161   7.991 -0.3179  0.4436 -0.0649
 2560SOL    HW119313   2.861   2.178   7.908 -0.1366  0.3604  0.0128
 2560SOL    HW219314   2.889   2.162   8.054  2.1918  1.0522 -2.9694
 2561SOL     OW19315   3.840   1.291  11.761 -0.1192  0.0414 -0.1459
 2561SOL    HW119316   3.852   1.278  11.667 -2.4349  0.0684 -0.4230
 2561SOL    HW219317   3.850   1.386  11.769  2.1582 -0.3196  1.3974
 2562SOL     OW19318   2.270   2.973   2.037 -0.9770 -0.1933 -0.0748
 2562SOL    HW119319   2.345   3.029   2.059 -1.2052  0.3301 -0.6155
 2562SOL    HW219320   2.281   2.982   1.943 -1.4540 -1.4528 -0.2435
 2563SOL     OW19321   4.290   3.776   4.602  0.3350 -0.0546 -0.2876
 2563SOL    HW119322   4.380   3.801   4.625 -0.3543  2.5226 -0.4443
 2563SOL    HW219323   4.291   3.819   4.517  2.0502  0.5266  0.0231
 2564SOL     OW19324   3.824   4.479   9.498  0.7366  0.6464 -0.3354
 2564SOL    HW119325   3.756   4.542   9.523  0.3776  0.2677 -0.3570
 2564SOL    HW219326   3.765   4.404   9.497 -0.6106  1.7151 -0.7343
 2565SOL     OW19327   1.926   4.245   3.902 -0.1786  0.1900  0.2802
 2565SOL    HW119328   1.948   4.220   3.991 -1.3222 -0.1945  0.4587
 2565SOL    HW219329   1.974   4.174   3.859 -0.4034  0.8633 -1.0782
 2566SOL     OW19330   1.126   1.071   7.652 -0.3202  0.1145 -0.5234
 2566SOL    HW119331   1.112   0.992   7.601 -0.3111 -1.1057  1.3506
 2566SOL    HW219332   1.188   1.031   7.713 -2.4275  0.3314  1.7935
 2567SOL     OW19333   3.885   3.807   9.972 -0.4794  0.2216  0.0218
 2567SOL    HW119334   3.904   3.881  10.030  1.4501 -0.2084 -0.0609
 2567SOL    HW219335   3.860   3.860   9.896 -1.1086  0.3447  0.3067
 2568SOL     OW19336   0.762   4.465  15.330  0.1462  0.1601  0.1917
 2568SOL    HW119337   0.718   4.470  15.414  0.6648  1.8380  0.3628
 2568SOL    HW219338   0.763   4.556  15.300 -1.2161  0.0320 -0.2225
 2569SOL     OW19339   2.182   2.744   9.336 -0.2967 -0.0318  0.3219
 2569SOL    HW119340   2.175   2.839   9.340 -0.8324  0.0944 -3.7015
 2569SOL    HW219341   2.220   2.731   9.422 -0.8994  1.6963  0.8532
 2570SOL     OW19342   4.380   1.536   1.345  0.6903  0.4421 -0.1236
 2570SOL    HW119343   4.465   1.556   1.384 -0.5020  2.6235  1.4410
 2570SOL    HW219344   4.353   1.456   1.389 -0.0728  0.9584  0.3595
 2571SOL     OW19345   0.413   2.006  14.360  0.1469 -0.4870  0.5049
 2571SOL    HW119346   0.508   1.999  14.369  0.2474 -0.0978 -0.2018
 2571SOL    HW219347   0.384   2.041  14.444 -2.1128 -2.9987  0.7794
 2572SOL     OW19348   0.070   3.036   8.744  1.2130  0.6109  0.3090
 2572SOL    HW119349   0.033   3.098   8.807  0.2937 -0.6643  1.0370
 2572SOL    HW219350   0.060   2.960   8.801 -1.7808  1.0173  0.3276
 2573SOL     OW19351   3.821   3.860  16.477  0.1945  0.1445 -0.2905
 2573SOL    HW119352   3.818   3.867  16.382 -0.3896 -0.2227 -0.3039
 2573SOL    HW219353   3.734   3.823  16.494  0.6782 -0.6014  0.5648
 2574SOL     OW19354   2.496   2.060  14.088 -0.1327  0.1931  0.2525
 2574SOL    HW119355   2.444   2.090  14.014  1.7978  0.2768 -1.0767
 2574SOL    HW219356   2.549   2.137  14.106  1.6849 -0.9698 -0.1198
 2575SOL     OW19357   3.714   1.871   4.752 -0.7141  0.4918  0.4087
 2575SOL    HW119358   3.633   1.829   4.781 -0.8184 -1.0059 -1.9829
 2575SOL    HW219359   3.672   1.928   4.687  1.0968 -0.9623 -2.0589
 2576SOL     OW19360   0.961   3.835   6.442 -0.4509 -0.6043  0.1206
 2576SOL    HW119361   0.903   3.776   6.394  0.1618 -0.1844 -1.1231
 2576SOL    HW219362   0.895   3.887   6.490 -0.4446 -1.2968  0.8839
 2577SOL     OW19363   2.003   3.070   4.599  0.3094 -0.4052 -0.1584
 2577SOL    HW119364   2.023   3.015   4.674  2.5325  0.4572 -0.1301
 2577SOL    HW219365   1.932   3.112   4.647  1.2080  1.6256 -0.6092
 2578SOL     OW19366   3.073   1.618  10.727  0.4294  0.0212 -0.1327
 2578SOL    HW119367   3.117   1.549  10.678  3.2649  1.3340  0.5707
 2578SOL    HW219368   3.148   1.649  10.777  0.6174  0.5381 -0.7418
 2579SOL     OW19369   4.428   4.123   1.629  0.4635 -0.5603  0.1382
 2579SOL    HW119370   4.363   4.192   1.618  0.7231 -0.1099  1.4214
 2579SOL    HW219371   4.511   4.170   1.623  0.9157 -1.2123  1.2705
 2580SOL     OW19372   4.422   0.203  14.989 -0.2492  0.0976  0.0633
 2580SOL    HW119373   4.389   0.141  14.923  2.0524 -0.5997 -0.4264
 2580SOL    HW219374   4.377   0.284  14.968  2.1346  0.9247 -1.7870
 2581SOL     OW19375   1.283   0.608  11.255  0.3162 -0.1975  0.4350
 2581SOL    HW119376   1.346   0.549  11.295  1.8203  1.2993  0.2747
 2581SOL    HW219377   1.257   0.555  11.180 -0.1871 -0.3850  0.7410
 2582SOL     OW19378   1.824   0.480   3.942 -0.0468 -0.2909 -0.0668
 2582SOL    HW119379   1.871   0.432   3.873 -1.6553  0.2272 -1.4989
 2582SOL    HW219380   1.744   0.427   3.947 -0.9521  1.1042  0.0283
 2583SOL     OW19381   2.323   0.759  14.368  0.0385 -0.0340  0.0569
 2583SOL    HW119382   2.339   0.785  14.277  0.4373  1.2698  0.4996
 2583SOL    HW219383   2.365   0.828  14.419  0.1996 -0.3751  0.3850
 2584SOL     OW19384   2.451   1.711   4.696 -0.2829  0.4001  1.0501
 2584SOL    HW119385   2.435   1.698   4.603  0.5252  2.7324  0.5874
 2584SOL    HW219386   2.367   1.683   4.733  0.1049 -2.2332 -0.0356
 2585SOL     OW19387   3.177   4.659   6.043  0.2054 -0.2858  0.2581
 2585SOL    HW119388   3.271   4.661   6.024  0.4675 -0.1026  1.5989
 2585SOL    HW219389   3.175   4.575   6.088 -1.1739 -0.8908 -0.9546
 2586SOL     OW19390   4.346   0.879   3.785 -0.0372 -0.3623 -0.0636
 2586SOL    HW119391   4.361   0.792   3.822 -1.6931 -1.7269 -2.6566
 2586SOL    HW219392   4.256   0.886   3.753 -0.9186 -1.0357  2.2516
 2587SOL     OW19393   1.107   3.277   6.693 -0.4449 -0.3119 -0.3348
 2587SOL    HW119394   1.119   3.188   6.728  0.7337 -0.3607 -0.8712
 2587SOL    HW219395   1.088   3.261   6.601 -3.2583  1.1183  0.0013
 2588SOL     OW19396   4.732   4.599   3.318 -0.6528 -0.6745 -0.1313
 2588SOL    HW119397   4.658   4.594   3.259 -1.3813 -3.0771  0.9529
 2588SOL    HW219398   0.078   4.602   3.266 -0.3103 -1.6386  0.3371
 2589SOL     OW19399   3.576   4.454   7.565  0.0176 -0.0116 -0.3172
 2589SOL    HW119400   3.591   4.546   7.588 -0.7692  0.5288 -1.9801
 2589SOL    HW219401   3.618   4.447   7.479 -1.2210 -0.8882 -0.8536
 2590SOL     OW19402   1.365   4.115  14.906  0.2359 -0.6200 -0.0120
 2590SOL    HW119403   1.372   4.152  14.994  0.0655  0.2314 -0.3589
 2590SOL    HW219404   1.424   4.041  14.921 -0.9438 -1.7427 -0.9161
 2591SOL     OW19405   1.384   3.550  17.170 -0.0142  0.1118  0.2758
 2591SOL    HW119406   1.359   3.629  17.219 -1.1579 -2.0238  3.1386
 2591SOL    HW219407   1.347   3.584  17.088  1.0539 -0.1012 -0.2882
 2592SOL     OW19408   4.695   3.724   7.285  0.1588 -0.3897 -0.6613
 2592SOL    HW119409   4.604   3.741   7.259  1.1352  0.3263 -3.5765
 2592SOL    HW219410   4.699   3.770   7.369 -0.4360 -4.5888  1.6630
 2593SOL     OW19411   0.978   2.020  13.697  0.0283 -0.0657  0.4137
 2593SOL    HW119412   0.979   2.102  13.648  1.7876 -0.1956  0.2323
 2593SOL    HW219413   0.922   2.049  13.768 -2.3768 -2.1319 -0.6495
 2594SOL     OW19414   0.610   2.891  11.175 -0.2235  0.1574 -0.2418
 2594SOL    HW119415   0.529   2.846  11.198  0.4085 -0.4541  0.7492
 2594SOL    HW219416   0.605   2.974  11.222  1.5448 -0.8094  1.6297
 2595SOL     OW19417   0.553   3.337   6.393  0.2432 -0.1668 -0.0634
 2595SOL    HW119418   0.478   3.393   6.372 -0.3504 -0.2661  1.7573
 2595SOL    HW219419   0.532   3.316   6.484  0.9076 -1.6655 -0.2699
 2596SOL     OW19420   2.697   3.460   2.094 -0.0577  0.3085  0.3694
 2596SOL    HW119421   2.619   3.437   2.144  1.1777 -2.3926  1.0914
 2596SOL    HW219422   2.767   3.421   2.146  2.8317  2.7245 -1.7114
 2597SOL     OW19423   2.264   1.216   6.252 -0.2680  0.5924  0.3711
 2597SOL    HW119424   2.294   1.305   6.270  0.2644  0.3450  0.7197
 2597SOL    HW219425   2.277   1.171   6.336 -3.1477 -1.5172 -0.2949
 2598SOL     OW19426   2.254   1.553   8.856  0.0319  0.0415 -0.3872
 2598SOL    HW119427   2.266   1.579   8.765  2.1951  0.4754  0.0086
 2598SOL    HW219428   2.215   1.638   8.877 -1.2168 -0.9357  1.2461
 2599SOL     OW19429   1.544   0.744  17.343 -0.7071 -0.6021 -0.2715
 2599SOL    HW119430   1.464   0.761  17.293 -1.7335 -0.7972  1.2817
 2599SOL    HW219431   1.512   0.715  17.428 -1.9104  0.6306 -0.2962
 2600SOL     OW19432   4.338   0.798  13.247 -0.2136  0.3921 -0.3547
 2600SOL    HW119433   4.339   0.779  13.154  2.3845 -2.5581  0.2751
 2600SOL    HW219434   4.431   0.792  13.267 -0.4328  1.2697  0.9643
 2601SOL     OW19435   1.603   1.863   0.435 -0.3951 -0.3035 -0.5487
 2601SOL    HW119436   1.681   1.809   0.418  0.8281  1.6540 -1.1554
 2601SOL    HW219437   1.610   1.933   0.370  1.4402  1.4440  1.5511
 2602SOL     OW19438   0.086   0.780  16.245 -0.1131  0.2421  0.0192
 2602SOL    HW119439   0.035   0.850  16.286 -1.4692 -1.0267  0.4934
 2602SOL    HW219440   0.171   0.823  16.257  0.0811 -0.1983  0.2345
 2603SOL     OW19441   2.128   2.178   3.661  0.3741 -0.1512  0.1295
 2603SOL    HW119442   2.133   2.162   3.755 -0.5626 -2.0310 -0.1338
 2603SOL    HW219443   2.129   2.084   3.642  2.8015  0.2507 -1.6886
 2604SOL     OW19444   2.296   3.625   1.587  0.0360  0.0815 -0.6608
 2604SOL    HW119445   2.224   3.670   1.542  0.0827  0.1423 -0.6738
 2604SOL    HW219446   2.337   3.585   1.510 -0.8972  0.0517 -1.1444
 2605SOL     OW19447   0.859   3.582   7.083 -0.2095 -0.0574  0.5713
 2605SOL    HW119448   0.914   3.556   7.009 -3.0302 -0.3534 -1.4094
 2605SOL    HW219449   0.865   3.676   7.070  2.7048  0.0332  2.5014
 2606SOL     OW19450   1.607   1.836   8.550  0.0976  0.2437 -0.6780
 2606SOL    HW119451   1.695   1.798   8.548  1.0228  2.3971 -0.3991
 2606SOL    HW219452   1.558   1.761   8.515 -0.0131  0.4340 -0.9275
 2607SOL     OW19453   0.314   4.081  16.804 -0.3020  0.0479 -0.1732
 2607SOL    HW119454   0.313   4.016  16.734  1.1932  2.3380 -2.3071
 2607SOL    HW219455   0.400   4.078  16.847 -0.5095 -0.0870  0.2314
 2608SOL     OW19456   1.304   3.491   8.901  0.3429  0.1277  0.0562
 2608SOL    HW119457   1.367   3.442   8.954  1.5357 -1.6680 -3.0106
 2608SOL    HW219458   1.306   3.575   8.946  0.3741  2.1752 -3.7275
 2609SOL     OW19459   1.460   0.225  11.044  0.4651 -0.3465 -0.1583
 2609SOL    HW119460   1.516   0.225  11.122  2.2904  0.7476 -1.4936
 2609SOL    HW219461   1.397   0.294  11.063 -0.4985 -0.6226 -2.3959
 2610SOL     OW19462   1.240   1.836   6.735 -0.1635  0.1668  0.1479
 2610SOL    HW119463   1.243   1.741   6.739  2.6974  0.2439 -0.2710
 2610SOL    HW219464   1.267   1.841   6.644  0.6899  0.2230  0.4044
 2611SOL     OW19465   0.627   0.024   3.490  0.9754  0.0118 -0.5622
 2611SOL    HW119466   0.701   0.011   3.549  1.3257 -0.3945 -1.0936
 2611SOL    HW219467   0.564   0.075   3.541  2.2433  1.4711 -0.4568
 2612SOL     OW19468   4.136   3.159   7.878  0.0182  0.2133 -0.3033
 2612SOL    HW119469   4.223   3.187   7.905  1.1842 -1.5478 -2.1801
 2612SOL    HW219470   4.082   3.184   7.953  0.4454  2.2798 -0.6847
 2613SOL     OW19471   3.805   0.222   4.243  0.0795  0.1509 -0.0170
 2613SOL    HW119472   3.785   0.141   4.196 -5.7027  1.6433 -0.0763
 2613SOL    HW219473   3.826   0.281   4.170 -0.7975  3.0852  2.1032
 2614SOL     OW19474   3.574   3.092  16.473 -0.8366  0.2400 -0.0427
 2614SOL    HW119475   3.539   3.062  16.388 -3.0005 -1.8586  1.5977
 2614SOL    HW219476   3.654   3.118  16.426 -0.1520  1.0338  1.5852
 2615SOL     OW19477   0.698   0.124   4.415 -0.7855 -0.0053  0.0576
 2615SOL    HW119478   0.752   0.063   4.465  0.9827 -0.2355 -2.1123
 2615SOL    HW219479   0.676   0.188   4.482  1.1883 -0.3316  1.0006
 2616SOL     OW19480   1.940   2.575   1.725 -0.0338  0.8879  0.0956
 2616SOL    HW119481   1.962   2.482   1.725 -3.8000 -0.0418 -1.4693
 2616SOL    HW219482   1.922   2.606   1.814  0.3944  1.0709  0.1170
 2617SOL     OW19483   2.602   4.593   7.152 -0.6648  0.0175  0.0175
 2617SOL    HW119484   2.657   4.671   7.146 -0.5985  0.0134  0.5250
 2617SOL    HW219485   2.525   4.621   7.202 -3.3120 -1.6061 -3.1648
 2618SOL     OW19486   3.504   2.262  11.331 -0.3255 -0.0170  0.0089
 2618SOL    HW119487   3.543   2.300  11.409  1.1133 -2.0913  0.3089
 2618SOL    HW219488   3.527   2.171  11.351 -0.2360 -0.3896 -1.7545
 2619SOL     OW19489   2.869   3.210   5.192 -0.2956 -0.1156 -0.2450
 2619SOL    HW119490   2.893   3.287   5.243  0.6609 -0.7193  0.2249
 2619SOL    HW219491   2.951   3.189   5.148 -0.7533 -0.5615 -0.8815
 2620SOL     OW19492   3.596   0.941  10.944 -0.0402 -0.0717  0.3527
 2620SOL    HW119493   3.575   1.033  10.961  3.4970  0.9503 -1.0129
 2620SOL    HW219494   3.664   0.945  10.878 -1.8607 -0.9318 -1.5700
 2621SOL     OW19495   0.572   2.915   4.643  0.9341 -0.4085 -0.5143
 2621SOL    HW119496   0.619   2.981   4.693  2.4464 -1.3849 -0.6371
 2621SOL    HW219497   0.631   2.904   4.568  0.1295 -0.5763 -1.1333
 2622SOL     OW19498   1.857   2.890  14.853  0.0966 -0.2820 -0.1475
 2622SOL    HW119499   1.799   2.948  14.903  1.5260  1.1203 -0.0941
 2622SOL    HW219500   1.792   2.852  14.794 -0.9491 -1.3671  1.7199
 2623SOL     OW19501   3.565   0.074  11.055 -0.5360 -0.2631 -0.2558
 2623SOL    HW119502   3.566   0.100  10.963  1.9366  1.9298  0.4009
 2623SOL    HW219503   3.634   0.009  11.066 -1.7793 -1.7797 -1.2850
 2624SOL     OW19504   4.528   1.565   4.323  0.0533  0.4006  0.1624
 2624SOL    HW119505   4.584   1.636   4.292 -1.6418  2.2522  1.3363
 2624SOL    HW219506   4.504   1.593   4.412  0.0131  0.4758  0.1279
 2625SOL     OW19507   4.352   0.981   8.115  0.0871 -0.1272 -0.3936
 2625SOL    HW119508   4.386   1.069   8.099  1.2958 -0.6715 -0.8158
 2625SOL    HW219509   4.423   0.925   8.084  0.6921 -0.2503  1.2047
 2626SOL     OW19510   0.181   3.678  15.596 -0.5057  0.0966  0.8655
 2626SOL    HW119511   0.241   3.640  15.660 -1.3122  0.0811  1.6198
 2626SOL    HW219512   0.109   3.616  15.585  1.0775 -1.4865 -0.5370
 2627SOL     OW19513   3.395   3.530   3.675  0.0322  0.0799 -0.0926
 2627SOL    HW119514   3.364   3.584   3.747  0.2988 -2.6897  2.1063
 2627SOL    HW219515   3.455   3.481   3.731 -1.0376 -3.0433 -1.6509
 2628SOL     OW19516   3.251   0.369   4.265  0.0577 -0.2066 -0.1072
 2628SOL    HW119517   3.232   0.345   4.175  0.8197  0.1642 -0.3734
 2628SOL    HW219518   3.223   0.460   4.273 -4.6498 -1.6757  0.1784
 2629SOL     OW19519   2.481   1.254   0.377  0.1907 -0.3991  0.2699
 2629SOL    HW119520   2.562   1.244   0.427  0.2417 -1.6368 -0.0550
 2629SOL    HW219521   2.508   1.237   0.287 -0.2608  1.3026 -0.1909
 2630SOL     OW19522   3.331   1.009   1.669 -0.4813  0.1350  0.1745
 2630SOL    HW119523   3.298   0.921   1.651  1.0402 -0.5165  0.6521
 2630SOL    HW219524   3.303   1.014   1.761 -0.9371  0.1647  0.0348
 2631SOL     OW19525   4.096   2.853   5.491  0.2483  0.4826 -0.3834
 2631SOL    HW119526   4.040   2.857   5.568 -0.2694  0.6833 -0.7708
 2631SOL    HW219527   4.141   2.935   5.514  0.2600  0.3608  0.0307
 2632SOL     OW19528   0.909   2.889   8.712  0.2571 -0.1820 -0.8138
 2632SOL    HW119529   0.920   2.795   8.725 -0.9509 -0.3430 -0.9899
 2632SOL    HW219530   0.825   2.897   8.756 -0.1993  0.4343 -1.8003
 2633SOL     OW19531   2.955   1.160   5.835 -0.3888 -0.1467  0.5006
 2633SOL    HW119532   2.869   1.202   5.831 -2.0963 -3.7315 -0.0067
 2633SOL    HW219533   2.980   1.187   5.923  2.4220 -0.8302 -0.0642
 2634SOL     OW19534   4.542   3.438  10.862 -0.4194 -0.1071  0.2998
 2634SOL    HW119535   4.553   3.421  10.956  3.4756 -0.0709 -0.1509
 2634SOL    HW219536   4.460   3.390  10.846  0.9475 -1.8804 -1.3711
 2635SOL     OW19537   0.831   0.141   7.636  0.1430 -0.4153  0.0475
 2635SOL    HW119538   0.825   0.188   7.553  2.7813  1.2413  0.7854
 2635SOL    HW219539   0.835   0.049   7.608  0.6286 -0.4394  0.1996
 2636SOL     OW19540   3.606   4.106   0.379 -0.0142 -0.2158 -0.4838
 2636SOL    HW119541   3.649   4.083   0.298 -1.4736  0.2839 -1.4057
 2636SOL    HW219542   3.685   4.123   0.430 -3.4116  1.4893  4.3074
 2637SOL     OW19543   3.935   2.001   2.930 -0.3817  0.0256 -0.5040
 2637SOL    HW119544   3.920   1.943   2.855 -2.5348 -0.2960  0.1529
 2637SOL    HW219545   3.917   1.945   3.006  1.1014 -0.1602 -0.2945
 2638SOL     OW19546   1.835   2.362  16.757 -0.3961  0.1973 -0.2459
 2638SOL    HW119547   1.813   2.280  16.801 -1.9420  0.4521 -0.5365
 2638SOL    HW219548   1.920   2.333  16.724  0.0993  0.8805  0.4411
 2639SOL     OW19549   3.227   1.306   8.445  0.9002  0.3450 -0.4507
 2639SOL    HW119550   3.291   1.235   8.447  1.7871  1.2107  1.5599
 2639SOL    HW219551   3.156   1.261   8.398  0.5474  0.3358  0.0977
 2640SOL     OW19552   3.617   1.366   4.140  0.1268 -0.1692 -0.1267
 2640SOL    HW119553   3.632   1.456   4.114 -3.2665  0.5658  0.5830
 2640SOL    HW219554   3.691   1.315   4.106  0.8989  0.1121  1.1032
 2641SOL     OW19555   2.416   0.354  10.348 -0.2873  0.1486 -0.1073
 2641SOL    HW119556   2.357   0.377  10.277  0.8836 -1.2927 -1.5377
 2641SOL    HW219557   2.478   0.427  10.352  2.2637 -1.9700 -0.6803
 2642SOL     OW19558   1.403   3.879  12.134  0.0793 -0.2745  0.6634
 2642SOL    HW119559   1.463   3.923  12.194  0.6813 -2.6747  1.8078
 2642SOL    HW219560   1.357   3.961  12.118  0.1393 -0.1939  0.9092
 2643SOL     OW19561   3.462   0.726   3.016 -0.7173  0.0726 -0.3554
 2643SOL    HW119562   3.557   0.717   3.015 -0.6767 -0.0911  2.7517
 2643SOL    HW219563   3.451   0.658   3.083 -0.0893  3.0615  2.7645
 2644SOL     OW19564   1.459   2.337   6.471 -0.0707  0.0728  0.3082
 2644SOL    HW119565   1.553   2.350   6.476  0.2151 -0.4672 -3.5953
 2644SOL    HW219566   1.427   2.389   6.544  0.7961 -0.8494  1.3413
 2645SOL     OW19567   1.331   2.044   0.869 -0.4523 -0.4342  0.4398
 2645SOL    HW119568   1.421   2.046   0.838 -0.6564 -1.6499 -0.2174
 2645SOL    HW219569   1.279   2.004   0.799 -2.3024  1.2140  0.8480
 2646SOL     OW19570   1.066   3.189   2.945 -0.4163  0.7521 -0.0117
 2646SOL    HW119571   1.061   3.205   2.851  1.9672 -1.3705 -0.5059
 2646SOL    HW219572   1.037   3.275   2.976  0.7351  1.0252  0.2760
 2647SOL     OW19573   1.905   1.348   2.333  0.1699  1.2019 -0.2319
 2647SOL    HW119574   1.942   1.295   2.263  0.0912  0.6908  0.1070
 2647SOL    HW219575   1.945   1.306   2.410 -0.7394 -1.8923 -1.4294
 2648SOL     OW19576   0.996   4.660   7.926  0.7674 -0.0385 -0.7805
 2648SOL    HW119577   1.084   4.626   7.940  0.9476  1.0403  0.7469
 2648SOL    HW219578   0.974   4.680   8.018  4.8424 -2.4425  0.7244
 2649SOL     OW19579   1.281   2.880  17.415 -0.1600  0.1606 -0.2634
 2649SOL    HW119580   1.232   2.907  17.338 -0.2354  1.7235  0.3371
 2649SOL    HW219581   1.272   2.958  17.469 -3.4639 -0.6927  0.4156
 2650SOL     OW19582   0.217   3.110   6.625 -0.2341 -0.2441 -0.4722
 2650SOL    HW119583   0.162   3.185   6.649 -1.3680  0.1001 -4.1901
 2650SOL    HW219584   0.226   3.071   6.712  3.0064  1.5981  0.0071
 2651SOL     OW19585   1.478   1.169   5.514 -0.1253  0.0582  0.1328
 2651SOL    HW119586   1.501   1.174   5.607 -0.2985 -1.6692  0.2712
 2651SOL    HW219587   1.397   1.219   5.525 -0.6016 -0.2002 -2.2416
 2652SOL     OW19588   4.284   1.256  10.776  0.0329  0.8722 -0.1556
 2652SOL    HW119589   4.265   1.327  10.714 -2.3418  0.5941  0.2346
 2652SOL    HW219590   4.287   1.306  10.858 -0.1271  1.8339 -0.7277
 2653SOL     OW19591   1.785   3.705  13.517  0.3516 -0.1736 -0.2394
 2653SOL    HW119592   1.855   3.643  13.537  1.5523  1.6618  1.1313
 2653SOL    HW219593   1.724   3.682  13.587  0.0013  0.3136 -0.3831
 2654SOL     OW19594   0.160   0.703   2.686 -0.1702 -0.6550  0.1840
 2654SOL    HW119595   0.204   0.716   2.770 -0.1061 -1.2655  0.2438
 2654SOL    HW219596   0.222   0.661   2.627 -0.4052 -0.9911  0.1785
 2655SOL     OW19597   4.158   0.250   9.946 -0.2056 -0.1879  0.7147
 2655SOL    HW119598   4.213   0.187   9.900 -1.1913 -1.1185  0.8068
 2655SOL    HW219599   4.095   0.282   9.882  1.8869  1.0196 -0.7304
 2656SOL     OW19600   1.514   0.631   5.023  0.2094  0.5760  0.6745
 2656SOL    HW119601   1.535   0.681   4.944 -0.6207  1.3646  0.9521
 2656SOL    HW219602   1.448   0.686   5.064 -0.8050 -0.9661  1.1233
 2657SOL     OW19603   3.495   2.891  12.576  0.4151  0.0993  0.3072
 2657SOL    HW119604   3.537   2.940  12.647 -0.7839  0.4991  0.7336
 2657SOL    HW219605   3.572   2.838  12.553 -0.5501 -0.2358 -2.1827
 2658SOL     OW19606   3.087   4.068   5.071  0.7023 -0.2899  0.3721
 2658SOL    HW119607   3.106   4.033   5.158  0.6292 -0.2160  0.4184
 2658SOL    HW219608   3.043   3.993   5.032  0.0450  0.1958  0.1791
 2659SOL     OW19609   1.588   3.484   8.581 -0.3652  1.2263  0.2472
 2659SOL    HW119610   1.604   3.566   8.533  4.3488 -0.3088 -0.7701
 2659SOL    HW219611   1.672   3.457   8.616 -0.2385  1.5163  0.1716
 2660SOL     OW19612   2.179   1.615   7.002  0.0947 -0.6282  0.5209
 2660SOL    HW119613   2.232   1.661   6.937 -0.3922  2.3818  2.2081
 2660SOL    HW219614   2.110   1.578   6.947  0.0454  0.2661 -0.0225
 2661SOL     OW19615   1.518   3.509   0.076 -0.3588  0.0714  0.4252
 2661SOL    HW119616   1.584   3.458   0.123 -1.5155 -1.9050 -0.0969
 2661SOL    HW219617   1.471   3.433   0.043  0.3379 -0.4248  0.5923
 2662SOL     OW19618   3.622   1.260   3.203  0.2567  0.1136 -0.0292
 2662SOL    HW119619   3.585   1.280   3.116 -0.1389 -0.1533  0.0785
 2662SOL    HW219620   3.542   1.266   3.255 -0.3138 -4.3372 -0.4213
 2663SOL     OW19621   3.144   3.042   6.811  0.1891 -0.2404 -0.2653
 2663SOL    HW119622   3.050   3.023   6.814  0.3729 -1.6350 -2.4631
 2663SOL    HW219623   3.179   2.959   6.843  3.3763  0.8472 -0.8774
 2664SOL     OW19624   2.662   1.401  17.352 -0.0476  0.3983  0.2297
 2664SOL    HW119625   2.712   1.368  17.427  0.4958  0.4674 -0.1067
 2664SOL    HW219626   2.583   1.432  17.397  0.0661  0.7705  0.1761
 2665SOL     OW19627   1.901   0.544  10.381 -0.1494  0.2616 -0.2588
 2665SOL    HW119628   1.813   0.507  10.369  0.5577 -0.6355 -2.5791
 2665SOL    HW219629   1.929   0.552  10.290 -0.4357  1.4579 -0.2490
 2666SOL     OW19630   2.536   4.694   6.425  0.7592 -0.0959  0.2366
 2666SOL    HW119631   2.606   4.631   6.439  0.4160 -0.3972  0.5696
 2666SOL    HW219632   2.588   0.036   6.401  0.9928 -0.3651 -0.1232
 2667SOL     OW19633   2.519   0.338   9.977 -0.2765  0.0478  0.1019
 2667SOL    HW119634   2.522   0.430   9.950  0.3263  0.5838  1.9708
 2667SOL    HW219635   2.425   0.333   9.993 -0.1212 -0.1275  0.9923
 2668SOL     OW19636   1.596   0.694  15.644  0.2840 -0.5924  0.0343
 2668SOL    HW119637   1.614   0.671  15.553 -2.5213 -0.5926 -0.5026
 2668SOL    HW219638   1.674   0.664  15.692  0.6807 -0.5897 -0.6005
 2669SOL     OW19639   0.360   3.351   6.912 -0.1074  0.3296  0.2019
 2669SOL    HW119640   0.444   3.378   6.950 -1.0753  1.0856  1.7958
 2669SOL    HW219641   0.328   3.284   6.971 -1.6399 -0.2779 -1.3443
 2670SOL     OW19642   2.807   2.071   6.200 -0.6003 -0.2641  0.4911
 2670SOL    HW119643   2.846   2.158   6.205 -1.1742  0.0884 -1.3159
 2670SOL    HW219644   2.825   2.028   6.283 -0.9637  0.7780  1.1052
 2671SOL     OW19645   2.019   1.209   2.092  1.2879 -0.1644 -0.3890
 2671SOL    HW119646   1.931   1.216   2.054  1.0793 -1.5566 -0.1905
 2671SOL    HW219647   2.070   1.209   2.011  3.4391 -1.0012  0.9716
 2672SOL     OW19648   2.643   4.108   8.198  0.6178 -0.1254  0.3155
 2672SOL    HW119649   2.696   4.175   8.155  0.8076  0.1897  1.0496
 2672SOL    HW219650   2.564   4.125   8.146  1.5185  1.7201 -0.4387
 2673SOL     OW19651   4.284   4.595   5.556 -0.6284  0.0349  0.5800
 2673SOL    HW119652   4.345   4.548   5.499 -1.7839 -0.1896 -0.4485
 2673SOL    HW219653   4.343   4.663   5.589  0.4766 -0.5769 -0.1466
 2674SOL     OW19654   4.504   0.458  10.403 -0.1117  0.1173 -0.1026
 2674SOL    HW119655   4.474   0.532  10.350 -0.9553 -0.9013 -1.0472
 2674SOL    HW219656   4.438   0.394  10.377 -0.2508 -0.2040  1.0233
 2675SOL     OW19657   2.406   1.268  14.443 -0.0825  0.0391  0.5157
 2675SOL    HW119658   2.425   1.325  14.368 -1.7152 -0.3348 -0.1836
 2675SOL    HW219659   2.371   1.187  14.407  0.9663  0.8265 -2.3001
 2676SOL     OW19660   3.125   0.350  17.435  0.4573  0.0830  0.1506
 2676SOL    HW119661   3.208   0.391  17.460  0.0687  1.6291 -1.0604
 2676SOL    HW219662   3.163   0.274  17.392  0.6039  0.6891 -0.7807
 2677SOL     OW19663   0.720   3.074   5.976 -0.5038 -0.4962 -0.3276
 2677SOL    HW119664   0.679   3.138   6.034  1.4343  0.0351  0.4650
 2677SOL    HW219665   0.690   2.988   6.005  0.8795 -0.9520 -0.2715
 2678SOL     OW19666   0.842   3.364  17.404  0.2875 -0.3279 -0.1955
 2678SOL    HW119667   0.764   3.309  17.404 -0.6954  1.0579  1.2373
 2678SOL    HW219668   0.904   3.295  17.428 -0.3178 -0.9802 -0.5110
 2679SOL     OW19669   4.637   0.367   9.190  0.5216  0.4080  0.5598
 2679SOL    HW119670   4.577   0.299   9.160 -2.0156  2.9533 -0.0881
 2679SOL    HW219671   4.614   0.355   9.282 -0.0355 -1.6742  0.1310
 2680SOL     OW19672   3.437   3.994  17.512  0.7649  0.1426 -0.6846
 2680SOL    HW119673   3.413   3.947  17.592  0.8407 -1.0931 -1.3875
 2680SOL    HW219674   3.518   4.037  17.538  2.2002 -2.3312 -0.9963
 2681SOL     OW19675   1.727   2.900   2.401 -0.1801 -0.5392 -0.0150
 2681SOL    HW119676   1.800   2.961   2.397 -1.9299  1.5170 -0.9845
 2681SOL    HW219677   1.720   2.878   2.308 -0.0293  1.3829 -0.4943
 2682SOL     OW19678   2.428   0.294   7.189 -0.2144  0.0917  0.6400
 2682SOL    HW119679   2.368   0.340   7.248  0.3083  0.4754  0.8717
 2682SOL    HW219680   2.473   0.367   7.147 -1.3692  0.2645 -0.2973
 2683SOL     OW19681   3.674   2.778   5.254 -0.1782 -0.2207 -0.3380
 2683SOL    HW119682   3.652   2.705   5.311 -0.1591 -0.3837 -0.5416
 2683SOL    HW219683   3.619   2.848   5.291  2.2480  1.9069 -0.7537
 2684SOL     OW19684   1.960   0.763   2.522  1.0826 -0.4104 -0.8260
 2684SOL    HW119685   1.993   0.680   2.557  0.9117 -0.4276 -0.7078
 2684SOL    HW219686   1.935   0.739   2.433  0.0270  2.7009 -1.3799
 2685SOL     OW19687   2.036   3.008   6.427  0.5143  0.0394  0.5899
 2685SOL    HW119688   1.954   3.030   6.472  0.6600  1.8004 -0.0022
 2685SOL    HW219689   2.097   3.064   6.476  0.8947  1.0332 -1.0166
 2686SOL     OW19690   3.873   0.109   3.448  0.2993 -0.4308  0.0492
 2686SOL    HW119691   3.896   0.202   3.444 -1.6281  0.0172 -0.1608
 2686SOL    HW219692   3.816   0.109   3.525  1.3275  0.7105  0.8054
 2687SOL     OW19693   0.669   2.371  14.253  0.3207 -0.2179 -0.2336
 2687SOL    HW119694   0.729   2.302  14.282  1.7334  1.1322  0.0727
 2687SOL    HW219695   0.692   2.379  14.160  4.2244 -1.0594  0.6440
 2688SOL     OW19696   3.606   2.683   1.916  0.1293  0.1379 -0.2222
 2688SOL    HW119697   3.604   2.651   2.006  0.2991 -0.1832 -0.3318
 2688SOL    HW219698   3.597   2.597   1.875  0.4626  0.9778 -2.0754
 2689SOL     OW19699   2.890   4.648   9.328 -0.4201 -0.1622  0.0722
 2689SOL    HW119700   2.857   4.718   9.272  3.2489  1.4159 -0.0909
 2689SOL    HW219701   2.922   4.702   9.400 -1.6925 -0.8993  1.1918
 2690SOL     OW19702   4.317   2.784   5.929  0.1142  0.0817 -0.2083
 2690SOL    HW119703   4.230   2.750   5.950  0.2812 -0.1655  0.0896
 2690SOL    HW219704   4.347   2.838   6.002 -0.3287 -0.2231  0.2008
 2691SOL     OW19705   0.905   2.434  17.249  0.3366  0.8673  0.0924
 2691SOL    HW119706   0.847   2.362  17.273 -0.2732  1.0096 -0.9337
 2691SOL    HW219707   0.871   2.466  17.166  0.0972  2.0746  0.6608
 2692SOL     OW19708   4.513   2.998   3.311  0.3678 -0.4479 -0.1832
 2692SOL    HW119709   4.467   2.959   3.385 -1.6619 -0.9666 -1.7296
 2692SOL    HW219710   4.534   3.081   3.354  0.2041 -0.3748 -0.2438
 2693SOL     OW19711   1.791   3.900   8.068  0.2421  0.1455 -0.3273
 2693SOL    HW119712   1.861   3.931   8.010  0.1833 -0.3885 -0.6924
 2693SOL    HW219713   1.780   3.976   8.125 -0.7235 -0.7458  0.6601
 2694SOL     OW19714   2.724   2.910   1.963 -0.0878  0.5071 -0.2270
 2694SOL    HW119715   2.811   2.915   1.923 -0.4399  1.6673 -0.8548
 2694SOL    HW219716   2.675   2.901   1.881  1.7768  0.7271 -1.3687
 2695SOL     OW19717   0.271   2.195   8.535 -0.0167  0.7092  0.1712
 2695SOL    HW119718   0.223   2.148   8.468  0.8125  0.3165 -0.1540
 2695SOL    HW219719   0.333   2.136   8.578 -1.0821  0.1025  0.8639
 2696SOL     OW19720   0.720   0.425  17.217  0.0820 -0.6254 -0.9117
 2696SOL    HW119721   0.702   0.455  17.128 -1.0911  0.0329 -0.4486
 2696SOL    HW219722   0.810   0.459  17.221  1.0468 -3.3582  0.5352
 2697SOL     OW19723   2.739   3.907   2.296 -0.4330 -0.2878  0.1722
 2697SOL    HW119724   2.763   3.928   2.386 -1.9262  2.3703 -0.0433
 2697SOL    HW219725   2.801   3.838   2.270 -1.5745 -1.3386  0.2378
 2698SOL     OW19726   2.849   1.330  16.900  0.0160 -0.2915  0.4925
 2698SOL    HW119727   2.917   1.363  16.841 -0.5635 -0.6744 -0.3966
 2698SOL    HW219728   2.780   1.395  16.884  0.5696 -0.0240 -0.7694
 2699SOL     OW19729   2.445   2.228  12.678  0.0593  0.0540  0.2022
 2699SOL    HW119730   2.472   2.278  12.756 -1.4585  0.4326  0.4769
 2699SOL    HW219731   2.457   2.137  12.707 -1.9600  0.0055  0.8411
 2700SOL     OW19732   1.155   2.254  17.380 -0.1464  0.2972  0.2029
 2700SOL    HW119733   1.127   2.251  17.472 -1.0373 -1.7202 -0.1419
 2700SOL    HW219734   1.185   2.343  17.362  1.9620 -0.5290 -0.4008
 2701SOL     OW19735   2.072   2.109  13.400 -0.2231  0.5175 -0.9788
 2701SOL    HW119736   2.081   2.019  13.367  0.8474  0.0397  0.6029
 2701SOL    HW219737   1.989   2.097  13.446  0.8243  0.8404  0.9771
 2702SOL     OW19738   0.697   3.960   6.178  0.1517  0.0058 -0.6157
 2702SOL    HW119739   0.620   3.913   6.210  2.0335 -1.6282  1.4578
 2702SOL    HW219740   0.748   3.883   6.152  0.3314  0.0412 -0.3574
 2703SOL     OW19741   1.115   3.418   0.848  0.4778  0.3947 -0.2334
 2703SOL    HW119742   1.129   3.329   0.815 -0.0720  0.2312 -0.0324
 2703SOL    HW219743   1.200   3.438   0.886  0.1556 -1.6285  1.5585
 2704SOL     OW19744   2.120   0.355   5.240 -0.0814  0.6143  0.5479
 2704SOL    HW119745   2.028   0.374   5.257 -0.5651 -1.4041  0.2410
 2704SOL    HW219746   2.140   0.325   5.329  1.1895  4.8857  1.7049
 2705SOL     OW19747   3.708   0.294  13.820 -0.5382 -0.2246  0.3108
 2705SOL    HW119748   3.671   0.209  13.797 -2.3479  0.9109 -0.9755
 2705SOL    HW219749   3.784   0.268  13.873  0.6690 -0.6281 -1.5949
 2706SOL     OW19750   3.375   1.855   2.493  0.0865  0.1828  0.6510
 2706SOL    HW119751   3.298   1.869   2.548 -0.6713 -0.2681 -0.2935
 2706SOL    HW219752   3.362   1.923   2.427 -0.6332  0.6445  1.2644
 2707SOL     OW19753   0.700   2.605   4.051  0.1089 -0.1557 -0.3504
 2707SOL    HW119754   0.764   2.553   4.100  0.1723 -1.1244 -1.4675
 2707SOL    HW219755   0.758   2.677   4.027 -1.3490  1.1446 -0.0177
 2708SOL     OW19756   2.582   2.995   4.508  0.0691 -0.3194 -0.4965
 2708SOL    HW119757   2.606   2.905   4.531 -0.6106  0.1105  1.8926
 2708SOL    HW219758   2.489   2.985   4.527 -0.4430  0.9867 -2.3338
 2709SOL     OW19759   3.999   2.601   2.012  0.5033  0.3419 -0.1330
 2709SOL    HW119760   4.093   2.616   2.025  0.2948  1.2304  0.3478
 2709SOL    HW219761   3.962   2.646   2.088  2.1086  3.3425 -1.1131
 2710SOL     OW19762   0.278   0.050  10.279 -0.6011  0.2359  0.7920
 2710SOL    HW119763   0.251   4.693  10.287  1.2189 -0.4894 -1.1339
 2710SOL    HW219764   0.373   0.043  10.271 -0.5480  2.3519 -0.3422
 2711SOL     OW19765   3.164   4.731  11.151  0.1653  0.5008 -0.2938
 2711SOL    HW119766   3.147   4.698  11.239  1.1204 -3.2022 -1.5227
 2711SOL    HW219767   3.076   0.028  11.133  0.8615  2.4030 -0.3743
 2712SOL     OW19768   3.341   0.533  16.331  0.6164  0.0089 -0.3958
 2712SOL    HW119769   3.273   0.544  16.397  1.8475  0.0349  0.8898
 2712SOL    HW219770   3.291   0.535  16.250  1.1054  1.4514 -0.6635
 2713SOL     OW19771   3.344   3.648   5.583 -0.3304  0.2271  0.6318
 2713SOL    HW119772   3.364   3.556   5.600  0.0500  0.2012  0.0167
 2713SOL    HW219773   3.343   3.694   5.667 -0.8213 -0.3184  0.9253
 2714SOL     OW19774   3.980   3.440   5.126 -0.0498 -0.3746 -0.0344
 2714SOL    HW119775   3.967   3.432   5.221  0.4441  1.0071  0.1577
 2714SOL    HW219776   3.961   3.354   5.088  1.9445  0.2984 -2.5332
 2715SOL     OW19777   4.486   3.357   2.801  0.1709  0.1835  0.3413
 2715SOL    HW119778   4.450   3.441   2.829 -4.3489 -1.3249 -1.0306
 2715SOL    HW219779   4.459   3.352   2.710  0.1562  1.0287  0.2925
 2716SOL     OW19780   3.183   2.078  12.768 -0.5079  0.3802  0.1800
 2716SOL    HW119781   3.182   2.052  12.675  0.4818 -0.3860  0.3746
 2716SOL    HW219782   3.116   2.143  12.749  0.6560  1.1468 -1.3656
 2717SOL     OW19783   4.706   1.804   2.381  0.2417 -0.3557 -0.6476
 2717SOL    HW119784   4.654   1.724   2.386 -2.5073  1.4277 -0.3511
 2717SOL    HW219785   0.035   1.789   2.312  0.1486  0.3073 -0.8774
 2718SOL     OW19786   1.387   2.176   5.753  0.5130  0.0295 -0.2090
 2718SOL    HW119787   1.367   2.170   5.847 -0.8831 -1.5973 -0.6025
 2718SOL    HW219788   1.468   2.126   5.739 -1.5728 -3.5160  0.2832
 2719SOL     OW19789   4.032   3.108  16.074  0.3272  0.3625 -0.7390
 2719SOL    HW119790   4.094   3.044  16.109 -1.0113 -0.9933 -0.8581
 2719SOL    HW219791   4.046   3.078  15.984  0.5534 -0.1536 -0.5305
 2720SOL     OW19792   3.477   0.877  11.478 -0.0079  1.1707 -0.0184
 2720SOL    HW119793   3.437   0.864  11.392  0.2484 -0.8835  0.1736
 2720SOL    HW219794   3.404   0.904  11.535  1.1061  0.2189  1.8568
 2721SOL     OW19795   4.256   3.498   4.565  0.4752  0.2436  0.2191
 2721SOL    HW119796   4.282   3.585   4.595  0.6157  1.4715 -3.4315
 2721SOL    HW219797   4.278   3.447   4.643 -0.8298 -0.0626  0.3782
 2722SOL     OW19798   3.540   4.276  13.041 -0.8507 -0.7338 -0.1168
 2722SOL    HW119799   3.486   4.352  13.064 -0.9019 -1.1764  1.1932
 2722SOL    HW219800   3.495   4.239  12.964  1.6009 -1.9533 -0.9566
 2723SOL     OW19801   3.570   3.156   1.307  0.4855  0.0895  0.4001
 2723SOL    HW119802   3.640   3.103   1.269  1.6375 -0.0745  2.7230
 2723SOL    HW219803   3.597   3.243   1.276  1.2737 -1.0577 -2.1751
 2724SOL     OW19804   2.460   2.835  17.017  0.2320  0.0621 -0.1847
 2724SOL    HW119805   2.541   2.844  17.067 -0.5094  2.1756  0.6153
 2724SOL    HW219806   2.492   2.824  16.928  2.8732 -2.6291  1.1054
 2725SOL     OW19807   1.196   0.334   2.728  0.3077  0.4406  0.0574
 2725SOL    HW119808   1.132   0.263   2.719  1.0555 -0.3559  1.1043
 2725SOL    HW219809   1.171   0.344   2.820 -1.1665 -0.4161 -0.2498
 2726SOL     OW19810   3.709   0.341   7.596  0.0333  0.1813 -0.1766
 2726SOL    HW119811   3.760   0.421   7.610  0.1659  0.1431 -0.4414
 2726SOL    HW219812   3.762   0.312   7.522  0.2253 -2.5612  1.0324
 2727SOL     OW19813   0.195   3.735   8.938 -0.4627 -0.3759 -0.1218
 2727SOL    HW119814   0.156   3.659   8.894 -1.3710 -0.7137  1.2612
 2727SOL    HW219815   0.264   3.709   8.998 -1.6923 -1.2100  0.9392
 2728SOL     OW19816   3.289   1.839  13.165 -0.2556  0.4650 -0.0178
 2728SOL    HW119817   3.302   1.782  13.090 -1.6473  0.0460  0.0544
 2728SOL    HW219818   3.270   1.923  13.122  1.1396  1.2360  0.8949
 2729SOL     OW19819   3.650   2.562  14.632  0.7964 -0.7041  0.6239
 2729SOL    HW119820   3.581   2.614  14.592  3.2903  2.5546  0.5607
 2729SOL    HW219821   3.666   2.500  14.561 -1.7332  1.1509 -1.5435
 2730SOL     OW19822   3.931   0.642  10.772  0.0554 -0.0368  0.8064
 2730SOL    HW119823   3.922   0.627  10.866  0.6786  0.2179  0.9148
 2730SOL    HW219824   4.025   0.625  10.764 -0.0027 -0.5494  1.2209
 2731SOL     OW19825   3.537   4.523  10.519 -0.3456 -0.3036 -0.2621
 2731SOL    HW119826   3.552   4.501  10.427 -1.1128 -3.2254  0.3017
 2731SOL    HW219827   3.628   4.521  10.548  0.6352  0.7349 -3.2043
 2732SOL     OW19828   0.767   0.906   6.262 -0.3026 -0.3011  0.0803
 2732SOL    HW119829   0.845   0.958   6.277 -1.9639  2.1164  0.3435
 2732SOL    HW219830   0.796   0.823   6.301  0.8434 -0.0641 -0.2826
 2733SOL     OW19831   4.628   0.607   4.904  0.0982 -0.2994  0.0014
 2733SOL    HW119832   4.578   0.559   4.839 -0.7113  0.7434 -0.1417
 2733SOL    HW219833   4.615   0.551   4.981 -1.5157 -1.1254 -0.8987
 2734SOL     OW19834   2.461   0.604   9.866  0.6242 -0.7563 -0.2569
 2734SOL    HW119835   2.524   0.661   9.822 -0.1555 -0.5444 -1.1095
 2734SOL    HW219836   2.402   0.678   9.877  2.2150  0.8098 -2.1774
 2735SOL     OW19837   3.500   2.137  17.474 -0.4131  0.0196 -0.3537
 2735SOL    HW119838   3.406   2.134  17.458 -0.0156 -3.0116 -2.0004
 2735SOL    HW219839   3.513   2.074  17.546 -0.2338 -0.6502 -0.9775
 2736SOL     OW19840   4.311   1.561   4.863  0.0989  0.0527  0.3115
 2736SOL    HW119841   4.303   1.544   4.957  0.2463  0.2170  0.3527
 2736SOL    HW219842   4.322   1.656   4.867  0.3205  0.1143 -1.6143
 2737SOL     OW19843   0.116   2.975   5.873  0.3519 -0.0904 -0.5236
 2737SOL    HW119844   0.141   2.908   5.810  1.7725  0.8515 -0.9571
 2737SOL    HW219845   0.038   2.937   5.914  1.3168  0.1910  1.5573
 2738SOL     OW19846   2.769   3.347  12.733  0.6690  0.0295 -0.6416
 2738SOL    HW119847   2.675   3.336  12.722  0.7251  0.8835 -1.9780
 2738SOL    HW219848   2.800   3.378  12.648 -2.8983 -0.2784 -2.0501
 2739SOL     OW19849   3.126   1.149   2.151  0.4291 -0.1599  0.2010
 2739SOL    HW119850   3.201   1.196   2.188  0.6358  1.9104 -2.7696
 2739SOL    HW219851   3.092   1.109   2.230 -1.9117  2.8392  0.7240
 2740SOL     OW19852   1.545   0.937   3.062 -0.4510 -0.4958  0.3984
 2740SOL    HW119853   1.503   0.883   2.995  0.6742  0.3547 -0.9805
 2740SOL    HW219854   1.508   1.026   3.059 -0.0959 -0.3600  0.1209
 2741SOL     OW19855   0.837   3.467   4.937  0.8196  0.8515  0.3159
 2741SOL    HW119856   0.892   3.497   5.010  0.5392 -0.3513  1.0318
 2741SOL    HW219857   0.769   3.534   4.927  0.3085  0.3093  0.1347
 2742SOL     OW19858   3.107   0.077   9.040  0.5243 -0.0173 -0.3203
 2742SOL    HW119859   3.042   0.120   8.984  0.3875 -1.3376 -1.1642
 2742SOL    HW219860   3.089   0.126   9.120 -0.7689 -1.7398  0.4308
 2743SOL     OW19861   1.890   2.597   5.045 -0.2175  0.0747  0.5474
 2743SOL    HW119862   1.947   2.523   5.065 -1.7647 -1.2228  0.0868
 2743SOL    HW219863   1.828   2.557   4.984 -2.5625  1.3000  2.1404
 2744SOL     OW19864   2.790   1.849   8.175 -0.0104  0.9678 -0.6047
 2744SOL    HW119865   2.712   1.796   8.160  1.3394 -1.2614  0.2273
 2744SOL    HW219866   2.768   1.890   8.259 -2.7939 -0.5802 -0.5727
 2745SOL     OW19867   4.167   0.377   8.898 -0.5230 -0.3021  0.3648
 2745SOL    HW119868   4.228   0.370   8.824 -0.1711  3.9420  0.2777
 2745SOL    HW219869   4.208   0.313   8.956 -1.1843 -0.4339  0.6931
 2746SOL     OW19870   1.880   4.010   5.821 -0.5848  0.8801 -0.0352
 2746SOL    HW119871   1.935   4.057   5.757 -0.4484 -2.1764 -2.1734
 2746SOL    HW219872   1.941   3.971   5.884  0.9164  3.8488  0.3659
 2747SOL     OW19873   2.614   3.463   6.182 -0.0019 -0.3440  0.0167
 2747SOL    HW119874   2.535   3.410   6.185  0.6691 -1.3488 -0.0243
 2747SOL    HW219875   2.657   3.444   6.266 -0.0879 -1.3123 -0.1531
 2748SOL     OW19876   0.397   3.974   2.004  0.5596  0.3388  0.2608
 2748SOL    HW119877   0.354   3.952   2.086 -1.8940 -0.3014 -1.1741
 2748SOL    HW219878   0.374   4.067   1.992 -0.8318  0.0023  0.3178
 2749SOL     OW19879   2.281   1.811   3.271  0.0751 -0.6134  0.2501
 2749SOL    HW119880   2.344   1.821   3.343  1.6389  3.3016 -1.6715
 2749SOL    HW219881   2.293   1.887   3.215 -1.5082  0.1292  0.9217
 2750SOL     OW19882   3.461   3.017  11.373  0.5581  0.4360  0.4098
 2750SOL    HW119883   3.416   3.000  11.456  1.5359  0.7606  1.0086
 2750SOL    HW219884   3.541   3.061  11.404 -0.2616  0.5393  2.3912
 2751SOL     OW19885   2.623   2.723   4.920 -0.3356  0.7106 -0.7392
 2751SOL    HW119886   2.702   2.748   4.873  0.1656 -1.4178 -1.0060
 2751SOL    HW219887   2.639   2.760   5.006 -0.0950  1.2942 -1.0345
 2752SOL     OW19888   1.551   3.260   9.629 -0.3636 -0.4667  0.4529
 2752SOL    HW119889   1.523   3.350   9.647  0.6389 -0.3047  1.1765
 2752SOL    HW219890   1.493   3.217   9.693  0.1587 -2.4137 -0.3937
 2753SOL     OW19891   4.015   1.176   4.709  0.2368 -0.6554  0.3898
 2753SOL    HW119892   3.928   1.140   4.690 -0.7936  2.4193 -0.6807
 2753SOL    HW219893   3.999   1.224   4.790 -1.4939 -2.2865  0.9958
 2754SOL     OW19894   0.468   4.421  11.896 -0.4583  0.3544 -0.0989
 2754SOL    HW119895   0.412   4.498  11.904 -1.4739 -0.4089  0.1118
 2754SOL    HW219896   0.554   4.458  11.918  0.0027 -0.4844 -0.4931
 2755SOL     OW19897   2.284   1.073   6.034 -0.3491  0.0675 -0.4605
 2755SOL    HW119898   2.273   1.123   5.953 -2.0291 -0.2606 -0.4321
 2755SOL    HW219899   2.281   1.135   6.106 -0.2320 -1.8552  1.1935
 2756SOL     OW19900   4.433   2.274   3.510 -0.0001 -0.3643 -0.5611
 2756SOL    HW119901   4.445   2.272   3.415  0.0359 -3.1201 -0.4982
 2756SOL    HW219902   4.504   2.216   3.538 -0.6364 -0.8109  0.1153
 2757SOL     OW19903   0.631   2.996  14.815  0.6970 -0.8316 -0.0689
 2757SOL    HW119904   0.670   2.974  14.730  3.7528  1.5504  0.6946
 2757SOL    HW219905   0.540   3.001  14.786  1.3893 -1.9849 -2.4431
 2758SOL     OW19906   3.613   0.545   7.940 -0.1144  0.7529  0.0146
 2758SOL    HW119907   3.561   0.602   7.883 -1.1501 -0.9845 -0.7839
 2758SOL    HW219908   3.678   0.612   7.960  1.1953 -0.4041 -0.4415
 2759SOL     OW19909   2.002   3.140   7.882 -0.0440  0.5096  0.4484
 2759SOL    HW119910   1.967   3.053   7.865 -0.7594  0.6474  1.1942
 2759SOL    HW219911   1.916   3.180   7.898 -0.5976 -0.5677  0.2122
 2760SOL     OW19912   0.467   4.514   8.419 -0.0333  0.1969  0.3785
 2760SOL    HW119913   0.423   4.580   8.473 -2.0891  1.0633 -2.3994
 2760SOL    HW219914   0.470   4.559   8.335 -0.4463 -0.9313 -0.2386
 2761SOL     OW19915   1.502   1.038   6.789 -0.3285 -0.5163 -0.2919
 2761SOL    HW119916   1.571   0.993   6.838  0.0608  0.5152  0.1108
 2761SOL    HW219917   1.512   1.003   6.700 -0.8159  1.0014 -0.9450
 2762SOL     OW19918   2.087   2.809   4.161  0.0398  0.1431  0.5216
 2762SOL    HW119919   2.084   2.879   4.226  0.1657 -0.1381  0.8324
 2762SOL    HW219920   2.131   2.741   4.212 -1.0850 -1.6115 -0.8145
 2763SOL     OW19921   0.318   1.970   2.515  0.3419 -0.5676  0.4305
 2763SOL    HW119922   0.386   1.907   2.493 -2.4692 -4.1023  1.7643
 2763SOL    HW219923   0.300   1.942   2.605  0.9548 -0.8854  0.4553
 2764SOL     OW19924   1.883   2.259   8.644 -0.0988 -0.3262  0.2004
 2764SOL    HW119925   1.954   2.318   8.671  0.2121 -0.4301 -0.3909
 2764SOL    HW219926   1.883   2.189   8.710  0.4846  0.8766  1.4699
 2765SOL     OW19927   1.133   2.745   2.243 -0.4515 -0.8147 -0.5758
 2765SOL    HW119928   1.085   2.827   2.232  2.3039  1.4021  3.6244
 2765SOL    HW219929   1.085   2.684   2.187 -0.0568  0.1704 -1.9889
 2766SOL     OW19930   4.480   4.531  13.600 -0.3223 -0.4125  0.9245
 2766SOL    HW119931   4.446   4.461  13.543  2.4834 -0.1074 -1.1001
 2766SOL    HW219932   4.446   4.517  13.689  0.6264  0.2042  1.3829
 2767SOL     OW19933   4.622   1.923   0.065 -1.0148  0.5842 -0.3041
 2767SOL    HW119934   4.576   1.896  17.723  2.1732  1.1178 -2.3222
 2767SOL    HW219935   4.708   1.942   0.028 -0.0404  0.3601  1.8837
 2768SOL     OW19936   2.521   4.634   6.831 -0.8417  0.1168  0.8569
 2768SOL    HW119937   2.595   4.589   6.871  0.5377  2.3401  0.8249
 2768SOL    HW219938   2.514   4.712   6.886 -0.2490  0.9534 -0.2495
 2769SOL     OW19939   3.899   3.452   8.039  0.4292 -0.5011 -0.1285
 2769SOL    HW119940   3.949   3.524   8.078 -0.4385  0.0001  0.0578
 2769SOL    HW219941   3.818   3.499   8.018 -0.9304 -2.1535  1.5101
 2770SOL     OW19942   3.163   4.482   3.329 -0.0465  0.4125  0.4795
 2770SOL    HW119943   3.207   4.561   3.299  0.5664 -0.5797 -1.2787
 2770SOL    HW219944   3.186   4.414   3.265 -0.5736  1.1572 -0.5039
 2771SOL     OW19945   4.471   1.351  15.905 -0.0680  0.2356 -0.3044
 2771SOL    HW119946   4.416   1.408  15.958 -1.1202 -1.7065  0.6738
 2771SOL    HW219947   4.550   1.361  15.958 -1.0182  4.8383  0.2285
 2772SOL     OW19948   0.617   4.430   1.667  0.1923 -0.4057  0.1010
 2772SOL    HW119949   0.535   4.458   1.625  1.5629  1.9263 -1.0112
 2772SOL    HW219950   0.620   4.334   1.666  0.2300 -0.3902 -0.7430
 2773SOL     OW19951   0.630   2.926   3.226 -0.8258 -0.1167  0.0998
 2773SOL    HW119952   0.536   2.907   3.215 -0.9330 -0.4229  1.4752
 2773SOL    HW219953   0.622   3.015   3.259  0.0038 -1.0633  2.8577
 2774SOL     OW19954   0.966   2.498  15.555  0.6637  0.2856  0.1935
 2774SOL    HW119955   0.964   2.560  15.482 -0.3380 -0.3516 -0.3279
 2774SOL    HW219956   0.977   2.552  15.634 -0.8763 -1.5447  1.6829
 2775SOL     OW19957   0.434   0.267   3.000 -0.4344 -0.4080 -0.6455
 2775SOL    HW119958   0.498   0.260   2.929 -1.1449 -1.1860 -1.2124
 2775SOL    HW219959   0.480   0.278   3.083  0.4864 -2.5112 -0.8620
 2776SOL     OW19960   3.398   0.011  17.555  0.0236  0.2764  0.4549
 2776SOL    HW119961   3.488   4.730  17.586 -0.9762 -0.8306  2.8232
 2776SOL    HW219962   3.353   0.042  17.634  0.4013  1.7435  0.1054
 2777SOL     OW19963   0.818   4.510  10.459  0.3897 -0.2978  0.1683
 2777SOL    HW119964   0.727   4.494  10.484  0.0267  0.1804 -0.8882
 2777SOL    HW219965   0.815   4.511  10.364  1.3627 -2.6659  0.1032
 2778SOL     OW19966   1.690   4.114   7.129  0.4712 -0.2364 -0.3273
 2778SOL    HW119967   1.753   4.125   7.201 -0.0950  3.2232 -0.3407
 2778SOL    HW219968   1.749   4.071   7.068 -0.3866  0.9779 -1.9889
 2779SOL     OW19969   1.983   2.110   4.832 -0.1611  0.4771 -0.9423
 2779SOL    HW119970   2.052   2.082   4.892  0.0082 -0.6906 -1.6992
 2779SOL    HW219971   1.907   2.114   4.891  0.7750  0.9956  0.2492
 2780SOL     OW19972   1.029   3.202   8.021  0.2976  0.5040  0.3240
 2780SOL    HW119973   1.120   3.212   8.048 -0.5941  2.7363  2.5314
 2780SOL    HW219974   0.990   3.247   8.096  2.1935  1.7412  0.5479
 2781SOL     OW19975   3.441   4.643   8.418 -0.5359  0.1694  0.3615
 2781SOL    HW119976   3.450   4.671   8.509  0.0522 -0.0306  0.3673
 2781SOL    HW219977   3.441   4.725   8.369  0.5725 -1.5211 -2.5239
 2782SOL     OW19978   3.608   3.537  14.121  0.0891  0.5541 -0.6797
 2782SOL    HW119979   3.535   3.518  14.181  0.7025  0.9729  0.2037
 2782SOL    HW219980   3.685   3.518  14.175 -0.8776 -2.0910 -0.2565
 2783SOL     OW19981   3.845   3.032   6.430 -0.4563 -0.0615  0.0434
 2783SOL    HW119982   3.905   2.957   6.437 -0.4340 -0.0912 -0.4774
 2783SOL    HW219983   3.820   3.040   6.522  1.5301 -1.1071  0.6973
 2784SOL     OW19984   1.886   1.781  15.415 -0.2532  0.1999 -0.0429
 2784SOL    HW119985   1.902   1.736  15.332 -0.4146 -2.4138  1.3352
 2784SOL    HW219986   1.791   1.793  15.405 -0.3993  0.7089  2.0764
 2785SOL     OW19987   3.928   1.265   1.403 -0.0214 -0.8739 -0.2762
 2785SOL    HW119988   3.928   1.200   1.473 -1.2319 -0.1991  0.3333
 2785SOL    HW219989   3.963   1.219   1.326 -1.6331 -1.1518 -0.8322
 2786SOL     OW19990   1.814   3.267  16.263  0.4430  0.2862  0.1832
 2786SOL    HW119991   1.852   3.190  16.220 -0.3561  0.8054 -1.4864
 2786SOL    HW219992   1.768   3.231  16.339 -1.1349 -0.4786 -1.1233
 2787SOL     OW19993   3.394   3.634   7.839 -0.3285 -0.9446  0.5237
 2787SOL    HW119994   3.462   3.583   7.883 -0.6895 -0.7500  1.3036
 2787SOL    HW219995   3.444   3.707   7.803  1.9661 -2.5148  0.5191
 2788SOL     OW19996   1.391   3.823   3.438  0.3321  0.1583  0.9336
 2788SOL    HW119997   1.402   3.864   3.352  0.3443 -0.8223  0.4662
 2788SOL    HW219998   1.465   3.862   3.483  1.5472 -1.4035  0.2615
 2789SOL     OW19999   3.824   0.986   7.993 -0.1808  0.5336  0.0662
 2789SOL    HW120000   3.912   1.013   8.017 -0.2665 -1.3470  2.5060
 2789SOL    HW220001   3.813   1.027   7.907 -0.3260 -0.3966 -0.3636
 2790SOL     OW20002   1.381   0.992  15.902  0.3224 -0.0178 -0.0928
 2790SOL    HW120003   1.447   1.061  15.902  1.0355 -0.6975 -3.3849
 2790SOL    HW220004   1.448   0.927  15.924  0.5535  0.6287  1.0887
 2791SOL     OW20005   0.976   3.577  17.553 -0.2608  0.3722  0.4045
 2791SOL    HW120006   1.006   3.508  17.494  0.1789  0.2672  0.7497
 2791SOL    HW220007   0.909   3.528  17.602  0.9360 -2.7653 -1.0827
 2792SOL     OW20008   0.415   4.291   0.604  0.5071  0.2343 -0.4943
 2792SOL    HW120009   0.348   4.223   0.608  1.0487 -0.1585  2.3363
 2792SOL    HW220010   0.359   4.365   0.581 -1.8458 -1.4124 -0.0137
 2793SOL     OW20011   0.187   3.373   6.702 -0.5085  0.2122  0.4234
 2793SOL    HW120012   0.162   3.466   6.704  0.8878  0.5833  0.8849
 2793SOL    HW220013   0.240   3.361   6.781  0.2103  0.5514 -0.0036
 2794SOL     OW20014   3.832   1.954  16.194 -0.0086 -0.5385  0.2031
 2794SOL    HW120015   3.834   1.997  16.279 -3.7531 -1.8579  0.9131
 2794SOL    HW220016   3.738   1.958  16.174  0.2984  1.9126 -0.8229
 2795SOL     OW20017   2.952   0.142   3.852  0.4952  0.0462  0.4391
 2795SOL    HW120018   2.994   0.061   3.882  0.3845  0.2941  1.2459
 2795SOL    HW220019   2.868   0.142   3.898  1.1927  1.0446  1.7112
 2796SOL     OW20020   2.802   2.821   7.123 -0.5950 -0.2396 -0.7902
 2796SOL    HW120021   2.780   2.778   7.205  0.4357  2.7045  1.0320
 2796SOL    HW220022   2.813   2.915   7.139  2.2771 -0.5209 -1.1039
 2797SOL     OW20023   3.674   4.332  10.258  0.1832  0.3572 -0.3728
 2797SOL    HW120024   3.617   4.257  10.245  1.4259 -0.9339  1.5979
 2797SOL    HW220025   3.661   4.379  10.175 -0.0320  0.9509 -0.0079
 2798SOL     OW20026   3.094   1.798   3.617 -0.1737 -1.2029 -0.1053
 2798SOL    HW120027   3.052   1.883   3.604 -1.4289 -2.2857 -3.1315
 2798SOL    HW220028   3.152   1.810   3.692 -0.9248 -1.2110  0.4750
 2799SOL     OW20029   2.445   2.661   1.825  0.1010  0.0318  0.3061
 2799SOL    HW120030   2.492   2.723   1.769 -0.2724 -0.2950 -0.3817
 2799SOL    HW220031   2.359   2.694   1.800  0.3227  0.3192 -0.0815
 2800SOL     OW20032   1.918   1.294   3.518 -0.2555  0.4251 -0.3480
 2800SOL    HW120033   1.993   1.269   3.465  0.0600  0.2017  0.1991
 2800SOL    HW220034   1.872   1.210   3.522 -0.3283  0.4131 -1.5425
 2801SOL     OW20035   3.169   3.171   1.133  0.3307 -0.2339  0.5222
 2801SOL    HW120036   3.080   3.194   1.159 -0.4173  0.1309 -2.4423
 2801SOL    HW220037   3.151   3.138   1.045 -0.6821  0.1700  0.5746
 2802SOL     OW20038   3.329   1.391   5.784  0.8350  0.0611  0.0781
 2802SOL    HW120039   3.343   1.408   5.877 -0.3698 -2.2820  0.6802
 2802SOL    HW220040   3.415   1.402   5.743  1.1643 -1.3611  0.4198
 2803SOL     OW20041   3.301   1.788   8.350  0.0212  0.9424 -0.0990
 2803SOL    HW120042   3.221   1.780   8.298  1.1986 -2.8586 -1.3139
 2803SOL    HW220043   3.315   1.695   8.366  0.5873  0.9201 -0.7485
 2804SOL     OW20044   2.282   0.258   2.343  0.4354  0.2316  0.0663
 2804SOL    HW120045   2.326   0.297   2.268  0.0274  0.1230 -0.2271
 2804SOL    HW220046   2.344   0.257   2.417 -0.5889  0.8418  0.9377
 2805SOL     OW20047   4.266   2.727   4.794  0.3824 -0.0780 -0.5391
 2805SOL    HW120048   4.278   2.811   4.750  0.0675  0.3481  0.1864
 2805SOL    HW220049   4.216   2.753   4.872  0.2058 -0.0535 -0.6593
 2806SOL     OW20050   1.175   4.245   0.696  0.1086 -0.0299  0.4772
 2806SOL    HW120051   1.229   4.180   0.740 -1.8514 -2.4361 -0.6805
 2806SOL    HW220052   1.089   4.237   0.739  0.1196  0.8140  0.6532
 2807SOL     OW20053   3.459   4.317   1.330  0.4435  0.0551 -0.5186
 2807SOL    HW120054   3.380   4.276   1.294 -2.4776  4.2871  1.0285
 2807SOL    HW220055   3.486   4.271   1.409 -2.0205  0.3098  0.4866
 2808SOL     OW20056   3.328   3.054   5.234  0.1518  0.1785  0.2478
 2808SOL    HW120057   3.408   3.085   5.191 -0.3296 -1.0629 -1.5689
 2808SOL    HW220058   3.357   3.047   5.325 -0.9036  1.4480  0.6710
 2809SOL     OW20059   3.550   1.366   8.268 -0.2541 -0.0967 -0.2616
 2809SOL    HW120060   3.560   1.325   8.182 -0.1200  0.7129 -0.6301
 2809SOL    HW220061   3.542   1.290   8.326  0.2293  1.8651  2.3653
 2810SOL     OW20062   4.715   0.334   7.363 -0.1957 -0.1596 -0.3429
 2810SOL    HW120063   4.644   0.385   7.402 -0.5141  0.6567 -2.0139
 2810SOL    HW220064   4.663   0.269   7.316  0.2366 -0.8083  0.0642
 2811SOL     OW20065   2.137   2.410   4.856  0.1422  0.1083 -0.0842
 2811SOL    HW120066   2.125   2.325   4.814 -0.6435  0.8456 -1.3447
 2811SOL    HW220067   2.109   2.467   4.784  0.7756  1.9486  1.1427
 2812SOL     OW20068   2.095   3.690  15.685 -0.2647  0.5136 -0.1776
 2812SOL    HW120069   2.149   3.769  15.689 -3.1476  2.3989  1.5786
 2812SOL    HW220070   2.005   3.714  15.706  0.4883  2.4252  0.8427
 2813SOL     OW20071   4.314   0.190   4.084  0.5430 -0.3684 -0.6836
 2813SOL    HW120072   4.385   0.127   4.083  1.4512  0.6551 -0.7317
 2813SOL    HW220073   4.233   0.142   4.064  1.3126 -1.0984 -2.0398
 2814SOL     OW20074   1.501   2.615  13.962  0.2277  0.1411  0.0762
 2814SOL    HW120075   1.508   2.697  13.912 -0.0572  0.9388  1.3592
 2814SOL    HW220076   1.410   2.587  13.956  0.0732  0.9665 -1.5265
 2815SOL     OW20077   2.712   2.943  16.171 -0.0695 -0.3918 -0.3030
 2815SOL    HW120078   2.662   2.898  16.239 -0.9899  0.2099 -0.5659
 2815SOL    HW220079   2.657   3.021  16.169  1.6675  0.7494 -2.9601
 2816SOL     OW20080   4.272   4.336   2.839  0.2492  0.1117 -0.2897
 2816SOL    HW120081   4.281   4.257   2.892  3.5273  2.7086  3.0649
 2816SOL    HW220082   4.261   4.290   2.756 -1.0831 -0.7915  0.3920
 2817SOL     OW20083   3.091   1.653   5.324 -0.0455 -0.7482  0.2246
 2817SOL    HW120084   3.149   1.578   5.313  2.9547  1.4946  0.8131
 2817SOL    HW220085   3.093   1.651   5.420 -1.6954  0.0299  0.2747
 2818SOL     OW20086   0.309   1.394  16.744 -0.1785 -0.2462 -0.3891
 2818SOL    HW120087   0.317   1.415  16.838  0.2837 -0.3427 -0.4106
 2818SOL    HW220088   0.263   1.475  16.719  1.0891 -0.0028 -1.9265
 2819SOL     OW20089   2.741   4.593   6.031 -0.3098 -0.4475  0.4895
 2819SOL    HW120090   2.796   4.516   6.012 -1.0394 -1.7227  3.3885
 2819SOL    HW220091   2.728   4.618   5.940  0.6509 -2.0967 -0.1140
 2820SOL     OW20092   1.264   3.716   7.508 -0.1026  0.5529  0.2484
 2820SOL    HW120093   1.288   3.657   7.437  1.4232  3.5323 -1.7101
 2820SOL    HW220094   1.274   3.794   7.453 -0.8181  0.9427  0.6681
 2821SOL     OW20095   4.558   2.544  14.379  0.3772  0.3706 -0.3235
 2821SOL    HW120096   4.527   2.492  14.305  0.8749 -0.2391 -0.0996
 2821SOL    HW220097   4.652   2.545  14.360  1.0032 -0.3307  2.7805
 2822SOL     OW20098   0.188   1.124   3.285  0.1545 -0.0632  0.0501
 2822SOL    HW120099   0.283   1.128   3.272  0.4628 -4.3887  1.2840
 2822SOL    HW220100   0.173   1.172   3.203 -0.0299  0.9545  0.6789
 2823SOL     OW20101   1.434   4.076  11.892  0.4911  0.3179 -0.0169
 2823SOL    HW120102   1.421   4.079  11.987  0.8133 -2.7201  0.1150
 2823SOL    HW220103   1.344   4.070  11.861  0.5602  2.0777 -0.5905
 2824SOL     OW20104   1.509   1.290  13.749  0.4633  0.4713  0.2513
 2824SOL    HW120105   1.604   1.275  13.748 -0.0602 -2.8854 -1.8751
 2824SOL    HW220106   1.479   1.280  13.839  0.3134 -0.6186  0.0859
 2825SOL     OW20107   1.836   2.196   9.431  0.2015  0.1925 -0.1082
 2825SOL    HW120108   1.759   2.194   9.374 -0.7334 -2.6602  1.2546
 2825SOL    HW220109   1.824   2.273   9.488  1.2321  0.3345 -0.0849
 2826SOL     OW20110   1.965   3.058  16.126 -0.9389 -0.1039  1.2542
 2826SOL    HW120111   1.961   2.972  16.085  1.3799 -0.2059  1.2634
 2826SOL    HW220112   1.974   3.103  16.042  1.1746 -2.4448  0.2442
 2827SOL     OW20113   3.632   1.252   5.980  0.2059 -0.4623 -0.0583
 2827SOL    HW120114   3.553   1.203   5.956 -0.2491  0.3705 -0.2611
 2827SOL    HW220115   3.590   1.333   6.006  0.2414 -0.1034 -1.1175
 2828SOL     OW20116   1.720   3.362   2.601 -0.1361 -0.3964  0.3190
 2828SOL    HW120117   1.814   3.368   2.620 -0.0287 -0.4301 -0.1995
 2828SOL    HW220118   1.677   3.419   2.666  0.1962 -0.5311  0.6589
 2829SOL     OW20119   0.553   4.475  13.621 -0.4098  0.0742 -0.4947
 2829SOL    HW120120   0.624   4.474  13.686 -0.6130  0.3260 -0.2686
 2829SOL    HW220121   0.497   4.406  13.655 -1.9184  0.6236 -1.8508
 2830SOL     OW20122   3.614   4.431   6.620 -0.0622 -0.1748 -0.7779
 2830SOL    HW120123   3.556   4.502   6.649  0.3777  0.8962 -2.5225
 2830SOL    HW220124   3.572   4.357   6.664 -0.1669 -0.5170 -1.4642
 2831SOL     OW20125   1.975   4.098  10.936 -0.1844  0.6215  0.2048
 2831SOL    HW120126   1.951   4.055  10.853  2.2008  0.7159 -0.5399
 2831SOL    HW220127   1.942   4.186  10.916 -1.7707 -0.3933 -1.7417
 2832SOL     OW20128   0.174   1.752  14.739  0.3701  0.5356 -0.4660
 2832SOL    HW120129   0.153   1.674  14.687 -1.2306 -0.8140  2.1581
 2832SOL    HW220130   0.266   1.768  14.718  0.1550  0.6450 -1.3241
 2833SOL     OW20131   2.441   0.440  11.495  0.1747  0.0853  0.2089
 2833SOL    HW120132   2.356   0.415  11.531  0.4111 -0.0052  0.7138
 2833SOL    HW220133   2.459   0.381  11.422  1.3979  0.4357  0.2290
 2834SOL     OW20134   2.396   3.555  12.967  0.3039 -0.2118 -0.2272
 2834SOL    HW120135   2.349   3.631  13.001  0.2864 -0.1852 -0.3084
 2834SOL    HW220136   2.474   3.544  13.021 -0.1889 -0.7412  0.3833
 2835SOL     OW20137   3.926   0.587  11.856 -0.0911 -0.5332 -0.3488
 2835SOL    HW120138   3.846   0.632  11.882  1.6582  1.7642  1.0403
 2835SOL    HW220139   3.906   0.496  11.881  1.2699 -1.3155 -2.0743
 2836SOL     OW20140   1.797   2.290  13.988 -0.2773 -0.0971  0.3599
 2836SOL    HW120141   1.737   2.330  14.052  0.3756  1.8296 -0.2222
 2836SOL    HW220142   1.858   2.361  13.969  1.7766 -1.8821  0.3900
 2837SOL     OW20143   4.325   2.626   1.801  0.1997  0.5701  0.4942
 2837SOL    HW120144   4.347   2.706   1.752 -1.3729  1.3968  1.1390
 2837SOL    HW220145   4.284   2.565   1.740  1.2779  0.3328  0.0045
 2838SOL     OW20146   3.664   3.150   4.171  0.2518 -0.1623 -0.8763
 2838SOL    HW120147   3.697   3.221   4.116  1.3079 -0.2041 -0.3081
 2838SOL    HW220148   3.573   3.164   4.147  0.7293  0.7950 -2.1089
 2839SOL     OW20149   3.289   3.366   8.008  0.3953 -0.0974  0.3539
 2839SOL    HW120150   3.261   3.455   8.029  0.5153  0.0243  0.0009
 2839SOL    HW220151   3.253   3.316   8.081 -0.3270  1.6024  1.1502
 2840SOL     OW20152   0.099   2.061   4.935  0.0911 -0.7653 -0.4876
 2840SOL    HW120153   0.114   2.090   4.845 -0.1353  2.5008  0.5244
 2840SOL    HW220154   0.158   1.985   4.929  0.3362 -0.6086 -0.0738
 2841SOL     OW20155   0.744   1.503   5.255 -0.5962 -0.6254 -0.6035
 2841SOL    HW120156   0.719   1.424   5.303 -0.2225  0.3273  1.1572
 2841SOL    HW220157   0.659   1.536   5.227 -0.1312  0.3465 -0.8569
 2842SOL     OW20158   4.049   2.701   4.496 -0.0241 -0.4145  0.1731
 2842SOL    HW120159   4.078   2.705   4.405 -1.2990  2.6988 -0.0768
 2842SOL    HW220160   3.999   2.619   4.496  0.7843 -0.9215  2.1654
 2843SOL     OW20161   1.810   1.256  15.304 -0.4920  0.5927 -0.0856
 2843SOL    HW120162   1.828   1.339  15.260  1.1142  0.0782 -0.4010
 2843SOL    HW220163   1.896   1.222  15.326 -0.5290  0.2550 -0.4770
 2844SOL     OW20164   1.323   0.242   9.005  0.1030 -0.2637 -0.9058
 2844SOL    HW120165   1.237   0.230   8.965  2.0439 -2.3935 -4.4283
 2844SOL    HW220166   1.345   0.330   8.975 -0.2746 -0.7956 -2.7102
 2845SOL     OW20167   2.517   0.924   2.442 -0.1411  0.2459  0.2360
 2845SOL    HW120168   2.539   0.848   2.389  1.4945  2.2689 -1.9850
 2845SOL    HW220169   2.603   0.952   2.471 -0.9813  1.1461  1.8511
 2846SOL     OW20170   4.709   4.267   1.249 -0.5250  0.2092  0.5564
 2846SOL    HW120171   0.056   4.218   1.242  0.5581  2.1952 -0.5619
 2846SOL    HW220172   4.669   4.206   1.311 -1.2728  3.8854  3.6915
 2847SOL     OW20173   0.697   2.785  15.783  0.3024 -0.7452  0.0350
 2847SOL    HW120174   0.772   2.726  15.775  0.8616  0.0824 -0.9067
 2847SOL    HW220175   0.700   2.809  15.690  1.6684  1.9103  0.7546
 2848SOL     OW20176   2.217   1.383   7.155 -0.3121  0.1481  0.0578
 2848SOL    HW120177   2.148   1.359   7.217 -1.2947  0.2321 -1.0122
 2848SOL    HW220178   2.177   1.462   7.119  1.2078  0.0901 -1.7550
 2849SOL     OW20179   1.991   3.580   3.139 -0.8961  0.0511  0.1731
 2849SOL    HW120180   2.073   3.628   3.128 -1.5275  1.0217 -0.3442
 2849SOL    HW220181   1.984   3.589   3.234  0.4390 -0.1363  0.2858
 2850SOL     OW20182   4.272   0.381   6.540 -0.1091 -0.0053 -0.0814
 2850SOL    HW120183   4.271   0.439   6.616  0.5040  0.0874 -0.1415
 2850SOL    HW220184   4.352   0.412   6.497  0.5505 -1.3367  0.1641
 2851SOL     OW20185   3.411   1.596   2.705  0.4335 -0.7190  0.2349
 2851SOL    HW120186   3.355   1.569   2.632  0.6894  0.7518 -0.5141
 2851SOL    HW220187   3.344   1.601   2.773 -0.6724  3.5780 -1.1796
 2852SOL     OW20188   1.069   2.082   3.057  1.3316 -0.5515  0.4410
 2852SOL    HW120189   1.136   2.071   3.124  0.0386 -0.9413  1.6723
 2852SOL    HW220190   0.998   2.055   3.116  1.0008  0.5409  0.5536
 2853SOL     OW20191   4.423   4.583   6.815 -0.4805 -0.0743 -0.2477
 2853SOL    HW120192   4.491   4.649   6.825  0.3841 -0.8626 -0.9006
 2853SOL    HW220193   4.460   4.514   6.760 -2.2904 -1.5417  0.3907
 2854SOL     OW20194   1.220   2.393   8.753 -0.1423 -0.7107 -0.5541
 2854SOL    HW120195   1.248   2.382   8.844 -0.5315 -3.7661 -0.7909
 2854SOL    HW220196   1.280   2.336   8.705  2.5484  0.6128  1.2734
 2855SOL     OW20197   4.224   1.847   7.821 -0.2735  0.3291 -0.8513
 2855SOL    HW120198   4.289   1.777   7.818  0.4357  1.0307 -1.8779
 2855SOL    HW220199   4.248   1.886   7.905 -1.2342  1.3245 -1.0368
 2856SOL     OW20200   2.331   3.793  14.937  0.7051  0.3569  0.0055
 2856SOL    HW120201   2.340   3.888  14.945  2.0935  0.2117  0.2310
 2856SOL    HW220202   2.385   3.774  14.861 -0.5774 -3.7469  0.1127
 2857SOL     OW20203   4.458   2.949   7.378  0.0469  0.3784 -0.2797
 2857SOL    HW120204   4.426   2.933   7.289  0.5624  0.8813 -0.5547
 2857SOL    HW220205   4.384   2.936   7.437  1.1696 -1.2963  0.7460
 2858SOL     OW20206   3.764   2.779   6.633 -0.0120  0.0469 -0.0226
 2858SOL    HW120207   3.751   2.693   6.674 -0.1458  0.2293  0.3172
 2858SOL    HW220208   3.841   2.772   6.577  0.1825  1.4145  0.0765
 2859SOL     OW20209   2.420   2.865  14.602 -0.3127  0.2089  0.3796
 2859SOL    HW120210   2.386   2.954  14.591 -0.4631  0.4130  2.3407
 2859SOL    HW220211   2.365   2.842  14.677 -0.8406 -0.6892 -0.2810
 2860SOL     OW20212   3.492   2.168   7.896 -0.1453  0.0452  0.7174
 2860SOL    HW120213   3.563   2.191   7.955 -1.5879  1.8255  1.7519
 2860SOL    HW220214   3.462   2.086   7.936 -3.4634  0.9988  0.2065
 2861SOL     OW20215   0.658   3.233   2.864  0.2359  0.1484 -0.0258
 2861SOL    HW120216   0.662   3.287   2.944 -0.1171 -1.3192  0.9884
 2861SOL    HW220217   0.671   3.146   2.900 -2.3625 -0.0969  0.3033
 2862SOL     OW20218   2.370   3.053   8.302  0.0595  0.1707 -0.0037
 2862SOL    HW120219   2.294   3.024   8.253 -1.7875 -0.4830  3.2267
 2862SOL    HW220220   2.353   3.145   8.319 -1.4256  0.3495 -2.6208
 2863SOL     OW20221   4.473   4.626   3.173  0.1386 -0.2544 -0.4710
 2863SOL    HW120222   4.414   4.558   3.139  0.2378 -0.4692 -0.2183
 2863SOL    HW220223   4.422   4.674   3.238 -1.3026 -0.7054 -1.2748
 2864SOL     OW20224   4.085   1.745  13.338 -0.0650  0.2821 -0.5391
 2864SOL    HW120225   4.066   1.661  13.297 -1.2212 -0.0058  0.5979
 2864SOL    HW220226   4.179   1.762  13.325  0.4094 -1.3903  0.5546
 2865SOL     OW20227   1.997   2.498   4.379  0.2402  0.2388 -0.1285
 2865SOL    HW120228   1.972   2.426   4.322 -1.4073  1.5311 -1.0390
 2865SOL    HW220229   1.934   2.564   4.349  0.8256  0.0489 -1.7350
 2866SOL     OW20230   3.041   1.911   7.576  0.2558  0.1496  0.1731
 2866SOL    HW120231   2.960   1.924   7.529  0.3433  0.3066  0.0675
 2866SOL    HW220232   3.097   1.872   7.509  1.6755  0.7444  1.0117
 2867SOL     OW20233   1.485   1.917  14.743  0.2842  0.2468  0.6846
 2867SOL    HW120234   1.450   1.991  14.793 -1.5168  0.3752 -0.7534
 2867SOL    HW220235   1.579   1.932  14.753  0.6345 -0.4087 -1.5841
 2868SOL     OW20236   3.250   1.854   3.846 -0.3146 -0.0786 -0.6284
 2868SOL    HW120237   3.217   1.780   3.897  1.3528 -0.2143  0.2340
 2868SOL    HW220238   3.241   1.924   3.911 -2.0698 -4.2078  3.5768
 2869SOL     OW20239   4.074   0.060   7.673 -0.0110  0.4037  0.4475
 2869SOL    HW120240   4.168   0.077   7.672  0.0978 -0.2419 -0.7748
 2869SOL    HW220241   4.076   4.712   7.722 -0.2003 -0.4910 -1.0363
 2870SOL     OW20242   1.211   3.557  11.513  0.1110  0.3918 -0.2669
 2870SOL    HW120243   1.158   3.588  11.587  2.7893  1.0805  1.3495
 2870SOL    HW220244   1.286   3.616  11.518  1.1717 -1.0232  0.2539
 2871SOL     OW20245   2.510   2.820   3.807 -0.1799 -0.2982 -0.8694
 2871SOL    HW120246   2.428   2.798   3.852  0.2095  2.5630  1.2580
 2871SOL    HW220247   2.568   2.834   3.882 -0.9230 -0.7275 -0.2116
 2872SOL     OW20248   1.797   4.201   2.685 -0.6465 -0.0682  0.4361
 2872SOL    HW120249   1.893   4.205   2.690 -0.5991 -0.0247 -0.4871
 2872SOL    HW220250   1.780   4.110   2.662 -1.4862 -0.1651  1.4464
 2873SOL     OW20251   0.052   3.549   6.206  0.1243  0.0526 -0.4231
 2873SOL    HW120252   0.031   3.642   6.208  0.6306  0.1213  1.0563
 2873SOL    HW220253   4.712   3.532   6.262  1.2274  0.8742  1.2790
 2874SOL     OW20254   1.020   4.426   8.796 -0.2208 -0.0688  0.4869
 2874SOL    HW120255   1.086   4.357   8.796 -0.1591 -0.0069  1.3875
 2874SOL    HW220256   0.953   4.373   8.754  0.9123 -1.4295  0.3969
 2875SOL     OW20257   1.955   2.031   5.961 -0.6530  0.9503 -0.2103
 2875SOL    HW120258   1.947   2.028   5.866  1.0519  0.2435 -0.3238
 2875SOL    HW220259   1.986   2.118   5.983  1.7794  0.0488 -0.0891
 2876SOL     OW20260   2.705   4.574   5.756 -0.1903 -0.0185 -0.0572
 2876SOL    HW120261   2.622   4.617   5.735  0.5479  0.6175 -1.6657
 2876SOL    HW220262   2.752   4.600   5.676  0.9201  0.7424  0.8472
 2877SOL     OW20263   0.229   1.276  14.193  0.3268  0.2816 -0.2137
 2877SOL    HW120264   0.219   1.365  14.224 -0.1468 -0.1684  0.9219
 2877SOL    HW220265   0.176   1.279  14.113 -1.0083  1.2887  0.7366
 2878SOL     OW20266   0.890   2.532  16.995 -0.5447  0.0886 -0.9134
 2878SOL    HW120267   0.839   2.610  17.018 -0.5945 -0.0167 -0.6655
 2878SOL    HW220268   0.932   2.569  16.917 -0.3921  3.1011  0.5976
 2879SOL     OW20269   0.509   3.982   4.512 -0.4495 -0.0471 -0.6069
 2879SOL    HW120270   0.570   3.950   4.578  0.8565  1.7269 -0.9749
 2879SOL    HW220271   0.573   4.003   4.445 -2.0724  1.5576 -1.6685
 2880SOL     OW20272   0.331   1.683   1.834 -0.3185  0.3098  0.5754
 2880SOL    HW120273   0.359   1.628   1.907  0.4308  0.0275  0.0686
 2880SOL    HW220274   0.265   1.740   1.874 -0.1340  0.9841 -0.0827
 2881SOL     OW20275   1.103   0.157   7.594  0.0253 -0.1774 -0.6708
 2881SOL    HW120276   1.109   0.174   7.688  0.5801 -0.2794 -0.6855
 2881SOL    HW220277   1.010   0.179   7.589 -0.0241 -0.3973 -0.7238
 2882SOL     OW20278   2.196   2.895   5.831 -0.5262 -0.4423  0.0809
 2882SOL    HW120279   2.221   2.967   5.774  1.9800 -0.8015  0.7392
 2882SOL    HW220280   2.189   2.820   5.771 -0.6320 -1.5137  1.4306
 2883SOL     OW20281   3.403   0.437  13.383 -0.0964 -0.0775  0.0217
 2883SOL    HW120282   3.463   0.460  13.454 -0.8437 -2.2532  1.3427
 2883SOL    HW220283   3.455   0.445  13.304 -0.1696  2.0841  0.1885
 2884SOL     OW20284   2.611   2.028   2.923 -0.5630 -0.0518  0.9316
 2884SOL    HW120285   2.656   2.030   3.008 -2.4573  1.2944  1.9014
 2884SOL    HW220286   2.627   2.114   2.884 -2.5489  0.6976  1.7971
 2885SOL     OW20287   3.083   2.566   3.737  0.5260  0.4494  0.4272
 2885SOL    HW120288   3.174   2.536   3.739  1.3627  2.9334 -0.4383
 2885SOL    HW220289   3.074   2.543   3.644  0.3729  1.6607  0.1471
 2886SOL     OW20290   0.300   2.192  15.056  0.1283  0.4184 -1.2229
 2886SOL    HW120291   0.242   2.180  14.980  0.3336 -0.6329 -1.2091
 2886SOL    HW220292   0.377   2.137  15.042  0.5390  0.9467 -1.0322
 2887SOL     OW20293   4.221   3.465   5.731 -0.4268  0.0007 -0.1988
 2887SOL    HW120294   4.181   3.400   5.789  0.5514 -1.9298 -1.6857
 2887SOL    HW220295   4.297   3.496   5.780 -1.8537  2.6207  0.3439
 2888SOL     OW20296   3.752   4.320   0.216 -0.6337  0.2306 -0.1447
 2888SOL    HW120297   3.821   4.330   0.150 -0.9665  2.0044 -0.2475
 2888SOL    HW220298   3.690   4.272   0.162  1.4611 -0.7872 -1.6135
 2889SOL     OW20299   2.227   2.448   8.031 -0.1136  0.1350 -0.0839
 2889SOL    HW120300   2.275   2.496   7.964  1.2292 -1.2374 -0.1121
 2889SOL    HW220301   2.237   2.509   8.104 -1.4544 -0.8732  0.9396
 2890SOL     OW20302   3.221   4.685   8.136 -0.3300  0.5688 -0.2490
 2890SOL    HW120303   3.301   4.634   8.127 -1.4093 -0.9673 -1.0360
 2890SOL    HW220304   3.159   4.621   8.171  1.8516 -1.7959 -0.6889
 2891SOL     OW20305   2.825   2.064   8.398 -0.3418 -0.0356  0.7547
 2891SOL    HW120306   2.802   2.080   8.490  0.3994 -1.7576  1.2472
 2891SOL    HW220307   2.913   2.030   8.415 -1.3856 -3.0155  0.1838
 2892SOL     OW20308   2.509   2.855  15.852 -0.1068 -0.0326  0.2014
 2892SOL    HW120309   2.438   2.856  15.917 -0.2443  0.2652  0.0506
 2892SOL    HW220310   2.481   2.927  15.796  0.1884  0.0933  0.2162
 2893SOL     OW20311   3.724   3.431   8.345 -0.1064 -0.5652 -0.1477
 2893SOL    HW120312   3.816   3.425   8.369 -0.0247 -1.6778 -0.7357
 2893SOL    HW220313   3.678   3.396   8.421  0.8551  0.5544  0.9386
 2894SOL     OW20314   2.095   2.368   6.444  0.2095  0.3226 -0.1216
 2894SOL    HW120315   2.109   2.453   6.401 -1.7886  0.4488 -0.5496
 2894SOL    HW220316   2.004   2.354   6.416 -0.4915  1.5846  1.4796
 2895SOL     OW20317   2.832   4.148  10.398  0.1478 -0.2293  0.5706
 2895SOL    HW120318   2.846   4.238  10.429 -0.4518  0.9238 -2.4332
 2895SOL    HW220319   2.782   4.147  10.316  0.1849  0.5984  0.5364
 2896SOL     OW20320   1.237   2.697   3.996  0.0781 -0.0789 -0.3922
 2896SOL    HW120321   1.230   2.701   3.901  2.7017  2.2785 -0.5004
 2896SOL    HW220322   1.232   2.790   4.019 -0.0240 -0.8352  2.7201
 2897SOL     OW20323   0.490   2.939   8.254 -0.0010  0.0925  0.5661
 2897SOL    HW120324   0.395   2.928   8.256 -0.0648  0.4856 -0.4399
 2897SOL    HW220325   0.520   2.920   8.343 -1.3420 -0.1136  0.9744
 2898SOL     OW20326   4.146   3.034  11.154  0.0934 -0.0042 -0.4197
 2898SOL    HW120327   4.180   2.959  11.202 -0.5315  0.3374  0.5459
 2898SOL    HW220328   4.071   2.996  11.107  0.2049  0.5856 -1.0811
 2899SOL     OW20329   2.659   2.134   2.540 -0.0155  0.3632 -0.8720
 2899SOL    HW120330   2.566   2.137   2.515  0.0792 -1.1031 -1.4288
 2899SOL    HW220331   2.663   2.038   2.540 -0.3621  0.3491  1.9832
 2900SOL     OW20332   3.841   1.277   7.320 -0.6017 -0.0423  0.1545
 2900SOL    HW120333   3.871   1.258   7.409  1.4003  1.9176 -0.1284
 2900SOL    HW220334   3.860   1.196   7.274  1.1514  0.6606 -0.3403
 2901SOL     OW20335   4.295   1.835  12.145  0.0161 -0.0965  0.2059
 2901SOL    HW120336   4.223   1.800  12.093  0.2365  1.5531 -1.2002
 2901SOL    HW220337   4.355   1.865  12.077  1.1179  0.5338  1.4438
 2902SOL     OW20338   3.023   1.055   8.690  0.5878  0.6691  0.6672
 2902SOL    HW120339   3.018   1.040   8.784 -3.3626 -2.1248  0.0039
 2902SOL    HW220340   3.085   1.128   8.685 -0.5018  1.4846 -1.1883
 2903SOL     OW20341   4.289   2.108   3.212 -0.2375  0.2048 -0.1930
 2903SOL    HW120342   4.272   2.016   3.235 -1.3116  0.5292  0.3021
 2903SOL    HW220343   4.320   2.097   3.122 -0.9939  1.1504 -0.5645
 2904SOL     OW20344   1.690   2.407   4.983 -0.3243  0.2208  0.0446
 2904SOL    HW120345   1.632   2.390   5.057  1.4819 -1.4505  1.0871
 2904SOL    HW220346   1.646   2.479   4.939 -0.9461  0.2511  0.7110
 2905SOL     OW20347   0.005   3.155  16.504 -0.5589  0.5739 -1.1704
 2905SOL    HW120348   0.025   3.179  16.413  1.0196  0.6222 -0.8146
 2905SOL    HW220349   4.683   3.079  16.491 -0.5279  0.2523  0.5670
 2906SOL     OW20350   4.444   1.833   4.115 -0.0154 -0.1125  0.3111
 2906SOL    HW120351   4.523   1.882   4.137  1.2546 -1.4988 -1.2077
 2906SOL    HW220352   4.463   1.769   4.047  4.0678  2.0316 -0.5253
 2907SOL     OW20353   1.075   2.647   3.777  0.4527  0.2766 -0.1571
 2907SOL    HW120354   1.062   2.643   3.683  1.7219 -0.9314 -0.2784
 2907SOL    HW220355   1.099   2.562   3.814 -2.1941 -0.6789 -0.6075
 2908SOL     OW20356   2.404   1.680   4.441  0.1439  0.4754  0.2180
 2908SOL    HW120357   2.471   1.745   4.421 -0.0038  0.7275  0.5312
 2908SOL    HW220358   2.323   1.703   4.395 -0.1351  0.0840  0.5150
 2909SOL     OW20359   3.848   0.527   9.962 -0.6574  0.3094  0.1281
 2909SOL    HW120360   3.807   0.499  10.043  2.3513 -2.8446  0.5764
 2909SOL    HW220361   3.939   0.506   9.983 -1.3498 -1.8045  0.9367
 2910SOL     OW20362   2.284   0.451   7.367 -0.3742  0.0710  0.4720
 2910SOL    HW120363   2.254   0.527   7.417  1.8274 -0.8522  3.2258
 2910SOL    HW220364   2.299   0.383   7.433  2.1458  0.9453  0.7959
 2911SOL     OW20365   3.294   0.256   8.366 -0.0834 -0.5100  0.3209
 2911SOL    HW120366   3.379   0.226   8.335  0.6752  1.8916  0.0900
 2911SOL    HW220367   3.325   0.329   8.419  0.6493 -1.7022  1.5374
 2912SOL     OW20368   1.784   2.635  13.980 -0.7044 -0.1728  0.1818
 2912SOL    HW120369   1.819   2.666  13.896 -1.0400  1.1557  0.5288
 2912SOL    HW220370   1.692   2.618  13.958 -0.6386  0.6902 -0.8057
 2913SOL     OW20371   1.487   2.738   9.723 -0.2031  0.3943  0.4278
 2913SOL    HW120372   1.531   2.741   9.637  0.3146  2.2177  0.7354
 2913SOL    HW220373   1.555   2.691   9.770  0.1320  1.6584  1.2054
 2914SOL     OW20374   1.618   3.611  13.742  0.2377 -0.3835  0.0954
 2914SOL    HW120375   1.568   3.530  13.747 -0.2613 -0.0961 -0.1716
 2914SOL    HW220376   1.692   3.593  13.800  0.4421  0.5793  0.1317
 2915SOL     OW20377   3.832   3.908   7.465 -0.1973  0.6405 -0.5768
 2915SOL    HW120378   3.746   3.905   7.424 -0.2419  1.3204 -0.5419
 2915SOL    HW220379   3.817   3.927   7.558 -1.7554  2.2260 -1.1537
 2916SOL     OW20380   1.592   3.802  10.141 -0.0754 -0.1240  0.1188
 2916SOL    HW120381   1.599   3.775  10.050 -0.0196 -0.9286  0.3576
 2916SOL    HW220382   1.513   3.853  10.123  0.0170  0.4769  1.3875
 2917SOL     OW20383   2.252   0.340   5.673 -0.1110  0.0696  0.0955
 2917SOL    HW120384   2.162   0.342   5.640 -0.1385  0.1232  0.1753
 2917SOL    HW220385   2.288   0.281   5.606  1.9791 -0.3144  1.5518
 2918SOL     OW20386   3.961   1.825   7.802  0.1839  0.0661 -0.2954
 2918SOL    HW120387   3.947   1.731   7.813  0.7191 -0.0195 -0.3395
 2918SOL    HW220388   4.057   1.828   7.802  0.2324 -1.7281 -0.6565
 2919SOL     OW20389   4.057   2.687   4.180  0.2749  0.4484  0.0992
 2919SOL    HW120390   4.136   2.634   4.192  0.1844  0.2171 -0.3316
 2919SOL    HW220391   4.093   2.773   4.158 -1.0306  0.9456 -0.0766
 2920SOL     OW20392   0.242   4.487   2.402  0.1123  0.2347  0.3614
 2920SOL    HW120393   0.302   4.535   2.344 -1.4579  3.2862  1.2608
 2920SOL    HW220394   0.157   4.517   2.370  0.3930  0.9739  0.3100
 2921SOL     OW20395   0.575   4.113  16.258 -0.1968 -0.3329 -0.5723
 2921SOL    HW120396   0.479   4.106  16.259 -0.2495  0.3452 -0.6515
 2921SOL    HW220397   0.599   4.021  16.260  0.7537 -0.0480  0.7545
 2922SOL     OW20398   2.844   3.648   6.315  0.2259  0.2631  0.5758
 2922SOL    HW120399   2.843   3.694   6.399  0.5597  1.1383  0.1006
 2922SOL    HW220400   2.853   3.554   6.329  1.1986  0.3278  0.3994
 2923SOL     OW20401   1.698   2.154   6.106  0.1369 -0.0570  0.3431
 2923SOL    HW120402   1.774   2.184   6.056 -0.6220 -2.4035 -2.1990
 2923SOL    HW220403   1.634   2.226   6.100  1.1207  0.8539  0.7888
 2924SOL     OW20404   3.942   0.634   5.046 -0.1951 -0.2927  0.0270
 2924SOL    HW120405   3.865   0.598   5.001  1.6057 -1.4284 -2.1561
 2924SOL    HW220406   3.934   0.587   5.129 -1.8234  0.4369  0.2871
 2925SOL     OW20407   0.095   0.492   7.007 -0.2185  0.3460  0.3805
 2925SOL    HW120408   0.129   0.528   6.925  1.2254 -0.9895  0.3925
 2925SOL    HW220409   0.171   0.520   7.058 -1.5114  1.5299  1.6513
 2926SOL     OW20410   2.436   1.953   8.332 -0.4691 -0.9120  0.5292
 2926SOL    HW120411   2.485   1.890   8.384  0.2169 -1.3068 -0.5916
 2926SOL    HW220412   2.505   2.014   8.305 -1.2199  0.4163  1.5917
 2927SOL     OW20413   4.026   2.699   5.929 -0.3452 -0.5471  0.4771
 2927SOL    HW120414   4.046   2.640   5.857 -0.2341 -1.5278  1.3103
 2927SOL    HW220415   3.951   2.748   5.897 -0.1814  0.3972  1.5385
 2928SOL     OW20416   3.547   3.000   2.418 -0.7825 -0.7318 -0.3118
 2928SOL    HW120417   3.579   2.940   2.485 -1.1035 -0.1777  0.3283
 2928SOL    HW220418   3.623   3.056   2.405 -1.4803  0.4498  0.6605
 2929SOL     OW20419   1.281   3.495   4.783  0.2956 -0.5056  0.0973
 2929SOL    HW120420   1.213   3.429   4.771  0.7810 -0.9218 -0.3886
 2929SOL    HW220421   1.280   3.503   4.878 -0.0160  1.6524 -0.0899
 2930SOL     OW20422   0.290   4.501   2.677  0.1280  0.1276 -0.2938
 2930SOL    HW120423   0.278   4.509   2.583 -0.2670  1.4943 -0.1231
 2930SOL    HW220424   0.265   4.410   2.690  0.5984  0.3683  2.2944
 2931SOL     OW20425   1.101   2.279  12.505  0.0809 -0.8629 -0.4732
 2931SOL    HW120426   1.058   2.365  12.505  2.9866  0.5481  2.9235
 2931SOL    HW220427   1.176   2.290  12.563 -1.4130  1.2742  1.0562
 2932SOL     OW20428   3.086   0.492  17.659  0.2401 -0.0864 -1.0287
 2932SOL    HW120429   3.075   0.439  17.579 -1.9571 -2.5731  0.9161
 2932SOL    HW220430   3.179   0.483  17.680 -0.2946  0.0978  1.3487
 2933SOL     OW20431   4.599   1.751  11.507 -0.1474 -0.5098 -0.2972
 2933SOL    HW120432   4.670   1.722  11.564 -0.1955 -0.0855 -0.0225
 2933SOL    HW220433   4.652   1.788  11.435  2.3810  3.3580  3.5373
 2934SOL     OW20434   3.249   1.800  15.219 -0.5225 -0.0893 -0.1536
 2934SOL    HW120435   3.170   1.758  15.184 -1.3037  1.2035  0.0692
 2934SOL    HW220436   3.211   1.885  15.243 -0.3346 -0.1662  0.4136
 2935SOL     OW20437   1.106   2.308   5.417  0.0835  0.2325  0.5815
 2935SOL    HW120438   1.030   2.339   5.368 -0.3427 -2.1353 -0.2589
 2935SOL    HW220439   1.108   2.382   5.477 -0.5721  1.5304 -0.9981
 2936SOL     OW20440   0.553   0.705   4.114 -0.3653  0.1150  0.8143
 2936SOL    HW120441   0.505   0.709   4.031 -1.0256  0.5541  1.2203
 2936SOL    HW220442   0.634   0.661   4.088 -2.1700 -2.8366  0.2036
 2937SOL     OW20443   1.950   0.504   5.809 -0.0233 -0.2186 -0.2978
 2937SOL    HW120444   2.037   0.533   5.837 -0.1478 -0.3410  0.2084
 2937SOL    HW220445   1.950   0.527   5.716  1.4277  0.8684 -0.0323
 2938SOL     OW20446   4.278   2.801   5.284 -0.3142  0.3865 -0.2746
 2938SOL    HW120447   4.207   2.808   5.348  0.2178  0.1894  0.3413
 2938SOL    HW220448   4.349   2.815   5.347  1.6232  0.1080 -2.4141
 2939SOL     OW20449   3.128   3.974   4.063  0.3357 -0.3690 -0.4239
 2939SOL    HW120450   3.128   3.970   3.968 -1.1176  1.2351 -0.4864
 2939SOL    HW220451   3.120   3.880   4.082  1.6589 -0.4544 -0.3026
 2940SOL     OW20452   2.180   0.505   7.016 -0.0536 -0.0472  0.1243
 2940SOL    HW120453   2.143   0.526   6.930  1.3303  2.1540  0.0740
 2940SOL    HW220454   2.153   0.585   7.060  0.1240 -0.2998  0.6910
 2941SOL     OW20455   2.551   2.566   3.384  0.4850 -0.5382 -0.0127
 2941SOL    HW120456   2.628   2.515   3.407  2.9990  2.8002 -1.0439
 2941SOL    HW220457   2.528   2.596   3.472 -0.5637 -0.2426 -0.3750
 2942SOL     OW20458   0.444   0.154  13.370 -0.2836  0.1302  0.3907
 2942SOL    HW120459   0.514   0.097  13.403 -0.3408  0.0922  0.4449
 2942SOL    HW220460   0.486   0.238  13.386  1.3547 -1.3747  3.9882
 2943SOL     OW20461   0.549   2.879   0.688 -0.8565 -0.1708  0.2748
 2943SOL    HW120462   0.613   2.934   0.733 -0.0897  0.4222 -1.5725
 2943SOL    HW220463   0.594   2.796   0.707 -0.8265  0.0004  0.9377
 2944SOL     OW20464   1.879   2.781  14.251 -0.1331 -0.0491 -0.3567
 2944SOL    HW120465   1.886   2.707  14.312  1.0954 -0.7387 -1.3187
 2944SOL    HW220466   1.831   2.734  14.183 -2.0614 -1.5559  2.0264
 2945SOL     OW20467   2.460   4.212   8.564 -0.4553  0.0371  0.4412
 2945SOL    HW120468   2.422   4.170   8.487  1.3558  1.7464 -1.3894
 2945SOL    HW220469   2.398   4.169   8.623 -1.3096 -0.0594 -0.5477
 2946SOL     OW20470   4.328   2.008   5.214  0.2738 -0.0905 -0.0967
 2946SOL    HW120471   4.256   2.065   5.188 -0.4873 -1.6781 -1.4299
 2946SOL    HW220472   4.379   2.010   5.134 -2.0482 -0.2057 -1.5683
 2947SOL     OW20473   1.207   3.904   1.549 -1.3357 -0.2204  0.1809
 2947SOL    HW120474   1.112   3.892   1.562 -1.2639 -2.1421 -1.0749
 2947SOL    HW220475   1.219   3.999   1.555  2.9650 -0.7635 -0.0928
 2948SOL     OW20476   2.220   0.939  11.415 -0.0001 -0.3336  0.9822
 2948SOL    HW120477   2.218   0.904  11.504  2.3279 -1.1484  0.7273
 2948SOL    HW220478   2.274   1.018  11.421 -0.0190 -0.3882  1.8992
 2949SOL     OW20479   4.462   3.236   3.820  0.2385  0.3512  0.2559
 2949SOL    HW120480   4.518   3.184   3.877 -1.5730 -0.8105  0.9712
 2949SOL    HW220481   4.523   3.305   3.793  1.3075 -0.4491  0.6413
 2950SOL     OW20482   3.252   3.792   7.058  0.0635  0.2449 -0.0913
 2950SOL    HW120483   3.209   3.731   7.118 -1.2164  1.5734  0.3298
 2950SOL    HW220484   3.255   3.745   6.975  0.1267 -0.8035  0.5053
 2951SOL     OW20485   3.509   2.995   8.219 -0.7826 -0.3766 -0.2856
 2951SOL    HW120486   3.438   2.985   8.156 -3.1535  0.2293  2.3248
 2951SOL    HW220487   3.475   2.936   8.285 -1.6077  0.2606 -0.1434
 2952SOL     OW20488   4.060   1.963   1.906  0.8353 -0.1108  0.0561
 2952SOL    HW120489   4.023   2.034   1.958  2.0357  1.5121 -1.3200
 2952SOL    HW220490   4.062   1.891   1.969 -0.9138 -0.4811 -0.3038
 2953SOL     OW20491   3.658   0.900   5.096  0.0859  0.5850 -0.2390
 2953SOL    HW120492   3.671   0.806   5.108  0.3012  0.7537  0.8313
 2953SOL    HW220493   3.721   0.909   5.024  0.2403 -2.0232 -0.4144
 2954SOL     OW20494   4.453   0.590   9.166 -0.3861  0.1182 -0.4630
 2954SOL    HW120495   4.467   0.524   9.234  2.3825  1.2893  0.1110
 2954SOL    HW220496   4.537   0.636   9.167 -0.6144  0.5214  2.0682
 2955SOL     OW20497   1.302   3.922   2.630 -0.0353  0.4730  0.8032
 2955SOL    HW120498   1.220   3.972   2.624 -0.2380  0.0670  0.2245
 2955SOL    HW220499   1.297   3.862   2.556  2.5873  0.5757  0.5600
 2956SOL     OW20500   0.782   3.452  14.204  0.7757  0.5106  0.2193
 2956SOL    HW120501   0.724   3.450  14.280 -0.0637  0.2538 -0.4249
 2956SOL    HW220502   0.764   3.540  14.172 -0.9750  0.7921  1.9501
 2957SOL     OW20503   0.784   0.267   6.513 -0.4440 -0.4154  0.4487
 2957SOL    HW120504   0.786   0.318   6.431 -0.6035  0.3074  0.8959
 2957SOL    HW220505   0.701   0.221   6.521 -1.5399  1.5638  0.6011
 2958SOL     OW20506   4.482   1.915  10.406  0.0878 -0.0233 -0.2842
 2958SOL    HW120507   4.398   1.959  10.391  0.2146  0.8969  1.7500
 2958SOL    HW220508   4.507   1.976  10.476 -0.2004  1.4492 -1.4543
 2959SOL     OW20509   2.269   0.252  13.206 -0.4807  0.5582 -0.8904
 2959SOL    HW120510   2.219   0.215  13.133  0.4339 -0.8029 -0.8337
 2959SOL    HW220511   2.222   0.332  13.228  1.7838  1.1162  1.9351
 2960SOL     OW20512   1.544   1.184   5.769  0.2689  0.2687  0.0279
 2960SOL    HW120513   1.476   1.209   5.831  0.8240  3.9089 -0.8120
 2960SOL    HW220514   1.614   1.239   5.805 -1.5489  2.0362  0.8032
 2961SOL     OW20515   1.677   2.186   8.460  0.0116 -0.3016 -0.1697
 2961SOL    HW120516   1.734   2.196   8.536 -0.3106 -0.0659  0.0394
 2961SOL    HW220517   1.697   2.097   8.430 -2.3893 -1.4094  1.5126
 2962SOL     OW20518   3.019   0.544   2.405 -0.0104 -0.2605 -0.6084
 2962SOL    HW120519   3.042   0.494   2.483  0.0874 -0.3451 -0.6914
 2962SOL    HW220520   2.926   0.565   2.416 -0.7328 -2.3184 -2.8245
 2963SOL     OW20521   4.348   2.538   0.192  0.1667 -0.0189  0.0447
 2963SOL    HW120522   4.373   2.618   0.145 -0.2882 -0.3065 -0.6925
 2963SOL    HW220523   4.400   2.544   0.272 -1.6566 -2.4226  1.4162
 2964SOL     OW20524   1.216   2.936   4.760 -0.0410  0.4500 -0.2155
 2964SOL    HW120525   1.171   2.885   4.827 -0.2190  2.3343  1.0911
 2964SOL    HW220526   1.220   3.019   4.806 -0.6042  1.1275 -1.3942
 2965SOL     OW20527   0.744   1.108   3.669  0.0723  0.1675 -1.0290
 2965SOL    HW120528   0.769   1.053   3.743 -0.0032  0.6456 -0.6527
 2965SOL    HW220529   0.662   1.071   3.635 -0.1774  1.5394 -1.9287
 2966SOL     OW20530   0.277   2.887   2.202  0.1315 -0.3437  0.1955
 2966SOL    HW120531   0.355   2.831   2.202  0.5065  0.1873  0.6211
 2966SOL    HW220532   0.287   2.920   2.291  1.0278 -2.7729  1.0081
 2967SOL     OW20533   0.556   3.264   0.441  0.3756 -0.5567 -0.2311
 2967SOL    HW120534   0.468   3.303   0.445  0.5512 -0.1987  0.2492
 2967SOL    HW220535   0.615   3.325   0.485 -1.0253 -0.6379  1.8021
 2968SOL     OW20536   4.559   2.975  17.396  0.6077 -0.6191  0.0563
 2968SOL    HW120537   4.624   3.033  17.435 -1.6681  3.1058 -1.7690
 2968SOL    HW220538   4.580   2.986  17.303  2.7525 -0.0753  0.6132
 2969SOL     OW20539   1.591   1.656  14.467  0.4332  0.1440 -0.1855
 2969SOL    HW120540   1.542   1.583  14.503  0.5311 -1.1355 -2.6321
 2969SOL    HW220541   1.520   1.720  14.461  1.5898  1.7480  3.4061
 2970SOL     OW20542   1.880   4.373   7.063 -0.5218  0.0724  0.8565
 2970SOL    HW120543   1.895   4.467   7.055 -0.1787 -0.0616 -0.0775
 2970SOL    HW220544   1.973   4.359   7.077 -0.2647  1.9024  1.0582
 2971SOL     OW20545   1.227   3.567   3.193  0.1989  0.2164 -0.2775
 2971SOL    HW120546   1.279   3.503   3.240 -0.0132 -1.2012 -1.9728
 2971SOL    HW220547   1.257   3.559   3.102 -1.0795  0.5843 -0.7316
 2972SOL     OW20548   2.962   2.382   2.817  0.3293  0.5615 -0.5830
 2972SOL    HW120549   2.945   2.473   2.791  0.0787  0.7403  0.2061
 2972SOL    HW220550   3.018   2.386   2.895  1.4792 -0.3467 -1.3775
 2973SOL     OW20551   0.713   4.101  11.879 -0.0025  0.6934  0.2531
 2973SOL    HW120552   0.739   4.009  11.874  1.7927  1.1296  1.8760
 2973SOL    HW220553   0.617   4.100  11.876 -0.0379  2.2232  0.8688
 2974SOL     OW20554   2.526   0.876   9.301 -0.2501 -0.5171 -0.1173
 2974SOL    HW120555   2.551   0.963   9.330 -1.7366 -0.2047  0.2211
 2974SOL    HW220556   2.612   0.839   9.280  0.9807  0.4481  3.1320
 2975SOL     OW20557   3.233   0.774   6.173  0.7403 -0.2326 -0.0218
 2975SOL    HW120558   3.313   0.750   6.221 -0.2891 -1.7939  0.9186
 2975SOL    HW220559   3.196   0.688   6.152 -0.3274  0.3081 -0.2897
 2976SOL     OW20560   0.084   3.193  10.722 -0.4976 -0.5445 -0.4642
 2976SOL    HW120561   0.070   3.151  10.807 -0.1891  0.9117  0.3039
 2976SOL    HW220562   0.133   3.274  10.733 -1.9145 -0.2437  3.8286
 2977SOL     OW20563   3.748   0.156   8.822 -0.5388 -0.1673 -0.0475
 2977SOL    HW120564   3.655   0.143   8.842 -0.2932 -2.2071 -0.2205
 2977SOL    HW220565   3.790   0.072   8.837 -0.2601  0.5048  2.8478
 2978SOL     OW20566   2.694   1.713   6.314 -1.0646  0.0568  0.3515
 2978SOL    HW120567   2.718   1.698   6.223  2.9094  1.4635  1.1478
 2978SOL    HW220568   2.763   1.662   6.356  0.6163  1.4540 -0.6961
 2979SOL     OW20569   0.177   2.917   5.217 -0.7143 -0.1382 -0.2481
 2979SOL    HW120570   0.099   2.923   5.272 -0.1251 -0.4948  0.6202
 2979SOL    HW220571   0.221   2.845   5.262  0.0187 -0.8259 -2.0600
 2980SOL     OW20572   1.779   1.202   1.619  0.1548  0.0659 -0.1163
 2980SOL    HW120573   1.790   1.181   1.526  1.9025  0.9241 -0.1056
 2980SOL    HW220574   1.706   1.263   1.611  1.3812  1.8104  2.4007
 2981SOL     OW20575   0.847   1.831   5.815 -0.3945  0.3264 -0.4783
 2981SOL    HW120576   0.850   1.765   5.745 -2.4543 -1.2103  0.8771
 2981SOL    HW220577   0.759   1.811   5.849 -0.2076  0.2293 -0.0558
 2982SOL     OW20578   3.426   0.497   3.179 -0.4384  0.4143 -0.1206
 2982SOL    HW120579   3.491   0.437   3.217  0.4495  0.8557 -0.9614
 2982SOL    HW220580   3.353   0.434   3.179  0.7024 -0.9174  1.8194
 2983SOL     OW20581   4.628   2.267   9.921 -0.1341 -0.5964 -0.3164
 2983SOL    HW120582   4.591   2.302   9.840  0.1031  1.7638  0.6217
 2983SOL    HW220583   4.690   2.335   9.944 -0.5122  0.1973 -1.6403
 2984SOL     OW20584   1.166   3.050   3.486  0.6441  0.4836 -0.0917
 2984SOL    HW120585   1.153   3.032   3.393 -1.9689  0.7414  0.2392
 2984SOL    HW220586   1.098   2.993   3.521 -1.1228  1.4046 -2.0376
 2985SOL     OW20587   0.596   0.752   7.915 -0.0186  0.3289 -0.0046
 2985SOL    HW120588   0.649   0.802   7.977 -1.7345  0.2704  1.4836
 2985SOL    HW220589   0.574   0.673   7.964 -1.9641  0.3902 -0.7829
 2986SOL     OW20590   2.008   2.233   0.639 -0.0145  0.3592 -0.0366
 2986SOL    HW120591   1.968   2.168   0.697 -2.0901 -0.6881 -2.6398
 2986SOL    HW220592   1.950   2.309   0.640  0.0834  0.3899  3.3374
 2987SOL     OW20593   0.288   1.331   5.860  0.0176  0.2476  0.3790
 2987SOL    HW120594   0.304   1.305   5.769  0.3062  2.2710 -0.1404
 2987SOL    HW220595   0.283   1.246   5.905  2.2463  0.5984  1.3021
 2988SOL     OW20596   2.289   1.844  13.102  0.4843 -0.4808  0.3795
 2988SOL    HW120597   2.306   1.935  13.127 -0.9768 -0.4280  1.1670
 2988SOL    HW220598   2.215   1.859  13.043  0.9530 -1.0611 -0.3509
 2989SOL     OW20599   4.601   3.156   8.601 -0.3122  0.5176  0.6723
 2989SOL    HW120600   4.681   3.118   8.638  0.0345 -0.6129 -1.2349
 2989SOL    HW220601   4.643   3.236   8.568  1.0542 -0.2513  0.5553
 2990SOL     OW20602   1.315   3.218   6.057 -0.2064  0.6329  0.0185
 2990SOL    HW120603   1.266   3.256   6.129  0.6620  1.4505  0.1686
 2990SOL    HW220604   1.398   3.254   6.086 -0.6740  1.2669  0.5511
 2991SOL     OW20605   2.057   3.224   3.701 -0.3956  0.2988 -0.2345
 2991SOL    HW120606   2.115   3.276   3.645  1.4365 -1.0615  0.3882
 2991SOL    HW220607   2.035   3.148   3.648  1.7878 -0.1678 -0.4809
 2992SOL     OW20608   4.026   2.563   2.481  0.0709 -0.1806  0.3362
 2992SOL    HW120609   3.975   2.495   2.524  1.2569 -0.4312  1.3348
 2992SOL    HW220610   4.116   2.530   2.484  0.3497  0.7731  2.5658
 2993SOL     OW20611   1.899   0.080   8.652 -0.3706 -0.3352  0.2754
 2993SOL    HW120612   1.889   0.100   8.745 -2.0040  0.7828 -0.1326
 2993SOL    HW220613   1.902   0.163   8.604  4.7486 -0.2989  0.6881
 2994SOL     OW20614   2.740   0.446  15.680 -0.4456  0.2305  0.5355
 2994SOL    HW120615   2.720   0.469  15.589 -0.6700 -1.5937  0.1377
 2994SOL    HW220616   2.813   0.387  15.663 -1.3370 -0.8748  0.5931
 2995SOL     OW20617   0.644   1.214  10.327 -0.2509  0.0553 -0.0786
 2995SOL    HW120618   0.573   1.216  10.391 -0.0855  1.0721  0.0831
 2995SOL    HW220619   0.621   1.294  10.280  1.7317 -0.0847 -1.2729
 2996SOL     OW20620   2.777   2.036   5.921  0.5086 -0.8736 -0.6102
 2996SOL    HW120621   2.807   2.034   6.012  1.3529 -1.5940 -0.8981
 2996SOL    HW220622   2.700   2.091   5.937  2.4525  1.8386 -0.5125
 2997SOL     OW20623   0.022   1.490   8.447  0.3763 -0.2673 -0.0024
 2997SOL    HW120624   0.055   1.561   8.393 -1.1117  0.6179  0.2549
 2997SOL    HW220625   4.726   1.430   8.378  1.8365  0.5351 -1.3518
 2998SOL     OW20626   3.307   2.841   3.680  0.9046 -0.4099  0.2832
 2998SOL    HW120627   3.228   2.883   3.649  1.6759  0.1665 -0.8978
 2998SOL    HW220628   3.303   2.861   3.773  2.8480 -3.7069  1.0954
 2999SOL     OW20629   3.335   2.931   2.909 -0.2503  0.2301  0.0762
 2999SOL    HW120630   3.332   3.002   2.973  2.4652  1.1114 -0.7803
 2999SOL    HW220631   3.386   2.974   2.841  1.0845  0.5413  1.2718
 3000SOL     OW20632   4.630   2.315  16.458 -0.3410 -0.5307 -0.3708
 3000SOL    HW120633   4.550   2.264  16.446  0.5322 -2.3922  1.9306
 3000SOL    HW220634   4.635   2.347  16.367  0.3064 -1.8048 -0.7821
 3001SOL     OW20635   1.481   1.876   9.357  0.5712 -0.0174  0.0904
 3001SOL    HW120636   1.517   1.788   9.346  1.9444  0.5100  0.2963
 3001SOL    HW220637   1.435   1.881   9.273  0.2620 -1.1790  0.1854
 3002SOL     OW20638   0.620   0.795   2.169 -0.5343  0.3340  0.5312
 3002SOL    HW120639   0.706   0.827   2.142 -0.8709  1.4464  0.8081
 3002SOL    HW220640   0.649   0.708   2.197 -1.0914 -0.4971 -1.4462
 3003SOL     OW20641   4.149   2.896   1.924 -0.3660  0.4773  0.8137
 3003SOL    HW120642   4.224   2.844   1.955 -0.6936 -0.0158  0.7892
 3003SOL    HW220643   4.085   2.835   1.886 -0.4596 -0.6228  2.7206
 3004SOL     OW20644   4.197   4.127  12.702 -0.3346 -0.0832  0.1275
 3004SOL    HW120645   4.164   4.176  12.627  1.3191 -0.1412 -0.6478
 3004SOL    HW220646   4.196   4.186  12.778  0.5345  0.0195  0.0639
 3005SOL     OW20647   3.810   2.366   1.784  0.0891 -0.4967  0.0213
 3005SOL    HW120648   3.801   2.278   1.821  0.1268  0.5162  2.4795
 3005SOL    HW220649   3.759   2.348   1.705  1.7080  0.6767 -1.2755
 3006SOL     OW20650   3.766   2.891   1.806 -0.1223  0.3259 -0.4062
 3006SOL    HW120651   3.817   2.814   1.782  0.1430  0.8805 -1.6320
 3006SOL    HW220652   3.710   2.854   1.875 -0.1565  1.9979  0.4667
 3007SOL     OW20653   0.553   0.413   6.852  0.4262 -0.1501  0.0891
 3007SOL    HW120654   0.645   0.440   6.854  0.4725 -0.1493 -2.5779
 3007SOL    HW220655   0.513   0.489   6.810 -2.6540 -1.7889  0.0550
 3008SOL     OW20656   4.573   2.837   5.120  0.0419  0.7658 -0.4035
 3008SOL    HW120657   4.519   2.914   5.101  1.1241  2.1173  2.0546
 3008SOL    HW220658   4.613   2.852   5.206 -0.4010  2.1301 -0.4323
 3009SOL     OW20659   2.290   2.605   6.681  0.1739 -0.7784  0.3216
 3009SOL    HW120660   2.199   2.634   6.678 -0.3403 -2.1536  1.7859
 3009SOL    HW220661   2.301   2.574   6.771  2.5794  0.3405  0.3945
 3010SOL     OW20662   3.569   1.513   1.035 -0.1323  0.2138  0.1773
 3010SOL    HW120663   3.650   1.515   1.086  0.1262  1.0061 -0.2608
 3010SOL    HW220664   3.512   1.530   1.110 -1.4263 -1.3901 -0.4148
 3011SOL     OW20665   2.858   0.555   2.788  0.0157  0.2405  0.1044
 3011SOL    HW120666   2.849   0.649   2.805  1.4249  0.6460 -1.4562
 3011SOL    HW220667   2.912   0.565   2.710 -1.5157  1.0228 -0.8697
 3012SOL     OW20668   0.212   3.161  16.705 -0.6505  0.7638  0.3148
 3012SOL    HW120669   0.141   3.225  16.701 -1.0410  0.3177  0.2002
 3012SOL    HW220670   0.205   3.132  16.615 -1.9850  2.6455 -0.1923
 3013SOL     OW20671   4.484   3.623   4.339 -0.5274 -0.2442  0.1759
 3013SOL    HW120672   4.407   3.606   4.394  1.1985 -0.7540  2.4305
 3013SOL    HW220673   4.536   3.683   4.392  0.6005 -2.8763  2.0270
 3014SOL     OW20674   4.707   4.372   7.447  0.3152 -0.0215  0.1955
 3014SOL    HW120675   4.711   4.466   7.465 -2.1785  0.1057  0.0909
 3014SOL    HW220676   4.730   4.398   7.358 -0.5364  1.1352  0.3119
 3015SOL     OW20677   2.422   1.124   4.719 -0.1178  0.2372 -0.2615
 3015SOL    HW120678   2.366   1.115   4.641 -1.1013  0.7461  0.3849
 3015SOL    HW220679   2.443   1.035   4.744  2.0713  0.9974  0.6062
 3016SOL     OW20680   3.757   3.227   3.478 -0.5606 -0.2303  0.2889
 3016SOL    HW120681   3.724   3.149   3.433  0.1211 -0.9042  0.9574
 3016SOL    HW220682   3.671   3.257   3.506  0.5328  1.0359  2.2870
 3017SOL     OW20683   0.272   2.761   4.431  0.3898  0.2555 -0.2822
 3017SOL    HW120684   0.197   2.731   4.483 -0.9742  3.4830 -0.3693
 3017SOL    HW220685   0.305   2.673   4.415 -0.1449 -0.1124  0.6287
 3018SOL     OW20686   0.782   2.940   5.040 -0.4978  0.4990 -0.2374
 3018SOL    HW120687   0.725   3.013   5.016  0.5251  1.4778  0.3625
 3018SOL    HW220688   0.840   2.943   4.965 -0.6094 -1.6668 -0.4115
 3019SOL     OW20689   2.010   0.321   9.916  0.6870 -0.3576  0.0942
 3019SOL    HW120690   2.022   0.290   9.826  0.0987  1.3358 -0.5710
 3019SOL    HW220691   1.943   0.266   9.957  1.4861 -1.1602  0.3032
 3020SOL     OW20692   1.630   2.181   7.777 -0.0891 -0.1016 -0.0205
 3020SOL    HW120693   1.720   2.202   7.752  0.0204 -0.8585 -0.2630
 3020SOL    HW220694   1.587   2.235   7.711  0.6700 -0.9581 -1.2163
 3021SOL     OW20695   0.071   0.368   8.109  0.9932 -0.3918 -0.3048
 3021SOL    HW120696   0.132   0.387   8.038  0.1762  1.0861 -0.6285
 3021SOL    HW220697   0.127   0.330   8.176  0.0008  2.1791  1.9975
 3022SOL     OW20698   0.775   1.613   5.540 -0.5817 -0.1278  0.1549
 3022SOL    HW120699   0.794   1.613   5.446  2.1424 -0.8613  0.7101
 3022SOL    HW220700   0.680   1.616   5.531 -0.5326 -2.8463 -1.3568
 3023SOL     OW20701   2.372   2.719   3.253 -0.5431 -0.0598  0.0402
 3023SOL    HW120702   2.438   2.651   3.253 -0.7897 -0.3053  2.4764
 3023SOL    HW220703   2.403   2.768   3.329  0.6777  1.0537 -1.1594
 3024SOL     OW20704   1.777   1.655   9.211  0.0394  0.2096  0.6858
 3024SOL    HW120705   1.840   1.606   9.159  0.3715  2.9105 -1.4537
 3024SOL    HW220706   1.802   1.746   9.196 -2.8122  1.1899  1.7355
 3025SOL     OW20707   2.296   3.496   6.759  0.1175 -0.2051  0.4234
 3025SOL    HW120708   2.227   3.553   6.794  1.8677  1.2731  1.5023
 3025SOL    HW220709   2.357   3.556   6.716 -1.0716  0.8602  0.1910
 3026SOL     OW20710   3.929   1.562  13.161 -0.0681 -0.0463 -0.2766
 3026SOL    HW120711   4.003   1.502  13.175 -1.1013 -1.0399  0.8529
 3026SOL    HW220712   3.954   1.606  13.079  1.1796  2.0625  1.2305
 3027SOL     OW20713   0.391   3.853   4.071  0.3044  0.7864 -0.1248
 3027SOL    HW120714   0.297   3.849   4.053  0.1976 -0.1406  0.6981
 3027SOL    HW220715   0.389   3.879   4.163 -0.8723 -0.2804  0.1528
 3028SOL     OW20716   1.989   3.568  13.617 -0.1660 -0.2854  0.2404
 3028SOL    HW120717   2.022   3.658  13.615  1.1694 -0.7670  0.4710
 3028SOL    HW220718   2.065   3.521  13.584  0.0186  1.0029 -1.2198
 3029SOL     OW20719   2.474   0.098   6.983 -0.0237 -0.6258 -0.2575
 3029SOL    HW120720   2.467   0.151   6.903  1.1074 -0.8646 -0.5170
 3029SOL    HW220721   2.420   0.139   7.050 -0.3018  1.3484 -1.6838
 3030SOL     OW20722   0.590   2.631  17.314  0.6457  0.0554 -0.4617
 3030SOL    HW120723   0.627   2.549  17.346 -1.1811 -0.4261  0.4156
 3030SOL    HW220724   0.577   2.681  17.394  1.2106  0.6651 -0.7439
 3031SOL     OW20725   3.535   3.032   4.925 -0.2435  0.6031  1.0193
 3031SOL    HW120726   3.572   2.951   4.960 -2.2215  0.0091  1.7578
 3031SOL    HW220727   3.500   3.003   4.841  2.1254  1.6049 -0.3046
 3032SOL     OW20728   3.738   3.058   9.563  0.0454  0.3097 -0.0158
 3032SOL    HW120729   3.752   3.096   9.649  1.9936 -2.1715  0.7665
 3032SOL    HW220730   3.793   2.980   9.572 -0.9212 -0.5694 -1.7392
 3033SOL     OW20731   4.276   4.565   9.679 -0.1068 -0.0444 -0.0760
 3033SOL    HW120732   4.223   4.643   9.666 -2.0582 -1.2820  0.4807
 3033SOL    HW220733   4.256   4.532   9.592  3.8957  1.6994 -1.6483
 3034SOL     OW20734   0.117   2.777   5.669 -0.1755  0.1946 -0.0676
 3034SOL    HW120735   0.144   2.773   5.577 -1.6413  1.4305 -0.5475
 3034SOL    HW220736   0.047   2.712   5.675  0.9118 -0.9723 -0.0685
 3035SOL     OW20737   2.034   3.687   7.606 -0.1103  0.4606 -0.0175
 3035SOL    HW120738   2.031   3.598   7.571 -2.3339  0.2216  0.7768
 3035SOL    HW220739   2.109   3.723   7.558 -0.7505 -1.4198 -2.4384
 3036SOL     OW20740   1.213   0.992  13.984  0.5681 -0.3204 -0.1229
 3036SOL    HW120741   1.206   0.972  14.078 -1.9762  2.8370  0.3649
 3036SOL    HW220742   1.194   0.905  13.950  1.6413 -1.2297  1.5818
 3037SOL     OW20743   3.743   3.133   2.311  0.6746 -0.2601 -0.4363
 3037SOL    HW120744   3.793   3.203   2.353 -2.0349  1.9385 -0.8944
 3037SOL    HW220745   3.775   3.135   2.220 -0.0890 -3.3571 -0.7905
 3038SOL     OW20746   4.323   2.500  12.997 -0.0301  0.3508  0.1360
 3038SOL    HW120747   4.287   2.511  12.909 -0.6693 -0.4788  0.3016
 3038SOL    HW220748   4.394   2.437  12.982 -0.4895 -0.2103  0.3183
 3039SOL     OW20749   1.952   2.980   6.896  0.5151 -0.3235 -0.0495
 3039SOL    HW120750   2.038   2.937   6.894  0.1884 -1.0472  2.0309
 3039SOL    HW220751   1.964   3.069   6.862  1.0860 -0.7481 -0.9894
 3040SOL     OW20752   3.175   4.733   0.580 -0.2736 -0.1394  0.1582
 3040SOL    HW120753   3.195   4.687   0.661  0.9342 -0.6455 -0.4347
 3040SOL    HW220754   3.123   4.672   0.527 -0.3702  0.2592 -0.2073
 3041SOL     OW20755   0.649   2.137   7.646 -0.6210  0.3885  0.2987
 3041SOL    HW120756   0.670   2.181   7.729 -4.4098  1.2823  0.8028
 3041SOL    HW220757   0.554   2.133   7.660 -0.6657 -1.4590 -0.6640
 3042SOL     OW20758   2.370   0.024   7.702  0.2913  0.4766 -0.1013
 3042SOL    HW120759   2.346   0.067   7.784 -1.0345 -0.4939  0.0090
 3042SOL    HW220760   2.360   4.665   7.722  1.4436  0.4310  0.2558
 3043SOL     OW20761   1.737   4.715  10.542  0.1498  0.2071 -0.0096
 3043SOL    HW120762   1.699   4.632  10.569  0.6990 -0.1641 -0.3639
 3043SOL    HW220763   1.700   0.041  10.606  0.1900 -0.0154  0.2249
 3044SOL     OW20764   3.106   3.191   1.495  0.4447  0.1848  0.9108
 3044SOL    HW120765   3.201   3.181   1.491  0.5980  1.1949  2.0817
 3044SOL    HW220766   3.071   3.115   1.448  0.2513  0.3932  0.7206
 3045SOL     OW20767   1.955   1.423   6.944  0.5812 -0.2417 -0.0411
 3045SOL    HW120768   1.974   1.408   6.851  3.4722 -0.4093  0.5559
 3045SOL    HW220769   1.994   1.345   6.984  0.0480  0.4091  1.7570
 3046SOL     OW20770   3.626   2.212   2.618  0.1955  0.0226 -0.2715
 3046SOL    HW120771   3.560   2.169   2.672  0.3238  1.1360  0.7684
 3046SOL    HW220772   3.611   2.170   2.533 -0.7174  2.4197 -1.2987
 3047SOL     OW20773   0.573   2.466  11.024  0.0986 -0.9460  0.4545
 3047SOL    HW120774   0.535   2.387  10.986 -3.8022  0.9023  0.5144
 3047SOL    HW220775   0.666   2.445  11.014 -0.2339 -2.3006  0.1353
 3048SOL     OW20776   1.212   2.590   7.837  0.5649 -0.0565 -0.3984
 3048SOL    HW120777   1.242   2.512   7.883  1.3405  0.6839  0.3767
 3048SOL    HW220778   1.245   2.650   7.905  0.6257  0.0655 -0.5350
 3049SOL     OW20779   3.057   0.249   7.704  0.5689  0.5390  0.1065
 3049SOL    HW120780   3.067   0.171   7.760 -1.0350  0.8243  0.8048
 3049SOL    HW220781   3.058   0.314   7.774 -0.7331  0.7168 -0.0486
 3050SOL     OW20782   4.260   0.839   2.527 -0.0431  0.1300  0.4057
 3050SOL    HW120783   4.341   0.891   2.530 -0.9432  1.6261 -1.6015
 3050SOL    HW220784   4.289   0.749   2.512 -2.2247 -0.2593 -1.2621
 3051SOL     OW20785   3.748   3.912   8.666 -0.1347 -0.7112 -0.6915
 3051SOL    HW120786   3.653   3.905   8.659 -0.1472  0.3100 -1.5414
 3051SOL    HW220787   3.750   3.967   8.588  1.4788 -0.9037 -0.7943
 3052SOL     OW20788   0.463   0.570   7.734 -0.0348 -0.7966 -0.1858
 3052SOL    HW120789   0.537   0.580   7.674 -1.3234 -1.0916 -1.8192
 3052SOL    HW220790   0.487   0.639   7.796  0.5272 -2.3844  1.3959
 3053SOL     OW20791   0.989   3.464   4.130  0.0712  0.0955  0.2640
 3053SOL    HW120792   0.932   3.535   4.159 -0.5676 -0.5654  0.6328
 3053SOL    HW220793   1.043   3.513   4.068  1.5481 -0.1382  1.3751
 3054SOL     OW20794   2.325   2.970  16.690 -0.1401 -0.2973  0.1832
 3054SOL    HW120795   2.275   3.051  16.701  2.4857  1.1125  1.9436
 3054SOL    HW220796   2.269   2.904  16.730  0.2248  0.3333  1.7383
 3055SOL     OW20797   3.174   2.725   7.500  0.3980  0.0135  0.0541
 3055SOL    HW120798   3.160   2.744   7.592  1.3389  0.2154  0.1572
 3055SOL    HW220799   3.096   2.681   7.467 -0.3994 -0.4661  2.5868
 3056SOL     OW20800   0.516   1.517  17.712  0.5048  0.0976 -0.2165
 3056SOL    HW120801   0.464   1.515   0.055 -0.5099  2.4588 -0.8290
 3056SOL    HW220802   0.601   1.481  17.737  0.5166  1.0566  1.0898
 3057SOL     OW20803   4.116   3.852   0.395  0.2708 -0.0487  0.6769
 3057SOL    HW120804   4.140   3.765   0.362  0.4719 -0.3341  1.5862
 3057SOL    HW220805   4.113   3.915   0.323  1.6796  0.7271  1.2998
 3058SOL     OW20806   4.478   1.637   1.979 -0.1680 -0.9071  0.1091
 3058SOL    HW120807   4.525   1.556   1.963  1.3921  0.1126 -0.3939
 3058SOL    HW220808   4.425   1.612   2.055 -0.3573  2.6363  1.1846
 3059SOL     OW20809   2.795   2.599  16.064  0.4819 -0.8220 -0.1913
 3059SOL    HW120810   2.805   2.677  16.009  0.0114 -2.5984 -2.7393
 3059SOL    HW220811   2.714   2.562  16.029 -0.5904  1.3429 -0.0542
 3060SOL     OW20812   0.609   3.074   3.638  0.3410  0.3455  0.0575
 3060SOL    HW120813   0.548   3.147   3.636  0.3152  0.2346 -2.6575
 3060SOL    HW220814   0.692   3.112   3.609  1.7273 -1.2332  1.9713
 3061SOL     OW20815   3.173   1.246  15.879 -0.2519  0.3065 -0.1954
 3061SOL    HW120816   3.162   1.230  15.973 -1.6616 -0.0965 -0.4378
 3061SOL    HW220817   3.211   1.334  15.887 -3.0795  1.4504  0.4390
 3062SOL     OW20818   3.601   0.565  11.316  0.1002  0.1919 -0.2470
 3062SOL    HW120819   3.613   0.476  11.281  2.6069  0.1757  0.6736
 3062SOL    HW220820   3.573   0.616  11.241 -0.1557 -0.7237 -0.7722
 3063SOL     OW20821   2.170   1.691   7.988  0.0796  0.3995  0.2077
 3063SOL    HW120822   2.227   1.725   8.057  2.1402 -1.8709 -0.3636
 3063SOL    HW220823   2.192   1.755   7.921 -0.7013 -1.1006 -1.4760
 3064SOL     OW20824   4.468   0.452   5.634 -0.2726  0.5380  0.4353
 3064SOL    HW120825   4.535   0.460   5.566 -1.6146  1.2856 -0.8183
 3064SOL    HW220826   4.512   0.394   5.696 -1.2257 -0.4450  0.1828
 3065SOL     OW20827   0.155   3.089   6.899 -0.4193 -0.0048 -0.1779
 3065SOL    HW120828   0.242   3.084   6.939 -1.0606  0.1291  1.2496
 3065SOL    HW220829   0.101   3.047   6.966  0.3211 -1.6586 -0.6066
 3066SOL     OW20830   1.080   2.948   5.028 -0.1099 -0.1407  0.0221
 3066SOL    HW120831   1.097   2.853   5.025  2.8075  0.3968  0.0009
 3066SOL    HW220832   1.102   2.976   5.117 -2.0258  1.0855  0.1079
 3067SOL     OW20833   1.777   1.699  14.678  0.5363 -0.0496  0.2776
 3067SOL    HW120834   1.839   1.628  14.664  0.0991 -0.5924  1.0770
 3067SOL    HW220835   1.708   1.688  14.613  2.1459  0.5698 -1.5209
 3068SOL     OW20836   1.262   3.258  12.526 -0.2271  0.8994  0.2195
 3068SOL    HW120837   1.288   3.320  12.457 -1.3710 -1.5700 -2.4427
 3068SOL    HW220838   1.211   3.199  12.471  1.4307  1.0948 -1.5411
 3069SOL     OW20839   0.760   0.855   4.243  0.4119  0.2860 -0.1311
 3069SOL    HW120840   0.755   0.944   4.207 -1.8843 -0.0081 -0.5145
 3069SOL    HW220841   0.726   0.804   4.169  3.0857  0.5701 -1.5575
 3070SOL     OW20842   4.451   2.940   5.747  0.1357  0.1891  0.0546
 3070SOL    HW120843   4.515   2.931   5.818 -0.2034 -0.6684  0.2480
 3070SOL    HW220844   4.384   2.878   5.775  2.4016 -1.5845  1.4770
 3071SOL     OW20845   2.693   3.398   6.446 -0.5414  0.5678 -0.4878
 3071SOL    HW120846   2.762   3.358   6.499 -0.0608  1.1848 -0.6574
 3071SOL    HW220847   2.622   3.365   6.502 -0.4795  3.0513  1.0578
 3072SOL     OW20848   4.672   0.357  13.527  0.1122  0.1399  0.2027
 3072SOL    HW120849   0.013   0.415  13.527  0.3097 -0.1178  3.0311
 3072SOL    HW220850   4.721   0.282  13.493 -2.6350 -0.6883 -1.9853
 3073SOL     OW20851   4.701   1.008   0.502 -0.4066  0.1137  0.0243
 3073SOL    HW120852   4.659   1.015   0.417  2.4569 -0.7758 -1.4701
 3073SOL    HW220853   4.657   0.930   0.536  1.4131 -0.6122  0.7333
 3074SOL     OW20854   1.797   3.666   4.502 -0.2266  0.0996 -0.8430
 3074SOL    HW120855   1.818   3.590   4.557  0.9406  1.3873  0.4899
 3074SOL    HW220856   1.883   3.707   4.492 -0.6949  1.1886 -0.4141
 3075SOL     OW20857   3.675   0.671  15.547 -0.1261  0.2073 -0.0973
 3075SOL    HW120858   3.660   0.756  15.507 -0.2811 -0.1152 -0.7282
 3075SOL    HW220859   3.704   0.615  15.475 -0.8748  0.9223 -0.9494
 3076SOL     OW20860   1.703   1.534   0.074 -0.1415  0.0237  0.6306
 3076SOL    HW120861   1.657   1.566  17.734 -0.2866 -1.2892  0.1625
 3076SOL    HW220862   1.633   1.528   0.139 -1.8411  0.2710 -1.1743
 3077SOL     OW20863   0.051   3.110   5.614  0.1015  0.4780  0.6165
 3077SOL    HW120864   0.052   3.015   5.613  2.6682  0.4938  0.1259
 3077SOL    HW220865   4.710   3.135   5.563  1.1431  0.7429 -0.7961
 3078SOL     OW20866   4.255   2.520  11.314 -0.2514  0.2162 -0.6909
 3078SOL    HW120867   4.297   2.448  11.360 -0.4977  0.1942 -0.5004
 3078SOL    HW220868   4.279   2.483  11.229 -0.0427  0.0553 -0.5593
 3079SOL     OW20869   2.522   2.593   6.239 -0.0767 -0.1720  0.0978
 3079SOL    HW120870   2.555   2.504   6.227 -1.6320 -0.4817 -1.7842
 3079SOL    HW220871   2.460   2.573   6.309  1.1700 -0.3385  1.1551
 3080SOL     OW20872   2.670   4.554  17.584 -0.2082 -0.0564  0.1745
 3080SOL    HW120873   2.619   4.503  17.647  1.1411 -1.1435  0.3767
 3080SOL    HW220874   2.621   4.636  17.577  1.9938  1.3477  1.1734
 3081SOL     OW20875   2.211   0.003  17.378 -0.4566  0.0506  0.4510
 3081SOL    HW120876   2.130   0.032  17.337 -0.6575  0.4829  1.1535
 3081SOL    HW220877   2.265   0.072  17.339 -2.0746  1.9679  1.5904
 3082SOL     OW20878   4.024   2.331   3.782  0.7613  0.0465  0.7680
 3082SOL    HW120879   4.044   2.405   3.840  0.9480 -1.4118  2.5788
 3082SOL    HW220880   4.066   2.362   3.702 -1.1987  2.3937  0.6519
 3083SOL     OW20881   2.999   3.252   9.515 -0.1271  0.2289 -0.6727
 3083SOL    HW120882   2.980   3.312   9.443  0.3973  0.8373 -0.3015
 3083SOL    HW220883   3.060   3.302   9.569 -1.3362 -2.5160  3.2504
 3084SOL     OW20884   1.930   3.531  16.406 -0.2745 -0.8372  0.2216
 3084SOL    HW120885   1.881   3.460  16.447 -0.0111 -0.3612  1.3580
 3084SOL    HW220886   1.919   3.608  16.461  1.2106  0.9111 -1.9097
 3085SOL     OW20887   3.582   4.006   3.181 -0.2426  0.9017  0.0588
 3085SOL    HW120888   3.510   4.033   3.239  0.5440  0.8871  1.0484
 3085SOL    HW220889   3.609   3.928   3.230  1.2229 -0.1587 -2.4678
 3086SOL     OW20890   2.107   2.713   3.735 -0.0700  0.0736 -0.2669
 3086SOL    HW120891   2.012   2.708   3.739 -0.0045  0.8566  2.7426
 3086SOL    HW220892   2.128   2.620   3.726 -1.0170 -0.1557 -0.0739
 3087SOL     OW20893   0.536   1.517   3.575 -0.3181  0.4218  0.0392
 3087SOL    HW120894   0.522   1.422   3.566  1.9308  0.0298  0.6946
 3087SOL    HW220895   0.483   1.550   3.502  1.0961 -2.2956 -2.2153
 3088SOL     OW20896   4.099   2.959  12.114  0.0383  0.3444 -0.4217
 3088SOL    HW120897   4.017   2.913  12.097 -1.1342  2.4747 -0.4888
 3088SOL    HW220898   4.078   3.046  12.083  1.2063  0.1886 -1.6591
 3089SOL     OW20899   0.031   2.207   1.663  0.7020  0.2806  0.3833
 3089SOL    HW120900   0.110   2.220   1.610 -0.4325 -2.0232 -1.8697
 3089SOL    HW220901   4.712   2.275   1.623  0.7942  1.2064  1.8234
 3090SOL     OW20902   1.086   0.928  11.254  0.1589 -0.0820 -0.0837
 3090SOL    HW120903   1.103   0.856  11.194 -0.0984  0.7791 -1.1800
 3090SOL    HW220904   0.991   0.918  11.261  0.1747 -0.8875 -0.9782
 3091SOL     OW20905   4.609   3.388   4.574  0.9784  0.2844  0.2586
 3091SOL    HW120906   4.590   3.448   4.647  0.6577 -0.0909  0.4817
 3091SOL    HW220907   4.674   3.435   4.522  0.7957 -0.1122 -0.3267
 3092SOL     OW20908   3.790   3.610   2.563 -0.0153  0.3127 -0.1362
 3092SOL    HW120909   3.805   3.612   2.658  1.8312  1.0811 -0.4521
 3092SOL    HW220910   3.716   3.670   2.552  2.1213  2.8800 -0.2855
 3093SOL     OW20911   2.395   1.923   7.475 -0.4082 -0.4327  0.2958
 3093SOL    HW120912   2.460   1.853   7.467 -0.3999 -0.4106  0.1778
 3093SOL    HW220913   2.444   1.979   7.535  1.3745 -0.8672 -0.7584
 3094SOL     OW20914   3.593   2.065   4.501 -0.0669  0.1232  0.4554
 3094SOL    HW120915   3.656   2.115   4.449 -1.1065  1.6312  0.6592
 3094SOL    HW220916   3.532   2.044   4.430 -2.6131  1.7812  2.1672
 3095SOL     OW20917   2.657   1.599   8.974 -0.1456 -0.1849 -0.3220
 3095SOL    HW120918   2.689   1.637   8.892  1.1098  1.0408  0.7233
 3095SOL    HW220919   2.687   1.669   9.032 -2.4203  2.3382 -2.2367
 3096SOL     OW20920   1.066   4.312  15.916 -0.2832 -0.3520 -0.4519
 3096SOL    HW120921   1.031   4.370  15.848 -1.8094  0.9727  1.4433
 3096SOL    HW220922   1.048   4.370  15.990  1.2175  0.3365 -0.6327
 3097SOL     OW20923   2.578   1.861   8.749 -0.0122  0.7529 -0.5461
 3097SOL    HW120924   2.612   1.916   8.820  0.5128  1.4647 -1.3495
 3097SOL    HW220925   2.485   1.859   8.771 -0.3268 -0.6131 -1.9834
 3098SOL     OW20926   4.052   2.179   7.339 -0.1267 -0.5079  0.1931
 3098SOL    HW120927   4.064   2.115   7.269  1.2546 -0.2399  0.1975
 3098SOL    HW220928   4.126   2.151   7.393 -1.7451 -1.1324  2.1077
 3099SOL     OW20929   0.438   4.548   3.746  0.2200 -0.1017  0.5308
 3099SOL    HW120930   0.462   4.557   3.654 -0.0559 -1.5834  0.3128
 3099SOL    HW220931   0.368   4.613   3.742 -0.8151 -1.2799 -0.8614
 3100SOL     OW20932   1.573   1.897   7.854 -0.0065  0.3321  0.5967
 3100SOL    HW120933   1.666   1.886   7.875 -0.4901 -1.4574  1.7291
 3100SOL    HW220934   1.575   1.986   7.819 -1.0381  0.8549  1.8318
 3101SOL     OW20935   4.049   1.891   8.116  0.4973 -0.4355 -0.1375
 3101SOL    HW120936   4.070   1.889   8.209 -2.6662  2.1951  0.6498
 3101SOL    HW220937   4.044   1.796   8.101  0.0863 -0.0686 -2.3532
 3102SOL     OW20938   0.811   3.779  10.232 -0.5970 -0.0883 -0.0684
 3102SOL    HW120939   0.878   3.832  10.275 -0.7013 -0.0627  0.0605
 3102SOL    HW220940   0.792   3.705  10.290 -0.4612 -0.9961 -1.1731
 3103SOL     OW20941   3.157   2.142   5.032  0.4311 -0.4739 -0.4795
 3103SOL    HW120942   3.168   2.047   5.028 -0.6301 -0.6744  1.2490
 3103SOL    HW220943   3.065   2.147   5.057 -0.1627 -1.0270 -2.5397
 3104SOL     OW20944   0.421   0.399   1.798  0.1141 -0.0997  0.2706
 3104SOL    HW120945   0.337   0.354   1.796 -0.3494  0.8192 -1.0018
 3104SOL    HW220946   0.451   0.378   1.887 -1.3608  0.7302  0.9642
 3105SOL     OW20947   0.053   1.190  12.817 -0.3088 -0.6588  0.3888
 3105SOL    HW120948   0.046   1.095  12.804  0.7963 -0.4539 -1.7417
 3105SOL    HW220949   4.707   1.227  12.781 -0.7145 -2.2472 -0.3302
 3106SOL     OW20950   4.000   0.996   3.196 -0.1505  0.1607  0.5341
 3106SOL    HW120951   4.039   0.910   3.211 -0.4458  0.5312  3.4114
 3106SOL    HW220952   3.911   0.969   3.174 -0.3542  1.3265 -0.0643
 3107SOL     OW20953   0.766   3.219  14.628  0.5569  0.4679  0.1498
 3107SOL    HW120954   0.684   3.240  14.673  0.5234  1.4242 -0.3624
 3107SOL    HW220955   0.754   3.137  14.580  0.4015  1.6859 -1.8664
 3108SOL     OW20956   1.249   2.635  17.576  1.0585 -0.0922  0.1510
 3108SOL    HW120957   1.259   2.729  17.560 -1.4166  0.5628  2.3456
 3108SOL    HW220958   1.215   2.603  17.493  1.3261 -0.0424  0.0234
 3109SOL     OW20959   0.834   3.933  17.541 -0.2291 -0.0478  0.2234
 3109SOL    HW120960   0.791   3.892  17.616 -0.2334  0.6076  0.5816
 3109SOL    HW220961   0.827   3.871  17.468 -1.4854 -1.0395  1.1961
 3110SOL     OW20962   1.240   3.173   2.378 -0.0019  0.1952  0.7361
 3110SOL    HW120963   1.203   3.227   2.448 -1.0375 -2.2409  2.0567
 3110SOL    HW220964   1.329   3.209   2.374 -0.1359  0.7637  2.6955
 3111SOL     OW20965   0.053   1.871   5.217  0.3931 -0.0213  0.1019
 3111SOL    HW120966   0.125   1.915   5.173  1.0963 -1.0874  0.1927
 3111SOL    HW220967   0.024   1.940   5.277  0.7729  0.6365 -0.4751
 3112SOL     OW20968   0.695   2.072  13.729  0.0386  0.7609 -0.4193
 3112SOL    HW120969   0.656   2.017  13.661 -2.4752  0.2865  1.4185
 3112SOL    HW220970   0.727   1.995  13.776 -0.2692  0.4109 -0.7747
 3113SOL     OW20971   0.135   3.151   0.862  0.2053 -0.0581  0.0305
 3113SOL    HW120972   0.193   3.162   0.787  0.2286  1.3965  0.2508
 3113SOL    HW220973   0.187   3.092   0.917  2.9055  1.1197 -1.2626
 3114SOL     OW20974   1.446   0.728  16.781 -0.1106  0.1665 -0.0134
 3114SOL    HW120975   1.483   0.655  16.830 -1.9605 -0.7147  0.0813
 3114SOL    HW220976   1.521   0.770  16.740  0.3524  0.5881  1.2995
 3115SOL     OW20977   1.099   1.928   6.313 -0.2035 -0.3087  0.0897
 3115SOL    HW120978   1.149   2.007   6.334  0.1684 -1.2487  2.7404
 3115SOL    HW220979   1.017   1.967   6.281 -0.6722 -0.7322  0.7701
 3116SOL     OW20980   2.624   1.997   4.116 -0.1282  0.2731 -0.2110
 3116SOL    HW120981   2.683   2.001   4.041  2.5315 -0.1462  1.8191
 3116SOL    HW220982   2.569   1.925   4.087  0.6532 -1.3227  2.2400
 3117SOL     OW20983   3.511   4.127   5.299 -0.6184 -0.2639 -0.0606
 3117SOL    HW120984   3.589   4.136   5.245  0.7554 -0.8187  1.8060
 3117SOL    HW220985   3.532   4.070   5.373  0.1191 -1.3004 -1.0689
 3118SOL     OW20986   2.802   4.176   6.474 -0.0785 -0.2384  0.3098
 3118SOL    HW120987   2.734   4.137   6.530  1.3856 -0.9497  1.5778
 3118SOL    HW220988   2.838   4.235   6.540 -1.4260  0.9925 -0.0557
 3119SOL     OW20989   0.178   4.274   0.239 -0.0981 -0.2136 -0.2462
 3119SOL    HW120990   0.184   4.288   0.333 -4.1892  1.3102 -0.1890
 3119SOL    HW220991   0.271   4.271   0.218  0.1363  1.2350  0.5899
 3120SOL     OW20992   2.676   0.084   3.897  0.3542 -0.0593  0.3195
 3120SOL    HW120993   2.616   0.073   3.823 -0.9991 -2.2590  1.7212
 3120SOL    HW220994   2.680   0.179   3.907  0.2798 -0.0373  0.1421
 3121SOL     OW20995   1.836   3.709   7.777 -0.2763  0.0306 -0.5922
 3121SOL    HW120996   1.858   3.643   7.842  1.3401 -0.9621 -2.1307
 3121SOL    HW220997   1.905   3.702   7.710  0.1283 -2.3160  0.0734
 3122SOL     OW20998   3.053   1.121   1.244 -0.6554 -0.2729  0.2353
 3122SOL    HW120999   3.031   1.203   1.201 -0.7023  0.1224  1.0163
 3122SOL    HW221000   3.025   1.131   1.335 -1.5175 -1.8807  0.1595
 3123SOL     OW21001   4.071   3.893   0.005  0.0132 -0.3048  0.4374
 3123SOL    HW121002   4.127   3.964   0.036  1.5580 -0.4790 -1.9805
 3123SOL    HW221003   4.015   3.882   0.082  1.2805 -0.3090  1.3636
 3124SOL     OW21004   4.296   2.642   2.072  0.7519  0.8934  0.4321
 3124SOL    HW121005   4.376   2.606   2.109 -0.4274 -0.9278  1.2136
 3124SOL    HW221006   4.311   2.626   1.979 -1.1197  0.1012  0.2588
 3125SOL     OW21007   3.311   2.389   2.553 -0.1805  0.3881 -0.0649
 3125SOL    HW121008   3.346   2.319   2.607 -1.3834 -0.0037  0.2215
 3125SOL    HW221009   3.258   2.339   2.491  0.6164 -2.3032  1.4399
 3126SOL     OW21010   0.714   2.936   0.981  0.2008  0.3809 -0.3286
 3126SOL    HW121011   0.774   2.862   0.973  0.0781  0.3047 -0.5328
 3126SOL    HW221012   0.776   3.003   1.009  0.7087 -0.1733 -0.1302
 3127SOL     OW21013   0.385   1.045   1.256  0.2401  0.1546  0.0070
 3127SOL    HW121014   0.385   1.141   1.257 -0.6214  0.1416  0.8502
 3127SOL    HW221015   0.377   1.022   1.164  1.5011 -0.7395  0.1164
 3128SOL     OW21016   3.378   3.755   5.324  0.0093  0.1190 -0.6474
 3128SOL    HW121017   3.367   3.708   5.406 -0.8548  0.1053 -0.7659
 3128SOL    HW221018   3.351   3.845   5.345 -0.1973  0.2610 -1.4907
 3129SOL     OW21019   1.796   1.966   8.292 -0.1953  0.0648 -0.5434
 3129SOL    HW121020   1.854   1.896   8.324  0.1011  0.3617 -0.4357
 3129SOL    HW221021   1.729   1.908   8.255  0.5989 -1.3203  0.1829
 3130SOL     OW21022   1.299   0.929   5.627 -0.0562  0.4989  0.1268
 3130SOL    HW121023   1.271   0.838   5.643  4.2293 -0.9358 -0.4359
 3130SOL    HW221024   1.243   0.965   5.696 -0.3332 -0.4084  0.3889
 3131SOL     OW21025   0.208   2.459  10.637 -0.2224 -0.3076  0.3454
 3131SOL    HW121026   0.228   2.488  10.726  1.2370 -0.1972 -0.0157
 3131SOL    HW221027   0.271   2.387  10.635 -1.6279 -1.5003 -0.9539
 3132SOL     OW21028   3.710   0.011   9.554 -0.2234 -0.3072 -0.0035
 3132SOL    HW121029   3.650   0.039   9.623 -0.4985  0.7497 -0.6607
 3132SOL    HW221030   3.642   0.000   9.487 -2.4779 -0.5330  2.3255
 3133SOL     OW21031   0.188   2.276  16.424  0.0082 -0.1146  0.5028
 3133SOL    HW121032   0.210   2.339  16.356  0.6426 -0.5453  0.3088
 3133SOL    HW221033   0.102   2.309  16.452 -0.7415 -0.6993 -1.1475
 3134SOL     OW21034   3.517   2.265   5.833  0.2082  0.1406 -0.6945
 3134SOL    HW121035   3.427   2.280   5.863  0.3002 -0.5704 -0.0900
 3134SOL    HW221036   3.516   2.299   5.743 -0.5395 -2.0986 -1.5255
 3135SOL     OW21037   1.977   1.469  15.233 -0.4551  0.1211  0.0854
 3135SOL    HW121038   1.984   1.388  15.284 -0.2476  0.4092  0.5144
 3135SOL    HW221039   2.055   1.511  15.269 -0.9779  0.0788  1.2669
 3136SOL     OW21040   3.445   1.112   5.561 -0.0666  0.4465 -0.2257
 3136SOL    HW121041   3.458   1.092   5.469 -1.6010 -0.2728 -0.2976
 3136SOL    HW221042   3.507   1.183   5.575  1.8903 -1.1470 -0.9303
 3137SOL     OW21043   0.972   1.701   9.366 -0.3895 -0.0332 -0.0764
 3137SOL    HW121044   0.903   1.637   9.348 -0.0865 -0.8894  1.7154
 3137SOL    HW221045   1.048   1.643   9.379 -0.6301 -0.5563 -1.0125
 3138SOL     OW21046   3.068   3.777   5.276  0.2443  0.4621 -0.2368
 3138SOL    HW121047   3.105   3.865   5.287  1.6129 -0.0905 -0.3550
 3138SOL    HW221048   3.035   3.771   5.366  1.0410 -2.4303 -0.1195
 3139SOL     OW21049   1.535   2.531   2.137  0.2916 -0.2827 -0.4289
 3139SOL    HW121050   1.484   2.612   2.134 -0.0046 -0.4735 -0.5895
 3139SOL    HW221051   1.459   2.472   2.130 -0.7982  0.9480  1.0785
 3140SOL     OW21052   4.549   0.915   9.262  0.0167  0.5036 -0.0258
 3140SOL    HW121053   4.539   0.975   9.188 -0.6260  0.6474  0.1742
 3140SOL    HW221054   4.457   0.900   9.286  0.8257 -1.6621  1.7966
 3141SOL     OW21055   3.617   4.421  15.464  0.3072  0.1475 -0.6026
 3141SOL    HW121056   3.684   4.485  15.490 -1.3207  1.5672  0.0581
 3141SOL    HW221057   3.641   4.349  15.523 -0.4236  0.6014  0.2526
 3142SOL     OW21058   1.730   0.189   4.564  0.2756  0.3370  0.3596
 3142SOL    HW121059   1.740   0.215   4.656 -0.6522  2.3136 -0.0869
 3142SOL    HW221060   1.760   0.270   4.522 -0.7480  1.3065  1.4723
 3143SOL     OW21061   1.344   2.598   5.195 -0.5183  0.2609  0.0842
 3143SOL    HW121062   1.369   2.515   5.154 -1.3552 -0.6608  1.4742
 3143SOL    HW221063   1.250   2.584   5.183 -0.8076  1.1628  1.3334
 3144SOL     OW21064   3.333   0.676   9.479  0.5346 -0.6326 -0.8182
 3144SOL    HW121065   3.248   0.717   9.465 -0.5724 -2.7803 -0.3556
 3144SOL    HW221066   3.356   0.661   9.387 -3.2605  2.2571 -2.2426
 3145SOL     OW21067   1.097   3.103  15.097  0.8282  0.3883  0.1792
 3145SOL    HW121068   1.133   3.103  15.008 -0.0996 -0.3550 -0.1938
 3145SOL    HW221069   1.002   3.094  15.088  1.0541 -0.9352 -0.9262
 3146SOL     OW21070   1.297   0.284   4.300 -0.0113  0.0806  0.4952
 3146SOL    HW121071   1.340   0.346   4.358 -0.2643 -0.2309  1.0127
 3146SOL    HW221072   1.372   0.226   4.294  0.9761  1.6829 -3.0172
 3147SOL     OW21073   3.948   2.892   4.642 -0.0508  0.4286 -0.3411
 3147SOL    HW121074   3.991   2.833   4.580  0.9731  0.0175  0.7639
 3147SOL    HW221075   3.874   2.924   4.589 -0.4549 -0.3881 -0.2746
 3148SOL     OW21076   1.215   2.534   9.393 -0.0989  0.0335  0.9040
 3148SOL    HW121077   1.275   2.604   9.420 -1.4456  1.2947  0.6490
 3148SOL    HW221078   1.141   2.582   9.355  0.6016  0.1480 -0.3058
 3149SOL     OW21079   3.975   4.015  10.136  0.4020 -1.0803 -0.2742
 3149SOL    HW121080   3.932   4.067  10.204  0.6229 -0.4442 -0.6288
 3149SOL    HW221081   4.043   4.060  10.088 -1.8935  1.0166 -1.5326
 3150SOL     OW21082   1.009   2.772   5.585 -0.3215  0.5065 -0.2803
 3150SOL    HW121083   0.937   2.715   5.615  0.5081 -0.0104  0.7376
 3150SOL    HW221084   1.055   2.809   5.660 -1.3682 -0.4981  0.8680
 3151SOL     OW21085   2.402   4.226   0.161 -0.4127 -0.7375  0.2194
 3151SOL    HW121086   2.338   4.156   0.171 -0.9950  0.0132  1.8660
 3151SOL    HW221087   2.434   4.213   0.072  0.1313 -1.3111  0.4976
 3152SOL     OW21088   4.141   1.824   2.494 -0.4205  0.0486 -0.2091
 3152SOL    HW121089   4.086   1.898   2.519 -0.0964  0.3582 -0.4117
 3152SOL    HW221090   4.161   1.793   2.582  0.0115 -1.3197 -0.7885
 3153SOL     OW21091   3.207   4.152   2.904 -0.0806 -0.3666  0.1709
 3153SOL    HW121092   3.181   4.231   2.952  3.3903 -0.1490  1.6422
 3153SOL    HW221093   3.188   4.083   2.966  0.3167 -0.3701  0.2881
 3154SOL     OW21094   4.222   4.309  11.844  0.0115  0.7604  0.2202
 3154SOL    HW121095   4.223   4.286  11.751  0.8782  1.1319  0.1395
 3154SOL    HW221096   4.184   4.396  11.854  0.4867  1.1540 -1.4187
 3155SOL     OW21097   4.479   0.635  17.687  0.2079 -0.0687  0.0647
 3155SOL    HW121098   4.465   0.652  17.593  3.4505  0.3242 -0.3337
 3155SOL    HW221099   4.404   0.578  17.703 -0.1166 -0.2996 -2.2291
 3156SOL     OW21100   0.141   0.081   6.666 -0.0257 -0.4293  0.0968
 3156SOL    HW121101   0.167   0.031   6.743  1.3699  0.6146  0.3059
 3156SOL    HW221102   0.206   0.151   6.667 -1.7779  1.1998  0.3483
 3157SOL     OW21103   2.493   4.690   0.221  0.5331 -0.1714 -0.1473
 3157SOL    HW121104   2.457   0.016   0.157 -0.7498 -0.7653  0.0269
 3157SOL    HW221105   2.433   4.620   0.197 -0.0364  0.2840 -0.0357
 3158SOL     OW21106   1.434   3.079   4.376 -0.8239  0.2992 -0.0817
 3158SOL    HW121107   1.432   3.164   4.420 -0.5421  0.0999  0.3196
 3158SOL    HW221108   1.365   3.095   4.311 -1.6301  1.1417  0.9813
 3159SOL     OW21109   2.608   0.355   6.542 -0.4464 -0.3494 -0.5351
 3159SOL    HW121110   2.629   0.407   6.464  0.1175 -0.1195 -0.2291
 3159SOL    HW221111   2.697   0.339   6.573  0.1238  1.0428 -1.4399
 3160SOL     OW21112   2.289   2.282   9.097  0.4955  0.0287 -0.2795
 3160SOL    HW121113   2.196   2.264   9.083  0.7023 -0.7130 -0.6738
 3160SOL    HW221114   2.285   2.376   9.118 -0.5083  0.3067 -1.7343
 3161SOL     OW21115   0.734   0.549   2.120 -0.4646  0.1627 -0.1667
 3161SOL    HW121116   0.800   0.484   2.144 -0.8286 -0.5250 -1.0291
 3161SOL    HW221117   0.723   0.542   2.025  1.0799 -0.5279 -0.2946
 3162SOL     OW21118   1.370   2.774   9.356  0.0605 -0.4793  0.3356
 3162SOL    HW121119   1.442   2.780   9.418  0.1705  1.3920  0.0327
 3162SOL    HW221120   1.409   2.808   9.275 -0.9589  0.7266  0.3493
 3163SOL     OW21121   1.186   1.838   8.028  0.4139 -0.1240 -0.4517
 3163SOL    HW121122   1.231   1.918   8.002  1.0411 -1.0016 -2.0910
 3163SOL    HW221123   1.118   1.874   8.085  1.1674  0.1277  0.2842
 3164SOL     OW21124   0.192   1.878   2.003 -0.3003  0.5672 -0.3698
 3164SOL    HW121125   0.183   1.844   2.092 -0.4491 -2.7336 -1.6551
 3164SOL    HW221126   0.112   1.931   1.999  0.5913  1.9109 -0.2308
 3165SOL     OW21127   3.494   1.762   5.163  0.6062 -0.1629  0.0733
 3165SOL    HW121128   3.460   1.757   5.253 -0.2237  0.4858 -0.2045
 3165SOL    HW221129   3.436   1.831   5.132 -0.1982 -1.6422 -1.6706
 3166SOL     OW21130   0.941   2.003   8.917  0.3818 -0.1814  0.3010
 3166SOL    HW121131   0.892   2.082   8.938  2.0051 -0.2298  4.4250
 3166SOL    HW221132   0.934   1.953   8.999  0.2629  1.5080  1.3292
 3167SOL     OW21133   2.211   1.259   4.862  0.2085  0.5888 -0.2548
 3167SOL    HW121134   2.301   1.269   4.894 -0.5608 -1.4970  2.5205
 3167SOL    HW221135   2.188   1.168   4.875 -3.0268  1.3891 -0.4297
 3168SOL     OW21136   0.194   3.204  17.707  0.3492 -0.3092  0.3980
 3168SOL    HW121137   0.142   3.211   0.049  0.9245 -0.6465  0.8031
 3168SOL    HW221138   0.256   3.142   0.006  1.1634  0.0902 -0.2777
 3169SOL     OW21139   3.744   0.338  12.329 -0.6690  0.3258 -0.7878
 3169SOL    HW121140   3.772   0.306  12.415 -2.1624  0.6692 -0.1732
 3169SOL    HW221141   3.678   0.273  12.303  0.3220 -0.1212 -2.1761
 3170SOL     OW21142   3.233   0.099  17.346 -0.4091 -0.0146 -1.1987
 3170SOL    HW121143   3.302   0.088  17.412 -0.5849  2.6845 -0.5415
 3170SOL    HW221144   3.166   0.034  17.369  1.3677 -0.5733  2.4524
 3171SOL     OW21145   0.362   0.091   8.401 -0.0336  0.1495  1.1140
 3171SOL    HW121146   0.416   0.097   8.479  0.5395  0.9177  0.6691
 3171SOL    HW221147   0.300   0.020   8.419  1.2287 -1.1552  0.3091
 3172SOL     OW21148   0.609   2.303   7.376 -0.1805 -0.0922  0.0092
 3172SOL    HW121149   0.558   2.379   7.402  1.3767  0.9692 -0.0138
 3172SOL    HW221150   0.567   2.287   7.292  1.1616 -1.7255 -0.3687
 3173SOL     OW21151   0.199   2.469   8.551 -0.1088  0.7504 -0.6929
 3173SOL    HW121152   0.106   2.450   8.537 -0.4958  1.2151  1.3052
 3173SOL    HW221153   0.233   2.379   8.545  1.8314  1.5473 -1.4434
 3174SOL     OW21154   3.059   1.050   7.651 -0.0004  0.5038  0.3790
 3174SOL    HW121155   2.987   0.991   7.672  1.5290 -1.7576 -0.8218
 3174SOL    HW221156   3.043   1.082   7.562 -0.9709 -0.5446  0.1815
 3175SOL     OW21157   2.981   4.518   7.301  0.2812  0.2293 -0.0135
 3175SOL    HW121158   3.048   4.567   7.348 -0.4853 -0.1486  1.4526
 3175SOL    HW221159   2.921   4.586   7.271  1.0484  1.3101  0.9149
 3176SOL     OW21160   0.334   2.876   2.759 -0.0444 -0.0481  0.7862
 3176SOL    HW121161   0.336   2.905   2.850 -0.4167 -0.9344  1.0755
 3176SOL    HW221162   0.358   2.784   2.771  0.9726  0.1418  0.2694
 3177SOL     OW21163   0.222   4.242   2.639 -0.3631 -0.3366 -0.1194
 3177SOL    HW121164   0.198   4.182   2.709 -1.1672  0.5968  0.3932
 3177SOL    HW221165   0.148   4.226   2.580  0.8963 -3.5928 -0.8302
 3178SOL     OW21166   2.024   4.382   3.309 -0.2011  0.6280  0.5918
 3178SOL    HW121167   1.974   4.422   3.380 -1.7240 -0.1733 -0.0365
 3178SOL    HW221168   1.955   4.375   3.243  2.8941 -0.3104 -2.5435
 3179SOL     OW21169   2.900   1.276   9.461 -0.4498 -0.3545  0.3763
 3179SOL    HW121170   2.930   1.364   9.437  2.0891 -1.6691 -1.3804
 3179SOL    HW221171   2.862   1.293   9.547 -0.4229  1.0151  0.1204
 3180SOL     OW21172   1.910   0.528  15.289 -0.3557 -0.8525 -0.0127
 3180SOL    HW121173   2.000   0.494  15.295 -0.0982 -0.1554  0.1256
 3180SOL    HW221174   1.888   0.534  15.197  0.4945  0.8024 -0.1018
 3181SOL     OW21175   3.776   0.002   8.241  0.0129  0.1565  0.0015
 3181SOL    HW121176   3.868   0.019   8.261 -0.1386 -0.0503  0.8621
 3181SOL    HW221177   3.783   4.641   8.234  2.4669  0.3162  0.0377
 3182SOL     OW21178   3.392   3.733   8.921 -0.0224  0.5470 -0.4069
 3182SOL    HW121179   3.449   3.691   8.986  0.4117  0.0539 -1.1136
 3182SOL    HW221180   3.307   3.717   8.962 -0.3022  3.2049  0.0680
 3183SOL     OW21181   0.945   2.712   7.619  0.5300  0.9280  0.0260
 3183SOL    HW121182   0.901   2.638   7.576  0.9423  1.2282 -0.9157
 3183SOL    HW221183   1.036   2.703   7.592  0.0871 -2.5769 -0.3130
 3184SOL     OW21184   0.895   2.613   1.377  0.1290 -0.1416 -0.2915
 3184SOL    HW121185   0.984   2.577   1.370  0.8084  1.0598  2.2394
 3184SOL    HW221186   0.913   2.676   1.446  1.8043 -1.2041  0.2545
 3185SOL     OW21187   0.811   1.197   5.128  0.2063 -0.6389  0.0967
 3185SOL    HW121188   0.850   1.197   5.216  1.3246 -1.2419 -0.4025
 3185SOL    HW221189   0.749   1.270   5.135 -0.7624 -1.4806  0.3980
 3186SOL     OW21190   3.600   1.779  14.140  0.4463  0.0414 -0.1539
 3186SOL    HW121191   3.666   1.710  14.148  0.1714 -0.3027 -0.8565
 3186SOL    HW221192   3.525   1.719  14.133  0.3453  0.5018 -3.0074
 3187SOL     OW21193   0.589   1.898   4.991 -0.2884 -0.4179 -0.1390
 3187SOL    HW121194   0.670   1.948   5.000 -0.5363 -0.4938  2.8108
 3187SOL    HW221195   0.587   1.885   4.897 -3.1990  0.1561 -0.1605
 3188SOL     OW21196   3.757   2.347   6.986 -0.2851  0.7840 -0.1255
 3188SOL    HW121197   3.703   2.405   7.041 -0.8433  0.5761 -0.4505
 3188SOL    HW221198   3.696   2.279   6.955  0.2335  0.4505 -0.4162
 3189SOL     OW21199   3.707   3.191   7.730 -0.5546 -0.5723 -0.1272
 3189SOL    HW121200   3.744   3.104   7.741 -0.1514 -0.2141  1.3430
 3189SOL    HW221201   3.669   3.204   7.817 -1.6078 -2.2539 -0.3407
 3190SOL     OW21202   1.282   3.932   2.929  0.0082 -0.0522  0.5010
 3190SOL    HW121203   1.199   3.885   2.939  0.8252 -2.0606 -2.1866
 3190SOL    HW221204   1.307   3.931   2.837 -2.3096  0.6236 -0.1256
 3191SOL     OW21205   1.684   2.464  14.166 -0.0114 -0.5007  0.4393
 3191SOL    HW121206   1.718   2.538  14.116  1.1410 -0.6900  0.9603
 3191SOL    HW221207   1.618   2.505  14.222 -0.0588 -3.6215  2.6878
 3192SOL     OW21208   1.921   0.991  12.845  0.2069  0.1656 -0.0588
 3192SOL    HW121209   1.877   0.907  12.861  0.7933  0.2382  2.0036
 3192SOL    HW221210   1.848   1.050  12.864  0.3171 -0.3127  1.9009
 3193SOL     OW21211   1.849   2.103  11.875  0.5250 -0.1749  0.4673
 3193SOL    HW121212   1.925   2.101  11.934  0.9610 -0.6797 -0.1086
 3193SOL    HW221213   1.778   2.067  11.927 -0.2955  1.2028  0.3104
 3194SOL     OW21214   0.339   1.738   4.194 -0.0908  0.0350 -0.4927
 3194SOL    HW121215   0.365   1.821   4.154 -1.4878  0.5205 -0.3818
 3194SOL    HW221216   0.244   1.750   4.199 -0.2850 -1.0578 -1.4583
 3195SOL     OW21217   0.277   3.789   6.493  0.4007  0.0152 -0.0069
 3195SOL    HW121218   0.191   3.751   6.473  1.3719 -2.2502  0.1517
 3195SOL    HW221219   0.323   3.725   6.548 -1.3402  0.2068  1.6706
 3196SOL     OW21220   3.191   0.430   9.191 -0.1529  0.1482 -0.0707
 3196SOL    HW121221   3.128   0.495   9.161  0.0020  1.0724  1.5941
 3196SOL    HW221222   3.195   0.371   9.116  0.9500 -0.9978  0.8890
 3197SOL     OW21223   4.727   3.930  17.343  0.2988  0.3463 -0.3763
 3197SOL    HW121224   0.045   3.955  17.268 -0.9143  0.0069 -1.3354
 3197SOL    HW221225   4.707   3.838  17.329 -0.8632  0.6725 -0.8831
 3198SOL     OW21226   1.599   4.275   7.535  0.7816  0.2897 -0.3359
 3198SOL    HW121227   1.574   4.332   7.462 -0.8498  2.5242  1.9576
 3198SOL    HW221228   1.608   4.185   7.503  0.7652 -0.0207  0.5321
 3199SOL     OW21229   0.332   0.222  11.076  0.5928 -0.1269  0.3089
 3199SOL    HW121230   0.306   0.130  11.069 -0.1638  0.1604 -0.6088
 3199SOL    HW221231   0.298   0.239  11.164  1.1103 -2.0861  0.8999
 3200SOL     OW21232   0.039   4.176   2.441  0.5817  0.2533 -0.0623
 3200SOL    HW121233   4.714   4.250   2.434 -0.2750 -0.6455 -2.4847
 3200SOL    HW221234   0.102   4.185   2.370  1.9632  1.6722  1.3497
 3201SOL     OW21235   1.334   4.187   3.024  0.6645  0.1748  0.2520
 3201SOL    HW121236   1.389   4.196   2.946  1.5802  1.0499  0.9926
 3201SOL    HW221237   1.318   4.093   3.026 -0.7728  0.4919  3.3463
 3202SOL     OW21238   0.648   3.038   1.467 -0.3743  0.3808 -0.4948
 3202SOL    HW121239   0.614   3.075   1.548 -2.1690  1.7551 -1.8964
 3202SOL    HW221240   0.604   2.953   1.459  0.9268 -0.3525  0.0260
 3203SOL     OW21241   4.528   3.374  11.111 -0.0058  0.1150 -0.2829
 3203SOL    HW121242   4.511   3.465  11.135 -0.5866  0.2513 -1.2181
 3203SOL    HW221243   4.494   3.326  11.187  2.5356  0.8168  1.2853
 3204SOL     OW21244   0.303   3.064   7.870 -0.1351  0.0668  0.0407
 3204SOL    HW121245   0.272   2.986   7.915  1.7613 -0.5718  0.2382
 3204SOL    HW221246   0.222   3.110   7.851 -0.7139 -0.6991  0.6643
 3205SOL     OW21247   1.950   2.831   7.214 -0.3015 -0.3847  0.5543
 3205SOL    HW121248   1.983   2.898   7.273  0.2093 -1.5480  1.5973
 3205SOL    HW221249   1.998   2.849   7.132 -2.0421  0.8552 -0.1833
 3206SOL     OW21250   1.622   2.077   4.014  0.2329  0.2418 -0.6359
 3206SOL    HW121251   1.695   2.082   4.075 -1.0280  1.8470  0.7509
 3206SOL    HW221252   1.670   2.083   3.931  0.7907 -1.5761 -0.4323
 3207SOL     OW21253   0.152   2.024   5.477 -0.1507 -0.2124 -0.1264
 3207SOL    HW121254   0.067   2.064   5.457  0.6229  0.6803 -1.6626
 3207SOL    HW221255   0.142   2.022   5.572 -0.0395  1.3898 -0.0765
 3208SOL     OW21256   4.335   1.454   6.316 -0.6830 -0.3711 -0.0213
 3208SOL    HW121257   4.400   1.456   6.386 -0.0470  0.4318 -0.6344
 3208SOL    HW221258   4.376   1.415   6.239  2.2151 -0.6239  1.6402
 3209SOL     OW21259   2.115   2.982   8.812 -0.2255 -0.3850 -0.1502
 3209SOL    HW121260   2.045   2.921   8.835 -0.7176  1.4630  3.2750
 3209SOL    HW221261   2.194   2.946   8.852  0.0838 -0.1595 -0.5614
 3210SOL     OW21262   3.844   4.285   3.370 -0.0831  0.4010  0.0920
 3210SOL    HW121263   3.831   4.274   3.276  0.2462 -0.7991  0.1876
 3210SOL    HW221264   3.763   4.248   3.406  0.1905 -0.1494  0.1380
 3211SOL     OW21265   4.286   3.674   2.147  0.1157  0.3156  0.2238
 3211SOL    HW121266   4.296   3.732   2.072 -2.2778  1.7733  1.0390
 3211SOL    HW221267   4.297   3.742   2.214  0.5098  1.0913 -0.6367
 3212SOL     OW21268   0.844   3.687   7.582  0.1481  0.2979  0.4006
 3212SOL    HW121269   0.932   3.655   7.559 -0.9748 -3.0157  0.6910
 3212SOL    HW221270   0.870   3.778   7.597  1.3402  0.2016 -1.0566
 3213SOL     OW21271   3.628   3.938   6.622 -0.1398  0.1473  0.6826
 3213SOL    HW121272   3.625   3.890   6.539  3.9739 -0.9068  1.1312
 3213SOL    HW221273   3.717   3.922   6.653 -0.7162 -2.2262  1.1408
 3214SOL     OW21274   0.321   1.117   6.881 -0.0569 -0.3250  0.4009
 3214SOL    HW121275   0.266   1.139   6.806 -2.0890  0.9492  2.2824
 3214SOL    HW221276   0.260   1.066   6.933  0.3364  0.0948  1.2687
 3215SOL     OW21277   1.987   0.760   9.301 -0.5734 -0.2242 -0.9053
 3215SOL    HW121278   1.994   0.675   9.345  0.5241  0.3528  0.0470
 3215SOL    HW221279   1.926   0.734   9.233 -1.0625 -1.3156 -0.0458
 3216SOL     OW21280   3.275   1.516   8.720  0.6113  0.3676 -0.2513
 3216SOL    HW121281   3.209   1.546   8.657  1.0842  2.2674  0.1755
 3216SOL    HW221282   3.311   1.599   8.749  1.4388  0.7575 -2.3836
 3217SOL     OW21283   4.592   3.879   1.008 -0.5869 -0.0339 -0.1252
 3217SOL    HW121284   4.551   3.902   1.091  1.6977  1.1708  0.6603
 3217SOL    HW221285   4.565   3.952   0.951 -1.3404 -0.1004  0.1413
 3218SOL     OW21286   0.926   2.670  16.463 -0.3657 -0.4276 -0.3588
 3218SOL    HW121287   0.845   2.632  16.498  0.3944 -0.6732  1.1491
 3218SOL    HW221288   0.886   2.720  16.393  1.0086  0.8981 -0.1906
 3219SOL     OW21289   4.271   0.357   5.030 -0.3909  0.4782 -0.1811
 3219SOL    HW121290   4.328   0.405   5.090  1.5196  0.1537 -1.7105
 3219SOL    HW221291   4.245   0.427   4.970 -0.9889  0.1062 -0.3505
 3220SOL     OW21292   2.722   1.142   7.473  0.5371  0.2544 -0.4116
 3220SOL    HW121293   2.814   1.135   7.449  0.5354  0.8024 -0.5914
 3220SOL    HW221294   2.674   1.188   7.404 -1.0669 -2.0023 -0.7895
 3221SOL     OW21295   2.981   3.805   2.005 -1.0743  0.0658  0.6337
 3221SOL    HW121296   2.909   3.752   1.970 -0.1365 -0.9946  0.3394
 3221SOL    HW221297   2.969   3.804   2.100  1.0668 -0.7492  0.8827
 3222SOL     OW21298   1.081   1.993  15.798  0.3861 -0.1554 -0.5800
 3222SOL    HW121299   0.994   2.027  15.822  0.5547  0.0338 -0.2326
 3222SOL    HW221300   1.110   2.075  15.757 -1.2764  1.4787  1.4681
 3223SOL     OW21301   2.146   2.193   8.506  0.2817  0.5698  0.0327
 3223SOL    HW121302   2.149   2.274   8.455  1.5243  0.0768 -0.6766
 3223SOL    HW221303   2.126   2.130   8.436 -0.4961  0.2203  0.5675
 3224SOL     OW21304   0.557   1.200   8.094 -0.3231  0.6280 -0.0482
 3224SOL    HW121305   0.622   1.229   8.158  1.2130  1.6582 -2.0638
 3224SOL    HW221306   0.600   1.209   8.009  0.9248  2.5756  0.7917
 3225SOL     OW21307   2.085   1.615  12.515  0.0283 -0.1269 -0.3442
 3225SOL    HW121308   2.099   1.530  12.474 -0.9001  0.2033 -1.3464
 3225SOL    HW221309   2.173   1.652  12.517  0.0990 -0.3361  0.5449
 3226SOL     OW21310   1.081   3.586   8.023  0.5099  0.0298 -0.8129
 3226SOL    HW121311   1.150   3.525   7.998  1.2667  1.0382 -1.1842
 3226SOL    HW221312   1.106   3.663   7.972  1.8228  1.5427  2.1050
 3227SOL     OW21313   2.087   0.203  13.000  0.0160 -0.0968 -0.2709
 3227SOL    HW121314   1.996   0.212  12.971 -1.2369 -2.4868  2.8409
 3227SOL    HW221315   2.111   0.123  12.954 -0.3512  0.1581 -0.8909
 3228SOL     OW21316   2.390   0.671   3.006  0.2370 -0.2857  0.1857
 3228SOL    HW121317   2.425   0.743   2.954  1.0704 -0.5562  0.3597
 3228SOL    HW221318   2.318   0.629   2.959  1.6415 -2.8751  0.3497
 3229SOL     OW21319   1.989   2.265   3.065 -0.6094  0.2012 -0.3710
 3229SOL    HW121320   2.060   2.329   3.077  1.7919 -2.3992 -0.6826
 3229SOL    HW221321   1.936   2.291   3.140 -0.2320 -3.6614  1.2380
 3230SOL     OW21322   3.694   2.699  11.778  0.6040 -0.0785  0.2029
 3230SOL    HW121323   3.644   2.721  11.857  1.3585  1.2927  0.3130
 3230SOL    HW221324   3.624   2.674  11.718  1.2315 -3.0203  0.7329
 3231SOL     OW21325   2.927   3.831   8.808  0.0345  0.0998  0.1088
 3231SOL    HW121326   2.932   3.914   8.760  0.8789  0.1008  0.2026
 3231SOL    HW221327   2.942   3.858   8.898  0.3574 -2.3316  0.7753
 3232SOL     OW21328   0.646   4.529   9.455 -0.1971 -0.8272  0.4746
 3232SOL    HW121329   0.689   4.589   9.514  1.8060  0.8506 -2.6913
 3232SOL    HW221330   0.583   4.588   9.413  1.2090  0.8285  0.7033
 3233SOL     OW21331   1.025   2.787  13.841  0.3971  0.0864  0.0521
 3233SOL    HW121332   0.956   2.799  13.775 -2.6643 -2.0461  2.8338
 3233SOL    HW221333   0.990   2.717  13.896  1.3745  0.0633  0.6334
 3234SOL     OW21334   0.673   1.438   7.184  0.6200  0.2483 -0.0490
 3234SOL    HW121335   0.662   1.419   7.277  0.4388  0.8526  0.0566
 3234SOL    HW221336   0.712   1.525   7.193 -1.6325  1.0877  1.8369
 3235SOL     OW21337   0.151   1.231   4.487 -0.2491  0.1553 -0.5963
 3235SOL    HW121338   0.154   1.292   4.413 -0.5237  0.4503 -0.3629
 3235SOL    HW221339   0.067   1.241   4.530 -0.2204  1.3708 -0.8404
 3236SOL     OW21340   0.478   1.822  14.726  0.0411  0.1469  0.0546
 3236SOL    HW121341   0.541   1.778  14.670  0.2474  1.6602 -0.9140
 3236SOL    HW221342   0.539   1.823  14.800  1.8864 -0.7543 -1.4588
 3237SOL     OW21343   0.412   2.023  16.018  0.0032  0.1414  0.2335
 3237SOL    HW121344   0.343   2.082  16.049  0.3127 -0.0348  1.2641
 3237SOL    HW221345   0.410   1.951  16.081 -3.9107 -1.1206 -1.3097
 3238SOL     OW21346   2.120   1.862   1.134 -0.6089  0.3447  0.5142
 3238SOL    HW121347   2.106   1.781   1.084  0.4442  1.7508 -2.0549
 3238SOL    HW221348   2.178   1.817   1.196 -0.7099 -0.9647 -0.3200
 3239SOL     OW21349   4.504   4.117   5.994 -0.0628  0.3266  0.1276
 3239SOL    HW121350   4.568   4.047   5.991 -0.5067 -0.0181 -1.1896
 3239SOL    HW221351   4.442   4.088   6.061 -2.7293  2.8216 -1.2411
 3240SOL     OW21352   0.119   4.111   3.995 -0.0994 -0.0551 -0.4874
 3240SOL    HW121353   0.030   4.117   3.959 -0.3148 -0.8067 -0.0910
 3240SOL    HW221354   0.125   4.015   3.994 -2.5770 -0.2158 -1.3124
 3241SOL     OW21355   2.684   0.802   0.677 -0.0641  0.1985  0.0630
 3241SOL    HW121356   2.722   0.854   0.748  1.7511 -1.7715  0.5409
 3241SOL    HW221357   2.763   0.773   0.632  0.5342 -0.5153  1.5677
 3242SOL     OW21358   4.655   2.292   0.477 -0.0828 -0.6558 -0.1509
 3242SOL    HW121359   4.711   2.269   0.403  1.6379  1.4982  0.4795
 3242SOL    HW221360   4.719   2.280   0.548 -1.7084  0.1249  1.4426
 3243SOL     OW21361   2.733   3.410   3.139  0.3981 -0.3123  0.4409
 3243SOL    HW121362   2.661   3.402   3.201 -0.5862 -0.3430 -0.7098
 3243SOL    HW221363   2.801   3.356   3.180 -0.0421 -1.6687 -0.5883
 3244SOL     OW21364   4.181   2.868   6.793  0.5608  0.8682 -0.7665
 3244SOL    HW121365   4.244   2.864   6.865 -0.3658 -0.7216 -0.0431
 3244SOL    HW221366   4.107   2.900   6.844  0.9982  1.4907 -0.5197
 3245SOL     OW21367   1.959   1.813   3.803  0.4937  0.4845 -0.9594
 3245SOL    HW121368   2.045   1.848   3.825 -0.1337  0.4147  1.5672
 3245SOL    HW221369   1.979   1.748   3.736  0.6395 -0.3777 -0.0745
 3246SOL     OW21370   3.150   3.687  14.988  0.5482  0.1486  0.3320
 3246SOL    HW121371   3.142   3.615  14.926 -0.5512  1.4439 -1.0566
 3246SOL    HW221372   3.245   3.689  14.994  0.6855  0.5594 -1.8464
 3247SOL     OW21373   1.092   2.353   3.914  0.2396 -0.2466 -0.6177
 3247SOL    HW121374   1.120   2.289   3.848 -0.2101 -0.4145 -0.6412
 3247SOL    HW221375   1.012   2.384   3.872 -0.6312  1.8744  2.6055
 3248SOL     OW21376   0.104   0.600   4.352 -0.1465 -0.0421 -0.4761
 3248SOL    HW121377   0.178   0.640   4.305 -0.5314 -0.1680 -1.1828
 3248SOL    HW221378   0.114   0.506   4.336 -0.3131  0.0167 -0.9164
 3249SOL     OW21379   3.510   1.287   4.423  0.8625  0.0005 -0.3699
 3249SOL    HW121380   3.561   1.304   4.344  0.1567 -2.5277 -1.3562
 3249SOL    HW221381   3.589   1.242   4.453  0.4459 -1.2602 -1.1718
 3250SOL     OW21382   3.424   1.762  10.607  0.0360  0.3041 -0.2729
 3250SOL    HW121383   3.350   1.809  10.569 -1.3442 -1.2614  0.4709
 3250SOL    HW221384   3.473   1.841  10.628  0.5883  1.3448 -5.4805
 3251SOL     OW21385   2.070   4.488   9.227  0.1645 -0.0089  0.5017
 3251SOL    HW121386   2.020   4.428   9.171  0.1529  2.6438 -2.2985
 3251SOL    HW221387   2.003   4.539   9.272 -0.5632  0.0192 -0.6025
 3252SOL     OW21388   2.900   3.237   1.232 -0.0407 -0.1980  0.1485
 3252SOL    HW121389   2.851   3.181   1.171  1.1982 -0.9778 -0.1215
 3252SOL    HW221390   2.910   3.322   1.190  1.0364  0.8708  2.5527
 3253SOL     OW21391   2.380   2.163  16.083  0.7311  0.6102 -0.3830
 3253SOL    HW121392   2.403   2.184  16.174 -0.0030  2.4461 -0.6255
 3253SOL    HW221393   2.352   2.251  16.058 -1.4020 -0.1594 -0.7297
 3254SOL     OW21394   1.923   4.242   8.054  0.9224  0.0683  0.6645
 3254SOL    HW121395   1.962   4.199   7.977 -0.3640 -0.6531  0.4121
 3254SOL    HW221396   1.857   4.296   8.011 -0.4458  0.0055  2.7089
 3255SOL     OW21397   0.337   1.664   3.030  0.0818  0.3461  0.2100
 3255SOL    HW121398   0.323   1.583   3.080  1.9987 -0.3795 -0.4379
 3255SOL    HW221399   0.431   1.678   3.027  0.4016 -1.0368  3.9254
 3256SOL     OW21400   4.456   2.834   8.443 -0.1559  0.2353  0.0478
 3256SOL    HW121401   4.456   2.851   8.349  1.2407 -1.0913 -0.2007
 3256SOL    HW221402   4.504   2.900   8.493 -0.7285 -1.5476  2.9872
 3257SOL     OW21403   3.488   2.009   2.070 -0.4376  0.2577 -0.5975
 3257SOL    HW121404   3.411   2.013   2.126 -0.1954  1.6301 -0.3553
 3257SOL    HW221405   3.452   1.975   1.988 -0.7413 -1.1457  0.1271
 3258SOL     OW21406   1.209   0.440   8.485  0.6605 -0.9311  0.4024
 3258SOL    HW121407   1.149   0.485   8.545  2.7246  2.1013  0.1943
 3258SOL    HW221408   1.146   0.408   8.421  0.2561  2.7853 -1.0818
 3259SOL     OW21409   0.918   4.296  10.633 -0.3673  0.6867 -0.1770
 3259SOL    HW121410   0.864   4.372  10.610 -0.2026 -0.0010 -2.8750
 3259SOL    HW221411   0.947   4.311  10.723  0.6874  1.3515 -0.6316
 3260SOL     OW21412   2.058   4.147   4.145  0.1741 -0.2816  0.1006
 3260SOL    HW121413   1.994   4.198   4.193 -0.8312  0.1546 -1.6875
 3260SOL    HW221414   2.107   4.099   4.212 -1.4988  0.1947  1.6499
 3261SOL     OW21415   1.892   4.132   6.917 -0.0119 -0.1347 -0.2394
 3261SOL    HW121416   1.954   4.148   6.845 -0.3565 -1.7549 -0.8905
 3261SOL    HW221417   1.870   4.219   6.950  2.4981  0.8618 -1.1267
 3262SOL     OW21418   4.576   0.695   1.678  0.2714 -0.6731 -0.2585
 3262SOL    HW121419   4.539   0.616   1.639  0.5641 -0.6742 -0.5389
 3262SOL    HW221420   4.664   0.674   1.712  0.4411 -1.4707 -1.1888
 3263SOL     OW21421   3.014   4.577   0.386  0.4099  0.3592 -0.2672
 3263SOL    HW121422   2.955   4.593   0.312 -0.2363 -0.2414  0.1126
 3263SOL    HW221423   2.952   4.547   0.453  0.3004  2.7144  0.7079
 3264SOL     OW21424   1.589   1.824   5.446  0.2894 -0.3603 -0.0014
 3264SOL    HW121425   1.617   1.874   5.523 -0.6627  0.7898 -0.3978
 3264SOL    HW221426   1.495   1.841   5.454  0.1578 -0.9298 -0.3862
 3265SOL     OW21427   0.996   4.521   1.651  0.4707 -0.1255 -0.1536
 3265SOL    HW121428   0.941   4.540   1.575 -0.9831 -0.0261  0.9160
 3265SOL    HW221429   1.076   4.541   1.603  2.1568 -1.0964  2.2326
 3266SOL     OW21430   0.390   0.651   8.650  0.3330  0.7397  0.0504
 3266SOL    HW121431   0.431   0.711   8.711  0.8441 -0.9780  1.3971
 3266SOL    HW221432   0.310   0.699   8.630  2.0582  3.3065 -0.6529
 3267SOL     OW21433   0.660   1.171   5.753 -0.0673 -0.1736  0.4982
 3267SOL    HW121434   0.687   1.206   5.837 -2.5193  1.5089  0.5702
 3267SOL    HW221435   0.656   1.256   5.708  0.8790 -0.9432 -1.0686
 3268SOL     OW21436   3.368   2.832   8.392 -0.5422 -0.3242  0.1427
 3268SOL    HW121437   3.337   2.749   8.355  1.5491 -0.5169 -1.1769
 3268SOL    HW221438   3.295   2.859   8.446  1.0471 -0.8360  2.5380
 3269SOL     OW21439   0.256   0.444   5.673  0.4460 -0.0391 -0.0632
 3269SOL    HW121440   0.269   0.364   5.725 -1.3002 -1.8400 -2.3654
 3269SOL    HW221441   0.343   0.482   5.684  0.7174  0.4986 -4.2378
 3270SOL     OW21442   1.009   3.956   4.669  0.2716 -0.5729 -0.6898
 3270SOL    HW121443   1.042   3.870   4.694  0.9022 -0.2283 -0.3289
 3270SOL    HW221444   1.017   4.009   4.748 -1.2685  1.1070 -1.6648
 3271SOL     OW21445   4.010   3.028  10.910 -0.1403 -0.3393  0.1239
 3271SOL    HW121446   3.915   3.035  10.918 -0.1807 -0.2836 -0.3715
 3271SOL    HW221447   4.024   3.060  10.821 -0.2810 -1.0525 -0.1555
 3272SOL     OW21448   4.095   3.558   2.287 -0.1239 -0.0017  0.1833
 3272SOL    HW121449   4.162   3.494   2.313 -2.2151 -1.0661  3.0095
 3272SOL    HW221450   4.155   3.606   2.230  0.4289  1.7667  2.2837
 3273SOL     OW21451   4.355   4.663   3.437 -0.4937  0.0388  0.0113
 3273SOL    HW121452   4.389   4.725   3.502 -1.9870 -0.4119  1.2320
 3273SOL    HW221453   4.262   4.685   3.448 -1.2107 -2.3127 -1.3908
 3274SOL     OW21454   0.256   1.849  13.865 -0.1314  0.0982  0.1617
 3274SOL    HW121455   0.320   1.817  13.801 -1.2437  0.7673 -1.3042
 3274SOL    HW221456   0.235   1.938  13.835 -0.2621  0.6053  1.7814
 3275SOL     OW21457   2.027   2.481   7.055  0.0431 -0.0454  0.0445
 3275SOL    HW121458   1.998   2.391   7.047 -0.2856  0.1436 -0.9692
 3275SOL    HW221459   2.010   2.520   6.969 -1.0851  0.9819  0.7255
 3276SOL     OW21460   1.760   3.615  14.326  0.4606  0.2389 -0.2070
 3276SOL    HW121461   1.744   3.606  14.232 -1.4864  1.2769  0.0105
 3276SOL    HW221462   1.830   3.552  14.343 -0.0708 -0.4001 -0.3639
 3277SOL     OW21463   3.767   0.655  17.560  0.1252 -0.0565 -0.0065
 3277SOL    HW121464   3.697   0.625  17.502 -2.1539  2.2233  1.5743
 3277SOL    HW221465   3.759   0.579  17.618 -2.2160  0.3530  0.2287
 3278SOL     OW21466   3.590   4.007   7.316  0.3947  0.0329 -0.5145
 3278SOL    HW121467   3.600   4.044   7.228  0.3332  0.3056 -0.4067
 3278SOL    HW221468   3.551   4.084   7.357 -1.3114 -1.3394  0.4275
 3279SOL     OW21469   0.126   4.550  11.258 -0.1138  0.2078  0.6799
 3279SOL    HW121470   0.187   4.551  11.185 -0.1128  0.5627  0.6827
 3279SOL    HW221471   0.183   4.525  11.330  1.3048  0.5623 -0.3372
 3280SOL     OW21472   3.413   1.425   3.923  0.1383 -0.3407  0.1809
 3280SOL    HW121473   3.418   1.450   3.831  0.3422  1.1851  0.6028
 3280SOL    HW221474   3.501   1.398   3.951 -0.2814 -1.6614  0.2078
 3281SOL     OW21475   1.533   2.767  15.008 -0.3209 -0.3123 -0.1219
 3281SOL    HW121476   1.536   2.704  14.936  1.9135  0.4074 -0.6337
 3281SOL    HW221477   1.541   2.850  14.959 -0.3008 -0.1961  0.0791
 3282SOL     OW21478   1.861   1.281   7.963 -0.0749  0.2193  0.1661
 3282SOL    HW121479   1.947   1.317   7.984  0.3850  0.4019 -2.0608
 3282SOL    HW221480   1.869   1.206   8.022  4.3066 -0.0946 -0.8047
 3283SOL     OW21481   3.508   2.755  12.000 -0.5662  0.2421 -0.4882
 3283SOL    HW121482   3.443   2.801  11.947 -0.4365  0.9234 -0.0522
 3283SOL    HW221483   3.479   2.784  12.086 -1.4913 -1.8982 -0.1003
 3284SOL     OW21484   4.473   3.672   5.031  0.1858  0.0230 -1.2945
 3284SOL    HW121485   4.394   3.621   5.047  1.2114 -0.2988  2.5621
 3284SOL    HW221486   4.437   3.760   5.046  0.1944 -0.2894  0.5482
 3285SOL     OW21487   4.570   2.956   7.921  0.8744 -0.2418 -0.0154
 3285SOL    HW121488   4.566   2.994   7.833  1.2719  1.1221  0.5560
 3285SOL    HW221489   4.664   2.936   7.926  1.3751  1.8289 -1.2130
 3286SOL     OW21490   2.788   1.325  12.080 -0.2047 -0.1756 -0.0451
 3286SOL    HW121491   2.869   1.327  12.131 -0.6601 -0.1372  0.6646
 3286SOL    HW221492   2.786   1.243  12.030  3.6675  0.8188 -1.9045
 3287SOL     OW21493   2.288   4.522   4.053 -0.6035  0.0301  0.2113
 3287SOL    HW121494   2.333   4.575   3.987 -1.3575 -0.2041 -0.4945
 3287SOL    HW221495   2.215   4.581   4.076 -0.6711 -0.0488  0.1985
 3288SOL     OW21496   2.461   0.906   8.392  0.0300  0.0640 -0.1027
 3288SOL    HW121497   2.530   0.962   8.428 -1.1456  0.4351  1.5358
 3288SOL    HW221498   2.433   0.952   8.312 -1.2599 -2.8231 -1.3373
 3289SOL     OW21499   2.737   2.960  17.006  0.8882 -0.1128 -0.3504
 3289SOL    HW121500   2.819   2.940  16.961  0.2615 -0.4247 -1.3573
 3289SOL    HW221501   2.727   2.890  17.070  0.2007  0.5429  0.2576
 3290SOL     OW21502   3.020   4.277   6.876  0.4573 -0.0297  0.1241
 3290SOL    HW121503   2.944   4.261   6.820 -1.4441 -1.7210  3.1993
 3290SOL    HW221504   2.991   4.221   6.947  0.7744  2.1047  1.9302
 3291SOL     OW21505   4.054   4.482   8.122  0.0139 -0.1544 -0.0142
 3291SOL    HW121506   4.036   4.524   8.038  2.8261  0.0345 -0.5214
 3291SOL    HW221507   3.962   4.469   8.142 -0.3181  1.1254 -0.7253
 3292SOL     OW21508   3.575   0.095  12.833 -0.8449  0.2665  0.0820
 3292SOL    HW121509   3.661   0.135  12.847 -1.6979  1.8837  0.6609
 3292SOL    HW221510   3.619   0.017  12.799 -1.9791 -0.4329  0.2338
 3293SOL     OW21511   2.795   3.143   6.114  0.2570 -0.4236  0.0401
 3293SOL    HW121512   2.723   3.080   6.113 -0.4007  0.3175  0.4201
 3293SOL    HW221513   2.866   3.084   6.091  0.6955  0.2721 -0.4023
 3294SOL     OW21514   3.293   1.158   9.455  0.2335 -0.2186  0.1847
 3294SOL    HW121515   3.358   1.115   9.511  0.8505  2.5950  1.6378
 3294SOL    HW221516   3.228   1.180   9.521  2.4629 -0.2046  2.3699
 3295SOL     OW21517   0.088   4.004   2.049  0.2430  0.4984 -0.6737
 3295SOL    HW121518   0.124   3.922   2.080 -0.9653  0.1096 -0.3183
 3295SOL    HW221519   0.002   3.981   2.013 -0.2190 -0.8081  1.2580
 3296SOL     OW21520   3.778   1.075   6.341  0.4633  0.6026  0.3206
 3296SOL    HW121521   3.806   1.004   6.284  0.0534 -0.0099  0.8772
 3296SOL    HW221522   3.696   1.036   6.371 -0.3687  1.0441 -1.3876
 3297SOL     OW21523   2.655   1.677   3.644 -0.3254 -0.3187 -0.5372
 3297SOL    HW121524   2.705   1.688   3.725  1.0345 -1.1484 -1.2640
 3297SOL    HW221525   2.605   1.758   3.640  0.2835  0.1571  1.5102
 3298SOL     OW21526   3.647   0.525  14.227  0.3628 -0.4360  0.1819
 3298SOL    HW121527   3.662   0.571  14.145  2.6715  1.1491  1.5228
 3298SOL    HW221528   3.562   0.484  14.206  0.1640  0.5548 -0.9635
 3299SOL     OW21529   0.396   0.727   5.819 -0.0189  0.5793  0.2087
 3299SOL    HW121530   0.406   0.822   5.814  0.3913  0.5243 -0.0120
 3299SOL    HW221531   0.332   0.707   5.888 -1.7078 -1.5409 -1.9431
 3300SOL     OW21532   0.452   1.104   4.206  0.0016 -0.6654 -0.0755
 3300SOL    HW121533   0.516   1.157   4.254 -2.0355 -0.7158  2.7605
 3300SOL    HW221534   0.452   1.156   4.126  2.1820  0.1614  0.4569
 3301SOL     OW21535   0.041   1.293  10.416 -0.1419 -0.3685 -0.2945
 3301SOL    HW121536   0.099   1.290  10.340  2.7111  0.7467  1.7805
 3301SOL    HW221537   0.074   1.220  10.469  2.4870  0.1663 -1.1974
 3302SOL     OW21538   2.544   0.767   5.591 -0.0993 -0.1884 -0.0380
 3302SOL    HW121539   2.524   0.679   5.622 -0.0934 -0.5239 -0.9810
 3302SOL    HW221540   2.529   0.814   5.673  0.3137 -1.9633  1.0518
 3303SOL     OW21541   3.447   0.120   7.924  0.2684  0.3436 -0.6486
 3303SOL    HW121542   3.506   0.180   7.880  0.7606  0.5109  0.2388
 3303SOL    HW221543   3.473   0.141   8.014 -0.9164 -1.1161  0.0277
 3304SOL     OW21544   0.149   1.110   8.803 -0.0450  0.4810 -0.4026
 3304SOL    HW121545   0.140   1.187   8.747 -0.0976  0.2895 -0.6555
 3304SOL    HW221546   0.064   1.066   8.793  1.2509 -3.1028  4.4232
 3305SOL     OW21547   0.915   2.150  12.670 -0.5835  0.3397 -0.1321
 3305SOL    HW121548   0.974   2.181  12.602 -2.7085  3.1127 -0.7478
 3305SOL    HW221549   0.975   2.164  12.744 -1.2541  1.2176  0.2586
 3306SOL     OW21550   1.162   3.122   9.019  0.3184  0.1922  0.5662
 3306SOL    HW121551   1.131   3.208   8.992  0.1664 -0.1798 -0.4353
 3306SOL    HW221552   1.143   3.075   8.938 -0.2809  0.4131  0.5824
 3307SOL     OW21553   1.243   3.269   0.315  0.2438 -0.2546  0.6126
 3307SOL    HW121554   1.176   3.291   0.380 -0.3812  1.4710 -0.6368
 3307SOL    HW221555   1.276   3.184   0.344  0.7904 -0.3032 -0.1555
 3308SOL     OW21556   4.040   0.488   2.381 -0.4269 -0.3678  0.4313
 3308SOL    HW121557   4.010   0.548   2.313 -1.6904  1.0355  2.2652
 3308SOL    HW221558   4.074   0.408   2.340 -0.6563 -0.3927  0.2883
 3309SOL     OW21559   2.966   0.497  12.380  0.1346  0.4573 -0.6605
 3309SOL    HW121560   2.932   0.464  12.463  1.9477 -1.0402 -0.5255
 3309SOL    HW221561   2.902   0.557  12.340  0.1598 -0.3327 -1.8988
 3310SOL     OW21562   0.363   1.534   0.218  0.2466  0.1064 -0.1590
 3310SOL    HW121563   0.409   1.485   0.286 -1.3604 -0.7950  0.2756
 3310SOL    HW221564   0.308   1.599   0.261  0.2392  0.1493 -0.2345
 3311SOL     OW21565   2.246   2.698   2.684  0.2815 -0.0239 -0.4314
 3311SOL    HW121566   2.200   2.708   2.600 -0.0320  1.6601 -0.0582
 3311SOL    HW221567   2.202   2.778   2.711  1.8961  0.6436  0.2079
 3312SOL     OW21568   1.766   3.370   9.053 -1.0167 -0.0145 -0.5380
 3312SOL    HW121569   1.815   3.450   9.068 -2.7007  0.6776  1.2488
 3312SOL    HW221570   1.832   3.308   9.022  0.2946  0.0919  2.0250
 3313SOL     OW21571   3.391   3.826  13.418  0.5615 -0.0785  0.1871
 3313SOL    HW121572   3.311   3.798  13.463  0.6702 -1.1496 -0.2837
 3313SOL    HW221573   3.456   3.801  13.484 -0.9083  3.1655  2.8891
 3314SOL     OW21574   1.033   3.725  14.897 -0.1483  0.2970  0.4605
 3314SOL    HW121575   1.015   3.657  14.961 -0.4654 -0.2779 -0.2325
 3314SOL    HW221576   1.090   3.791  14.935  1.3722  0.2714 -1.7347
 3315SOL     OW21577   3.910   2.250   9.650  0.3643  0.0426  0.3167
 3315SOL    HW121578   3.943   2.209   9.730  1.5968  2.2767  0.9697
 3315SOL    HW221579   3.851   2.318   9.684 -0.7804 -0.4050 -0.7660
 3316SOL     OW21580   1.168   1.318  15.952  0.2554  0.3764 -0.1250
 3316SOL    HW121581   1.074   1.317  15.968  0.3720 -1.0933  0.5045
 3316SOL    HW221582   1.169   1.373  15.874 -0.4134  1.5579  0.7075
 3317SOL     OW21583   2.899   1.506  12.873 -0.2432 -0.1241  0.3719
 3317SOL    HW121584   2.933   1.461  12.950  0.4084 -0.0680  0.1170
 3317SOL    HW221585   2.924   1.458  12.794 -1.2412  0.7275 -0.4641
 3318SOL     OW21586   0.530   3.232  16.734  0.4341  0.1556  0.2723
 3318SOL    HW121587   0.553   3.141  16.752 -1.2288 -0.5590 -1.2193
 3318SOL    HW221588   0.608   3.281  16.760  0.9063 -0.9936  1.0047
 3319SOL     OW21589   1.800   4.565   6.512  0.3056  0.2597 -0.1997
 3319SOL    HW121590   1.879   4.512   6.524 -0.1615 -0.3073  0.4609
 3319SOL    HW221591   1.820   4.612   6.432 -2.4401 -0.3136 -1.2137
 3320SOL     OW21592   1.917   2.708   2.800 -0.3843  0.4014  0.2243
 3320SOL    HW121593   1.903   2.716   2.895 -0.5201 -0.3540  0.2672
 3320SOL    HW221594   1.960   2.788   2.768 -1.3705  0.6635 -0.4541
 3321SOL     OW21595   1.711   3.623  14.071 -0.7292 -0.3974  1.0436
 3321SOL    HW121596   1.767   3.571  14.013  1.0583  0.9929  1.5530
 3321SOL    HW221597   1.622   3.591  14.053 -0.1711 -0.1215 -2.3445
 3322SOL     OW21598   1.418   1.635  12.027  0.1504 -0.0743  0.0985
 3322SOL    HW121599   1.416   1.691  12.104  1.3309  2.1282 -1.4899
 3322SOL    HW221600   1.404   1.696  11.954 -1.2167 -1.3299 -0.7111
 3323SOL     OW21601   0.979   1.966   3.543  0.2462  0.1956  0.4362
 3323SOL    HW121602   0.935   2.028   3.601 -1.4699 -1.6732  1.1011
 3323SOL    HW221603   0.952   1.888   3.592 -1.1104 -0.5430 -1.4880
 3324SOL     OW21604   0.172   1.426  11.612  0.6078 -0.0534 -0.1225
 3324SOL    HW121605   0.087   1.466  11.632  2.3210  3.3352  0.3679
 3324SOL    HW221606   0.226   1.494  11.573  0.7846  1.3049  2.4782
 3325SOL     OW21607   4.367   3.841   7.521  0.0028 -0.6407  0.4844
 3325SOL    HW121608   4.276   3.857   7.498 -0.1651 -1.1348  0.7929
 3325SOL    HW221609   4.396   3.803   7.438  0.3472  3.1441 -1.1132
 3326SOL     OW21610   3.051   3.975   8.523  0.6692 -0.4625  0.2382
 3326SOL    HW121611   3.136   3.933   8.535  0.4347 -1.3861 -1.3075
 3326SOL    HW221612   3.051   4.029   8.602  1.7091  2.3246 -1.6506
 3327SOL     OW21613   2.558   3.115   0.299  0.4691 -0.0935 -0.2581
 3327SOL    HW121614   2.568   3.139   0.206 -1.2799 -0.7656 -0.6158
 3327SOL    HW221615   2.521   3.028   0.287 -1.3917  0.4459  1.6696
 3328SOL     OW21616   0.900   1.419   3.326 -0.0429 -0.2651 -0.7706
 3328SOL    HW121617   0.890   1.431   3.420  0.1886  1.9927 -1.0509
 3328SOL    HW221618   0.809   1.394   3.310  0.0538 -2.0175  1.3269
 3329SOL     OW21619   1.217   0.636  16.134  0.0657  0.4972 -0.5025
 3329SOL    HW121620   1.153   0.575  16.169 -1.1775  1.3186 -1.3587
 3329SOL    HW221621   1.290   0.598  16.183 -0.0467 -0.6813 -1.2536
 3330SOL     OW21622   0.428   3.548   7.448  0.1666  0.7339  0.1518
 3330SOL    HW121623   0.386   3.629   7.477  1.5890  1.2900  0.6660
 3330SOL    HW221624   0.422   3.561   7.353  1.9927  1.1691  0.0908
 3331SOL     OW21625   3.937   0.582  16.721 -0.3547  0.3182 -0.4789
 3331SOL    HW121626   3.894   0.538  16.648  0.2583  1.0852 -1.3006
 3331SOL    HW221627   4.025   0.578  16.684  0.1639  0.6882  0.7096
 3332SOL     OW21628   0.257   3.408   0.977  0.2718  0.4948  0.2680
 3332SOL    HW121629   0.223   3.350   1.044 -0.0813  0.8048  0.3584
 3332SOL    HW221630   0.180   3.414   0.919  0.1897  0.0624  0.3330
 3333SOL     OW21631   0.620   3.612   5.725 -0.5723  0.2952 -0.0838
 3333SOL    HW121632   0.570   3.673   5.672 -1.0876  0.9053  1.1042
 3333SOL    HW221633   0.615   3.536   5.667  0.3860  1.2273 -1.3842
 3334SOL     OW21634   4.090   1.836   6.311  0.1392 -0.5676  0.4324
 3334SOL    HW121635   4.080   1.925   6.277 -1.7246 -0.5026  1.1430
 3334SOL    HW221636   4.154   1.798   6.250 -0.8551 -0.5499 -0.6237
 3335SOL     OW21637   2.010   3.991  16.814 -0.1490  0.4973 -0.3181
 3335SOL    HW121638   1.926   3.984  16.858  0.5983 -1.3043  0.7904
 3335SOL    HW221639   1.976   4.018  16.728 -1.0494  0.4439  0.0262
 3336SOL     OW21640   2.851   0.752  16.145  0.0112 -0.4900  0.0637
 3336SOL    HW121641   2.876   0.753  16.053  1.7788 -0.2044  0.5504
 3336SOL    HW221642   2.934   0.738  16.190 -0.7916  0.4580  1.8732
 3337SOL     OW21643   4.638   2.676   8.315  0.2245  0.3310  0.1086
 3337SOL    HW121644   4.561   2.718   8.352  1.1579  0.4496  1.8927
 3337SOL    HW221645   4.683   2.750   8.273 -0.4915  1.3291  1.1017
 3338SOL     OW21646   2.329   4.275   9.322  0.0067 -0.3905  0.5079
 3338SOL    HW121647   2.292   4.337   9.384 -0.2357  0.2621 -0.2955
 3338SOL    HW221648   2.374   4.328   9.256 -0.9063 -0.7036 -0.3758
 3339SOL     OW21649   3.390   2.844   9.003 -0.3159  0.3127  0.2715
 3339SOL    HW121650   3.350   2.784   9.066  1.8705 -0.5128  0.8544
 3339SOL    HW221651   3.482   2.819   9.012 -0.1018  0.2977 -1.8855
 3340SOL     OW21652   4.672   4.280  11.468  0.1533 -0.2667  0.0622
 3340SOL    HW121653   4.671   4.341  11.542  2.6977 -0.1236 -0.0377
 3340SOL    HW221654   4.578   4.269  11.452  0.1353  0.6357 -0.4946
 3341SOL     OW21655   0.525   4.079   7.022  0.2345  0.1300  0.5890
 3341SOL    HW121656   0.481   4.164   7.023 -0.6660 -0.3467  1.4335
 3341SOL    HW221657   0.446   4.025   7.018  0.9579 -0.7518 -1.7561
 3342SOL     OW21658   3.043   3.725   5.549 -0.1246 -0.5625 -0.0126
 3342SOL    HW121659   3.130   3.729   5.588  0.1445 -0.0216 -0.6668
 3342SOL    HW221660   2.983   3.739   5.622 -0.9937 -2.9571 -0.2618
 3343SOL     OW21661   3.168   2.756   1.929  0.2977 -0.8683  0.0053
 3343SOL    HW121662   3.243   2.780   1.875 -1.1822  0.8185 -1.2917
 3343SOL    HW221663   3.195   2.801   2.008 -0.8297  0.0431 -0.1302
 3344SOL     OW21664   1.517   3.723  16.780  0.0902  0.5794 -0.5063
 3344SOL    HW121665   1.493   3.634  16.803  0.4507  1.0682  1.7816
 3344SOL    HW221666   1.436   3.773  16.785 -0.2862 -0.2210  1.1653
 3345SOL     OW21667   2.012   2.310   6.028 -0.5284  0.2405 -0.1945
 3345SOL    HW121668   1.936   2.367   6.031 -0.2698  0.6179 -0.6437
 3345SOL    HW221669   2.086   2.366   6.054  0.0180 -0.6186  0.1107
 3346SOL     OW21670   1.607   4.457  15.035  0.3009 -0.5558 -0.1989
 3346SOL    HW121671   1.659   4.385  15.069 -0.0185 -0.9445 -0.5335
 3346SOL    HW221672   1.663   4.500  14.971 -0.4018  0.4938 -0.1253
 3347SOL     OW21673   1.420   1.307   2.246 -0.3572 -0.9167 -0.5730
 3347SOL    HW121674   1.430   1.390   2.292 -0.5483 -1.8269  1.1534
 3347SOL    HW221675   1.507   1.269   2.257  0.1898  0.3929 -0.4790
 3348SOL     OW21676   3.101   3.182  12.617 -0.4911 -0.5399  0.5758
 3348SOL    HW121677   3.044   3.236  12.562  0.0010 -1.7807 -1.1824
 3348SOL    HW221678   3.167   3.150  12.555 -1.9651  0.7041 -1.6313
 3349SOL     OW21679   2.258   2.189   8.107 -0.0637 -0.0392  0.1552
 3349SOL    HW121680   2.259   2.285   8.101  1.2644 -0.1439 -1.5160
 3349SOL    HW221681   2.297   2.169   8.022 -0.4024 -0.1307  0.0190
 3350SOL     OW21682   4.192   0.508  11.066 -0.2386 -0.4783 -0.5901
 3350SOL    HW121683   4.141   0.463  10.999 -2.7538 -0.8673  1.5708
 3350SOL    HW221684   4.127   0.520  11.135  2.3488  0.3741  1.7327
 3351SOL     OW21685   0.512   0.801   3.292 -0.0578 -0.2346 -0.2361
 3351SOL    HW121686   0.500   0.825   3.200  0.8508 -0.7287 -0.4825
 3351SOL    HW221687   0.603   0.821   3.314 -0.8949  0.3451  2.5970
 3352SOL     OW21688   0.173   1.574   4.450 -0.5708 -0.1249  0.0119
 3352SOL    HW121689   0.156   1.663   4.418 -0.3931  0.4273  1.4812
 3352SOL    HW221690   0.163   1.524   4.369  1.7153  0.1748 -0.4449
 3353SOL     OW21691   3.792   3.548  10.057  0.0700 -0.2869  0.7246
 3353SOL    HW121692   3.696   3.557  10.060  0.2543  1.5777  0.6635
 3353SOL    HW221693   3.813   3.636  10.025 -0.4677  1.2967  4.7921
 3354SOL     OW21694   3.043   4.420   9.314  0.0276  0.0944 -0.1690
 3354SOL    HW121695   3.003   4.505   9.333 -0.0489  0.1678 -0.6608
 3354SOL    HW221696   3.126   4.458   9.286 -1.3695  1.9874 -1.7012
 3355SOL     OW21697   0.778   0.925   5.135  0.2464  0.0860  0.1758
 3355SOL    HW121698   0.688   0.958   5.143  0.4153  1.0626 -1.7591
 3355SOL    HW221699   0.826   1.007   5.147  0.4499 -0.1287  0.8044
 3356SOL     OW21700   0.663   2.965   4.145 -0.0689 -0.0969 -0.2822
 3356SOL    HW121701   0.576   2.986   4.180  0.4433  0.4272  0.6807
 3356SOL    HW221702   0.703   2.909   4.211  1.2115  1.1162 -0.0355
 3357SOL     OW21703   4.372   0.681  14.599  0.3702 -0.0958  0.5135
 3357SOL    HW121704   4.398   0.679  14.507 -2.9755 -0.6977 -0.3961
 3357SOL    HW221705   4.455   0.701  14.642  1.1113  1.7352 -1.7913
 3358SOL     OW21706   3.294   3.696  10.135  0.2615  0.1653 -0.5814
 3358SOL    HW121707   3.271   3.731  10.221  0.2214 -0.5396 -0.3100
 3358SOL    HW221708   3.256   3.764  10.078  1.8717  1.7827  0.2653
 3359SOL     OW21709   1.024   0.411   3.965  0.1991 -0.7800  0.4708
 3359SOL    HW121710   1.098   0.379   4.015  0.9010  0.7386  0.4178
 3359SOL    HW221711   1.033   0.507   3.970  0.2272 -0.7824  0.4693
 3360SOL     OW21712   4.182   3.047  10.483  0.5400  0.4848 -0.2348
 3360SOL    HW121713   4.236   3.104  10.429 -1.4512  1.9906 -0.6086
 3360SOL    HW221714   4.244   3.015  10.549  0.9991  0.5704 -0.6290
 3361SOL     OW21715   4.624   0.613   0.257 -0.0333  0.3151  0.0147
 3361SOL    HW121716   4.632   0.592   0.350 -0.5760 -1.2890 -0.3054
 3361SOL    HW221717   4.529   0.612   0.256 -0.0282 -2.5127  1.2987
 3362SOL     OW21718   2.357   0.400   9.689 -0.1517 -0.3157 -0.2100
 3362SOL    HW121719   2.423   0.446   9.636 -1.1813 -2.9672 -3.7988
 3362SOL    HW221720   2.366   0.461   9.762 -0.0324 -1.6098  0.8584
 3363SOL     OW21721   2.307   1.162   4.166  0.1307 -0.3366  0.1675
 3363SOL    HW121722   2.350   1.247   4.174 -0.1510 -0.3084  1.4098
 3363SOL    HW221723   2.301   1.150   4.071 -0.8814  0.2015  0.1608
 3364SOL     OW21724   4.292   3.108   3.178 -0.1422 -0.6027  0.5012
 3364SOL    HW121725   4.359   3.057   3.223 -0.8107 -2.4004 -0.5432
 3364SOL    HW221726   4.332   3.127   3.093  1.5143 -1.5350  1.0745
 3365SOL     OW21727   4.549   0.521   4.309  0.0573 -0.1116 -0.9092
 3365SOL    HW121728   4.625   0.569   4.342 -2.0170  2.9224 -0.6488
 3365SOL    HW221729   4.552   0.550   4.218 -0.9941  0.3176 -0.8102
 3366SOL     OW21730   4.165   4.293  10.088  0.6403  0.0477  0.4242
 3366SOL    HW121731   4.168   4.319  10.180  3.3011  2.6755 -0.4036
 3366SOL    HW221732   4.235   4.228  10.089  1.1448  0.6250  1.6340
 3367SOL     OW21733   4.019   1.601  10.458  0.0348 -0.0979  0.0261
 3367SOL    HW121734   4.038   1.649  10.378 -2.0156 -0.5065 -0.7147
 3367SOL    HW221735   4.077   1.657  10.511  1.3245 -2.6690  1.3035
 3368SOL     OW21736   3.372   2.869   3.312 -0.0052  0.1350  0.1741
 3368SOL    HW121737   3.400   2.801   3.373 -0.5246 -0.0886  0.1618
 3368SOL    HW221738   3.351   2.815   3.236 -0.6522 -0.8564  1.0553
 3369SOL     OW21739   1.900   2.939   0.339 -0.0855  0.0346  0.9149
 3369SOL    HW121740   1.943   3.007   0.390  1.2976  1.3137 -1.9970
 3369SOL    HW221741   1.953   2.937   0.260 -0.2937  0.9173  0.7620
 3370SOL     OW21742   0.241   1.737  15.265  0.3973 -0.1913  0.1062
 3370SOL    HW121743   0.246   1.746  15.170  0.7937  0.9880  0.2401
 3370SOL    HW221744   0.287   1.654  15.281  1.3608 -0.5307 -4.3778
 3371SOL     OW21745   0.406   2.511   6.926 -0.4097  0.4197 -0.3216
 3371SOL    HW121746   0.380   2.434   6.977 -1.6449  0.3267 -1.0895
 3371SOL    HW221747   0.502   2.514   6.924 -0.4206  0.2871 -0.8541
 3372SOL     OW21748   3.942   4.171   4.617  0.2300 -0.3285 -0.1182
 3372SOL    HW121749   3.966   4.079   4.625  1.0573 -0.0749  0.3737
 3372SOL    HW221750   4.011   4.229   4.650  0.3543 -0.3840 -0.2810
 3373SOL     OW21751   3.549   3.216   3.183 -0.0606  0.2804  0.3596
 3373SOL    HW121752   3.557   3.155   3.256  1.7193  0.3237  0.2187
 3373SOL    HW221753   3.465   3.188   3.149 -0.1795  1.3503 -0.2160
 3374SOL     OW21754   0.307   3.383   9.484  1.0375  0.8414 -0.1286
 3374SOL    HW121755   0.314   3.368   9.578 -2.0156 -0.5918 -0.1408
 3374SOL    HW221756   0.387   3.337   9.458 -0.0642 -1.7416  1.0407
 3375SOL     OW21757   1.261   0.467   5.251 -0.0986 -0.3991  0.1231
 3375SOL    HW121758   1.315   0.543   5.274  0.7423 -1.1616  0.6357
 3375SOL    HW221759   1.318   0.400   5.288  3.2015  2.1737 -0.3534
 3376SOL     OW21760   3.956   0.568  14.941 -0.6595  0.1291 -0.4260
 3376SOL    HW121761   3.900   0.493  14.921 -1.4577  0.0757  2.0175
 3376SOL    HW221762   4.030   0.560  14.880  0.8317 -0.1029  1.4205
 3377SOL     OW21763   0.805   4.212   3.474  0.1242 -0.0341 -0.0834
 3377SOL    HW121764   0.876   4.264   3.511  1.0021 -0.0358 -1.7699
 3377SOL    HW221765   0.747   4.283   3.446  0.4034 -0.2088 -1.1037
 3378SOL     OW21766   1.958   2.135   2.847  0.3706  0.0232  0.3278
 3378SOL    HW121767   1.971   2.175   2.933 -1.3026  0.0162  0.5897
 3378SOL    HW221768   1.971   2.216   2.798 -1.3074 -0.3130 -0.6671
 3379SOL     OW21769   1.747   1.995  14.692  0.3543  0.3343 -0.1404
 3379SOL    HW121770   1.762   2.041  14.610 -0.7295  0.9962  0.0429
 3379SOL    HW221771   1.763   1.901  14.679 -0.6339  0.3527 -1.4367
 3380SOL     OW21772   0.969   2.594   2.807 -0.3766  0.2994  0.6629
 3380SOL    HW121773   1.028   2.537   2.856  0.4485  0.4066 -0.2032
 3380SOL    HW221774   1.034   2.648   2.761  0.6278 -1.8265 -0.4318
 3381SOL     OW21775   0.029   2.417   2.637 -0.3160 -0.3391  0.1702
 3381SOL    HW121776   0.117   2.384   2.616 -1.0597 -0.9420 -2.0297
 3381SOL    HW221777   0.051   2.484   2.702 -1.7937 -0.2507  0.5635
 3382SOL     OW21778   1.903   4.528  15.699  0.1963 -0.2268  0.3050
 3382SOL    HW121779   1.858   4.584  15.762  2.4149  1.4485  0.4344
 3382SOL    HW221780   1.859   4.547  15.616 -1.8634  0.0553  1.4530
 3383SOL     OW21781   2.704   1.760   9.192  0.3688  0.3642  0.0855
 3383SOL    HW121782   2.767   1.773   9.263  1.8260  1.9237 -1.5168
 3383SOL    HW221783   2.625   1.803   9.227 -0.3164  0.0150 -1.0401
 3384SOL     OW21784   3.785   0.124   2.985 -0.0566  0.2460  0.1416
 3384SOL    HW121785   3.743   0.204   2.953  0.4022  1.5242  2.7183
 3384SOL    HW221786   3.781   0.133   3.080  1.4057 -1.1679  0.3323
 3385SOL     OW21787   1.067   1.430   6.195  0.2366  0.2027 -0.2265
 3385SOL    HW121788   1.046   1.500   6.133  0.3296  0.0077 -0.4769
 3385SOL    HW221789   1.059   1.346   6.150 -0.3861  1.8578 -3.1988
 3386SOL     OW21790   0.934   3.946   3.785 -0.4049 -0.3112 -0.6660
 3386SOL    HW121791   0.923   3.924   3.693 -1.7533 -1.1495 -0.3131
 3386SOL    HW221792   0.874   3.883   3.826  1.7348 -2.5168 -0.9508
 3387SOL     OW21793   3.947   1.066   4.018  0.4589 -0.3562  0.4875
 3387SOL    HW121794   3.932   1.157   4.043 -0.4345 -0.1725 -0.7256
 3387SOL    HW221795   3.864   1.023   4.037 -0.2880 -0.1268 -2.2569
 3388SOL     OW21796   0.824   3.397  10.578  0.7606  0.0057 -0.2565
 3388SOL    HW121797   0.777   3.344  10.514 -0.5228  2.1126 -1.0369
 3388SOL    HW221798   0.916   3.374  10.562  0.4658 -1.2201 -0.2501
 3389SOL     OW21799   1.207   1.148  12.020  0.8734 -0.0805  0.4341
 3389SOL    HW121800   1.165   1.063  12.014  2.4224 -0.8791  1.0440
 3389SOL    HW221801   1.131   1.205  12.031 -0.9039 -2.5522  0.8708
 3390SOL     OW21802   2.109   4.733   4.122  0.2762 -0.0937  0.2336
 3390SOL    HW121803   2.154   4.725   4.205  1.9859  2.0358 -0.4912
 3390SOL    HW221804   2.086   0.091   4.126 -0.6566 -0.1973 -2.2423
 3391SOL     OW21805   3.198   0.357   8.900 -0.0728 -0.1757  0.1074
 3391SOL    HW121806   3.135   0.288   8.877  0.2937 -0.4651 -0.0307
 3391SOL    HW221807   3.164   0.431   8.849  0.7643 -0.2740 -0.5834
 3392SOL     OW21808   0.691   3.193   4.927 -0.4377 -0.5194  0.2575
 3392SOL    HW121809   0.694   3.188   4.831  1.2045 -0.7590  0.3306
 3392SOL    HW221810   0.697   3.286   4.947  0.5217 -0.2666 -1.1957
 3393SOL     OW21811   0.416   3.632   6.684 -0.0091 -0.1226 -0.0903
 3393SOL    HW121812   0.482   3.653   6.750 -1.7532  0.1876  1.5763
 3393SOL    HW221813   0.336   3.641   6.736 -0.1625 -0.0985 -0.3296
 3394SOL     OW21814   3.481   4.409   9.392 -0.1812  0.4241  0.1515
 3394SOL    HW121815   3.493   4.368   9.306 -2.2957 -1.2169  0.6387
 3394SOL    HW221816   3.550   4.362   9.438  0.6666  0.1459 -1.4071
 3395SOL     OW21817   1.205   2.586  11.823  0.2124  0.5820 -0.4886
 3395SOL    HW121818   1.197   2.618  11.733 -0.0942 -0.6069 -0.8829
 3395SOL    HW221819   1.168   2.497  11.822  0.8148  0.3151  1.7316
 3396SOL     OW21820   3.246   2.190   6.397  0.3795  0.1270  0.2467
 3396SOL    HW121821   3.206   2.120   6.346 -2.1036  0.3221  1.9459
 3396SOL    HW221822   3.294   2.239   6.330  1.5525 -0.5258  0.6033
 3397SOL     OW21823   0.945   3.330  14.826 -0.3669 -0.5979  0.6353
 3397SOL    HW121824   0.873   3.385  14.795  1.0894  0.7956 -0.2874
 3397SOL    HW221825   0.977   3.381  14.901  0.3204 -0.9336  0.5689
 3398SOL     OW21826   2.214   0.771   2.300  0.4056 -0.1835  0.1483
 3398SOL    HW121827   2.197   0.857   2.263  0.1052  0.1243  1.0080
 3398SOL    HW221828   2.199   0.796   2.391 -0.3800 -0.0756 -0.0085
 3399SOL     OW21829   0.522   3.525   1.994 -0.1303  0.7198 -0.7692
 3399SOL    HW121830   0.534   3.437   1.957 -2.2375 -0.2875  0.9464
 3399SOL    HW221831   0.610   3.545   2.026 -0.2851  1.1774 -0.6285
 3400SOL     OW21832   2.551   0.342   5.279 -0.2177  0.4439 -0.2434
 3400SOL    HW121833   2.600   0.305   5.206  0.4944  0.4887  0.2114
 3400SOL    HW221834   2.584   0.432   5.284  2.5584 -0.5801 -0.7955
 3401SOL     OW21835   1.448   2.731   7.119 -0.1030  0.5782 -0.1297
 3401SOL    HW121836   1.493   2.737   7.035 -0.1630 -0.0599 -0.2034
 3401SOL    HW221837   1.435   2.636   7.120 -1.3015  0.7348 -1.5724
 3402SOL     OW21838   3.331   1.427  16.769  0.6527 -0.1172 -0.5485
 3402SOL    HW121839   3.357   1.335  16.773 -2.0878 -0.7945  1.7400
 3402SOL    HW221840   3.406   1.459  16.719  0.6886 -0.9037 -0.9953
 3403SOL     OW21841   3.036   3.896   9.299  0.3699  0.1459 -0.0191
 3403SOL    HW121842   3.012   3.942   9.218  0.8477 -1.1860 -0.9293
 3403SOL    HW221843   2.952   3.852   9.313  0.1913  0.5499  0.1849
 3404SOL     OW21844   0.377   2.171  10.410  0.1661 -0.5113  0.2048
 3404SOL    HW121845   0.298   2.163  10.462 -0.3442  0.1070 -0.4680
 3404SOL    HW221846   0.374   2.079  10.384  0.5253 -0.2021 -0.9619
 3405SOL     OW21847   2.473   3.204   2.055  0.5577  0.3732 -0.9627
 3405SOL    HW121848   2.513   3.131   2.102  0.3980  0.0236 -1.3713
 3405SOL    HW221849   2.473   3.268   2.126  0.0814  0.6485 -1.2092
 3406SOL     OW21850   0.813   2.311  13.750  0.0392 -0.1364 -0.4133
 3406SOL    HW121851   0.762   2.230  13.753 -1.6494  0.9543  0.0434
 3406SOL    HW221852   0.801   2.328  13.657  2.5021  3.5395 -0.0489
 3407SOL     OW21853   1.736   2.201   7.466  0.4476  0.4162  0.5094
 3407SOL    HW121854   1.729   2.170   7.375 -0.6116 -2.1812  1.4852
 3407SOL    HW221855   1.822   2.243   7.473  1.4544 -1.5786  0.0525
 3408SOL     OW21856   0.940   1.876  12.658 -0.3458  0.7452 -0.2708
 3408SOL    HW121857   0.930   1.963  12.697 -0.5342 -0.5680  2.6620
 3408SOL    HW221858   1.009   1.883  12.592  0.7207  0.0840  0.7686
 3409SOL     OW21859   1.325   0.719   6.903  0.5696  0.0118 -0.2012
 3409SOL    HW121860   1.299   0.685   6.817 -3.3522  0.8355  0.6807
 3409SOL    HW221861   1.277   0.667   6.967  0.0224 -0.8677 -1.3335
 3410SOL     OW21862   1.921   2.626   6.793 -0.2026 -0.0219 -0.3529
 3410SOL    HW121863   1.934   2.669   6.708 -0.4705  0.1174 -0.3232
 3410SOL    HW221864   1.903   2.535   6.773  2.2603 -0.4467 -0.6056
 3411SOL     OW21865   2.902   3.092   3.547  0.0518  0.3705 -0.3996
 3411SOL    HW121866   2.911   3.000   3.522 -0.2216  0.2857 -0.1864
 3411SOL    HW221867   2.814   3.123   3.525 -0.4342 -0.2231  0.7084
 3412SOL     OW21868   0.756   0.675  10.511 -0.1388 -0.3409  0.8249
 3412SOL    HW121869   0.684   0.725  10.550 -1.1428 -1.4123  0.3366
 3412SOL    HW221870   0.787   0.740  10.448  0.7075 -1.7826 -0.2565
 3413SOL     OW21871   2.274   3.968   2.528 -0.1933  0.7048 -0.1409
 3413SOL    HW121872   2.197   3.914   2.516 -0.6463  1.1180  0.9033
 3413SOL    HW221873   2.296   3.977   2.435  1.8645  4.1515  0.6618
 3414SOL     OW21874   0.700   2.976   2.965 -0.3168 -0.4893  0.6993
 3414SOL    HW121875   0.682   2.944   3.054 -1.7489 -0.4743  0.4096
 3414SOL    HW221876   0.793   2.954   2.956 -0.0277  1.1742 -0.4365
 3415SOL     OW21877   1.505   3.521   5.226  0.2304 -0.6557 -0.0740
 3415SOL    HW121878   1.533   3.609   5.201  2.7710 -0.8562  2.0650
 3415SOL    HW221879   1.410   3.532   5.235  0.1925 -0.2486 -0.9823
 3416SOL     OW21880   3.046   0.563   1.585  0.1526  0.3112 -0.3002
 3416SOL    HW121881   3.061   0.651   1.618  0.3507 -0.3505  1.3752
 3416SOL    HW221882   3.131   0.524   1.564 -1.0097 -2.7387  0.7516
 3417SOL     OW21883   3.426   1.020   3.187  0.0102 -0.3795 -0.3263
 3417SOL    HW121884   3.391   1.106   3.163  3.7204  1.6374  1.3852
 3417SOL    HW221885   3.437   0.983   3.099  1.0973  2.6417 -1.4590
 3418SOL     OW21886   3.153   2.678  10.191  0.2027  0.0067 -0.1234
 3418SOL    HW121887   3.161   2.766  10.226  1.3118  0.0204 -0.4122
 3418SOL    HW221888   3.127   2.700  10.101  0.6585 -2.5034 -0.8930
 3419SOL     OW21889   4.320   2.323   3.770 -0.3367  0.5533  0.0652
 3419SOL    HW121890   4.360   2.405   3.740  1.1975  0.1862  1.1194
 3419SOL    HW221891   4.345   2.269   3.695 -2.8291 -2.6548  1.5353
 3420SOL     OW21892   1.433   1.833   7.600  0.1790  0.8289 -0.0019
 3420SOL    HW121893   1.347   1.815   7.637 -0.4514  0.4507 -1.6340
 3420SOL    HW221894   1.490   1.830   7.676  0.1946  0.2175 -0.0405
 3421SOL     OW21895   4.233   1.296   8.380 -0.4514  0.5981  0.7980
 3421SOL    HW121896   4.172   1.223   8.393 -1.6197  1.3915 -0.2483
 3421SOL    HW221897   4.316   1.251   8.397 -0.2289  0.3773 -0.8421
 3422SOL     OW21898   0.691   3.809   2.661  0.1673  0.4127 -0.0568
 3422SOL    HW121899   0.711   3.817   2.754  1.1441  1.1012 -0.3254
 3422SOL    HW221900   0.732   3.889   2.629 -0.5906  0.4297 -0.9913
 3423SOL     OW21901   2.054   2.182   9.288  0.1372 -0.0608  0.4884
 3423SOL    HW121902   1.978   2.188   9.347 -0.7802  0.4212 -0.7506
 3423SOL    HW221903   2.124   2.173   9.353  1.3936  3.1838 -0.4479
 3424SOL     OW21904   3.170   3.459  16.138 -0.0018  0.6176 -0.6333
 3424SOL    HW121905   3.199   3.375  16.103 -2.2807  0.0603 -1.1815
 3424SOL    HW221906   3.116   3.487  16.065  0.1206 -1.4826 -1.5440
 3425SOL     OW21907   0.620   2.839  13.830  0.2199 -0.7189  0.4518
 3425SOL    HW121908   0.652   2.755  13.795  1.8544 -0.3851  1.1867
 3425SOL    HW221909   0.690   2.903  13.843  2.2296 -2.5017 -1.5492
 3426SOL     OW21910   4.473   2.708   6.673  0.1607  0.1398 -0.1699
 3426SOL    HW121911   4.481   2.752   6.757 -0.1804  1.6152 -0.9165
 3426SOL    HW221912   4.477   2.614   6.693 -0.7599 -0.3637 -2.2424
 3427SOL     OW21913   3.896   1.122  11.019  0.4501  0.4785 -0.2300
 3427SOL    HW121914   3.851   1.056  10.965  0.7675  0.8468 -0.9364
 3427SOL    HW221915   3.924   1.186  10.954 -0.6336  0.5754 -0.5965
 3428SOL     OW21916   1.754   1.218   6.750 -0.1418 -0.2133 -0.3782
 3428SOL    HW121917   1.724   1.175   6.669 -0.6388  0.4346 -0.5394
 3428SOL    HW221918   1.819   1.154   6.780 -2.3713 -3.0688 -1.5697
 3429SOL     OW21919   1.785   1.398   5.997  0.2598 -0.4396  0.1422
 3429SOL    HW121920   1.824   1.345   6.066 -2.0174 -1.1137  0.9281
 3429SOL    HW221921   1.777   1.483   6.040 -1.0302  0.0897 -1.1424
 3430SOL     OW21922   0.344   2.630   7.781  0.6372  0.6087 -0.0831
 3430SOL    HW121923   0.414   2.664   7.725  0.6501 -1.1256 -1.1255
 3430SOL    HW221924   0.277   2.698   7.771 -0.9827 -1.1208 -0.9370
 3431SOL     OW21925   0.931   3.861  17.115  0.2198  0.5594 -0.2142
 3431SOL    HW121926   0.881   3.925  17.166  0.2499 -0.2961  0.8914
 3431SOL    HW221927   1.005   3.918  17.097  0.0334  0.4414 -1.3884
 3432SOL     OW21928   2.976   3.748   2.287  0.3107 -0.4681 -0.1280
 3432SOL    HW121929   3.057   3.784   2.323  0.7615 -1.1341 -0.4674
 3432SOL    HW221930   2.953   3.674   2.343 -1.3800 -0.4163 -0.7552
 3433SOL     OW21931   4.433   3.072   8.811  0.0303 -0.7581  0.5416
 3433SOL    HW121932   4.496   3.100   8.744  1.9191  2.5143  3.6553
 3433SOL    HW221933   4.349   3.112   8.788 -0.6002 -2.1507  0.4570
 3434SOL     OW21934   0.837   4.728  14.289  0.5452 -0.1120 -0.5834
 3434SOL    HW121935   0.815   4.715  14.196 -0.7507  0.4306 -0.3396
 3434SOL    HW221936   0.808   4.646  14.328 -1.2322  0.4141 -0.8021
 3435SOL     OW21937   0.545   0.873   8.504 -0.4433 -0.1910  0.4853
 3435SOL    HW121938   0.597   0.793   8.510 -3.0602 -1.7895  1.9454
 3435SOL    HW221939   0.457   0.847   8.477  0.1744 -1.3180 -0.4290
 3436SOL     OW21940   0.797   2.680   8.444  0.1298  0.4825 -0.2440
 3436SOL    HW121941   0.880   2.712   8.480 -0.3284  0.4948  0.8145
 3436SOL    HW221942   0.812   2.682   8.350 -1.4008  0.4719 -0.4817
 3437SOL     OW21943   2.123   3.364   7.781 -0.4654 -0.1760  0.2586
 3437SOL    HW121944   2.206   3.329   7.748 -0.8011 -1.4658  0.7968
 3437SOL    HW221945   2.076   3.283   7.801  0.4899 -1.2927 -2.0489
 3438SOL     OW21946   1.021   4.174  17.286 -0.4706 -0.5694 -0.7130
 3438SOL    HW121947   1.054   4.161  17.375 -2.1325  1.1013  0.1367
 3438SOL    HW221948   1.100   4.135  17.249 -0.1155 -1.4562  0.9650
 3439SOL     OW21949   4.117   3.975   6.602 -0.4087  0.0215  0.5522
 3439SOL    HW121950   4.098   4.033   6.675 -1.8386 -1.0023  0.9893
 3439SOL    HW221951   4.065   4.018   6.535 -0.4338 -0.7699  0.0622
 3440SOL     OW21952   0.596   3.342  10.420  0.6813 -0.4203 -0.5724
 3440SOL    HW121953   0.582   3.285  10.495  1.1830  1.5739  1.0150
 3440SOL    HW221954   0.588   3.276  10.351  3.0563  0.7476 -1.9622
 3441SOL     OW21955   0.974   3.251  14.466  0.2097  0.1849 -0.0956
 3441SOL    HW121956   0.902   3.211  14.515 -0.6178  1.4335 -0.2925
 3441SOL    HW221957   0.979   3.335  14.510  4.2316 -0.8225  1.3985
 3442SOL     OW21958   1.524   4.169   6.467  0.3631 -0.1650  0.7804
 3442SOL    HW121959   1.512   4.154   6.373 -1.0009  1.9968  0.6217
 3442SOL    HW221960   1.620   4.167   6.476  0.2496 -3.0037  1.3859
 3443SOL     OW21961   0.180   2.798   0.708 -0.6950 -0.4829 -0.0271
 3443SOL    HW121962   0.173   2.810   0.802 -0.3807 -2.4059  0.2414
 3443SOL    HW221963   0.267   2.836   0.694  0.3068 -2.1183  1.7041
 3444SOL     OW21964   1.443   0.169   6.030  0.5153 -1.1907 -0.0096
 3444SOL    HW121965   1.497   0.238   6.070 -0.7020 -1.1281  1.5172
 3444SOL    HW221966   1.484   0.086   6.054  0.1011 -1.8889 -1.7223
 3445SOL     OW21967   1.582   2.878   2.614  0.2169  0.2624 -0.7055
 3445SOL    HW121968   1.630   2.876   2.531  3.2397  0.3654  1.0729
 3445SOL    HW221969   1.501   2.927   2.596  0.2020  0.2094 -0.7839
 3446SOL     OW21970   2.998   1.043   9.554 -0.1361 -0.0423 -0.0989
 3446SOL    HW121971   3.048   1.087   9.624  0.6683  2.0267 -1.9886
 3446SOL    HW221972   2.964   1.118   9.505 -1.1763 -0.9579 -0.7850
 3447SOL     OW21973   0.288   3.639   3.817 -0.8825 -0.1057 -0.3849
 3447SOL    HW121974   0.344   3.704   3.776  1.1914 -1.7970 -0.2319
 3447SOL    HW221975   0.347   3.564   3.828 -0.4582  0.5591  2.0370
 3448SOL     OW21976   2.483   1.633   7.174  0.2940  0.1047 -0.3376
 3448SOL    HW121977   2.453   1.617   7.084 -0.9813  0.7159 -0.0150
 3448SOL    HW221978   2.432   1.566   7.219  3.1580 -1.3311  0.7407
 3449SOL     OW21979   2.976   2.621   6.431  0.1156  0.4396 -0.4999
 3449SOL    HW121980   3.019   2.663   6.507  1.7121 -0.6541 -0.7968
 3449SOL    HW221981   2.893   2.597   6.472  0.9667  0.2468  1.1129
 3450SOL     OW21982   0.803   0.092   7.003 -0.1426 -0.3453 -0.0975
 3450SOL    HW121983   0.882   0.111   7.054  0.4635 -1.8632 -0.4745
 3450SOL    HW221984   0.828   0.095   6.911  0.9753 -3.2192  0.1258
 3451SOL     OW21985   0.123   0.219   3.603 -0.7904  0.3935 -0.6352
 3451SOL    HW121986   0.054   0.286   3.603 -0.3227  0.8869  1.7157
 3451SOL    HW221987   0.170   0.249   3.525 -0.7176  3.2183  0.4831
 3452SOL     OW21988   3.369   2.132   2.695 -0.1921 -0.3926 -0.2036
 3452SOL    HW121989   3.326   2.145   2.779  2.3150 -0.5884  1.1134
 3452SOL    HW221990   3.341   2.041   2.689 -1.1744 -0.1669  0.9581
 3453SOL     OW21991   3.436   4.107   1.484 -0.5083 -0.0258 -0.3440
 3453SOL    HW121992   3.502   4.045   1.515  0.9367  2.3760  1.3716
 3453SOL    HW221993   3.428   4.086   1.391 -1.8431  1.7865 -0.6480
 3454SOL     OW21994   0.827   3.180   0.639  0.0627  0.2201  0.5775
 3454SOL    HW121995   0.737   3.168   0.610  0.6843 -0.2385 -1.1457
 3454SOL    HW221996   0.800   3.213   0.725  1.1079 -1.5440  1.5938
 3455SOL     OW21997   0.136   4.633   6.887  0.0189  0.3767  0.0103
 3455SOL    HW121998   0.227   4.606   6.902  0.1182  0.8595  0.2668
 3455SOL    HW221999   0.106   4.567   6.825 -2.0802  2.9431 -1.6893
 3456SOL     OW22000   4.324   0.078   1.291  0.8128 -0.0204 -0.0318
 3456SOL    HW122001   4.241   0.075   1.243 -0.1061 -1.0681  1.6152
 3456SOL    HW222002   4.306   0.113   1.378  3.1151 -0.3934  0.5944
 3457SOL     OW22003   2.688   2.057   3.578  0.3733  0.2292  0.3357
 3457SOL    HW122004   2.776   2.054   3.540  0.1183  0.8727 -0.3084
 3457SOL    HW222005   2.672   2.152   3.579  0.4288  0.2375  0.3849
 3458SOL     OW22006   2.692   1.992   9.682 -0.7844 -0.8887  0.8100
 3458SOL    HW122007   2.694   1.924   9.750 -1.5044  0.1173  1.8481
 3458SOL    HW222008   2.759   2.052   9.715 -1.3971 -0.0344  0.4825
 3459SOL     OW22009   2.147   4.051  17.438 -0.6469  0.2563 -0.9583
 3459SOL    HW122010   2.135   4.000  17.358  0.9509  0.3999 -1.2726
 3459SOL    HW222011   2.078   4.117  17.422  0.0036  0.4739 -2.8111
 3460SOL     OW22012   0.707   2.466  17.637 -0.5179 -0.6112  0.0967
 3460SOL    HW122013   0.786   2.520  17.643 -0.3648 -1.0965  2.5072
 3460SOL    HW222014   0.652   2.508  17.703 -0.6926  1.4925 -1.3862
 3461SOL     OW22015   0.859   0.975   2.383 -0.1577 -0.2073 -0.5811
 3461SOL    HW122016   0.861   1.071   2.380 -0.3053 -0.2184 -1.2160
 3461SOL    HW222017   0.884   0.952   2.294  2.5269  0.4716  0.0159
 3462SOL     OW22018   0.976   4.408   6.071  0.3269 -0.1285 -0.3532
 3462SOL    HW122019   0.972   4.319   6.104 -1.5708  0.6034  1.3950
 3462SOL    HW222020   0.888   4.440   6.092  1.1311 -0.2850  3.2434
 3463SOL     OW22021   0.731   2.009   1.627 -0.4079 -0.3596 -0.4912
 3463SOL    HW122022   0.698   2.093   1.659 -0.0806 -0.5684  0.3979
 3463SOL    HW222023   0.659   1.951   1.653  1.9174 -1.6582  3.0735
 3464SOL     OW22024   3.254   0.082   0.035 -0.6312  0.5706  0.2970
 3464SOL    HW122025   3.166   0.111   0.057 -0.7686 -0.3535  0.9544
 3464SOL    HW222026   3.256   0.011   0.099  0.5058 -0.6138 -1.0395
 3465SOL     OW22027   3.644   3.906  10.104 -1.1603 -0.3142 -0.3096
 3465SOL    HW122028   3.660   3.861  10.187  0.9508  1.8871  0.4951
 3465SOL    HW222029   3.605   3.991  10.125  0.0805 -0.0888  1.0997
 3466SOL     OW22030   3.142   2.898   4.452  0.5085  0.5938  0.0945
 3466SOL    HW122031   3.116   2.810   4.480 -2.2929  1.8388  1.4964
 3466SOL    HW222032   3.105   2.952   4.522  1.4612 -1.5924  2.2941
 3467SOL     OW22033   0.846   3.102  14.976  0.0778 -0.1122  0.2891
 3467SOL    HW122034   0.753   3.098  14.956  0.4062 -2.1306 -0.8061
 3467SOL    HW222035   0.885   3.137  14.895 -2.2997 -1.7672 -1.5693
 3468SOL     OW22036   0.501   2.725  17.573 -0.2340 -0.1332 -0.9764
 3468SOL    HW122037   0.405   2.718  17.580 -0.3013  1.0048 -0.6799
 3468SOL    HW222038   0.531   2.698  17.659 -1.4516  2.4267  0.2572
 3469SOL     OW22039   2.742   1.290   2.321  0.1423 -0.4591 -0.0548
 3469SOL    HW122040   2.792   1.263   2.398 -0.3433 -1.1256  0.0305
 3469SOL    HW222041   2.718   1.377   2.351 -1.0234 -1.4183  1.8092
 3470SOL     OW22042   2.439   3.297   4.630 -0.8747  0.1197  0.4218
 3470SOL    HW122043   2.532   3.273   4.636 -1.3460 -1.6599  0.4233
 3470SOL    HW222044   2.405   3.251   4.707 -1.6279  0.0944  0.0684
 3471SOL     OW22045   2.916   4.628   1.767 -0.4233 -0.3124  0.0171
 3471SOL    HW122046   2.975   4.701   1.752  0.7857 -1.6139 -1.5779
 3471SOL    HW222047   2.909   4.603   1.675  0.6383  1.5414 -0.5744
 3472SOL     OW22048   3.023   4.715   3.013  0.1412 -0.4944 -0.1315
 3472SOL    HW122049   2.946   0.014   2.967  0.9712  2.5456  0.6970
 3472SOL    HW222050   2.986   4.715   3.101 -1.3797 -1.0291 -0.7738
 3473SOL     OW22051   0.441   1.014   5.819  0.0467  0.4286  0.9569
 3473SOL    HW122052   0.513   1.076   5.803  0.4985  0.1676  1.9693
 3473SOL    HW222053   0.454   1.002   5.913 -0.3742 -0.5461  0.8905
 3474SOL     OW22054   2.861   2.750   1.685 -0.3821  0.0590  0.0779
 3474SOL    HW122055   2.876   2.660   1.715  1.7574  1.2215  2.5077
 3474SOL    HW222056   2.903   2.811   1.746  0.5751  1.7845 -2.3002
 3475SOL     OW22057   2.028   4.356  11.330  0.3385 -0.2081  0.6306
 3475SOL    HW122058   2.019   4.322  11.419  0.9592  0.6196  1.0106
 3475SOL    HW222059   2.028   4.275  11.279 -0.6866  0.4447 -0.3970
 3476SOL     OW22060   4.037   1.663   2.990  0.2190 -0.2864 -0.1781
 3476SOL    HW122061   4.030   1.574   3.023 -0.8218 -0.6209 -1.2687
 3476SOL    HW222062   3.984   1.717   3.049 -1.1338 -1.3670 -0.4073
 3477SOL     OW22063   2.081   1.677  15.606 -0.3736 -0.4717 -0.0308
 3477SOL    HW122064   2.048   1.589  15.628  0.3392 -0.8530 -0.4953
 3477SOL    HW222065   2.033   1.696  15.525 -1.3429  0.0116  0.6534
 3478SOL     OW22066   0.620   1.310   4.304 -0.0471  0.1308 -0.2055
 3478SOL    HW122067   0.655   1.311   4.393  0.9361 -1.6995 -0.5795
 3478SOL    HW222068   0.553   1.379   4.307 -1.7796 -1.4547 -1.8647
 3479SOL     OW22069   1.459   3.147  14.181  0.0863  0.1917  0.1094
 3479SOL    HW122070   1.400   3.150  14.256  0.1520  1.7561  0.1016
 3479SOL    HW222071   1.535   3.189  14.221  0.6385  0.4128 -1.1708
 3480SOL     OW22072   1.368   1.802  14.537 -0.0678  0.0526  0.3041
 3480SOL    HW122073   1.411   1.831  14.617  1.8791 -0.5694 -0.5221
 3480SOL    HW222074   1.277   1.830  14.544 -0.0609  0.6411 -1.7886
 3481SOL     OW22075   3.338   4.608  10.711 -0.0095 -0.2001  0.2865
 3481SOL    HW122076   3.392   4.567  10.644 -1.3495 -0.6740 -0.5017
 3481SOL    HW222077   3.375   4.568  10.790 -2.0590  2.1177  2.4113
 3482SOL     OW22078   1.780   2.913   1.315 -0.3882 -0.2385 -0.4323
 3482SOL    HW122079   1.838   2.880   1.384  0.4145 -0.1611 -1.0607
 3482SOL    HW222080   1.695   2.900   1.357 -0.1145 -1.2154 -0.1710
 3483SOL     OW22081   0.043   3.917  13.056 -0.2572 -0.2807  0.0565
 3483SOL    HW122082   0.074   3.891  12.969  1.9886 -0.1574  0.8373
 3483SOL    HW222083   0.076   3.844  13.110  0.2201  0.0493  0.2073
 3484SOL     OW22084   2.290   2.875  16.426 -0.1090 -0.0495 -0.3164
 3484SOL    HW122085   2.229   2.947  16.412  1.8816  1.4886 -1.1311
 3484SOL    HW222086   2.302   2.895  16.519 -0.5005 -0.9332 -0.0706
 3485SOL     OW22087   4.674   0.656  11.549 -0.0384  0.4471  0.5822
 3485SOL    HW122088   4.601   0.711  11.519  0.5665  0.5278 -0.7094
 3485SOL    HW222089   4.632   0.595  11.611 -0.5397  0.9858  0.7698
 3486SOL     OW22090   3.041   3.662   7.494  0.4421  0.1808 -0.4287
 3486SOL    HW122091   3.094   3.611   7.556 -0.6374  0.4715  0.7381
 3486SOL    HW222092   2.957   3.650   7.537  1.9201 -2.3927  1.7815
 3487SOL     OW22093   0.931   1.174   2.814 -0.0045  0.5173 -0.1008
 3487SOL    HW122094   1.017   1.147   2.848 -1.0170 -2.4341  0.1670
 3487SOL    HW222095   0.880   1.111   2.865 -0.6469  0.1454 -1.2075
 3488SOL     OW22096   4.420   2.100   1.737  0.3126 -0.8142 -0.1268
 3488SOL    HW122097   4.324   2.100   1.743  0.3032  0.2071 -0.3077
 3488SOL    HW222098   4.447   2.009   1.749  3.2632 -0.1330 -1.6683
 3489SOL     OW22099   1.159   3.409   5.351 -0.3636  0.3562  0.2320
 3489SOL    HW122100   1.071   3.431   5.320 -0.7455  0.8335  1.6363
 3489SOL    HW222101   1.169   3.317   5.330  0.6435  0.6375 -0.5358
 3490SOL     OW22102   4.116   4.247   2.149  0.7437  0.4966 -0.5646
 3490SOL    HW122103   4.185   4.266   2.085  0.2383 -0.8880 -1.5090
 3490SOL    HW222104   4.081   4.163   2.119  2.3850 -0.6102  0.6104
 3491SOL     OW22105   0.798   0.002   4.655 -0.3930  0.3289  0.0424
 3491SOL    HW122106   0.893   0.003   4.663 -0.2332  0.3291 -1.9283
 3491SOL    HW222107   0.766   0.046   4.734  1.4221  0.5792  0.6497
 3492SOL     OW22108   3.950   1.461   7.025 -0.2833  0.0742  0.0574
 3492SOL    HW122109   4.004   1.486   7.100 -1.9840  1.2998  0.8840
 3492SOL    HW222110   3.899   1.392   7.067 -0.4647 -0.3181 -0.8248
 3493SOL     OW22111   3.564   1.840  13.196 -0.2585 -0.5922  0.2470
 3493SOL    HW122112   3.469   1.855  13.196 -0.1951 -0.1961  0.0254
 3493SOL    HW222113   3.571   1.867  13.288  1.9376  1.5811 -0.5710
 3494SOL     OW22114   0.900   1.840   9.116  0.5153  0.6240  0.1100
 3494SOL    HW122115   0.835   1.770   9.129 -0.7299  0.8273 -5.3048
 3494SOL    HW222116   0.942   1.822   9.200 -0.0388  1.5610  0.5923
 3495SOL     OW22117   0.019   4.514   5.447  0.2563  0.1140 -0.3716
 3495SOL    HW122118   0.112   4.501   5.467  0.7877  1.8331 -1.8478
 3495SOL    HW222119   0.022   4.608   5.433 -0.7534 -0.2982 -3.2030
 3496SOL     OW22120   4.673   4.030   1.379 -0.4239 -0.3655 -0.6116
 3496SOL    HW122121   4.616   4.019   1.302  0.2844  0.1232 -1.2055
 3496SOL    HW222122   4.623   3.969   1.433  0.2551  0.3741  0.8244
 3497SOL     OW22123   2.482   2.949   9.168  0.4655 -0.6829  0.2492
 3497SOL    HW122124   2.513   2.862   9.194 -0.6674 -0.9964  0.5510
 3497SOL    HW222125   2.529   3.002   9.232 -0.3701  0.4976 -0.1335
 3498SOL     OW22126   0.907   2.623   2.519 -0.3059  0.1470  0.3532
 3498SOL    HW122127   0.996   2.610   2.486 -0.8510 -0.0959 -1.0370
 3498SOL    HW222128   0.927   2.618   2.613 -1.0287 -1.4647  0.4211
 3499SOL     OW22129   4.491   3.811   2.572  0.6737 -0.2387 -0.4767
 3499SOL    HW122130   4.560   3.745   2.579 -0.3877 -1.2757  0.2328
 3499SOL    HW222131   4.532   3.886   2.615  2.6308 -1.5249 -0.1204
 3500SOL     OW22132   3.143   3.923   7.616 -0.0127 -0.2185  0.0242
 3500SOL    HW122133   3.083   3.865   7.570  0.0675  0.3707 -0.8271
 3500SOL    HW222134   3.179   3.866   7.684 -1.6721  0.9708  1.8801
 3501SOL     OW22135   2.734   0.901   7.200  0.9185  0.0010 -0.5345
 3501SOL    HW122136   2.759   0.810   7.211 -1.4536 -1.1772 -5.1255
 3501SOL    HW222137   2.740   0.919   7.294 -0.4384  1.8803 -0.8030
 3502SOL     OW22138   0.151   0.790   0.564  0.3224 -1.1915  0.2133
 3502SOL    HW122139   0.204   0.769   0.641  0.8761  0.4298  0.2783
 3502SOL    HW222140   0.154   0.886   0.574  0.3990 -1.1647 -0.0617
 3503SOL     OW22141   3.475   4.318   4.764  0.1612  0.0972 -0.4385
 3503SOL    HW122142   3.422   4.258   4.817  0.9798  1.2677  1.7483
 3503SOL    HW222143   3.409   4.388   4.762 -0.9012 -0.8900 -0.1692
 3504SOL     OW22144   0.486   0.054   6.931 -0.0587  0.1861 -0.2199
 3504SOL    HW122145   0.502   4.695   6.915  0.6728 -0.0802  2.0344
 3504SOL    HW222146   0.572   0.091   6.910 -0.3299  0.1776 -1.3296
 3505SOL     OW22147   3.238   1.211   4.028 -0.4591 -0.4773 -0.2528
 3505SOL    HW122148   3.307   1.276   4.014  1.1469 -2.5105 -1.8013
 3505SOL    HW222149   3.217   1.230   4.119  2.8667  0.3007  0.3576
 3506SOL     OW22150   1.514   4.458   4.277 -0.0310 -0.4191 -0.4643
 3506SOL    HW122151   1.605   4.489   4.282  0.2988 -1.4988  0.2130
 3506SOL    HW222152   1.505   4.423   4.366  0.6632 -0.9691 -0.6084
 3507SOL     OW22153   1.173   4.063  15.907 -0.0523 -0.4070 -0.0387
 3507SOL    HW122154   1.134   4.147  15.932  2.0576  0.7212 -0.5169
 3507SOL    HW222155   1.256   4.100  15.875 -0.4683 -1.0556 -1.8898
 3508SOL     OW22156   4.304   3.191  12.143 -0.3179  0.6462  0.0025
 3508SOL    HW122157   4.263   3.273  12.119 -0.7239  0.9739  1.7775
 3508SOL    HW222158   4.296   3.196  12.239  0.2345  0.2303  0.0763
 3509SOL     OW22159   2.515   0.408   7.644 -0.2846  0.5973  0.2307
 3509SOL    HW122160   2.591   0.413   7.586 -0.2904  1.6472  0.3143
 3509SOL    HW222161   2.511   0.500   7.671  1.6217  0.5885  0.6134
 3510SOL     OW22162   1.396   1.985   3.328 -0.2777 -0.3233 -0.3661
 3510SOL    HW122163   1.418   1.941   3.246  1.3899 -0.8303  0.3458
 3510SOL    HW222164   1.302   1.998   3.315 -0.3975  0.5069  1.2540
 3511SOL     OW22165   2.138   1.778   8.942 -0.2207 -0.2759 -0.0785
 3511SOL    HW122166   2.170   1.768   9.032  1.1024  1.4744 -0.3642
 3511SOL    HW222167   2.063   1.837   8.957  0.8855  1.2186 -0.4515
 3512SOL     OW22168   2.919   2.885   6.061  0.3824  0.2085  0.3793
 3512SOL    HW122169   2.899   2.855   6.149  2.4629 -0.5557  0.5844
 3512SOL    HW222170   3.014   2.870   6.057  0.2568 -0.0237 -1.5742
 3513SOL     OW22171   3.217   3.558   8.462  0.0221  0.3999  0.3634
 3513SOL    HW122172   3.124   3.549   8.444 -0.0236 -1.5050  1.6053
 3513SOL    HW222173   3.226   3.520   8.549 -1.8064  2.2915  1.3820
 3514SOL     OW22174   4.595   1.402   1.852  0.4667  0.4517 -0.2136
 3514SOL    HW122175   4.686   1.387   1.876  0.0351  0.0713  1.2174
 3514SOL    HW222176   4.562   1.312   1.860 -2.7089  1.4718 -2.0104
 3515SOL     OW22177   0.428   1.281   8.451 -0.1198 -0.4401  0.0066
 3515SOL    HW122178   0.364   1.227   8.405  0.1051  0.4497 -1.3440
 3515SOL    HW222179   0.433   1.233   8.534  2.4086  0.4762  0.4007
 3516SOL     OW22180   4.252   1.845   9.890  0.1754 -0.0103  0.5044
 3516SOL    HW122181   4.324   1.907   9.900 -0.8409  1.0185  1.6337
 3516SOL    HW222182   4.285   1.773   9.838 -1.3274 -0.3506  0.0187
 3517SOL     OW22183   1.446   0.580   1.951  0.1448  0.5419  0.6152
 3517SOL    HW122184   1.498   0.654   1.921 -0.2813  0.1171 -1.1648
 3517SOL    HW222185   1.500   0.509   1.918 -3.5065 -1.7598 -0.4454
 3518SOL     OW22186   0.610   1.509   8.706 -0.0698  0.5329  0.4201
 3518SOL    HW122187   0.583   1.554   8.786  0.1699  0.1967  0.6874
 3518SOL    HW222188   0.660   1.575   8.659  0.5714 -1.0323 -1.0987
 3519SOL     OW22189   3.816   3.348   1.286  0.0980  0.4020  0.2230
 3519SOL    HW122190   3.885   3.357   1.352 -0.4133  1.5056  0.5981
 3519SOL    HW222191   3.867   3.331   1.207 -0.4564 -3.5191  0.7046
 3520SOL     OW22192   3.709   3.581   7.575 -0.1409  0.2227  0.2718
 3520SOL    HW122193   3.677   3.498   7.539  0.8551 -0.0393  0.0057
 3520SOL    HW222194   3.686   3.631   7.497 -3.1077  0.4955  1.3199
 3521SOL     OW22195   0.818   2.025   4.955  0.3521 -0.2790  0.2723
 3521SOL    HW122196   0.894   1.973   4.981  1.6948  0.7623 -1.5267
 3521SOL    HW222197   0.837   2.109   4.997  0.7555 -1.1194  1.7742
 3522SOL     OW22198   3.751   3.942   5.223 -0.2898  0.6417 -0.8337
 3522SOL    HW122199   3.716   3.853   5.225  0.2478  0.4464 -0.1532
 3522SOL    HW222200   3.834   3.935   5.270 -0.5623  1.5841 -0.2119
 3523SOL     OW22201   0.057   1.840   7.077  0.2499  0.4886  0.8391
 3523SOL    HW122202   0.105   1.777   7.022 -0.8849  0.1447  0.2513
 3523SOL    HW222203   0.125   1.903   7.101  0.2804  0.6319  0.3892
 3524SOL     OW22204   4.203   0.557  16.626  0.0431  0.2571  0.0463
 3524SOL    HW122205   4.197   0.635  16.572 -0.4074 -0.6909 -1.2817
 3524SOL    HW222206   4.212   0.497  16.551 -1.6047  0.0646 -0.0169
 3525SOL     OW22207   1.725   0.098   4.881 -0.5151 -0.0588  0.0052
 3525SOL    HW122208   1.734   0.009   4.914  1.9184  0.4748  0.8243
 3525SOL    HW222209   1.667   0.079   4.808 -1.3208 -0.3619  0.7268
 3526SOL     OW22210   3.738   0.027   7.828  0.0252  0.0452 -0.6343
 3526SOL    HW122211   3.692   0.022   7.744 -0.2425  0.9699 -0.5384
 3526SOL    HW222212   3.734   0.122   7.832 -1.4507 -0.0660  0.5841
 3527SOL     OW22213   4.397   3.139  11.878  0.6017  0.7953  0.1720
 3527SOL    HW122214   4.353   3.182  11.952  3.2880  2.4399  0.8070
 3527SOL    HW222215   4.428   3.212  11.824 -0.9164  0.5695 -1.0004
 3528SOL     OW22216   2.206   0.326   4.683 -0.4422  0.4303 -0.4653
 3528SOL    HW122217   2.162   0.409   4.701 -0.1279  0.2636  1.0180
 3528SOL    HW222218   2.147   0.256   4.711  0.5206  0.4122  1.5106
 3529SOL     OW22219   4.370   1.817   5.406 -0.1970  0.5276  0.4797
 3529SOL    HW122220   4.349   1.879   5.337 -2.1488 -1.9760 -1.1866
 3529SOL    HW222221   4.352   1.878   5.478 -0.1887 -0.8373  1.6562
 3530SOL     OW22222   0.637   2.726  12.003 -0.0093  0.0416  0.1901
 3530SOL    HW122223   0.640   2.665  12.077 -2.2657  0.2670  0.4569
 3530SOL    HW222224   0.728   2.730  11.974 -0.4833 -1.8305 -1.4864
 3531SOL     OW22225   0.341   2.803   4.171 -0.3139 -0.1044  0.5840
 3531SOL    HW122226   0.353   2.898   4.173  1.9564 -0.4027  1.9183
 3531SOL    HW222227   0.311   2.790   4.261  0.0594 -0.8384  0.6061
 3532SOL     OW22228   2.680   1.090   5.630 -0.1661  0.4189  0.1845
 3532SOL    HW122229   2.706   1.012   5.680 -2.0080 -1.3044 -1.5454
 3532SOL    HW222230   2.660   1.148   5.704  0.5406 -0.5104  1.1116
 3533SOL     OW22231   4.667   0.933   7.377 -0.4723  0.4760 -0.3241
 3533SOL    HW122232   4.605   0.878   7.424 -1.3659 -0.6816 -2.8559
 3533SOL    HW222233   0.008   0.875   7.370  0.7400  2.0452 -0.1961
 3534SOL     OW22234   2.686   1.243   6.468  0.5760  0.0219 -0.0701
 3534SOL    HW122235   2.762   1.283   6.427  1.6784 -1.3101  0.6778
 3534SOL    HW222236   2.722   1.169   6.517  0.6754 -0.3406 -0.6884
 3535SOL     OW22237   4.544   3.220  13.141  0.0553 -0.0260  0.1089
 3535SOL    HW122238   4.563   3.127  13.151 -0.2779 -0.0679  0.3569
 3535SOL    HW222239   4.630   3.261  13.150  0.2273 -0.0773 -1.2793
 3536SOL     OW22240   3.232   1.611   7.419 -0.0873 -0.2500  0.2037
 3536SOL    HW122241   3.176   1.678   7.379 -1.3304 -2.1874 -1.3022
 3536SOL    HW222242   3.288   1.587   7.345 -0.6129 -1.2651  0.1335
 3537SOL     OW22243   2.285   3.539  10.473 -0.0546 -0.1901  0.6136
 3537SOL    HW122244   2.200   3.565  10.508 -0.3161  2.0256 -1.6410
 3537SOL    HW222245   2.334   3.518  10.552  2.1844  1.1542 -0.4071
 3538SOL     OW22246   2.533   2.677   2.217  0.2329  0.3859 -0.3501
 3538SOL    HW122247   2.513   2.633   2.300 -2.7928 -1.6423 -2.1809
 3538SOL    HW222248   2.524   2.601   2.160 -1.0341  0.8122 -0.7200
 3539SOL     OW22249   1.471   2.099  16.454 -0.0452  0.2075  0.6022
 3539SOL    HW122250   1.562   2.087  16.480  0.9791  0.8534 -2.6379
 3539SOL    HW222251   1.420   2.104  16.535  0.5958 -3.2706  1.2422
 3540SOL     OW22252   1.234   0.350   6.165  0.3412 -0.2540  0.1195
 3540SOL    HW122253   1.250   0.278   6.104  1.5800  0.2053 -0.1050
 3540SOL    HW222254   1.195   0.303   6.238 -0.0858  1.1801  0.7984
 3541SOL     OW22255   1.125   3.986   5.650 -0.0373 -0.4927 -0.0972
 3541SOL    HW122256   1.115   3.982   5.745  2.2247 -3.5277 -0.0022
 3541SOL    HW222257   1.218   4.006   5.653  0.2015 -1.6410  0.4221
 3542SOL     OW22258   1.141   0.672   8.182  0.0637  0.3572 -0.3096
 3542SOL    HW122259   1.225   0.717   8.176  0.7821 -1.1251 -1.4957
 3542SOL    HW222260   1.175   0.582   8.186 -1.5983 -0.1122  3.0023
 3543SOL     OW22261   0.669   3.585   8.488  0.4000  0.2234 -0.2320
 3543SOL    HW122262   0.761   3.607   8.499  0.1929  1.3618 -0.7327
 3543SOL    HW222263   0.659   3.589   8.393 -0.2807  2.1107 -0.0805
 3544SOL     OW22264   3.048   4.538  17.280  0.7297 -0.1950 -0.3149
 3544SOL    HW122265   3.065   4.475  17.349  1.3874 -0.5369 -0.7836
 3544SOL    HW222266   3.002   4.604  17.332 -0.0839  0.5848 -1.9983
 3545SOL     OW22267   3.222   3.779  10.389  0.0926 -0.1187 -0.2204
 3545SOL    HW122268   3.145   3.827  10.420 -0.0652  0.2343 -1.1334
 3545SOL    HW222269   3.206   3.699  10.439  1.4071 -1.6017 -2.1738
 3546SOL     OW22270   1.870   1.181   1.116  0.4497  0.2189 -0.1915
 3546SOL    HW122271   1.926   1.111   1.084  1.0408  1.1040 -1.1012
 3546SOL    HW222272   1.929   1.257   1.116 -0.3478  0.8364  0.0047
 3547SOL     OW22273   1.021   1.077   6.318  0.0845  0.2306 -0.4893
 3547SOL    HW122274   0.966   1.151   6.343  0.5547 -0.4863  2.6124
 3547SOL    HW222275   1.088   1.075   6.386  0.2015 -0.0069 -0.6084
 3548SOL     OW22276   1.565   2.578  11.228 -0.1145  0.1060  0.4469
 3548SOL    HW122277   1.569   2.545  11.138 -1.4961 -0.2121  0.5068
 3548SOL    HW222278   1.581   2.496  11.273  0.6430  1.6029  2.9219
 3549SOL     OW22279   4.450   4.101   2.350  0.1044 -0.3724  0.0803
 3549SOL    HW122280   4.531   4.059   2.320  1.1632  2.0923 -0.4777
 3549SOL    HW222281   4.466   4.195   2.353  2.2001 -0.7622  1.1546
 3550SOL     OW22282   3.802   4.734   7.164  0.0316 -0.2314 -0.0075
 3550SOL    HW122283   3.771   4.659   7.111 -0.2605 -1.0432  1.3066
 3550SOL    HW222284   3.823   0.067   7.100  3.5171 -0.3806  1.0201
 3551SOL     OW22285   4.073   0.299   7.185 -0.1972  0.6714  0.5454
 3551SOL    HW122286   4.127   0.367   7.146  1.5028 -0.6582  0.5555
 3551SOL    HW222287   4.111   0.221   7.144  1.8728  1.5698  0.7965
 3552SOL     OW22288   2.938   3.716   4.894 -0.3078 -0.0601  0.1114
 3552SOL    HW122289   2.881   3.706   4.970  3.0481  0.6018  2.6896
 3552SOL    HW222290   2.920   3.641   4.836 -0.8707  0.6394 -0.6173
 3553SOL     OW22291   0.431   1.662   0.510 -0.3924  0.4209  0.2158
 3553SOL    HW122292   0.450   1.586   0.454 -2.5172 -0.8771  1.2459
 3553SOL    HW222293   0.345   1.639   0.544 -0.3434  1.4135  1.0050
 3554SOL     OW22294   2.493   3.366   2.274 -0.9104 -0.4025  0.2892
 3554SOL    HW122295   2.402   3.337   2.272 -1.7233  2.1979 -1.4787
 3554SOL    HW222296   2.532   3.317   2.346 -0.0897 -1.0377 -0.5724
 3555SOL     OW22297   0.702   1.801  13.788 -0.0998 -0.1554  0.1675
 3555SOL    HW122298   0.698   1.810  13.693  0.0738  0.7344  0.2437
 3555SOL    HW222299   0.778   1.743  13.799 -0.0035  0.2975  1.8804
 3556SOL     OW22300   2.434   0.023  13.501 -0.7022  0.1136  0.1135
 3556SOL    HW122301   2.413   0.116  13.492  3.4595  0.9751 -0.6802
 3556SOL    HW222302   2.529   0.029  13.497 -0.6736 -0.2095  0.3271
 3557SOL     OW22303   1.139   3.542   2.314 -0.1449 -0.9200 -0.3184
 3557SOL    HW122304   1.152   3.465   2.370 -1.8635 -0.3102  0.8934
 3557SOL    HW222305   1.075   3.512   2.250 -0.9604 -2.6458  1.3026
 3558SOL     OW22306   1.527   2.580   6.073  0.2450 -0.0126  0.1676
 3558SOL    HW122307   1.569   2.656   6.032  1.1584 -0.5668  0.0843
 3558SOL    HW222308   1.503   2.602   6.163 -0.3910 -0.0282 -0.0005
 3559SOL     OW22309   3.192   3.470   4.819  0.1655 -0.3146  0.6356
 3559SOL    HW122310   3.264   3.416   4.787  0.3633  0.2016  0.2191
 3559SOL    HW222311   3.227   3.492   4.906 -0.6939 -2.3008  1.4794
 3560SOL     OW22312   0.597   4.667   7.356 -0.5165  0.1628 -0.5475
 3560SOL    HW122313   0.520   4.616   7.332  1.2653 -2.2293 -1.1790
 3560SOL    HW222314   0.589   0.007   7.297 -1.8823  0.1972 -0.3145
 3561SOL     OW22315   4.086   2.806   0.942  0.7217 -0.3969 -0.0423
 3561SOL    HW122316   4.110   2.868   0.874 -1.6710  1.6474  0.9645
 3561SOL    HW222317   4.170   2.810   0.989  1.4287 -0.1481 -1.3378
 3562SOL     OW22318   4.292   4.081  16.924  0.2502  0.3928  0.2703
 3562SOL    HW122319   4.307   4.013  16.858  1.4309 -0.3686  1.3420
 3562SOL    HW222320   4.196   4.084  16.917  0.4873 -0.0632 -3.2046
 3563SOL     OW22321   3.480   0.467   9.848  0.1212  0.1773 -0.4872
 3563SOL    HW122322   3.485   0.372   9.860 -2.4447 -0.1202 -1.9543
 3563SOL    HW222323   3.424   0.499   9.918  0.4182 -1.3206  0.4426
 3564SOL     OW22324   3.907   2.551  16.920 -0.3678 -0.2373 -0.2041
 3564SOL    HW122325   3.836   2.489  16.912 -0.1640 -0.4639 -0.2478
 3564SOL    HW222326   3.907   2.602  16.839  0.8109  0.1519  0.0329
 3565SOL     OW22327   2.100   1.971  10.035 -0.3551 -0.1922  0.0724
 3565SOL    HW122328   2.042   2.040  10.066  0.4787 -0.1899  1.6029
 3565SOL    HW222329   2.081   1.896  10.093  2.0564 -0.2907  0.7507
 3566SOL     OW22330   0.725   3.594   2.368 -0.2596 -0.7725  0.1129
 3566SOL    HW122331   0.691   3.651   2.298  3.5935  1.3832 -0.0319
 3566SOL    HW222332   0.781   3.528   2.328  0.5140  0.4607 -0.8484
 3567SOL     OW22333   0.282   3.944   8.745  0.3616 -0.2575 -0.0352
 3567SOL    HW122334   0.209   3.999   8.774 -0.3212 -1.5571  0.6789
 3567SOL    HW222335   0.261   3.863   8.792 -0.7557 -0.2980 -0.6284
 3568SOL     OW22336   4.414   1.632   2.746  0.0274  0.0406  0.1240
 3568SOL    HW122337   4.324   1.666   2.743 -0.6062 -1.6938 -0.6303
 3568SOL    HW222338   4.453   1.697   2.804  2.0800  0.6311 -1.9677
 3569SOL     OW22339   1.193   2.361  14.176  0.6310 -0.1789 -0.0453
 3569SOL    HW122340   1.287   2.344  14.179  0.3873 -1.7614 -1.6259
 3569SOL    HW222341   1.163   2.281  14.220 -2.3230  0.2562 -1.2351
 3570SOL     OW22342   2.731   1.553   5.571 -0.1071  0.6635  0.4082
 3570SOL    HW122343   2.639   1.581   5.570 -0.5568 -0.7803  0.7902
 3570SOL    HW222344   2.722   1.471   5.523  1.0323  0.0123  1.3020
 3571SOL     OW22345   2.128   0.216   3.877 -0.3753 -0.3370 -0.3497
 3571SOL    HW122346   2.153   0.308   3.878  1.8626 -0.9658  3.5725
 3571SOL    HW222347   2.122   0.210   3.782  0.7366 -0.5338 -0.4147
 3572SOL     OW22348   0.281   1.615   6.037 -0.1708 -0.4231  0.6778
 3572SOL    HW122349   0.307   1.633   6.128  1.8075  0.8952 -0.1281
 3572SOL    HW222350   0.342   1.676   5.995 -1.3174 -1.8143 -2.9634
 3573SOL     OW22351   3.450   3.498  16.161  0.4302 -0.3193  1.1411
 3573SOL    HW122352   3.355   3.481  16.162  0.6409 -1.5561  0.7657
 3573SOL    HW222353   3.445   3.593  16.170 -0.4308 -0.1861 -0.5160
 3574SOL     OW22354   2.121   3.266   1.768 -0.0915  0.6681  0.0641
 3574SOL    HW122355   2.125   3.274   1.672  0.9382  2.3102  0.2486
 3574SOL    HW222356   2.212   3.275   1.795  0.3507 -0.6274 -0.9749
 3575SOL     OW22357   0.832   0.791   4.659  0.0606 -0.1633 -0.0046
 3575SOL    HW122358   0.899   0.855   4.680  2.3072 -2.3094 -0.6008
 3575SOL    HW222359   0.839   0.722   4.725 -0.2582 -2.8164 -2.7308
 3576SOL     OW22360   3.619   1.830   0.928 -0.8410  0.0312  0.7980
 3576SOL    HW122361   3.557   1.854   0.997  0.3997  4.6210  0.3326
 3576SOL    HW222362   3.703   1.856   0.968  0.6484  0.3652 -2.5976
 3577SOL     OW22363   1.533   3.858   7.981  0.1271 -0.1158 -0.1589
 3577SOL    HW122364   1.524   3.846   7.887 -0.1783 -0.1094 -0.1314
 3577SOL    HW222365   1.625   3.883   7.985 -0.3196  1.8352 -1.9056
 3578SOL     OW22366   2.507   4.641   1.360  1.0659  0.1273 -0.4727
 3578SOL    HW122367   2.564   4.618   1.286 -0.9295 -2.3614 -1.2449
 3578SOL    HW222368   2.436   4.692   1.321  2.2038  1.1413 -1.2032
 3579SOL     OW22369   2.689   0.057   1.877 -0.3223  0.4124 -0.4572
 3579SOL    HW122370   2.698   0.015   1.792  1.3125 -2.7095  1.2596
 3579SOL    HW222371   2.764   0.115   1.884  1.4620 -1.9141 -0.3821
 3580SOL     OW22372   2.204   1.727  14.065 -0.4427  0.2603 -0.1500
 3580SOL    HW122373   2.282   1.732  14.121  0.5752  2.0431 -1.7319
 3580SOL    HW222374   2.238   1.761  13.982 -1.4661  2.5767  0.3533
 3581SOL     OW22375   0.661   4.187   0.479 -0.4543  0.4584 -0.5836
 3581SOL    HW122376   0.589   4.225   0.530 -0.7221  0.0675 -0.6767
 3581SOL    HW222377   0.727   4.256   0.486 -0.1484 -0.0759  1.8061
 3582SOL     OW22378   2.995   1.419   9.156 -0.1648  0.6956  0.5882
 3582SOL    HW122379   2.976   1.416   9.062 -0.5472  2.1648  0.6186
 3582SOL    HW222380   2.907   1.428   9.194 -1.7163 -0.2962 -2.6790
 3583SOL     OW22381   1.624   1.570   8.852 -0.3465  0.0651 -0.0103
 3583SOL    HW122382   1.715   1.584   8.825 -0.4878 -2.4690 -1.7554
 3583SOL    HW222383   1.599   1.656   8.886 -0.0987 -0.9418  2.7556
 3584SOL     OW22384   2.097   2.457   2.426  0.1109 -0.3695 -0.4297
 3584SOL    HW122385   2.042   2.524   2.467  1.7683  0.2665  0.7467
 3584SOL    HW222386   2.084   2.381   2.483  0.3342  0.4052  0.6617
 3585SOL     OW22387   0.409   3.512   1.564 -0.2149 -0.9805  0.2769
 3585SOL    HW122388   0.361   3.595   1.574  3.0568  1.1692 -1.6905
 3585SOL    HW222389   0.396   3.502   1.470 -1.1852  0.1054  0.2930
 3586SOL     OW22390   3.660   1.760  12.958  0.0557  0.2710  0.0516
 3586SOL    HW122391   3.755   1.768  12.968  0.1609 -0.7324 -0.2153
 3586SOL    HW222392   3.634   1.789  13.046  0.5358  1.3678 -0.1599
 3587SOL     OW22393   3.628   2.769   7.961 -0.0399 -0.7331 -0.0499
 3587SOL    HW122394   3.695   2.728   8.015  1.1913  0.2692 -0.8080
 3587SOL    HW222395   3.590   2.831   8.024  0.7028 -0.6126  0.2770
 3588SOL     OW22396   3.515   3.472   8.166  0.0773 -0.2823  0.2110
 3588SOL    HW122397   3.468   3.553   8.189  1.6440  0.7101 -0.0904
 3588SOL    HW222398   3.597   3.484   8.215  0.6332 -1.6836 -0.3641
 3589SOL     OW22399   1.425   4.310   2.021 -0.1480  0.0721  0.4845
 3589SOL    HW122400   1.350   4.324   2.079 -0.1158 -0.7153  0.7115
 3589SOL    HW222401   1.394   4.254   1.950  0.3369 -0.4183  0.6629
 3590SOL     OW22402   2.785   2.887  15.922  0.1537 -0.0963 -0.5340
 3590SOL    HW122403   2.761   2.879  16.014  2.0987 -0.8171 -0.0770
 3590SOL    HW222404   2.695   2.904  15.896 -0.0715  0.1907  0.4611
 3591SOL     OW22405   1.558   1.257   6.923  0.8494 -0.0942 -0.6778
 3591SOL    HW122406   1.636   1.253   6.868  0.3053 -0.2953 -1.4338
 3591SOL    HW222407   1.515   1.189   6.871 -0.0758 -2.3717  3.1137
 3592SOL     OW22408   2.690   2.582  13.044  0.6225  0.1871  0.2028
 3592SOL    HW122409   2.769   2.607  12.996  0.2207  0.8120 -0.1365
 3592SOL    HW222410   2.721   2.496  13.072  2.3324  0.6198 -0.3798
 3593SOL     OW22411   1.857   2.219   6.403 -0.2913  0.4316 -0.7172
 3593SOL    HW122412   1.873   2.132   6.440  0.3339  1.4057  1.2889
 3593SOL    HW222413   1.826   2.189   6.318  0.3366 -1.1424 -0.3822
 3594SOL     OW22414   1.758   4.203   6.604  0.2851 -0.3237 -0.6068
 3594SOL    HW122415   1.736   4.255   6.681  0.6072 -0.0846 -0.6751
 3594SOL    HW222416   1.804   4.266   6.548 -0.5826 -0.2625 -1.2502
 3595SOL     OW22417   2.471   1.426   8.864 -0.0336  0.2523  0.0587
 3595SOL    HW122418   2.534   1.484   8.906 -0.8914 -0.2199  2.0031
 3595SOL    HW222419   2.387   1.473   8.864 -0.1654  0.0188 -1.1265
 3596SOL     OW22420   1.145   3.087   7.540  0.2929 -0.1072  0.0101
 3596SOL    HW122421   1.133   3.181   7.553  0.4642 -0.2495  1.1684
 3596SOL    HW222422   1.188   3.055   7.619 -1.7418 -3.5333 -0.2845
 3597SOL     OW22423   2.883   4.224   2.721  0.4654 -0.7241  0.0946
 3597SOL    HW122424   2.970   4.199   2.690 -0.0624  0.8059 -2.6070
 3597SOL    HW222425   2.847   4.139   2.745 -0.1378 -0.8161 -1.1211
 3598SOL     OW22426   0.997   0.404   6.920 -0.6539  0.4794  0.0305
 3598SOL    HW122427   1.006   0.326   6.866  0.9640  0.4998  0.2593
 3598SOL    HW222428   0.931   0.452   6.871 -1.5244 -1.3953 -0.6210
 3599SOL     OW22429   0.927   0.154   6.087 -0.2082 -0.5297  0.5650
 3599SOL    HW122430   1.000   0.102   6.053 -0.2901  0.4293 -1.0711
 3599SOL    HW222431   0.941   0.239   6.046  0.4508  0.0118  1.9216
 3600SOL     OW22432   2.074   2.050  12.077 -0.2160 -0.8369 -0.1479
 3600SOL    HW122433   2.111   1.986  12.138  0.8282  0.4391  0.5637
 3600SOL    HW222434   2.106   2.025  11.991 -1.8288 -1.6083 -0.5179
 3601SOL     OW22435   3.795   3.822   0.979 -0.3148 -0.0636  0.3334
 3601SOL    HW122436   3.747   3.869   1.048  0.7765  0.1505  0.9573
 3601SOL    HW222437   3.768   3.875   0.904  0.7539  3.4333  2.3945
 3602SOL     OW22438   1.131   1.515   6.698 -0.5129  0.2392 -0.0926
 3602SOL    HW122439   1.086   1.599   6.708 -1.0783  0.2231 -2.4020
 3602SOL    HW222440   1.099   1.478   6.616 -1.1255  0.5806 -0.0043
 3603SOL     OW22441   2.402   1.516   5.932  0.5093  0.5116 -0.2445
 3603SOL    HW122442   2.368   1.427   5.940  2.0145 -0.1253 -1.0773
 3603SOL    HW222443   2.496   1.511   5.917  0.2878  0.0212 -1.4086
 3604SOL     OW22444   4.494   4.018   6.796  0.2162  0.5110 -0.0673
 3604SOL    HW122445   4.474   4.110   6.782 -0.6534  0.3370  0.0486
 3604SOL    HW222446   4.446   3.977   6.724  0.2709 -1.4054  1.0003
 3605SOL     OW22447   4.656   0.401   3.566 -0.2894 -0.3388  0.0534
 3605SOL    HW122448   4.648   0.428   3.475  2.2129 -1.1703 -0.4211
 3605SOL    HW222449   4.589   0.459   3.601  0.5445  1.0315 -0.5875
 3606SOL     OW22450   3.993   2.980   6.958  0.2369 -0.0790 -0.2958
 3606SOL    HW122451   3.900   2.958   6.962  0.0575  0.4367 -1.7464
 3606SOL    HW222452   4.011   3.014   7.046 -1.2210 -1.8613  0.6963
 3607SOL     OW22453   1.722   0.964   2.275  0.3082  0.1130  0.1236
 3607SOL    HW122454   1.667   1.009   2.210  1.0483 -0.3874 -0.8615
 3607SOL    HW222455   1.684   1.012   2.348 -0.3617  2.7513 -1.9949
 3608SOL     OW22456   0.791   0.646   4.027  0.8159  0.3816  0.4453
 3608SOL    HW122457   0.779   0.565   3.978 -0.0662  2.0205 -2.0425
 3608SOL    HW222458   0.874   0.670   3.985 -0.5031  3.9367 -0.1425
 3609SOL     OW22459   3.606   2.726   5.632 -0.2330  0.2915 -0.2012
 3609SOL    HW122460   3.653   2.685   5.560  0.6951  1.5570 -0.3207
 3609SOL    HW222461   3.525   2.675   5.643 -0.9940  1.2590 -1.2852
 3610SOL     OW22462   0.893   1.685   4.697 -0.4490  0.1614 -0.0732
 3610SOL    HW122463   0.940   1.697   4.615 -0.7133  0.1556 -0.2272
 3610SOL    HW222464   0.887   1.776   4.726 -0.9703  0.5404 -1.3410
 3611SOL     OW22465   1.583   3.975   3.552  0.1450  0.3190  0.0514
 3611SOL    HW122466   1.628   3.970   3.636 -0.7572  1.7933  0.6266
 3611SOL    HW222467   1.653   3.959   3.488 -0.7658 -1.6105 -0.4478
 3612SOL     OW22468   1.269   1.669  13.217  0.2922  0.3302 -0.1991
 3612SOL    HW122469   1.193   1.636  13.264  1.5967 -1.3604  0.7011
 3612SOL    HW222470   1.268   1.763  13.239  3.7208  0.8588 -2.3189
 3613SOL     OW22471   0.879   4.081   5.604 -0.2460  0.1340 -0.1828
 3613SOL    HW122472   0.970   4.053   5.616 -1.0408 -2.9510 -1.3998
 3613SOL    HW222473   0.835   4.041   5.679  2.0647 -0.6652  0.7629
 3614SOL     OW22474   3.032   2.219  12.170  0.1063  0.2499 -0.1900
 3614SOL    HW122475   3.114   2.267  12.184 -0.5726  1.3710 -0.0991
 3614SOL    HW222476   2.974   2.295  12.166  2.0014  1.6357 -1.3623
 3615SOL     OW22477   3.495   0.092   4.204 -0.6415  0.3880  0.4704
 3615SOL    HW122478   3.551   0.030   4.250 -0.1940  0.3368 -0.1360
 3615SOL    HW222479   3.550   0.116   4.129 -1.5427 -0.8536 -0.5964
 3616SOL     OW22480   3.525   2.978  16.735  0.5434 -0.4761 -0.0527
 3616SOL    HW122481   3.434   2.963  16.709 -0.3643  1.8913  1.6987
 3616SOL    HW222482   3.564   3.015  16.656  1.2157  0.6059  0.7810
 3617SOL     OW22483   1.124   0.371   5.466  0.1588  0.2528 -0.4386
 3617SOL    HW122484   1.169   0.404   5.388  0.7571  1.1754  0.2847
 3617SOL    HW222485   1.114   0.279   5.443  0.7682 -0.1631  0.9562
 3618SOL     OW22486   3.627   2.465  10.029 -0.0706 -0.6067 -0.4295
 3618SOL    HW122487   3.584   2.489  10.111 -2.9656 -0.8213 -1.8900
 3618SOL    HW222488   3.564   2.499   9.966 -1.1320  0.4027  1.1932
 3619SOL     OW22489   1.356   4.117   5.307 -0.2932  0.1424 -0.3578
 3619SOL    HW122490   1.297   4.042   5.309  0.0118 -0.0744  0.5275
 3619SOL    HW222491   1.417   4.088   5.239  0.7736  1.1344  0.1838
 3620SOL     OW22492   1.109   0.317   3.003 -0.3320 -0.2133 -0.3314
 3620SOL    HW122493   1.177   0.252   3.018 -1.0907 -0.9335 -0.0108
 3620SOL    HW222494   1.027   0.274   3.026  1.1990 -2.3873  1.0030
 3621SOL     OW22495   0.883   0.773  16.857  0.0391  0.0669 -0.1793
 3621SOL    HW122496   0.946   0.702  16.873  0.5843 -0.1954 -3.4924
 3621SOL    HW222497   0.814   0.717  16.823 -1.1321  1.3763  0.0726
 3622SOL     OW22498   2.958   2.581  13.872 -0.7115 -0.0943  0.1717
 3622SOL    HW122499   2.942   2.606  13.781 -0.1671  0.4674  0.2379
 3622SOL    HW222500   2.938   2.662  13.919 -0.7730  1.2076 -2.1198
 3623SOL     OW22501   4.636   2.379   6.289  0.0949 -0.1894  0.4257
 3623SOL    HW122502   4.614   2.421   6.371 -0.7781 -1.2721  0.7469
 3623SOL    HW222503   4.579   2.438   6.239 -2.1584 -3.2957 -0.7146
 3624SOL     OW22504   0.402   3.794   5.360 -0.0950 -0.0790 -0.2759
 3624SOL    HW122505   0.483   3.844   5.352 -1.9676  2.2578 -4.1110
 3624SOL    HW222506   0.370   3.815   5.273 -0.2351  0.9528  0.0267
 3625SOL     OW22507   2.661   2.353   3.649 -0.4687  0.2469  0.1751
 3625SOL    HW122508   2.638   2.445   3.635  0.1019  0.6390  1.8734
 3625SOL    HW222509   2.673   2.343   3.743 -1.6630  0.5551  0.3608
 3626SOL     OW22510   3.600   3.705   1.713 -0.6331 -0.0029  0.2132
 3626SOL    HW122511   3.576   3.627   1.762 -2.3053 -1.3062 -2.6519
 3626SOL    HW222512   3.530   3.707   1.648 -1.2625  0.3666  0.9193
 3627SOL     OW22513   1.410   4.455  14.788 -0.2521 -0.2262  0.5261
 3627SOL    HW122514   1.406   4.360  14.788  3.2580 -0.3674  0.5792
 3627SOL    HW222515   1.491   4.476  14.834 -0.4012 -0.5071  0.9178
 3628SOL     OW22516   2.050   4.156  17.036  0.5578  0.0337 -0.1549
 3628SOL    HW122517   2.016   4.150  16.947  2.5832  1.2278 -1.0050
 3628SOL    HW222518   2.050   4.065  17.067  2.1807  0.0692 -0.0525
 3629SOL     OW22519   1.073   2.546   5.971 -0.4831 -0.4865  0.4802
 3629SOL    HW122520   1.154   2.590   5.946 -0.5724 -1.6152 -1.7638
 3629SOL    HW222521   1.011   2.617   5.953 -0.1074 -0.1243  0.6242
 3630SOL     OW22522   3.918   2.316   5.793 -0.1154 -0.3659  0.1280
 3630SOL    HW122523   3.861   2.364   5.853 -2.7765 -1.7818 -1.2819
 3630SOL    HW222524   3.910   2.231   5.836  2.1580 -0.1860  0.9249
 3631SOL     OW22525   1.258   3.629  16.940 -0.2553 -0.1969 -0.0372
 3631SOL    HW122526   1.239   3.720  16.919 -1.4311 -0.2538  0.7641
 3631SOL    HW222527   1.219   3.586  16.864  1.3183 -1.5419 -0.0798
 3632SOL     OW22528   2.866   0.218  15.181  0.1623  0.2579 -0.3198
 3632SOL    HW122529   2.773   0.230  15.159  0.3924  0.4984 -1.1776
 3632SOL    HW222530   2.870   0.140  15.236 -0.1649 -0.7623 -1.7294
 3633SOL     OW22531   3.332   3.827  17.683 -0.7042 -0.9372  0.4075
 3633SOL    HW122532   3.345   3.737  17.653 -2.4420  0.0195 -3.2833
 3633SOL    HW222533   3.327   3.825   0.040 -2.1197  3.0623  0.4212
 3634SOL     OW22534   3.230   3.952  16.181  0.2364 -0.3393 -0.0909
 3634SOL    HW122535   3.204   3.916  16.266  1.2878  0.4820  0.5721
 3634SOL    HW222536   3.311   3.998  16.201  0.4326 -0.9605  0.5422
 3635SOL     OW22537   3.529   4.312  11.416  0.3895  0.6309  0.2394
 3635SOL    HW122538   3.503   4.339  11.504 -1.4793 -1.9726  0.4940
 3635SOL    HW222539   3.475   4.363  11.356  0.8821  0.0385 -0.7175
 3636SOL     OW22540   1.913   0.919   4.121 -0.6738 -0.2805 -0.5178
 3636SOL    HW122541   1.817   0.922   4.118 -0.6794 -3.1697 -2.6643
 3636SOL    HW222542   1.924   0.872   4.204  0.3712 -0.3490 -0.6925
 3637SOL     OW22543   4.397   2.837   8.173 -0.1469 -0.3830  0.1791
 3637SOL    HW122544   4.428   2.884   8.095 -0.7319 -1.0393 -0.4435
 3637SOL    HW222545   4.306   2.866   8.178 -0.1151 -0.6528  2.4813
 3638SOL     OW22546   1.401   3.888   4.840  0.2171 -0.5703 -0.2013
 3638SOL    HW122547   1.442   3.974   4.850 -0.0153 -0.7269  2.0611
 3638SOL    HW222548   1.457   3.839   4.779  3.2394 -0.0503  2.1283
 3639SOL     OW22549   0.502   4.142  13.233  0.0190 -0.1548  0.0132
 3639SOL    HW122550   0.532   4.105  13.316  0.0046 -0.2078 -0.0053
 3639SOL    HW222551   0.439   4.084  13.190 -0.2626  0.9198 -1.0295
 3640SOL     OW22552   3.324   3.172  14.823  0.0984  0.1824 -0.0212
 3640SOL    HW122553   3.358   3.235  14.886  0.9999 -0.7589  0.4272
 3640SOL    HW222554   3.245   3.154  14.875  1.2518 -3.5185  0.4359
 3641SOL     OW22555   2.727   2.825   1.465  0.0159  0.2463  0.2987
 3641SOL    HW122556   2.775   2.773   1.529  0.1172 -1.5991 -1.2601
 3641SOL    HW222557   2.746   2.912   1.498  1.6480  0.0627 -0.1300
 3642SOL     OW22558   2.963   0.852  13.970 -0.1158 -0.0169  0.6294
 3642SOL    HW122559   2.876   0.871  13.937  0.8812  1.7463 -0.9830
 3642SOL    HW222560   3.013   0.914  13.917  0.9576 -1.0043  0.4784
 3643SOL     OW22561   1.011   2.544  12.037  0.0013 -0.6587 -0.0584
 3643SOL    HW122562   1.012   2.602  11.961  0.9876 -0.6410 -0.0391
 3643SOL    HW222563   1.025   2.455  12.003  0.2808  0.0707 -1.8497
 3644SOL     OW22564   1.333   2.958   8.004 -0.1134 -0.3537 -0.3338
 3644SOL    HW122565   1.249   2.948   8.050 -0.8862  3.2674 -0.9627
 3644SOL    HW222566   1.359   2.866   8.007 -2.2453 -0.9546 -0.2557
 3645SOL     OW22567   2.197   2.367   5.432 -0.0850 -0.2388 -0.0953
 3645SOL    HW122568   2.199   2.329   5.520  0.5137  0.3686  0.1554
 3645SOL    HW222569   2.102   2.363   5.423 -0.3025 -0.3181  2.2733
 3646SOL     OW22570   1.924   4.286  16.107  0.0145  0.2424 -0.7429
 3646SOL    HW122571   2.014   4.307  16.131 -0.2772  0.7405 -0.0981
 3646SOL    HW222572   1.907   4.221  16.175  0.8004  0.2561 -0.5391
 3647SOL     OW22573   4.639   4.545  12.467  0.6310 -0.0533 -0.2369
 3647SOL    HW122574   4.580   4.506  12.403 -0.9174  0.4766  0.8566
 3647SOL    HW222575   4.593   4.538  12.550  2.9570 -0.7473  1.0106
 3648SOL     OW22576   0.313   3.629   0.307 -0.3655  0.0736 -0.6620
 3648SOL    HW122577   0.261   3.603   0.231 -1.0678 -2.6578  0.7322
 3648SOL    HW222578   0.309   3.546   0.355  1.5937  0.2908 -0.1453
 3649SOL     OW22579   0.250   4.026   9.721  0.2580 -0.0716 -0.8333
 3649SOL    HW122580   0.308   3.960   9.759 -0.1229 -0.1866 -0.4475
 3649SOL    HW222581   0.309   4.101   9.720  1.3629 -0.9172  0.2572
 3650SOL     OW22582   3.237   1.427  10.366 -0.1279  0.6597 -0.4451
 3650SOL    HW122583   3.279   1.454  10.284 -0.5035 -0.0038 -0.8578
 3650SOL    HW222584   3.285   1.345  10.371 -2.7803 -0.8159  0.5542
 3651SOL     OW22585   3.693   1.005   4.668 -0.0139  0.0237 -0.0692
 3651SOL    HW122586   3.655   0.975   4.586  3.8882 -0.7393 -1.5647
 3651SOL    HW222587   3.623   0.990   4.733  1.2981 -1.7054  0.9532
 3652SOL     OW22588   3.668   0.896   1.654 -0.5315 -0.0760  0.4958
 3652SOL    HW122589   3.740   0.851   1.611  0.9941  1.7548  1.1344
 3652SOL    HW222590   3.618   0.824   1.692  0.3429  0.1610  2.1121
 3653SOL     OW22591   3.249   3.488  10.424  0.3610 -0.1515  0.0577
 3653SOL    HW122592   3.331   3.445  10.399 -0.5344 -2.7784  1.6359
 3653SOL    HW222593   3.262   3.518  10.514 -0.2454  0.8882 -0.1982
 3654SOL     OW22594   4.213   0.557   5.662 -0.5457 -0.7530 -0.2464
 3654SOL    HW122595   4.226   0.650   5.681 -0.6200 -0.4037 -1.9181
 3654SOL    HW222596   4.298   0.520   5.638  0.3605  1.5314 -0.5614
 3655SOL     OW22597   1.896   1.245   5.206  0.2711 -0.5466  0.2569
 3655SOL    HW122598   1.838   1.231   5.281 -0.8372  2.5716 -0.0000
 3655SOL    HW222599   1.882   1.338   5.187  0.1009 -0.5318  0.4579
 3656SOL     OW22600   0.663   2.428   4.483  0.0233  0.0551  0.6127
 3656SOL    HW122601   0.681   2.365   4.552  3.2208 -1.3426 -1.4664
 3656SOL    HW222602   0.704   2.383   4.409 -1.8496 -0.2699 -0.2437
 3657SOL     OW22603   3.901   1.558  11.597 -0.1801  0.5635  0.1031
 3657SOL    HW122604   3.962   1.616  11.552  0.4632 -1.8814 -2.1953
 3657SOL    HW222605   3.896   1.487  11.533 -0.7737 -0.0381  0.8155
 3658SOL     OW22606   3.371   0.784   4.518  0.1898  0.0945 -0.0684
 3658SOL    HW122607   3.330   0.863   4.554  0.8438  0.9644 -1.2119
 3658SOL    HW222608   3.364   0.729   4.595  0.0654  0.5528  0.2474
 3659SOL     OW22609   1.158   2.148  16.247  0.0237 -0.5170  0.1635
 3659SOL    HW122610   1.188   2.059  16.262 -0.8609 -0.5234  1.8482
 3659SOL    HW222611   1.093   2.135  16.179  0.3774  1.0167 -0.4844
 3660SOL     OW22612   2.880   2.485   2.432 -0.2990 -0.0189  0.6117
 3660SOL    HW122613   2.860   2.575   2.404  0.7025  1.4166  4.5202
 3660SOL    HW222614   2.910   2.505   2.520  0.1807 -1.9561  0.8795
 3661SOL     OW22615   0.689   3.034   1.889 -0.2632  0.1562 -0.1806
 3661SOL    HW122616   0.699   3.042   1.984 -1.5516  2.4746 -0.2374
 3661SOL    HW222617   0.652   2.946   1.888 -1.0556  0.4698  1.3079
 3662SOL     OW22618   2.094   0.164   0.705 -0.7094 -0.6102 -0.6206
 3662SOL    HW122619   2.014   0.126   0.741 -1.2938 -0.0147 -1.2810
 3662SOL    HW222620   2.119   0.224   0.776  0.6136 -2.2005  0.2667
 3663SOL     OW22621   4.372   0.177   8.055 -0.1613 -0.1442  0.2014
 3663SOL    HW122622   4.421   0.122   8.116  0.4383 -1.3001 -1.3338
 3663SOL    HW222623   4.425   0.248   8.018  1.3933 -0.0100  2.6801
 3664SOL     OW22624   4.116   4.071   4.335  1.2024 -0.2414 -0.3612
 3664SOL    HW122625   4.087   3.981   4.319  0.2689  0.2380 -1.3599
 3664SOL    HW222626   4.048   4.102   4.274 -0.3149  0.2885  1.6147
 3665SOL     OW22627   2.640   4.335   5.863 -0.0903 -0.2320  0.6901
 3665SOL    HW122628   2.726   4.337   5.904 -0.3470 -2.4910  1.3361
 3665SOL    HW222629   2.655   4.408   5.803  1.4159 -1.4610 -0.4008
 3666SOL     OW22630   0.736   3.494   6.086  0.6912  0.0945  0.2983
 3666SOL    HW122631   0.797   3.458   6.021  3.0750 -2.1804  3.7800
 3666SOL    HW222632   0.735   3.581   6.047  1.3091  0.3058  0.7519
 3667SOL     OW22633   4.233   2.897  12.356  0.1595 -0.1785 -0.6201
 3667SOL    HW122634   4.170   2.935  12.418  0.3374  0.4265 -0.8157
 3667SOL    HW222635   4.183   2.921  12.278 -0.0731  0.4504 -0.2842
 3668SOL     OW22636   0.273   2.346  11.674  0.2437 -0.1917 -0.1956
 3668SOL    HW122637   0.231   2.399  11.606 -2.7679 -1.7851  0.4473
 3668SOL    HW222638   0.196   2.317  11.722  0.5605 -0.8269 -0.0689
 3669SOL     OW22639   3.296   3.393   6.878 -0.2212  0.4305  0.2929
 3669SOL    HW122640   3.343   3.361   6.801 -1.8998 -1.9220  0.2543
 3669SOL    HW222641   3.307   3.322   6.942  0.1566  1.7538  1.7156
 3670SOL     OW22642   4.172   4.058   0.220  0.1559 -0.4425 -1.0623
 3670SOL    HW122643   4.268   4.051   0.227  0.1861  1.9168  0.9445
 3670SOL    HW222644   4.165   4.138   0.168 -3.7082  1.0353  1.7518
 3671SOL     OW22645   3.134   2.044  15.306 -0.3687 -0.6017  0.4997
 3671SOL    HW122646   3.127   2.105  15.379 -0.8361  0.2447 -0.2443
 3671SOL    HW222647   3.042   2.048  15.282 -0.1878  0.4079 -0.0665
 3672SOL     OW22648   3.272   3.809  17.091  0.0090 -0.3497  0.3641
 3672SOL    HW122649   3.246   3.798  17.000  0.2860 -0.8168  0.3398
 3672SOL    HW222650   3.287   3.903  17.095  1.6977 -0.6060  0.1650
 3673SOL     OW22651   0.798   3.103   9.446 -0.3469 -0.3393 -0.6499
 3673SOL    HW122652   0.842   3.025   9.414 -0.1515 -1.3575  2.0661
 3673SOL    HW222653   0.757   3.133   9.365  0.4828  1.9260 -0.2509
 3674SOL     OW22654   1.890   3.474   2.200 -0.5427 -0.3934 -0.2756
 3674SOL    HW122655   1.903   3.447   2.109  1.8432  3.8538 -1.2333
 3674SOL    HW222656   1.920   3.565   2.200 -1.3826 -0.1099 -4.0579
 3675SOL     OW22657   4.235   3.808  10.201  0.2796 -0.2744  0.0538
 3675SOL    HW122658   4.141   3.826  10.207 -0.2719 -2.5055 -2.0355
 3675SOL    HW222659   4.217   3.716  10.183 -0.5628 -0.0963 -0.0042
 3676SOL     OW22660   4.511   3.565   4.783  0.2602 -0.1078  0.1391
 3676SOL    HW122661   4.496   3.607   4.867 -0.5932  1.6329 -0.8949
 3676SOL    HW222662   4.582   3.620   4.748  2.0761 -1.9308  0.9357
 3677SOL     OW22663   2.302   0.293   4.121 -0.8330  0.2066  0.2630
 3677SOL    HW122664   2.369   0.228   4.145 -0.7862  0.2078  0.1304
 3677SOL    HW222665   2.276   0.324   4.208 -0.2791  0.9604  0.1530
 3678SOL     OW22666   0.603   4.549  14.507 -0.4988 -0.2323  0.0162
 3678SOL    HW122667   0.574   4.485  14.442  0.4276  0.7084 -1.3026
 3678SOL    HW222668   0.519   4.591  14.527 -0.8577 -0.7166 -0.4520
 3679SOL     OW22669   2.982   3.607   3.019  0.3419 -0.0932  0.1175
 3679SOL    HW122670   2.941   3.691   3.044  1.1524  0.1822  0.5359
 3679SOL    HW222671   2.932   3.581   2.942  0.8989  2.4590 -1.1136
 3680SOL     OW22672   0.421   1.646   4.778  0.0990  0.0984 -0.9190
 3680SOL    HW122673   0.354   1.696   4.824 -1.2152 -0.9145 -1.7071
 3680SOL    HW222674   0.364   1.578   4.740 -0.7313 -1.4257  3.0913
 3681SOL     OW22675   2.036   2.764  11.833  0.4552  0.3570  0.0735
 3681SOL    HW122676   2.005   2.788  11.745  1.4176 -1.6005 -0.7854
 3681SOL    HW222677   2.090   2.840  11.855  1.7375 -0.8968  1.1716
 3682SOL     OW22678   2.562   3.732   8.576 -0.0637  0.2264  0.5253
 3682SOL    HW122679   2.518   3.713   8.493  0.0007 -0.9705  0.7651
 3682SOL    HW222680   2.619   3.808   8.560 -1.1313  1.0661  0.7001
 3683SOL     OW22681   0.972   2.581   0.167  0.4476 -0.3290  0.1786
 3683SOL    HW122682   0.962   2.670   0.201  0.0476 -0.2049 -0.2521
 3683SOL    HW222683   0.892   2.539   0.200  0.5594 -0.4436  0.3025
 3684SOL     OW22684   3.883   0.732   9.034 -0.3358  0.4643 -0.2614
 3684SOL    HW122685   3.856   0.824   9.044  1.8700  1.2272 -1.2246
 3684SOL    HW222686   3.800   0.690   9.057 -0.2794 -0.4975 -1.8561
 3685SOL     OW22687   3.441   3.452   6.637  0.1289 -0.0543  0.0114
 3685SOL    HW122688   3.429   3.547   6.626 -1.8265 -0.2113  0.7543
 3685SOL    HW222689   3.505   3.432   6.569  1.6918 -2.1905  2.1596
 3686SOL     OW22690   1.862   4.063   8.889  0.4806  0.2106 -0.6170
 3686SOL    HW122691   1.813   3.981   8.898 -0.2828  0.6825 -0.5227
 3686SOL    HW222692   1.950   4.026   8.897 -0.0873 -1.6688 -3.1607
 3687SOL     OW22693   2.839   1.137   9.227  0.2515 -0.3057  0.2711
 3687SOL    HW122694   2.832   1.194   9.150  2.3367 -2.3268 -1.4186
 3687SOL    HW222695   2.867   1.201   9.292 -0.5221 -0.1124  0.4114
 3688SOL     OW22696   1.728   2.804  14.600 -0.4488  0.1368  0.2257
 3688SOL    HW122697   1.718   2.860  14.524  2.5610  0.5143  0.1087
 3688SOL    HW222698   1.792   2.742  14.566 -0.7503  0.1063 -0.2771
 3689SOL     OW22699   1.697   2.503   0.247  0.2058 -0.3365 -0.0207
 3689SOL    HW122700   1.738   2.525   0.331 -2.1544  1.5832  0.6166
 3689SOL    HW222701   1.721   2.586   0.206 -1.6031  0.2124  0.0439
 3690SOL     OW22702   2.983   1.530  13.821 -0.2262 -0.3768  0.9425
 3690SOL    HW122703   2.985   1.625  13.832 -0.9840 -0.1648 -0.7587
 3690SOL    HW222704   2.890   1.510  13.809 -0.2713 -0.4969  1.4915
 3691SOL     OW22705   1.173   3.638   5.501  0.8063 -0.5733  0.4154
 3691SOL    HW122706   1.091   3.629   5.550  0.7548 -0.5494  0.3327
 3691SOL    HW222707   1.167   3.564   5.441  1.3903  1.3402 -2.0042
 3692SOL     OW22708   4.652   3.867   6.531 -1.2113  0.4873  0.1792
 3692SOL    HW122709   4.639   3.849   6.438  0.3960  1.9424 -0.3313
 3692SOL    HW222710   4.585   3.808   6.565 -0.5663 -1.0627 -1.1809
 3693SOL     OW22711   4.427   1.758   5.819 -1.0574 -0.4581  0.3556
 3693SOL    HW122712   4.408   1.677   5.866  0.6035  0.3968  2.5041
 3693SOL    HW222713   4.522   1.755   5.823 -1.0725  0.6061  1.6177
 3694SOL     OW22714   4.365   3.899   7.828 -0.3942  0.2506  0.0482
 3694SOL    HW122715   4.297   3.935   7.772  0.7320  1.4364 -0.5607
 3694SOL    HW222716   4.434   3.965   7.819  1.4707 -1.9831 -1.7348
 3695SOL     OW22717   1.645   2.951  12.197 -0.1372 -0.2234  0.0149
 3695SOL    HW122718   1.679   2.979  12.282 -1.5095  0.2411  0.4205
 3695SOL    HW222719   1.721   2.902  12.166 -2.1666 -3.6299  0.5001
 3696SOL     OW22720   1.184   0.229   9.261 -0.2818 -0.3334  0.6042
 3696SOL    HW122721   1.256   0.167   9.262  0.1704  0.1475 -2.7436
 3696SOL    HW222722   1.231   0.304   9.225 -1.3450 -0.2674 -0.6824
 3697SOL     OW22723   4.255   0.836   5.750  0.4492  0.0290  0.2578
 3697SOL    HW122724   4.331   0.887   5.777  1.1150  0.2068 -2.0125
 3697SOL    HW222725   4.210   0.832   5.834 -1.7262 -3.5755 -1.0768
 3698SOL     OW22726   3.679   1.827   9.392 -0.1307 -0.5406 -0.1167
 3698SOL    HW122727   3.590   1.848   9.364 -0.0038 -1.3831 -1.1683
 3698SOL    HW222728   3.701   1.915   9.422  1.3385 -0.5639 -1.0890
 3699SOL     OW22729   3.506   4.686   9.401  0.5328 -0.1520 -0.1599
 3699SOL    HW122730   3.479   4.594   9.396  0.1893 -0.1227  1.1341
 3699SOL    HW222731   3.431   0.009   9.396  0.4125 -0.3184 -0.2586
 3700SOL     OW22732   4.418   0.783   6.624  0.8168 -0.4030 -0.5835
 3700SOL    HW122733   4.361   0.845   6.578 -2.2183 -1.3549  1.8443
 3700SOL    HW222734   4.480   0.852   6.646  1.1192 -0.2811 -1.8087
 3701SOL     OW22735   0.542   1.970   6.731 -0.5124  0.5823  0.1278
 3701SOL    HW122736   0.508   1.963   6.642  2.0762  0.2265 -0.8366
 3701SOL    HW222737   0.471   1.939   6.787 -1.2048 -1.1303 -1.6918
 3702SOL     OW22738   2.131   3.561   2.505 -0.7444  0.2727 -0.0543
 3702SOL    HW122739   2.203   3.561   2.569 -0.4020 -0.0798 -0.4374
 3702SOL    HW222740   2.070   3.499   2.545 -0.3071 -0.0475  0.1174
 3703SOL     OW22741   4.608   2.509   9.589  0.1472  0.4028 -0.3638
 3703SOL    HW122742   4.576   2.432   9.542 -0.4435  1.4445 -1.6660
 3703SOL    HW222743   4.551   2.582   9.564 -1.3600 -1.2211 -1.6395
 3704SOL     OW22744   1.912   2.905   5.707 -0.0365  0.2437 -0.1270
 3704SOL    HW122745   1.925   2.949   5.623 -0.9043  0.1323 -0.3265
 3704SOL    HW222746   1.996   2.860   5.710 -0.4400 -0.5069 -0.1540
 3705SOL     OW22747   2.617   2.940  13.111  0.0832 -0.1132 -0.0307
 3705SOL    HW122748   2.578   2.959  13.026 -0.2476  1.0670  0.3857
 3705SOL    HW222749   2.710   2.930  13.090  0.1872  0.9472 -0.0487
 3706SOL     OW22750   2.768   0.267   5.871  0.0228  0.3980 -0.7663
 3706SOL    HW122751   2.746   0.205   5.941  0.5698  1.2501  0.1677
 3706SOL    HW222752   2.751   0.348   5.920  0.3802 -0.1077  0.1965
 3707SOL     OW22753   1.509   3.577  13.464 -0.0199  0.4636 -0.4752
 3707SOL    HW122754   1.512   3.630  13.543  1.8621  2.3374 -1.8064
 3707SOL    HW222755   1.414   3.567  13.456  0.3306 -0.4083 -3.6902
 3708SOL     OW22756   1.252   0.206  16.269  0.8815 -0.3193  0.3102
 3708SOL    HW122757   1.170   0.255  16.265  1.0662  0.1313  2.0015
 3708SOL    HW222758   1.227   0.128  16.319  0.5316  0.3259  1.1424
 3709SOL     OW22759   0.910   3.983  16.360  0.0466  0.2923  0.2555
 3709SOL    HW122760   0.823   3.947  16.377 -0.5692  2.2832  1.2760
 3709SOL    HW222761   0.904   4.002  16.267 -1.5553  1.4593  0.5984
 3710SOL     OW22762   1.348   1.545   0.910 -0.4319 -0.3995 -0.5167
 3710SOL    HW122763   1.368   1.623   0.961 -0.5432  0.0488 -1.1563
 3710SOL    HW222764   1.315   1.584   0.829 -0.8330  0.0280 -0.1528
 3711SOL     OW22765   3.910   0.244  15.646 -0.1667  0.3746 -0.1506
 3711SOL    HW122766   3.906   0.316  15.583 -1.1330 -0.6876 -1.3268
 3711SOL    HW222767   3.974   0.270  15.712  0.5570  0.2383 -0.7921
 3712SOL     OW22768   4.244   2.030  10.362  0.0983 -0.0837 -0.8306
 3712SOL    HW122769   4.236   1.968  10.435 -0.0351  2.0745  1.0159
 3712SOL    HW222770   4.154   2.045  10.333 -0.1380  0.6642  0.2986
 3713SOL     OW22771   0.209   0.578   4.762 -0.2117  0.2108  0.1031
 3713SOL    HW122772   0.268   0.580   4.688 -0.0774  1.1081  0.2355
 3713SOL    HW222773   0.196   0.672   4.774  2.2438  0.4246  1.1328
 3714SOL     OW22774   1.289   4.667   5.240 -0.5638 -0.2023  0.6910
 3714SOL    HW122775   1.254   4.663   5.151  1.1049 -1.5133  0.0788
 3714SOL    HW222776   1.344   0.010   5.225  1.9137 -2.3668 -1.5895
 3715SOL     OW22777   0.945   0.111  15.427  0.4778  0.3772 -0.2172
 3715SOL    HW122778   0.946   0.170  15.352 -0.3553 -0.1066 -0.6105
 3715SOL    HW222779   0.890   0.047  15.382  2.0740 -1.0630 -0.1308
 3716SOL     OW22780   4.617   4.159   5.660  0.3562  0.0164  0.2046
 3716SOL    HW122781   4.651   4.120   5.580  0.4888  0.9849 -0.2086
 3716SOL    HW222782   4.545   4.100   5.684  0.1429 -0.0011 -0.4845
 3717SOL     OW22783   0.073   3.142  15.441 -0.0631  0.4639 -0.8765
 3717SOL    HW122784   0.142   3.181  15.387  0.4396 -1.8403 -1.8986
 3717SOL    HW222785   0.001   3.204  15.432 -0.0828  0.6354  0.4245
 3718SOL     OW22786   4.419   4.699   7.137 -0.3083  0.0467 -0.1217
 3718SOL    HW122787   4.478   4.625   7.124 -0.3584  0.1720 -1.0605
 3718SOL    HW222788   4.433   4.720   7.229  1.6513 -2.5702  0.1688
 3719SOL     OW22789   0.976   4.358   7.638 -0.9858  0.0052  0.3157
 3719SOL    HW122790   0.901   4.319   7.594  0.8091 -1.2120 -1.7253
 3719SOL    HW222791   0.952   4.450   7.646 -0.1029  0.2954 -0.2957
 3720SOL     OW22792   3.600   2.128   7.339 -0.5522  0.1289  0.6507
 3720SOL    HW122793   3.695   2.143   7.342 -0.8401  2.1077 -0.4993
 3720SOL    HW222794   3.572   2.214   7.369 -0.5258  0.6055 -0.7163
 3721SOL     OW22795   0.489   1.924  16.616 -0.0814  0.4461 -0.5214
 3721SOL    HW122796   0.535   1.860  16.561  0.5476 -1.2245  1.9574
 3721SOL    HW222797   0.549   1.925  16.690 -1.5266  0.7190  0.6443
 3722SOL     OW22798   0.511   3.771   2.293 -0.6061  0.3255  0.0861
 3722SOL    HW122799   0.466   3.704   2.242  0.9064 -1.7120  1.4507
 3722SOL    HW222800   0.439   3.823   2.328 -1.9159 -1.1951 -0.3564
 3723SOL     OW22801   2.107   1.057   9.878 -0.2676 -0.3064  0.0969
 3723SOL    HW122802   2.094   1.093   9.790 -1.3467 -0.8256  0.0502
 3723SOL    HW222803   2.035   0.995   9.882 -0.1748 -0.3668  0.8907
 3724SOL     OW22804   3.562   2.435   1.372 -0.3604  0.2932  0.0275
 3724SOL    HW122805   3.489   2.416   1.314  1.8970 -1.9652 -2.0999
 3724SOL    HW222806   3.539   2.523   1.401  1.5256  0.9293 -0.4265
 3725SOL     OW22807   4.588   4.627   1.850 -0.0151  0.5722 -0.3607
 3725SOL    HW122808   4.644   4.688   1.899 -0.0667 -0.7215  1.2991
 3725SOL    HW222809   4.599   4.671   1.766  0.2328  0.6330 -0.2956
 3726SOL     OW22810   4.111   1.129   9.118  0.0784 -0.2850 -0.1096
 3726SOL    HW122811   4.193   1.158   9.158  0.6074 -2.0335  0.0721
 3726SOL    HW222812   4.120   1.184   9.040  2.7545 -0.7988 -0.1629
 3727SOL     OW22813   2.734   0.214   9.453 -0.1345 -0.3297  0.0132
 3727SOL    HW122814   2.790   0.291   9.443 -0.5046 -0.2224 -1.2427
 3727SOL    HW222815   2.731   0.185   9.362 -1.5785 -1.3484  0.3955
 3728SOL     OW22816   3.689   3.989  17.363 -0.4905  0.0747 -0.2301
 3728SOL    HW122817   3.724   4.063  17.414 -0.3962  0.8092 -1.3647
 3728SOL    HW222818   3.732   3.916  17.408 -1.0964  0.2463  0.6247
 3729SOL     OW22819   0.127   1.409   8.082 -0.1697 -0.2761 -0.2559
 3729SOL    HW122820   0.074   1.370   8.013 -0.6619 -1.9100  1.0589
 3729SOL    HW222821   0.147   1.330   8.131  0.8158  0.5088  0.6068
 3730SOL     OW22822   4.297   1.386  12.466 -0.3080 -0.6385 -0.2389
 3730SOL    HW122823   4.388   1.413  12.483  0.3585 -0.9088 -3.2734
 3730SOL    HW222824   4.306   1.290  12.466 -0.0064 -0.6103  0.0378
 3731SOL     OW22825   1.779   2.185   7.200 -0.3053  0.2697 -0.3274
 3731SOL    HW122826   1.855   2.203   7.145  0.5021 -1.3478  0.2703
 3731SOL    HW222827   1.776   2.089   7.192 -0.6351  0.2334  0.2488
 3732SOL     OW22828   3.834   3.494   4.331 -0.1682  0.0720  0.4436
 3732SOL    HW122829   3.813   3.459   4.244  1.4505 -2.4068  1.0758
 3732SOL    HW222830   3.797   3.581   4.317  1.8930  1.0573  1.1511
 3733SOL     OW22831   1.104   2.520   6.809  1.1396 -0.1684 -0.2935
 3733SOL    HW122832   1.082   2.581   6.879 -2.1678 -0.5998 -0.9909
 3733SOL    HW222833   1.120   2.450   6.872 -0.2508  1.6649  2.0726
 3734SOL     OW22834   0.070   4.025   9.496 -0.2654  0.5224 -0.0699
 3734SOL    HW122835   0.151   4.011   9.447 -0.7164 -1.5129 -0.2326
 3734SOL    HW222836   0.100   4.028   9.587 -0.7528  1.4241  0.0602
 3735SOL     OW22837   4.017   1.197   2.245 -0.2197  0.2997  0.3047
 3735SOL    HW122838   3.965   1.124   2.277 -1.2002  1.2593  0.8985
 3735SOL    HW222839   4.104   1.159   2.234 -1.0463 -1.8936  1.4180
 3736SOL     OW22840   3.613   3.684   1.225 -0.1988  0.0406 -0.4408
 3736SOL    HW122841   3.663   3.700   1.305 -1.3443 -0.6019  0.4115
 3736SOL    HW222842   3.596   3.775   1.202  1.1351  0.2247 -0.6805
 3737SOL     OW22843   3.852   3.463   6.697  0.1252 -0.0556  0.3628
 3737SOL    HW122844   3.910   3.493   6.627 -1.4050  1.3201 -0.3584
 3737SOL    HW222845   3.871   3.370   6.708 -0.2643 -0.3968 -1.7239
 3738SOL     OW22846   0.625   1.302   5.362 -0.1352 -0.4792 -0.6160
 3738SOL    HW122847   0.612   1.330   5.453 -0.3242 -1.8467 -0.2145
 3738SOL    HW222848   0.575   1.220   5.359  1.2783 -1.3932  0.7169
 3739SOL     OW22849   4.348   1.183   6.907 -0.0897 -0.0007 -0.3113
 3739SOL    HW122850   4.312   1.127   6.976 -0.8288 -0.0024 -0.7033
 3739SOL    HW222851   4.342   1.266   6.955 -0.0006 -0.6476  0.8036
 3740SOL     OW22852   1.068   0.274  12.189 -0.2337 -0.0851  0.4251
 3740SOL    HW122853   1.145   0.317  12.225  1.4656 -2.3698 -0.4930
 3740SOL    HW222854   1.092   0.247  12.100  1.7709  1.7754  0.4253
 3741SOL     OW22855   4.455   3.218   3.481  0.4484 -0.1229  0.6430
 3741SOL    HW122856   4.480   3.298   3.435  0.0012 -0.7288 -0.6540
 3741SOL    HW222857   4.364   3.235   3.503 -0.8223 -2.8313 -2.4982
 3742SOL     OW22858   1.693   3.927   1.348  0.5188  0.4581 -0.4549
 3742SOL    HW122859   1.731   3.927   1.261 -1.5414  0.3689 -1.3462
 3742SOL    HW222860   1.600   3.910   1.335  1.0359 -1.8471 -1.0442
 3743SOL     OW22861   4.439   1.721  14.665  0.3833 -0.5909 -0.4382
 3743SOL    HW122862   4.419   1.664  14.739 -1.7842  1.5731  0.6292
 3743SOL    HW222863   4.529   1.745  14.686  0.1052 -0.2703  0.3801
 3744SOL     OW22864   2.786   0.574   7.713  0.0503  0.0706  0.1168
 3744SOL    HW122865   2.862   0.595   7.659 -1.7789 -0.5501 -2.7055
 3744SOL    HW222866   2.766   0.488   7.677  0.3370  0.1160 -0.1546
 3745SOL     OW22867   1.224   4.598   1.546 -0.0087 -0.1403  0.6472
 3745SOL    HW122868   1.212   4.678   1.493 -0.1159 -0.5284  0.0822
 3745SOL    HW222869   1.265   4.539   1.482 -2.0708 -0.8115 -0.0532
 3746SOL     OW22870   1.814   2.568   9.499  0.2745 -0.3009  0.2562
 3746SOL    HW122871   1.852   2.489   9.537  0.7668 -0.0161  0.3524
 3746SOL    HW222872   1.857   2.632   9.555  0.5294  0.3485 -0.6976
 3747SOL     OW22873   1.295   0.186   0.419 -0.5586 -0.2922  0.1340
 3747SOL    HW122874   1.329   0.102   0.451  0.6753 -0.0773 -0.5898
 3747SOL    HW222875   1.221   0.159   0.364 -0.9113 -0.3349  0.6322
 3748SOL     OW22876   1.595   0.988   3.906 -0.3763 -0.1509 -0.3978
 3748SOL    HW122877   1.676   0.994   3.856  0.1434 -1.8871  0.2295
 3748SOL    HW222878   1.568   0.897   3.894 -0.2332 -0.3605  0.9182
 3749SOL     OW22879   2.903   4.706  17.433  0.1434  0.8613  0.6966
 3749SOL    HW122880   2.810   4.687  17.433  0.0444  1.3684  1.8070
 3749SOL    HW222881   2.897   0.064  17.457  1.7065  1.1829 -0.1067
 3750SOL     OW22882   3.925   1.512   1.280  0.2170  0.0145 -0.0895
 3750SOL    HW122883   3.941   1.440   1.340  1.7613 -0.5251 -1.1564
 3750SOL    HW222884   3.912   1.584   1.343 -0.3458  2.1267 -2.6139
 3751SOL     OW22885   3.393   2.428  12.437  0.1196  0.1270  0.1281
 3751SOL    HW122886   3.437   2.438  12.522  2.5052  0.0781 -1.0938
 3751SOL    HW222887   3.367   2.519  12.420  1.6324  0.0384 -2.6480
 3752SOL     OW22888   4.196   0.273   2.260  0.1275  0.0920  0.2646
 3752SOL    HW122889   4.149   0.206   2.210  0.7607 -0.2926  0.1882
 3752SOL    HW222890   4.283   0.252   2.228  0.6082  0.5578  1.2915
 3753SOL     OW22891   4.178   0.431   4.410 -0.0061  0.0203  0.5054
 3753SOL    HW122892   4.256   0.443   4.465  0.0981 -0.0372  0.3716
 3753SOL    HW222893   4.175   0.524   4.386  1.4635 -0.4908 -1.6384
 3754SOL     OW22894   1.644   4.450  16.317 -0.4962  0.1836 -0.3801
 3754SOL    HW122895   1.697   4.498  16.254  0.2216 -0.8065 -0.5298
 3754SOL    HW222896   1.565   4.425  16.270 -1.2303 -0.0700  0.9706
 3755SOL     OW22897   3.323   0.791  11.235  0.1532  0.2323  0.2348
 3755SOL    HW122898   3.347   0.721  11.174 -0.8815  1.2599 -1.3490
 3755SOL    HW222899   3.236   0.814  11.202 -0.7255 -2.7264  0.4191
 3756SOL     OW22900   0.074   2.402   3.275 -0.3328 -0.5139  0.2022
 3756SOL    HW122901   0.077   2.321   3.326  1.7311  0.8436  2.2540
 3756SOL    HW222902   0.109   2.475   3.325 -1.1844  0.8362 -1.1717
 3757SOL     OW22903   1.393   1.770  11.778 -0.3977 -0.9897 -0.0825
 3757SOL    HW122904   1.306   1.806  11.760  0.3562  0.5403 -0.6962
 3757SOL    HW222905   1.460   1.836  11.760 -2.4163  1.2904  0.7276
 3758SOL     OW22906   3.263   2.413   4.260 -0.5423  0.2273 -0.2532
 3758SOL    HW122907   3.334   2.350   4.276 -0.8640 -0.2684 -0.7922
 3758SOL    HW222908   3.202   2.372   4.321  0.0477  0.7310  0.6731
 3759SOL     OW22909   4.473   3.288   6.030  0.7448  0.2264  0.3795
 3759SOL    HW122910   4.507   3.245   5.951  1.6668 -0.3737  1.0948
 3759SOL    HW222911   4.553   3.309   6.077  1.2803 -0.3303 -0.2831
 3760SOL     OW22912   1.036   3.079   6.172  0.1113  0.8302 -0.1574
 3760SOL    HW122913   1.017   3.092   6.079 -1.6150  1.3708  0.2697
 3760SOL    HW222914   1.131   3.085   6.163  0.4165 -2.5288  0.9673
 3761SOL     OW22915   0.254   1.131   6.077 -0.2869  0.4656  0.0816
 3761SOL    HW122916   0.219   1.107   6.163 -1.5979  2.8276  0.2076
 3761SOL    HW222917   0.347   1.110   6.090 -0.6517 -1.3954 -0.2977
 3762SOL     OW22918   3.072   3.997  12.641 -0.6168 -0.4078  0.0164
 3762SOL    HW122919   2.990   3.951  12.624  0.0140 -1.0463 -1.2410
 3762SOL    HW222920   3.090   3.960  12.728  1.2728 -1.4405 -0.8170
 3763SOL     OW22921   4.413   1.067   5.436  0.1050 -0.1852  0.3999
 3763SOL    HW122922   4.362   0.999   5.392 -0.1988 -0.9367  1.9334
 3763SOL    HW222923   4.501   1.029   5.433 -0.6419 -1.8038 -0.9553
 3764SOL     OW22924   4.642   3.365  12.384 -0.0728 -0.6435  0.3064
 3764SOL    HW122925   4.565   3.418  12.407 -0.0307 -0.8024  0.7980
 3764SOL    HW222926   4.611   3.327  12.302 -0.3072  2.3112 -1.0007
 3765SOL     OW22927   2.233   0.762  12.474  0.1605  0.3099 -0.3850
 3765SOL    HW122928   2.260   0.842  12.520  1.5649 -1.2827  1.5713
 3765SOL    HW222929   2.158   0.795  12.425  1.5718  2.9557 -0.7774
 3766SOL     OW22930   3.626   1.430   0.739 -0.1272 -0.2688  0.3889
 3766SOL    HW122931   3.622   1.435   0.835  0.8909  2.1097  0.2994
 3766SOL    HW222932   3.660   1.516   0.714  1.0363 -0.7504  0.3377
 3767SOL     OW22933   2.616   3.881   5.142  0.0626 -0.1334  0.2758
 3767SOL    HW122934   2.545   3.841   5.092 -0.8631  2.0584 -0.1597
 3767SOL    HW222935   2.687   3.817   5.138 -0.9503 -1.2203 -0.1107
 3768SOL     OW22936   0.221   1.335   2.792  0.2889  0.3964  0.1797
 3768SOL    HW122937   0.278   1.390   2.739 -0.7694  0.9391 -0.3888
 3768SOL    HW222938   0.173   1.285   2.725 -1.0916 -0.2372  1.6379
 3769SOL     OW22939   0.834   0.990  17.384  0.1791  0.0450 -0.1286
 3769SOL    HW122940   0.864   0.909  17.425  0.0097 -0.2474 -0.5899
 3769SOL    HW222941   0.820   1.040  17.464 -0.0323 -0.6385  0.2599
 3770SOL     OW22942   3.314   0.594   5.640  0.1679 -0.3429  0.3175
 3770SOL    HW122943   3.257   0.598   5.563  1.3234 -2.1832 -0.6407
 3770SOL    HW222944   3.392   0.640   5.608 -0.7917  0.9435 -0.1742
 3771SOL     OW22945   3.339   0.180   6.166  0.3210  0.1801  0.4205
 3771SOL    HW122946   3.383   0.200   6.084 -0.3384  2.7324  0.6935
 3771SOL    HW222947   3.392   0.109   6.201 -2.8050 -2.9084 -1.0579
 3772SOL     OW22948   0.291   3.977   7.758  0.4346 -0.4336 -0.2871
 3772SOL    HW122949   0.356   3.932   7.812  0.9643  0.8017  0.0933
 3772SOL    HW222950   0.218   3.922   7.788  0.2682  0.0619  0.2156
 3773SOL     OW22951   0.012   4.582   8.213  0.9883 -0.3331  0.1176
 3773SOL    HW122952   0.055   4.626   8.139  0.9634 -1.8306 -0.7980
 3773SOL    HW222953   4.672   4.641   8.210  0.0682 -1.4976  0.0883
 3774SOL     OW22954   0.512   4.257   4.092  0.3305 -0.3079 -0.0022
 3774SOL    HW122955   0.440   4.224   4.146  0.8783 -1.0456  0.2750
 3774SOL    HW222956   0.570   4.283   4.164  0.5099  3.3377 -1.4492
 3775SOL     OW22957   0.675   0.418   4.836 -0.3984 -0.0746 -0.5144
 3775SOL    HW122958   0.652   0.509   4.856 -1.6988 -0.3823 -0.5747
 3775SOL    HW222959   0.769   0.425   4.824 -0.0985 -0.7550  1.3895
 3776SOL     OW22960   0.783   1.032   8.962 -0.3960  0.5922  0.0108
 3776SOL    HW122961   0.824   1.080   9.034  2.9297 -1.6712 -0.3723
 3776SOL    HW222962   0.714   0.986   9.009 -0.4948 -0.3669 -1.0863
 3777SOL     OW22963   4.076   3.663  11.987 -0.3643 -0.0835 -0.7100
 3777SOL    HW122964   3.997   3.699  12.029 -0.5609 -1.9941  0.5893
 3777SOL    HW222965   4.077   3.714  11.906 -0.8985  1.4272  0.2141
 3778SOL     OW22966   3.005   2.090   3.179  0.6144 -0.0375 -1.0316
 3778SOL    HW122967   2.994   2.099   3.085 -0.1984 -1.0846 -1.0323
 3778SOL    HW222968   3.041   2.178   3.196 -0.3257  0.1555 -0.0141
 3779SOL     OW22969   1.417   3.096  13.624  0.5597 -0.1394  0.1745
 3779SOL    HW122970   1.485   3.161  13.641  0.3991  0.6038 -2.0445
 3779SOL    HW222971   1.349   3.156  13.596  1.6580  0.6759 -0.7725
 3780SOL     OW22972   2.672   1.191   4.053  0.0705 -0.1798 -0.1132
 3780SOL    HW122973   2.684   1.280   4.021  1.9438 -0.0784  0.8624
 3780SOL    HW222974   2.652   1.213   4.144  1.7774  1.8008 -0.2195
 3781SOL     OW22975   2.379   4.513   3.455  0.4895  0.4294  0.2750
 3781SOL    HW122976   2.439   4.540   3.386 -0.5762  0.6290 -0.5852
 3781SOL    HW222977   2.314   4.582   3.446  1.4664  1.2884 -0.1814
 3782SOL     OW22978   2.075   0.223   6.145 -0.8942  0.4294 -0.4332
 3782SOL    HW122979   2.154   0.276   6.162 -0.7690  0.0035  0.3138
 3782SOL    HW222980   2.064   0.247   6.053 -0.3860 -1.2851 -0.9296
 3783SOL     OW22981   2.960   4.681  16.309  0.0958  0.5814  0.2464
 3783SOL    HW122982   2.871   4.647  16.319  0.7348 -1.0572  0.3767
 3783SOL    HW222983   2.992   4.645  16.392 -1.6565  0.9452  1.0906
 3784SOL     OW22984   3.981   0.168  15.327  0.1371 -0.4793 -0.2527
 3784SOL    HW122985   4.005   0.076  15.337 -0.7000 -0.6934 -0.1841
 3784SOL    HW222986   4.047   0.198  15.265 -0.3713 -0.0702 -0.5994
 3785SOL     OW22987   2.068   1.939  10.987  0.0550 -0.6139  0.4554
 3785SOL    HW122988   2.065   2.035  10.990 -0.4040 -0.5475 -2.0327
 3785SOL    HW222989   1.973   1.927  10.986 -0.1739  1.1196 -0.3295
 3786SOL     OW22990   3.816   4.284   1.410  0.0644  0.1595 -0.0489
 3786SOL    HW122991   3.806   4.204   1.359  0.0408  0.5972 -0.7367
 3786SOL    HW222992   3.908   4.311   1.407  0.0772  0.3261  1.7562
 3787SOL     OW22993   2.581   4.159   0.347  0.4944 -0.4419  0.2663
 3787SOL    HW122994   2.525   4.149   0.424 -0.2771  0.3752 -0.1841
 3787SOL    HW222995   2.519   4.180   0.276 -0.9301 -1.8743  1.1057
 3788SOL     OW22996   4.486   1.001   2.517 -0.2169 -0.2188 -0.3137
 3788SOL    HW122997   4.548   1.040   2.455 -0.2915 -1.3190 -1.0900
 3788SOL    HW222998   4.544   0.942   2.565  3.8257  3.0842 -1.1516
 3789SOL     OW22999   1.037   0.802  15.634  0.6517  0.3602  0.0088
 3789SOL    HW123000   0.998   0.722  15.598  1.5983 -0.9783  2.0034
 3789SOL    HW223001   0.981   0.868  15.592  1.3546  1.2948  0.5514
 3790SOL     OW23002   0.248   3.866   0.419 -0.1753 -0.4008 -0.4142
 3790SOL    HW123003   0.277   3.791   0.367 -2.1952  0.3361 -2.6792
 3790SOL    HW223004   0.154   3.855   0.432 -0.4989  2.5935 -0.2279
 3791SOL     OW23005   4.143   4.710   5.332  0.5035  0.0028 -0.4332
 3791SOL    HW123006   4.162   0.068   5.347 -1.6405  0.2672  0.5289
 3791SOL    HW223007   4.181   4.678   5.414 -1.0217 -1.2569 -0.2257
 3792SOL     OW23008   0.793   3.370   5.503  0.4740  0.0568  0.0369
 3792SOL    HW123009   0.878   3.365   5.547  1.1192 -1.7521 -1.3922
 3792SOL    HW223010   0.808   3.303   5.435  1.5850 -1.3425  1.6494
 3793SOL     OW23011   2.741   0.562   4.481 -0.2909  0.0763 -0.5857
 3793SOL    HW123012   2.742   0.650   4.517  1.7904 -0.0288 -0.3855
 3793SOL    HW223013   2.834   0.536   4.478 -0.5042 -0.5935 -1.4959
 3794SOL     OW23014   3.162   0.401   5.471 -0.4194 -0.3113 -0.5333
 3794SOL    HW123015   3.194   0.313   5.455  1.2803  1.2681 -5.7798
 3794SOL    HW223016   3.093   0.377   5.532  1.4630 -0.5694  1.4833
 3795SOL     OW23017   2.714   0.365   3.837  0.2418 -0.2430 -0.1808
 3795SOL    HW123018   2.762   0.447   3.849  2.6677 -1.5449 -1.1504
 3795SOL    HW223019   2.638   0.397   3.787 -0.1403  0.3929  0.8216
 3796SOL     OW23020   2.362   1.864   9.373  0.2644  0.0170  0.3852
 3796SOL    HW123021   2.413   1.895   9.448  0.4366  0.0473  0.2547
 3796SOL    HW223022   2.380   1.928   9.304 -0.6161 -1.4763 -1.2532
 3797SOL     OW23023   1.549   3.304  15.744 -0.1148 -0.1159  0.3716
 3797SOL    HW123024   1.537   3.209  15.753  3.4343 -0.8018 -1.9731
 3797SOL    HW223025   1.638   3.325  15.773 -0.0354  0.4974 -0.3395
 3798SOL     OW23026   3.660   4.480   7.101  0.4429  0.1385 -0.2606
 3798SOL    HW123027   3.668   4.388   7.078  0.5063  0.4155 -1.3297
 3798SOL    HW223028   3.672   4.503   7.009  1.2783 -2.1613 -0.6979
 3799SOL     OW23029   3.935   3.810   9.356  0.2177  0.5497 -0.0623
 3799SOL    HW123030   3.893   3.872   9.415 -1.2060 -1.3292  0.8703
 3799SOL    HW223031   4.006   3.777   9.411  0.1602  0.4962 -0.0206
 3800SOL     OW23032   2.280   3.703   3.065 -0.1731  0.0322 -0.6205
 3800SOL    HW123033   2.348   3.688   3.000 -1.0341 -0.0323 -1.5111
 3800SOL    HW223034   2.315   3.785   3.101 -1.1306  0.9747 -1.8329
 3801SOL     OW23035   2.992   1.101   7.391  0.1551  0.0158  0.6832
 3801SOL    HW123036   3.035   1.162   7.332 -1.0828  0.1079 -0.1200
 3801SOL    HW223037   2.992   1.022   7.336  1.5242  0.1967  0.4215
 3802SOL     OW23038   2.024   0.516   6.202  0.1009  1.0910  0.1090
 3802SOL    HW123039   1.991   0.435   6.242 -1.9417  1.2030 -1.3718
 3802SOL    HW223040   2.081   0.477   6.136 -0.7517  1.1915 -0.6879
 3803SOL     OW23041   1.369   0.244   2.058  0.1664  0.0153  0.1717
 3803SOL    HW123042   1.343   0.152   2.065  1.9767 -0.3732  1.6860
 3803SOL    HW223043   1.438   0.245   2.124 -1.6453  1.5373  2.0337
 3804SOL     OW23044   0.466   4.389   7.693 -0.3739  0.3188  0.7753
 3804SOL    HW123045   0.425   4.474   7.710 -0.5036  0.2772  0.6684
 3804SOL    HW223046   0.396   4.329   7.722 -0.1635 -0.9879 -1.4435
 3805SOL     OW23047   2.595   3.119   8.478 -0.1111  0.2159  0.1766
 3805SOL    HW123048   2.573   3.213   8.475  1.1406  0.4997 -0.1860
 3805SOL    HW223049   2.554   3.080   8.401  1.8712  0.3464 -0.9716
 3806SOL     OW23050   3.162   3.869  13.626  0.4549 -0.3331  0.0593
 3806SOL    HW123051   3.152   3.931  13.699  1.8588  0.0915 -0.1031
 3806SOL    HW223052   3.097   3.804  13.653 -0.5485  1.3261  1.7089
 3807SOL     OW23053   4.649   0.238   7.018  0.7770  0.4181  0.2740
 3807SOL    HW123054   4.704   0.165   7.045  0.0136  0.4578  1.9496
 3807SOL    HW223055   4.708   0.308   7.045 -0.1291  1.5997 -0.7932
 3808SOL     OW23056   0.789   0.547   6.806 -0.2427  0.2784  0.0999
 3808SOL    HW123057   0.792   0.573   6.714 -1.6804 -2.0856 -0.6142
 3808SOL    HW223058   0.801   0.633   6.847 -1.1437  1.8282 -2.9476
 3809SOL     OW23059   3.738   0.965   5.423 -0.6348 -0.0894  0.0375
 3809SOL    HW123060   3.672   0.982   5.355  1.0154 -1.3078 -1.8805
 3809SOL    HW223061   3.822   0.950   5.381 -0.4277 -3.1783  1.5824
 3810SOL     OW23062   1.341   4.558   3.008  0.4071  0.4572 -0.0171
 3810SOL    HW123063   1.398   4.575   2.933  0.4300  0.0558 -0.0941
 3810SOL    HW223064   1.275   4.501   2.967 -0.7775  0.6028  1.6733
 3811SOL     OW23065   3.474   0.767   2.345  0.4528 -0.3121  0.0461
 3811SOL    HW123066   3.460   0.861   2.361 -0.3651 -0.2433 -1.0245
 3811SOL    HW223067   3.554   0.753   2.395  0.8156  0.2490 -0.3656
 3812SOL     OW23068   2.412   0.586   8.196 -0.0595  0.0018 -0.0717
 3812SOL    HW123069   2.465   0.521   8.149  0.9964 -0.0515  1.2086
 3812SOL    HW223070   2.445   0.665   8.153 -0.5467  0.6817  0.8065
 3813SOL     OW23071   3.805   4.248   6.461  0.1353 -0.5868 -0.1674
 3813SOL    HW123072   3.835   4.288   6.379 -1.9247  0.2389 -0.5017
 3813SOL    HW223073   3.745   4.313   6.497  0.7420  0.8987 -1.8393
 3814SOL     OW23074   0.390   2.436   3.454 -0.7340  0.2813 -0.7650
 3814SOL    HW123075   0.448   2.376   3.500  1.3929  2.0642 -1.1168
 3814SOL    HW223076   0.418   2.421   3.363 -0.4622 -1.5479 -0.3838
 3815SOL     OW23077   4.580   0.110   6.803 -0.0698  0.3091  0.1560
 3815SOL    HW123078   4.662   0.092   6.757 -1.9637  0.1039 -3.1306
 3815SOL    HW223079   4.608   0.161   6.879 -0.8693  0.2154  0.5178
 3816SOL     OW23080   1.214   1.018   6.852 -0.3698 -0.1502 -0.0618
 3816SOL    HW123081   1.303   1.050   6.839 -0.1318 -0.7781 -0.0066
 3816SOL    HW223082   1.216   0.923   6.839  1.0226 -0.1654  0.1957
 3817SOL     OW23083   4.110   1.188  10.301 -0.0334  0.0678 -0.9525
 3817SOL    HW123084   4.178   1.253  10.285  1.5954 -0.9494  1.8221
 3817SOL    HW223085   4.055   1.243  10.357  1.2937  0.5172 -0.0951
 3818SOL     OW23086   3.508   0.585  11.567  0.1112  0.4315 -0.0886
 3818SOL    HW123087   3.544   0.673  11.581  2.8445 -1.1482  2.7471
 3818SOL    HW223088   3.551   0.568  11.483 -0.5470  0.9299 -0.5261
 3819SOL     OW23089   1.232   2.216  13.905 -0.0179 -0.5440  0.0384
 3819SOL    HW123090   1.214   2.203  13.812  1.2268  0.0544 -0.2824
 3819SOL    HW223091   1.222   2.311  13.915 -0.0851 -0.3121 -2.2936
 3820SOL     OW23092   2.476   4.168   4.786 -0.1203  0.1873  0.2664
 3820SOL    HW123093   2.516   4.170   4.873 -0.1467  0.0104  0.2846
 3820SOL    HW223094   2.386   4.199   4.795 -0.8263 -1.5280 -0.8346
 3821SOL     OW23095   3.561   1.761   5.856 -0.5245 -0.7430  0.3645
 3821SOL    HW123096   3.655   1.777   5.848 -0.6414 -0.7587 -1.1846
 3821SOL    HW223097   3.557   1.671   5.823 -1.4534 -0.2885 -0.7827
 3822SOL     OW23098   4.010   2.703   6.194 -0.4085 -0.3799  0.0859
 3822SOL    HW123099   4.022   2.684   6.101  0.2402  2.3449 -0.3885
 3822SOL    HW223100   3.987   2.614   6.222 -0.3692 -0.4019  0.0501
 3823SOL     OW23101   2.532   3.151   5.501 -0.0014 -0.4161  0.7145
 3823SOL    HW123102   2.500   3.176   5.414  2.7564  0.9184  0.1009
 3823SOL    HW223103   2.584   3.229   5.519  0.3460 -0.6140  0.5748
 3824SOL     OW23104   3.518   1.646   4.614 -0.1368 -0.2569 -0.3320
 3824SOL    HW123105   3.466   1.566   4.608  0.7517 -1.0483  2.3631
 3824SOL    HW223106   3.599   1.618   4.656 -0.0969 -1.4852 -1.2380
 3825SOL     OW23107   3.254   4.375   2.136 -0.1682 -0.1283  0.4336
 3825SOL    HW123108   3.209   4.328   2.066 -1.7485  1.1042  0.6357
 3825SOL    HW223109   3.199   4.452   2.145 -0.9562 -0.5519 -0.7890
 3826SOL     OW23110   2.167   0.927   9.431  0.0000  0.4407  0.0050
 3826SOL    HW123111   2.111   0.994   9.471  0.9537  1.4071 -0.2798
 3826SOL    HW223112   2.111   0.873   9.375 -0.3942 -0.1199  0.9513
 3827SOL     OW23113   2.168   3.403   4.525  0.2337 -0.3861  0.4262
 3827SOL    HW123114   2.101   3.342   4.494 -0.7164 -0.7724  3.1987
 3827SOL    HW223115   2.181   3.363   4.611 -1.6441 -0.4068  0.7103
 3828SOL     OW23116   2.832   0.101   2.851 -0.1413  0.3621  0.2324
 3828SOL    HW123117   2.914   0.133   2.812  0.7924 -1.9028  0.3530
 3828SOL    HW223118   2.780   0.162   2.798 -0.5025 -1.0128 -0.9856
 3829SOL     OW23119   1.067   1.989   7.664  0.5582  0.7391 -0.4429
 3829SOL    HW123120   0.985   1.959   7.704  2.0914 -2.6063  0.1608
 3829SOL    HW223121   1.109   1.903   7.660 -0.1493  0.4442 -1.4920
 3830SOL     OW23122   4.628   1.231   9.589  0.9793  0.4875 -0.3330
 3830SOL    HW123123   4.587   1.256   9.671  2.0481 -2.1934  1.0065
 3830SOL    HW223124   4.599   1.299   9.528 -2.0452  0.2595  0.8775
 3831SOL     OW23125   3.410   3.357   4.718  0.3521 -0.0781 -0.3917
 3831SOL    HW123126   3.442   3.283   4.666  3.1555  1.5747 -1.0163
 3831SOL    HW223127   3.457   3.433   4.686 -0.2900 -0.1426 -1.4752
 3832SOL     OW23128   4.678   4.494   1.467  0.4046 -1.1635  0.2634
 3832SOL    HW123129   4.624   4.561   1.425  1.0684  0.7285  2.4421
 3832SOL    HW223130   4.691   4.434   1.393  2.6524  0.1052 -0.3531
 3833SOL     OW23131   2.580   2.034  13.206  0.0650  0.0424 -0.5621
 3833SOL    HW123132   2.652   1.991  13.160  1.9822 -0.7703  3.1960
 3833SOL    HW223133   2.602   2.022  13.298  0.6367  0.4849 -0.6442
 3834SOL     OW23134   0.587   2.782   1.967  0.4563  0.0444  0.5474
 3834SOL    HW123135   0.497   2.763   1.942  0.2981  0.7868  0.5588
 3834SOL    HW223136   0.594   2.752   2.058  2.8095  1.7124  0.9153
 3835SOL     OW23137   2.140   0.150   0.412  0.4652  0.0408  0.4735
 3835SOL    HW123138   2.117   0.145   0.505  0.2685 -0.0094  0.4231
 3835SOL    HW223139   2.133   0.242   0.389  3.6420  0.5687  1.5730
 3836SOL     OW23140   1.474   0.052  14.664  0.0489  0.4234  0.1868
 3836SOL    HW123141   1.435   0.139  14.670 -0.2493  0.3237 -0.3029
 3836SOL    HW223142   1.556   0.065  14.710  1.1917  0.4577 -1.8483
 3837SOL     OW23143   2.222   2.620   8.913  0.3347  0.2677  0.3135
 3837SOL    HW123144   2.314   2.613   8.887  0.3785 -0.0168  0.5422
 3837SOL    HW223145   2.234   2.586   9.002 -0.7339  1.1005  0.7815
 3838SOL     OW23146   4.692   2.854   7.474  0.4654 -0.0202 -0.2480
 3838SOL    HW123147   0.021   2.909   7.428 -0.9690  1.2846 -0.6605
 3838SOL    HW223148   4.612   2.880   7.428 -0.1684  0.7507  1.2960
 3839SOL     OW23149   3.977   4.311   3.062  0.3361 -0.4079 -0.8431
 3839SOL    HW123150   3.911   4.380   3.055  0.4761  0.0663  2.3741
 3839SOL    HW223151   3.934   4.226   3.070 -0.0629 -0.3230 -2.2051
 3840SOL     OW23152   0.345   1.778   5.767 -0.0322 -0.2869 -0.7088
 3840SOL    HW123153   0.346   1.855   5.711 -1.9632  1.2071  1.2945
 3840SOL    HW223154   0.312   1.816   5.849 -2.0650 -2.2978 -0.5732
 3841SOL     OW23155   0.748   2.038   3.953  0.0263 -0.3049  0.1263
 3841SOL    HW123156   0.835   2.005   3.930 -0.8302 -1.3102 -1.6179
 3841SOL    HW223157   0.700   1.957   3.965 -0.4381  0.1815  1.5681
 3842SOL     OW23158   0.286   1.545  14.300 -0.5368 -0.1945 -0.4556
 3842SOL    HW123159   0.287   1.590  14.216  0.4440  1.0328  0.2006
 3842SOL    HW223160   0.365   1.588  14.333 -1.0293  0.3360  0.0458
 3843SOL     OW23161   2.365   2.295   4.985  0.4458  0.0276  0.6626
 3843SOL    HW123162   2.312   2.375   4.996 -0.9990 -0.9364  0.6974
 3843SOL    HW223163   2.314   2.238   4.927  0.7897  0.0108  0.3710
 3844SOL     OW23164   4.237   2.121   1.425 -0.7443  0.6742 -0.0856
 3844SOL    HW123165   4.202   2.118   1.515 -1.3012  1.2139 -0.2791
 3844SOL    HW223166   4.329   2.102   1.443 -0.9552  0.0253  0.3272
 3845SOL     OW23167   4.386   1.316   9.406 -0.4669  0.0064  0.0402
 3845SOL    HW123168   4.353   1.246   9.463  1.4978 -1.3753 -0.5359
 3845SOL    HW223169   4.371   1.278   9.319  0.5685 -0.5801  0.1160
 3846SOL     OW23170   2.742   1.344   1.617 -0.0394  0.1931 -0.1901
 3846SOL    HW123171   2.648   1.326   1.617  0.0197 -0.0630  1.6602
 3846SOL    HW223172   2.766   1.290   1.692  2.4705  1.1697 -0.2843
 3847SOL     OW23173   4.641   0.827   1.979 -0.0658  0.5245 -0.0587
 3847SOL    HW123174   4.724   0.786   2.001 -0.4355 -0.3363 -0.2827
 3847SOL    HW223175   4.589   0.747   1.977  0.2920  0.3293 -1.5667
 3848SOL     OW23176   1.913   3.886   5.531 -0.2739  0.8049 -0.4570
 3848SOL    HW123177   1.841   3.857   5.587 -0.1770 -2.7460 -2.1547
 3848SOL    HW223178   1.926   3.977   5.556 -1.1610  1.0347 -0.8031
 3849SOL     OW23179   4.121   0.324   6.858  0.2071 -0.2682  0.2659
 3849SOL    HW123180   4.165   0.409   6.852  1.5847 -1.1774 -2.5986
 3849SOL    HW223181   4.195   0.264   6.854  0.4248 -0.0049  0.3146
 3850SOL     OW23182   3.296   2.490   3.280  0.2783 -0.3416  0.9246
 3850SOL    HW123183   3.300   2.519   3.189  2.4236 -0.4662  0.9783
 3850SOL    HW223184   3.370   2.535   3.321  1.7668 -1.8252 -0.1224
 3851SOL     OW23185   3.357   1.898  16.553  0.1114 -0.1241 -0.4345
 3851SOL    HW123186   3.307   1.979  16.538  0.0201  0.1338  1.3384
 3851SOL    HW223187   3.441   1.932  16.583  0.4371 -3.1116  2.0162
 3852SOL     OW23188   0.072   1.028   1.896 -0.0305 -0.1889 -0.0161
 3852SOL    HW123189   0.077   1.011   1.802 -0.3584  3.1942 -0.6462
 3852SOL    HW223190   0.006   0.966   1.927 -2.0410  1.4411 -0.9989
 3853SOL     OW23191   2.875   1.042   6.204  0.5296  0.2632  0.0248
 3853SOL    HW123192   2.908   1.113   6.148  0.4335 -0.1654 -0.5718
 3853SOL    HW223193   2.959   1.018   6.242 -0.0982 -1.3608  0.3564
 3854SOL     OW23194   4.202   3.915   7.024 -0.2661 -0.4383  0.5009
 3854SOL    HW123195   4.217   3.957   7.109 -0.2501  0.5235  0.0186
 3854SOL    HW223196   4.184   3.989   6.966 -0.3943 -0.2925  0.7254
 3855SOL     OW23197   0.223   2.011   7.205 -0.1773 -0.6803  0.4004
 3855SOL    HW123198   0.164   2.082   7.229 -0.1750  0.3004 -2.4435
 3855SOL    HW223199   0.246   1.989   7.295 -1.5335 -1.5610  0.5195
 3856SOL     OW23200   1.062   0.128   0.285  0.1939  0.2491  0.1573
 3856SOL    HW123201   1.083   0.036   0.271 -1.2075  0.1521 -1.3134
 3856SOL    HW223202   0.992   0.140   0.222 -2.7588 -0.9196  3.2280
 3857SOL     OW23203   3.852   2.292   4.756 -0.3087 -0.4855  0.1947
 3857SOL    HW123204   3.782   2.312   4.694  0.6325 -1.7669 -1.2835
 3857SOL    HW223205   3.919   2.354   4.729 -0.7083  1.2995  3.2720
 3858SOL     OW23206   0.878   2.632   8.782  0.3738  0.4635  0.3063
 3858SOL    HW123207   0.911   2.599   8.866 -1.4280 -1.1802  0.3861
 3858SOL    HW223208   0.784   2.624   8.798  0.3400  0.1159 -0.0587
 3859SOL     OW23209   4.495   0.969   4.186 -0.0757  0.4083 -0.5537
 3859SOL    HW123210   4.487   0.887   4.235  1.0215  0.2939 -0.5821
 3859SOL    HW223211   4.560   1.011   4.242 -0.9702  0.7314  0.2689
 3860SOL     OW23212   0.705   2.416   2.653  0.3117  0.1107  0.6442
 3860SOL    HW123213   0.668   2.504   2.649 -0.2181 -0.0963  0.8975
 3860SOL    HW223214   0.672   2.399   2.565  2.6948  3.2300 -0.8731
 3861SOL     OW23215   0.737   0.484  11.531 -0.2537 -0.0866  0.8512
 3861SOL    HW123216   0.707   0.457  11.618  1.9951 -1.5232  1.2099
 3861SOL    HW223217   0.691   0.429  11.468  2.1859  2.0297 -2.8010
 3862SOL     OW23218   0.778   2.592  13.971  0.0149  0.1050 -0.1753
 3862SOL    HW123219   0.806   2.501  13.977  1.4082  0.5397 -0.0841
 3862SOL    HW223220   0.730   2.582  13.889 -1.9391 -0.4506  1.0490
 3863SOL     OW23221   3.469   4.697   0.862  0.4060  0.4655 -0.3526
 3863SOL    HW123222   3.480   4.611   0.902  0.3866  0.1265 -1.0802
 3863SOL    HW223223   3.377   4.690   0.836  0.1571  0.4774  0.5182
 3864SOL     OW23224   0.431   1.099  14.130  0.0020 -0.2681  0.0236
 3864SOL    HW123225   0.480   1.173  14.093  0.3511 -0.3143  0.3885
 3864SOL    HW223226   0.353   1.144  14.162  0.5645 -0.0714  1.1441
 3865SOL     OW23227   3.964   3.942   8.138 -0.3891  0.2841 -0.2428
 3865SOL    HW123228   3.973   3.862   8.087 -1.0113  0.4905 -0.6682
 3865SOL    HW223229   3.992   3.919   8.227 -1.3311 -0.4874 -0.1500
 3866SOL     OW23230   3.091   1.511   6.145 -0.5379  0.3616 -0.2596
 3866SOL    HW123231   3.041   1.531   6.225  0.2911  0.5210  0.2224
 3866SOL    HW223232   3.157   1.577   6.165 -0.0920  0.1537 -1.0597
 3867SOL     OW23233   3.289   2.947   3.946 -0.0997  0.1189 -0.2155
 3867SOL    HW123234   3.246   3.031   3.930 -0.5787 -0.0310  0.2850
 3867SOL    HW223235   3.324   2.963   4.033  1.3360 -1.5558 -0.4866
 3868SOL     OW23236   1.601   4.040  15.080  0.0031  0.2590 -0.5521
 3868SOL    HW123237   1.628   3.982  15.009 -2.0991 -1.8587  0.3672
 3868SOL    HW223238   1.555   3.977  15.134 -0.7125  2.5759  1.5263
 3869SOL     OW23239   1.936   0.055   9.263 -0.5184  0.6229 -0.3089
 3869SOL    HW123240   2.013   0.087   9.217 -0.8912  1.1966 -0.5427
 3869SOL    HW223241   1.923   0.122   9.331 -0.7055 -0.7161  0.9607
 3870SOL     OW23242   0.945   0.981  12.287 -0.4371 -0.3735 -0.2044
 3870SOL    HW123243   0.859   0.959  12.251 -0.7038 -0.7047  0.6431
 3870SOL    HW223244   1.007   0.965  12.215 -0.5219 -1.1409 -0.1061
 3871SOL     OW23245   1.626   1.440   5.768 -0.2580  0.5391 -0.1758
 3871SOL    HW123246   1.665   1.428   5.855 -0.8563  0.2813  0.0626
 3871SOL    HW223247   1.566   1.512   5.791 -0.2800  0.0144  1.4152
 3872SOL     OW23248   4.545   0.184  11.432 -0.0944 -0.0068  0.4002
 3872SOL    HW123249   4.512   0.210  11.346  0.2073 -1.4134 -0.1448
 3872SOL    HW223250   4.532   0.265  11.482  2.6649  0.8107 -0.1585
 3873SOL     OW23251   1.499   2.226  11.847  0.1104  0.0262 -0.2476
 3873SOL    HW123252   1.438   2.268  11.786 -0.8703 -0.9389  0.0651
 3873SOL    HW223253   1.586   2.253  11.818  1.1992 -3.1129  0.1247
 3874SOL     OW23254   1.795   0.837   5.552 -0.5210  0.0585  0.2960
 3874SOL    HW123255   1.742   0.855   5.475  0.6038  0.4182 -0.4016
 3874SOL    HW223256   1.729   0.837   5.621 -1.1510  1.9998 -0.3214
 3875SOL     OW23257   3.483   1.520   2.137  0.0541  0.0990  0.3068
 3875SOL    HW123258   3.560   1.555   2.091  1.7390 -2.9932  0.7050
 3875SOL    HW223259   3.490   1.558   2.224  0.8390  0.7831 -0.0564
 3876SOL     OW23260   1.590   0.374   1.878 -0.9889 -0.2594  0.8952
 3876SOL    HW123261   1.574   0.291   1.924 -0.5224 -0.7407  0.1872
 3876SOL    HW223262   1.656   0.340   1.818 -0.4928  2.7440 -0.2481
 3877SOL     OW23263   2.280   0.856   5.758 -0.8609  0.2421  0.4224
 3877SOL    HW123264   2.235   0.917   5.699  0.4404  1.3072  0.5336
 3877SOL    HW223265   2.369   0.888   5.752 -0.7893  0.0775  0.5920
 3878SOL     OW23266   3.933   4.534  14.037  0.0615 -0.5428  0.7658
 3878SOL    HW123267   3.898   4.620  14.060  0.6036  0.5679 -2.5595
 3878SOL    HW223268   4.018   4.532  14.082  0.2555 -2.4880  0.3287
 3879SOL     OW23269   1.888   3.257  15.944 -0.0882 -0.2898 -0.4447
 3879SOL    HW123270   1.926   3.323  16.001 -0.5964 -1.6644  1.4772
 3879SOL    HW223271   1.875   3.313  15.867  2.1367  1.2859  0.3452
 3880SOL     OW23272   4.336   4.726   0.808 -0.0865  0.4907 -0.1837
 3880SOL    HW123273   4.337   0.083   0.837  0.3775 -0.2810  2.1928
 3880SOL    HW223274   4.381   4.683   0.880  2.6897  0.7754 -1.7251
 3881SOL     OW23275   3.842   4.015   5.852 -0.6803  0.1199  0.1487
 3881SOL    HW123276   3.821   4.026   5.759  1.0535  1.2875 -0.0998
 3881SOL    HW223277   3.849   4.107   5.880  0.6044 -0.0154  0.2713
 3882SOL     OW23278   2.340   0.007   6.634  0.4468  0.0166  0.2573
 3882SOL    HW123279   2.385   4.688   6.568  1.1213  1.6799 -0.6342
 3882SOL    HW223280   2.403   0.007   6.706 -1.0101  2.9740  1.5093
 3883SOL     OW23281   1.127   3.129  12.322 -0.4211  0.4855 -0.6520
 3883SOL    HW123282   1.212   3.086  12.315 -0.5308  0.4830 -1.9497
 3883SOL    HW223283   1.065   3.061  12.295 -0.0458 -0.4797  0.8978
 3884SOL     OW23284   2.206   1.283  17.570  0.5132 -0.2544 -0.1120
 3884SOL    HW123285   2.164   1.214  17.621  0.0766 -2.0289 -2.8560
 3884SOL    HW223286   2.218   1.357  17.630  0.3498 -1.0961  0.9487
 3885SOL     OW23287   1.732   2.939   3.197  0.0111 -0.0615  0.6099
 3885SOL    HW123288   1.646   2.969   3.167 -0.0998 -0.0164  0.9662
 3885SOL    HW223289   1.705   2.889   3.274  2.0666 -0.8696  0.8003
 3886SOL     OW23290   0.130   2.169   4.123  0.9438  0.0158 -0.4904
 3886SOL    HW123291   0.181   2.222   4.184  0.6576  0.1913 -0.4019
 3886SOL    HW223292   0.139   2.215   4.039 -3.0747 -0.2509 -1.0823
 3887SOL     OW23293   2.197   2.300  12.073  0.6606  0.0669  0.3711
 3887SOL    HW123294   2.125   2.363  12.067  0.2076 -0.4981 -0.0632
 3887SOL    HW223295   2.166   2.237  12.139  2.9575 -0.7830  0.6380
 3888SOL     OW23296   1.001   0.978   4.746 -0.2663  0.1134 -0.4376
 3888SOL    HW123297   1.026   1.042   4.679  0.6131 -0.7751 -0.9519
 3888SOL    HW223298   1.062   0.992   4.818 -1.1780  3.6843 -0.3509
 3889SOL     OW23299   4.253   1.847  11.757 -0.5918 -0.1676  0.5031
 3889SOL    HW123300   4.195   1.823  11.829  0.5548  1.6083  2.0330
 3889SOL    HW223301   4.333   1.796  11.774 -0.0920  0.0733 -1.0854
 3890SOL     OW23302   0.622   2.937   6.801  0.6531  0.0124 -0.3127
 3890SOL    HW123303   0.642   2.849   6.771  1.2958  0.5999 -1.5715
 3890SOL    HW223304   0.662   2.989   6.731  0.7145 -0.3220 -0.5228
 3891SOL     OW23305   4.485   4.273  10.175  0.6203  0.1098 -0.5300
 3891SOL    HW123306   4.458   4.186  10.144 -0.1657  0.8837 -2.0653
 3891SOL    HW223307   4.580   4.261  10.169  0.3820 -1.2848 -1.5421
 3892SOL     OW23308   2.475   2.711   6.004 -0.1805 -0.1185 -0.4637
 3892SOL    HW123309   2.494   2.694   6.096 -0.1472 -0.4741 -0.5337
 3892SOL    HW223310   2.555   2.754   5.976 -0.0868 -1.6914 -2.6194
 3893SOL     OW23311   3.451   2.485   6.475  0.0542 -0.2444 -0.1104
 3893SOL    HW123312   3.470   2.576   6.499  0.3993 -0.8462  1.9311
 3893SOL    HW223313   3.455   2.500   6.380  0.6591 -2.4253 -0.4307
 3894SOL     OW23314   4.632   1.293   0.504  0.2547 -0.1027  0.1152
 3894SOL    HW123315   4.694   1.320   0.436 -0.7239  0.1733 -0.6645
 3894SOL    HW223316   4.648   1.199   0.501 -0.3990 -0.2916  3.0535
 3895SOL     OW23317   4.573   2.253   4.993  0.0993 -0.0093 -0.1918
 3895SOL    HW123318   4.665   2.278   4.980  0.0412  0.6539  0.6631
 3895SOL    HW223319   4.552   2.270   5.085  0.3817 -1.2060  0.0946
 3896SOL     OW23320   0.390   2.822   6.897  0.0716  0.4673  0.4767
 3896SOL    HW123321   0.436   2.905   6.887 -0.1014  0.5996  0.7849
 3896SOL    HW223322   0.432   2.784   6.975  1.3090  0.1624 -0.3299
 3897SOL     OW23323   2.343   3.655  16.760  0.2438 -0.2431 -0.4690
 3897SOL    HW123324   2.253   3.688  16.759  0.2749 -0.1329  2.1120
 3897SOL    HW223325   2.338   3.572  16.712 -0.8584 -0.4157 -0.0622
 3898SOL     OW23326   3.024   2.276   6.525 -0.2905 -0.3084 -0.0784
 3898SOL    HW123327   3.112   2.256   6.491 -0.1494  0.1522  0.0056
 3898SOL    HW223328   3.010   2.366   6.496 -3.5965 -1.2961 -1.5007
 3899SOL     OW23329   3.025   3.983  16.709  0.0373  0.1522 -0.5429
 3899SOL    HW123330   2.932   3.965  16.694  0.1143  0.5059 -1.4133
 3899SOL    HW223331   3.015   4.041  16.784 -1.5697 -1.1249  0.2528
 3900SOL     OW23332   3.789   4.121  12.378  0.2497 -0.6046  0.2831
 3900SOL    HW123333   3.768   4.131  12.285 -0.4031  4.1169  0.9759
 3900SOL    HW223334   3.884   4.106  12.374  0.5812  1.0488  2.3871
 3901SOL     OW23335   2.047   1.273   2.573 -0.3605  0.0568  0.2702
 3901SOL    HW123336   2.110   1.342   2.596 -0.8368 -0.0336  1.8179
 3901SOL    HW223337   2.020   1.265   2.664 -0.4301 -2.8020 -0.0126
 3902SOL     OW23338   3.363   2.148   3.617  0.2901  0.4818 -0.6113
 3902SOL    HW123339   3.428   2.107   3.560 -0.7185 -1.3715 -0.4183
 3902SOL    HW223340   3.389   2.134   3.708 -3.2771 -2.0220  0.0201
 3903SOL     OW23341   0.237   0.917   3.494  0.5229 -0.0302 -0.2900
 3903SOL    HW123342   0.244   1.007   3.461  1.6447  0.3664  1.0469
 3903SOL    HW223343   0.218   0.861   3.419  0.2856  0.7704 -0.8308
 3904SOL     OW23344   4.282   0.960   9.332  0.3615  0.1577 -0.5190
 3904SOL    HW123345   4.212   0.896   9.343  1.3355 -0.9311 -0.5784
 3904SOL    HW223346   4.283   1.010   9.414  1.0756 -0.3647 -0.2010
 3905SOL     OW23347   4.101   3.018  15.734  0.0888 -0.4387 -0.3108
 3905SOL    HW123348   4.169   2.969  15.782 -0.2019  0.1970  0.7384
 3905SOL    HW223349   4.042   2.948  15.705 -1.4238 -0.1865  2.1857
 3906SOL     OW23350   1.010   1.502   6.445  0.5204  0.3460 -0.2205
 3906SOL    HW123351   1.040   1.473   6.358  2.7944 -1.6676  1.2069
 3906SOL    HW223352   0.945   1.571   6.439 -1.2723 -1.2999  0.4088
 3907SOL     OW23353   3.161   3.595   6.276 -0.1287 -0.5012 -0.1890
 3907SOL    HW123354   3.106   3.538   6.330 -2.2461  2.0089  0.3124
 3907SOL    HW223355   3.099   3.654   6.231  1.8371  1.1847 -0.7002
 3908SOL     OW23356   4.313   0.072   6.281 -0.1345 -0.4636 -0.9978
 3908SOL    HW123357   4.234   0.120   6.307  1.4545  1.6646 -0.1386
 3908SOL    HW223358   4.356   0.138   6.227  1.6405  0.8195  2.0514
 3909SOL     OW23359   3.912   0.549   6.372  0.9119 -0.4298  0.3624
 3909SOL    HW123360   3.901   0.630   6.323  2.8121 -0.9947 -1.0042
 3909SOL    HW223361   3.897   0.485   6.303 -2.4972  1.6964 -0.8351
 3910SOL     OW23362   4.173   1.472  13.034 -0.1196  0.0278  0.3118
 3910SOL    HW123363   4.210   1.405  13.092  0.1047  1.2951  1.6272
 3910SOL    HW223364   4.218   1.544  13.077  1.9975 -1.0657 -0.0290
 3911SOL     OW23365   2.015   0.669   5.028  0.5343  0.2044  0.2824
 3911SOL    HW123366   1.954   0.666   5.101  2.1880  0.2647  1.6746
 3911SOL    HW223367   2.099   0.643   5.068  1.9595  3.1701 -0.7968
 3912SOL     OW23368   1.299   0.691   6.387  0.4809 -0.0046  0.4237
 3912SOL    HW123369   1.363   0.634   6.428  0.7206 -1.0374 -1.4208
 3912SOL    HW223370   1.253   0.627   6.333 -2.2536  1.2571  1.2461
 3913SOL     OW23371   3.031   1.801   2.855  0.0498 -0.3035 -0.1051
 3913SOL    HW123372   2.937   1.788   2.841 -0.3359  3.6878 -1.1530
 3913SOL    HW223373   3.039   1.858   2.932  0.4149 -1.1085  0.4650
 3914SOL     OW23374   2.695   0.165   7.843 -0.0067 -0.5056 -0.3887
 3914SOL    HW123375   2.721   0.256   7.834 -0.9362 -0.2465 -0.4987
 3914SOL    HW223376   2.601   0.183   7.850  0.3499  1.1819 -0.1353
 3915SOL     OW23377   0.332   0.169   6.272  0.1722 -0.1931 -0.3428
 3915SOL    HW123378   0.407   0.123   6.233  0.7929 -0.3485  1.0090
 3915SOL    HW223379   0.264   0.103   6.288  2.2256 -2.6113 -1.4403
 3916SOL     OW23380   3.212   2.027   4.623  0.1710  0.3239 -0.2666
 3916SOL    HW123381   3.288   2.025   4.565  0.4019 -1.1166  0.0965
 3916SOL    HW223382   3.243   1.975   4.698  0.6066 -2.9406 -2.7296
 3917SOL     OW23383   0.235   3.937   2.320  0.1391 -0.2484 -0.2688
 3917SOL    HW123384   0.202   3.951   2.409  1.3886 -0.5143  0.2402
 3917SOL    HW223385   0.216   4.026   2.290  0.3058 -0.3935 -0.8020
 3918SOL     OW23386   3.144   0.544   5.253  0.5098 -0.1560  0.6605
 3918SOL    HW123387   3.167   0.467   5.201 -1.4260 -0.3735  0.1281
 3918SOL    HW223388   3.132   0.497   5.335 -2.2171  0.3098  0.5309
 3919SOL     OW23389   1.260   3.381   5.816  0.3132 -0.4460  0.4617
 3919SOL    HW123390   1.279   3.355   5.906  1.7180  2.1129  0.9153
 3919SOL    HW223391   1.334   3.432   5.782  1.1735 -2.3649 -0.5428
 3920SOL     OW23392   1.102   0.224   7.875  0.2565  0.6484  0.3329
 3920SOL    HW123393   1.112   0.136   7.910 -2.0962  0.3916  0.3804
 3920SOL    HW223394   1.014   0.236   7.911 -1.3787  1.4495 -3.8154
 3921SOL     OW23395   3.599   2.675   8.526  0.0891  0.0352  0.1257
 3921SOL    HW123396   3.505   2.689   8.539  0.8071  1.2462  4.1170
 3921SOL    HW223397   3.607   2.652   8.434 -0.8057 -1.0334  0.3144
 3922SOL     OW23398   2.842   3.239   6.635  0.0539  0.4959  0.1377
 3922SOL    HW123399   2.775   3.183   6.675  0.3629 -0.4086 -0.5904
 3922SOL    HW223400   2.909   3.258   6.700  0.0023  0.5033  0.1889
 3923SOL     OW23401   2.301   1.023   0.328  0.0781 -0.2099  0.7107
 3923SOL    HW123402   2.362   1.090   0.359 -0.0044 -0.8487  2.2480
 3923SOL    HW223403   2.243   1.014   0.404 -0.0839 -1.5781  0.4271
 3924SOL     OW23404   0.273   3.177   5.901  0.5000  0.2195  0.7663
 3924SOL    HW123405   0.216   3.100   5.892  0.3928  0.2922  0.8402
 3924SOL    HW223406   0.303   3.172   5.991  0.4121 -0.1916  0.7727
 3925SOL     OW23407   0.355   1.593   8.075 -0.5030 -0.4662 -0.4640
 3925SOL    HW123408   0.365   1.582   8.170 -2.2783  0.9352 -0.1196
 3925SOL    HW223409   0.284   1.529   8.070 -0.1185 -1.0299  1.0009
 3926SOL     OW23410   3.992   1.274  16.042 -0.0776  0.2998  0.6410
 3926SOL    HW123411   4.008   1.282  15.948 -1.6524 -0.3320  0.3143
 3926SOL    HW223412   4.013   1.364  16.066  2.2888  0.5663 -2.4518
 3927SOL     OW23413   4.260   4.137  12.053  0.1960  0.5335 -0.1961
 3927SOL    HW123414   4.342   4.184  12.070  0.7620 -1.3042  2.1598
 3927SOL    HW223415   4.210   4.196  11.996  1.7503  3.5259  1.5356
 3928SOL     OW23416   1.503   2.935   6.430  0.0798  0.3267  0.0211
 3928SOL    HW123417   1.566   2.887   6.484 -1.1112 -0.6836  0.5104
 3928SOL    HW223418   1.497   3.017   6.479  2.9001  1.2165 -1.0878
 3929SOL     OW23419   3.836   4.190   9.084 -0.1748  0.0261  0.5566
 3929SOL    HW123420   3.831   4.108   9.035  1.7972  1.1414 -1.5047
 3929SOL    HW223421   3.748   4.183   9.122 -0.4297 -0.1466 -0.0592
 3930SOL     OW23422   4.158   1.104   4.291 -0.6554 -0.4997 -0.2700
 3930SOL    HW123423   4.065   1.104   4.311  0.1228  0.9934  3.4067
 3930SOL    HW223424   4.163   1.091   4.197  0.7559 -1.2923 -0.0885
 3931SOL     OW23425   2.578   3.578  12.361 -0.2093 -0.1425  0.3680
 3931SOL    HW123426   2.658   3.539  12.395  0.7440 -0.2028 -1.9055
 3931SOL    HW223427   2.551   3.513  12.296  1.3813  1.1252 -1.5600
 3932SOL     OW23428   2.383   2.350   3.286 -0.2839 -0.0573  0.1653
 3932SOL    HW123429   2.403   2.421   3.347 -0.4084 -0.8534  1.1460
 3932SOL    HW223430   2.473   2.324   3.269  0.1627  1.9553 -0.4864
 3933SOL     OW23431   3.671   0.312   2.769  0.3116  0.2286 -0.1210
 3933SOL    HW123432   3.727   0.262   2.709  1.7721 -0.6280  1.9688
 3933SOL    HW223433   3.588   0.266   2.782 -0.5265  1.6369 -0.4827
 3934SOL     OW23434   2.459   1.544   3.428 -0.5987  0.6925  0.4208
 3934SOL    HW123435   2.550   1.532   3.400 -0.7807 -0.4807  0.3329
 3934SOL    HW223436   2.469   1.615   3.492  0.2620  0.8486  0.1262
 3935SOL     OW23437   4.656   2.450  11.344 -0.9762  0.1023 -0.8067
 3935SOL    HW123438   4.581   2.490  11.389  0.4078  0.4339  1.1922
 3935SOL    HW223439   4.630   2.360  11.364 -1.3619 -0.0931 -2.1525
 3936SOL     OW23440   2.390   2.760  11.560  0.2421 -0.7122 -0.0327
 3936SOL    HW123441   2.448   2.774  11.636  0.6852 -0.4066 -0.4294
 3936SOL    HW223442   2.353   2.673  11.577  0.7695 -0.6393  1.5107
 3937SOL     OW23443   3.383   0.296  12.749  0.4420 -0.3989 -0.5457
 3937SOL    HW123444   3.452   0.362  12.754  0.0716 -0.2345  2.3686
 3937SOL    HW223445   3.426   0.217  12.783 -0.2780 -0.4910  0.1379
 3938SOL     OW23446   2.946   4.184   6.219  0.5756  0.1686  0.4977
 3938SOL    HW123447   2.872   4.189   6.279  1.7821  2.6568  1.7739
 3938SOL    HW223448   2.979   4.096   6.237 -0.7832 -0.3198  0.6143
 3939SOL     OW23449   1.666   0.777   2.045  0.1843  0.3897 -0.3919
 3939SOL    HW123450   1.732   0.757   2.112  0.9436  0.3285 -1.1590
 3939SOL    HW223451   1.716   0.822   1.977 -0.9610  0.1643 -1.3622
 3940SOL     OW23452   0.013   1.129  16.897 -0.0006  0.3166 -0.2819
 3940SOL    HW123453   4.673   1.074  16.922  1.4035 -0.9359  1.1708
 3940SOL    HW223454   0.016   1.194  16.967  0.9846  1.5880 -1.5223
 3941SOL     OW23455   2.950   0.423   6.382 -0.0546 -0.5577 -0.5573
 3941SOL    HW123456   3.006   0.360   6.336 -0.2302 -0.2961 -1.1304
 3941SOL    HW223457   2.972   0.401   6.472  0.9695 -1.2161 -0.9727
 3942SOL     OW23458   3.113   4.060   2.676 -0.2627 -0.4856 -0.3981
 3942SOL    HW123459   3.142   4.098   2.759 -0.8267 -1.5552  0.2862
 3942SOL    HW223460   3.168   3.982   2.676 -2.0616 -1.7531 -0.9456
 3943SOL     OW23461   2.555   0.572   4.059 -0.6300  0.2011  0.2969
 3943SOL    HW123462   2.591   0.499   4.110  0.1653  0.4036  0.0319
 3943SOL    HW223463   2.627   0.597   4.001 -1.4775 -1.6363 -1.5614
 3944SOL     OW23464   0.441   2.769   7.149  0.8253 -0.2389  0.3950
 3944SOL    HW123465   0.414   2.790   7.238 -0.0705  0.0118  0.0617
 3944SOL    HW223466   0.528   2.732   7.165  2.0984  1.6080 -2.2052
 3945SOL     OW23467   0.254   1.490   7.777 -0.3472  0.0703  0.2369
 3945SOL    HW123468   0.287   1.549   7.845 -0.8254 -1.2411  1.6013
 3945SOL    HW223469   0.257   1.548   7.701 -0.3766  0.6193  0.6580
 3946SOL     OW23470   0.924   2.695  11.785 -0.3113 -0.1428  0.2980
 3946SOL    HW123471   0.880   2.625  11.736 -0.6041  0.4544 -0.2925
 3946SOL    HW223472   1.012   2.688  11.747 -0.4989  2.4211 -0.5996
 3947SOL     OW23473   0.658   2.598   5.370  0.7730 -0.1196 -0.1837
 3947SOL    HW123474   0.703   2.677   5.340  1.8491 -0.2638  1.0447
 3947SOL    HW223475   0.604   2.638   5.438 -0.8655 -1.6227 -0.5744
 3948SOL     OW23476   2.572   0.880   5.838  0.2110 -0.0065 -0.6182
 3948SOL    HW123477   2.522   0.871   5.919  1.4762 -0.8414  0.0631
 3948SOL    HW223478   2.663   0.877   5.867 -1.2874 -2.5803  3.7208
 3949SOL     OW23479   2.650   0.739   6.615  0.6827 -0.5483  0.5592
 3949SOL    HW123480   2.557   0.730   6.597  0.6808  3.6206 -1.5225
 3949SOL    HW223481   2.653   0.675   6.686  0.0530  1.1955  2.1448
 3950SOL     OW23482   2.765   1.820   2.809 -0.5201  0.1520 -0.0970
 3950SOL    HW123483   2.699   1.874   2.853 -0.2845  0.8259 -0.5622
 3950SOL    HW223484   2.732   1.823   2.719 -0.1460 -1.8562 -0.3097
 3951SOL     OW23485   1.650   3.425   5.764  0.1117 -0.4660  0.4368
 3951SOL    HW123486   1.621   3.436   5.673  1.8913 -0.4586 -0.1386
 3951SOL    HW223487   1.635   3.508   5.809  1.0393  0.8008 -1.5661
 3952SOL     OW23488   0.010   4.591  14.750  0.0213 -0.2324 -0.7296
 3952SOL    HW123489   4.663   4.603  14.798  0.2182 -1.7962  0.0043
 3952SOL    HW223490   0.013   4.496  14.765  1.7991  0.2499  2.0127
 3953SOL     OW23491   2.909   3.977  17.065 -0.3721  0.1512  0.9883
 3953SOL    HW123492   2.916   4.062  17.020 -0.9003 -0.6276 -0.5427
 3953SOL    HW223493   2.962   3.994  17.143  1.7837  0.7962 -0.5805
 3954SOL     OW23494   0.258   1.646   7.025  0.9107  0.7469  0.1837
 3954SOL    HW123495   0.298   1.560   7.037  0.3207  0.3815 -0.4299
 3954SOL    HW223496   0.250   1.623   6.932  0.0556  0.9118  0.2122
 3955SOL     OW23497   3.904   4.116   0.466 -0.4995 -0.0291  0.5311
 3955SOL    HW123498   3.965   4.088   0.398 -0.8629 -0.4755  0.3860
 3955SOL    HW223499   3.892   4.029   0.502  0.5859 -1.1894 -1.8932
 3956SOL     OW23500   2.010   3.860  13.336 -0.0552  0.2897  0.1437
 3956SOL    HW123501   2.060   3.940  13.319 -0.5450  0.8307  1.1954
 3956SOL    HW223502   2.076   3.793  13.354  1.5651  1.8816  0.1391
 3957SOL     OW23503   0.354   3.678   3.425  0.4403 -0.1576 -0.9222
 3957SOL    HW123504   0.310   3.601   3.388  2.4200 -1.7321  0.0016
 3957SOL    HW223505   0.303   3.746   3.380  1.4344  0.1976 -1.4942
 3958SOL     OW23506   3.499   1.178   8.086 -0.7480 -0.1965 -0.1381
 3958SOL    HW123507   3.429   1.127   8.127  1.5915 -3.9275 -0.7359
 3958SOL    HW223508   3.569   1.113   8.096  0.8508  1.7141  0.9473
 3959SOL     OW23509   4.618   3.407   8.160 -0.0406 -0.5185  0.2999
 3959SOL    HW123510   4.608   3.404   8.065  1.4959 -1.7294  0.1802
 3959SOL    HW223511   4.542   3.458   8.189 -1.1472 -0.6455 -2.4419
 3960SOL     OW23512   0.786   4.261   4.659  0.4477 -0.0928 -0.0295
 3960SOL    HW123513   0.834   4.309   4.727  0.5310  0.7985 -0.7210
 3960SOL    HW223514   0.796   4.167   4.674  1.0114  0.2630  1.9144
 3961SOL     OW23515   4.287   1.356   1.542 -0.4918  0.0584 -0.0983
 3961SOL    HW123516   4.312   1.392   1.627  0.5663  0.4526 -0.5805
 3961SOL    HW223517   4.297   1.265   1.571 -2.1095 -0.4811 -1.2531
 3962SOL     OW23518   1.710   1.976   4.682  0.3746  0.2217  0.3202
 3962SOL    HW123519   1.747   1.901   4.728 -1.6978 -1.6110 -0.9925
 3962SOL    HW223520   1.727   2.035   4.755  1.9300  1.1796 -0.8173
 3963SOL     OW23521   4.691   2.001   3.077  0.7036 -0.0490 -0.3520
 3963SOL    HW123522   0.039   2.046   3.098  0.3723  0.5033 -0.2254
 3963SOL    HW223523   4.723   1.917   3.043  1.4318 -0.6003  1.7035
 3964SOL     OW23524   1.413   0.774  11.763 -0.4399  0.4604  0.4834
 3964SOL    HW123525   1.328   0.819  11.763 -0.3606  0.5801 -1.6392
 3964SOL    HW223526   1.469   0.850  11.781 -0.2867  0.7760 -1.3998
 3965SOL     OW23527   0.369   1.900   6.503  0.0491  0.2216 -0.7074
 3965SOL    HW123528   0.291   1.931   6.549  1.3054  3.0393 -0.4606
 3965SOL    HW223529   0.330   1.853   6.430  2.0293 -0.7175 -1.1790
 3966SOL     OW23530   3.298   0.342   3.635  0.0598  0.4328  0.1027
 3966SOL    HW123531   3.384   0.363   3.598 -0.6103  3.9044  0.5273
 3966SOL    HW223532   3.258   0.306   3.556  0.1108  2.7615 -0.9749
 3967SOL     OW23533   2.825   3.688   5.137  0.5293  0.1159  0.0252
 3967SOL    HW123534   2.812   3.595   5.119 -0.9590  0.3353 -0.1017
 3967SOL    HW223535   2.885   3.689   5.211  2.9615 -0.2724 -1.9688
 3968SOL     OW23536   0.886   3.533   8.309  0.0923  0.3702  0.1462
 3968SOL    HW123537   0.851   3.580   8.233 -1.7615  0.8282  1.3011
 3968SOL    HW223538   0.962   3.591   8.318  0.0582  0.6385 -1.2333
 3969SOL     OW23539   0.314   0.861   8.094 -0.1793 -0.1338  1.0513
 3969SOL    HW123540   0.307   0.835   8.002 -1.8819 -0.1911  1.1950
 3969SOL    HW223541   0.268   0.794   8.145 -0.2338  0.1626  1.3928
 3970SOL     OW23542   4.274   2.855  11.885 -0.7471 -0.2821  0.2091
 3970SOL    HW123543   4.206   2.839  11.951 -0.4669  0.0089  0.5689
 3970SOL    HW223544   4.304   2.943  11.907  2.3355 -1.3317  0.2352
 3971SOL     OW23545   1.057   3.290   0.508  0.0077 -0.7080  0.0282
 3971SOL    HW123546   0.973   3.258   0.542 -0.3990  0.4094  0.0935
 3971SOL    HW223547   1.013   3.363   0.464  0.4424 -1.1644 -1.1402
 3972SOL     OW23548   3.437   4.553   7.306 -0.0760  0.0698 -0.4911
 3972SOL    HW123549   3.487   4.560   7.224 -0.5474 -0.8314 -0.8508
 3972SOL    HW223550   3.503   4.555   7.374 -1.9210  1.3469  1.2660
 3973SOL     OW23551   4.153   4.587  11.642 -0.0974  0.4883  0.1695
 3973SOL    HW123552   4.184   4.665  11.596 -1.1076  2.3844  2.7203
 3973SOL    HW223553   4.176   4.518  11.579  1.8061  0.8166  0.5152
 3974SOL     OW23554   4.313   3.566  14.306  0.6461 -0.3611  0.2856
 3974SOL    HW123555   4.374   3.520  14.364 -1.0323 -2.4455  0.3705
 3974SOL    HW223556   4.347   3.550  14.218 -0.2649  1.3841 -0.3891
 3975SOL     OW23557   0.864   2.611   3.094  0.4389 -0.2319 -0.2847
 3975SOL    HW123558   0.872   2.659   3.012  0.1895  1.2017  0.5387
 3975SOL    HW223559   0.946   2.566   3.116  1.5155  0.6637 -2.4623
 3976SOL     OW23560   0.228   1.364  13.578  0.4475 -0.2281  0.4410
 3976SOL    HW123561   0.294   1.296  13.568  3.0097  2.3545 -0.1165
 3976SOL    HW223562   0.145   1.318  13.563  0.2018  0.4166 -0.2019
 3977SOL     OW23563   2.956   2.543   4.143  0.4885  0.0088 -0.1423
 3977SOL    HW123564   2.960   2.549   4.238 -2.7923  2.2833 -0.1300
 3977SOL    HW223565   2.981   2.631   4.115  0.0081  0.4424  0.8100
 3978SOL     OW23566   0.577   3.381  10.100 -0.0016 -0.4665 -0.1219
 3978SOL    HW123567   0.557   3.288  10.096 -0.6154 -0.3781  1.2364
 3978SOL    HW223568   0.600   3.388  10.193 -0.7490  0.5387 -0.0186
 3979SOL     OW23569   2.832   2.401   7.550 -0.4767 -0.1017  0.7898
 3979SOL    HW123570   2.783   2.363   7.478  0.2613 -0.9809  0.7501
 3979SOL    HW223571   2.908   2.432   7.499  0.1537  0.2425  1.9363
 3980SOL     OW23572   0.561   1.707   6.391 -0.3090  0.0962 -0.0502
 3980SOL    HW123573   0.657   1.713   6.394 -0.2035 -2.3252  1.0401
 3980SOL    HW223574   0.544   1.800   6.380 -0.9128 -0.1991 -1.6014
 3981SOL     OW23575   0.723   3.389  13.040 -0.3156  0.2607 -0.1924
 3981SOL    HW123576   0.742   3.479  13.013 -0.3639 -0.0472 -1.2477
 3981SOL    HW223577   0.748   3.338  12.963 -1.9008  0.5016 -0.8732
 3982SOL     OW23578   0.751   3.674   3.630 -0.0747 -0.2891  0.0183
 3982SOL    HW123579   0.757   3.745   3.566 -1.2355 -2.2149 -2.2287
 3982SOL    HW223580   0.814   3.617   3.584  0.4608 -0.8214  1.4138
 3983SOL     OW23581   4.720   3.745   5.056 -0.4635  0.1642  0.1805
 3983SOL    HW123582   4.636   3.699   5.062 -1.3768  1.9357  1.1922
 3983SOL    HW223583   0.023   3.754   5.144  2.3058  0.6526 -1.0772
 3984SOL     OW23584   3.670   0.250   6.148 -0.0385 -0.0361 -0.3751
 3984SOL    HW123585   3.603   0.211   6.092  0.8222  1.9089 -2.7393
 3984SOL    HW223586   3.642   0.339   6.169 -1.4871 -0.1090 -1.9672
 3985SOL     OW23587   4.216   2.361   1.664 -0.2296 -0.1538  0.2023
 3985SOL    HW123588   4.194   2.278   1.707  2.3017 -0.5421  0.7679
 3985SOL    HW223589   4.166   2.360   1.582  0.8135  0.8312 -0.4554
 3986SOL     OW23590   4.405   2.221   0.463 -0.0695 -0.4111 -0.2201
 3986SOL    HW123591   4.409   2.201   0.369  2.5393  0.7366 -0.3480
 3986SOL    HW223592   4.491   2.261   0.477 -1.2390  0.9562  3.0716
 3987SOL     OW23593   4.217   4.285   5.322  0.3137  0.4211 -0.5529
 3987SOL    HW123594   4.264   4.325   5.395  0.9411 -1.1141 -0.1038
 3987SOL    HW223595   4.280   4.275   5.252  1.6419  1.2009  0.5361
 3988SOL     OW23596   3.133   1.952   6.336  0.1366  0.2345 -0.2608
 3988SOL    HW123597   3.111   1.873   6.287 -0.2515  0.7955 -0.9836
 3988SOL    HW223598   3.051   1.983   6.374  1.2010  2.9983 -0.1785
 3989SOL     OW23599   0.522   1.028   6.065 -0.1974  0.5321 -0.0124
 3989SOL    HW123600   0.592   0.982   6.112 -1.9673 -0.2909  1.8498
 3989SOL    HW223601   0.554   1.116   6.084  0.5496  0.2393  0.0820
 3990SOL     OW23602   4.298   0.813   1.824  0.3755 -0.5250 -0.4450
 3990SOL    HW123603   4.230   0.876   1.803 -0.2505 -0.5556  1.4247
 3990SOL    HW223604   4.334   0.801   1.736 -2.5808 -2.9246 -1.3138
 3991SOL     OW23605   1.529   1.625   9.325 -0.2048 -0.3559 -0.0301
 3991SOL    HW123606   1.611   1.625   9.276 -0.0570 -1.4908  0.2219
 3991SOL    HW223607   1.495   1.544   9.288 -0.4619 -0.8025  1.2015
 3992SOL     OW23608   0.751   1.492   4.895 -0.4413 -0.2745 -0.3563
 3992SOL    HW123609   0.810   1.417   4.894  1.6517  1.3846 -1.1127
 3992SOL    HW223610   0.787   1.549   4.827  0.7495  0.2514  0.7292
 3993SOL     OW23611   1.371   0.652   3.143 -0.3313  0.3212  0.2314
 3993SOL    HW123612   1.384   0.732   3.194 -1.4438  0.0415  0.9330
 3993SOL    HW223613   1.344   0.587   3.208  1.8119 -0.5554  0.2513
 3994SOL     OW23614   1.189   2.718   2.686  0.0530  0.5216 -0.1417
 3994SOL    HW123615   1.217   2.806   2.710 -0.5372  0.5197  0.5402
 3994SOL    HW223616   1.226   2.697   2.600  0.8915 -0.5519  0.4836
 3995SOL     OW23617   4.138   2.331   1.998  0.7770  0.3671 -0.0274
 3995SOL    HW123618   4.084   2.403   1.964  0.3446  0.7184  1.3946
 3995SOL    HW223619   4.222   2.348   1.956  0.1976 -0.6466 -1.6037
 3996SOL     OW23620   4.138   1.013   5.560 -0.0405  0.2608  1.0199
 3996SOL    HW123621   4.196   1.083   5.589 -2.0847  1.9603  0.9457
 3996SOL    HW223622   4.162   0.937   5.613 -2.3327 -0.1576  1.4537
 3997SOL     OW23623   1.361   1.315   7.159  0.1762 -0.3149 -0.2652
 3997SOL    HW123624   1.431   1.349   7.104  0.3342  0.2499  0.2848
 3997SOL    HW223625   1.382   1.221   7.159  1.2452 -0.0827 -3.5191
 3998SOL     OW23626   1.340   4.320   2.375  0.0094  0.5271  0.2547
 3998SOL    HW123627   1.265   4.340   2.319 -1.1353 -4.8400 -0.1500
 3998SOL    HW223628   1.324   4.226   2.368  2.5225  0.2160 -1.3715
 3999SOL     OW23629   1.616   0.141  11.684 -0.1973  0.5888  1.1267
 3999SOL    HW123630   1.552   0.094  11.737  0.7112  1.4047  2.9270
 3999SOL    HW223631   1.684   0.078  11.660  0.0029  0.0952  2.9638
 4000SOL     OW23632   0.344   2.464   6.002 -0.0837  0.3033 -0.6323
 4000SOL    HW123633   0.388   2.512   6.073  0.3482 -0.0590 -0.6553
 4000SOL    HW223634   0.257   2.459   6.042  1.1767  0.0650  2.1413
 4001SOL     OW23635   0.434   3.222   2.606 -0.6373 -0.0209 -0.1746
 4001SOL    HW123636   0.341   3.220   2.628 -0.5936 -1.0002 -0.0451
 4001SOL    HW223637   0.475   3.233   2.692 -0.3273  0.2342 -0.3548
 4002SOL     OW23638   0.018   3.259  11.217 -0.0759  0.5529 -0.5143
 4002SOL    HW123639   4.718   3.327  11.159  0.6651  0.2565 -1.2984
 4002SOL    HW223640   0.112   3.261  11.202 -0.0686 -3.9560 -0.8666
 4003SOL     OW23641   0.612   3.210   8.194 -0.0143 -0.1074  0.0250
 4003SOL    HW123642   0.560   3.131   8.178 -1.2466  0.3532  1.7432
 4003SOL    HW223643   0.644   3.191   8.282 -1.9615 -0.6125  0.6173
 4004SOL     OW23644   2.662   0.250  15.457 -0.0229  0.2961 -0.5169
 4004SOL    HW123645   2.699   0.331  15.420  1.9806 -0.8734 -1.0662
 4004SOL    HW223646   2.738   0.211  15.498  0.3378 -1.2233 -2.6411
 4005SOL     OW23647   2.772   3.163  15.308  0.1210  0.0985 -0.1611
 4005SOL    HW123648   2.751   3.135  15.397  0.8408 -1.3498 -0.4366
 4005SOL    HW223649   2.811   3.083  15.273 -3.3135 -0.2363 -3.2531
 4006SOL     OW23650   3.382   2.563  17.712 -0.1967 -0.3470 -0.3726
 4006SOL    HW123651   3.458   2.510  17.735  0.2751 -0.2034 -1.5892
 4006SOL    HW223652   3.329   2.506  17.655  1.2939 -1.1615 -0.9549
 4007SOL     OW23653   2.985   2.574   4.403 -0.1803  0.6046  0.7724
 4007SOL    HW123654   2.917   2.507   4.406  0.2691 -0.0312 -2.6451
 4007SOL    HW223655   3.017   2.555   4.491 -0.7534 -0.6365  0.7088
 4008SOL     OW23656   4.625   3.669  14.172  0.3229 -0.3209 -0.1217
 4008SOL    HW123657   4.682   3.598  14.200  0.5636  0.1261  0.5437
 4008SOL    HW223658   4.581   3.699  14.252  1.6700  0.9683  0.1429
 4009SOL     OW23659   4.480   0.922  14.276 -0.2390 -0.0645 -0.6154
 4009SOL    HW123660   4.509   0.879  14.356  1.2923 -0.8107 -1.5763
 4009SOL    HW223661   4.419   0.856  14.244  1.5805 -2.9491  1.9478
 4010SOL     OW23662   4.708   1.499   2.942  0.5506  0.0185 -0.5326
 4010SOL    HW123663   4.711   1.495   2.847  1.5425 -1.0815 -0.4520
 4010SOL    HW223664   4.709   1.408   2.972 -1.4624  0.6761  1.5048
 4011SOL     OW23665   0.483   2.228   4.160 -0.0180 -0.4962  0.1086
 4011SOL    HW123666   0.554   2.281   4.123 -0.2842 -0.2032  0.0163
 4011SOL    HW223667   0.423   2.302   4.174 -0.0138  0.3256 -4.1943
 4012SOL     OW23668   1.293   1.908  16.281  0.0905 -0.9857  0.5159
 4012SOL    HW123669   1.307   1.826  16.234 -2.2644 -0.5533 -0.9186
 4012SOL    HW223670   1.368   1.944  16.330  1.2296 -2.6555 -0.0022
 4013SOL     OW23671   2.742   1.884  12.001 -0.0345 -0.6300 -0.3542
 4013SOL    HW123672   2.674   1.848  11.944 -1.6849  0.1818  1.1056
 4013SOL    HW223673   2.677   1.912  12.065  1.1071 -0.4843  0.7392
 4014SOL     OW23674   0.073   0.238  14.844 -0.7238  0.1963  0.2776
 4014SOL    HW123675   0.104   0.314  14.795  0.1652 -0.3005  0.0725
 4014SOL    HW223676   4.714   0.253  14.857 -0.7325  2.2742 -2.1244
 4015SOL     OW23677   0.101   2.026   5.731 -0.6955  0.4452  0.5971
 4015SOL    HW123678   0.124   2.098   5.790  1.9578 -0.1954  0.3735
 4015SOL    HW223679   0.035   1.976   5.779  0.3682 -1.9475 -0.4533
 4016SOL     OW23680   1.658   3.317  14.278  0.4137 -0.1971  0.6371
 4016SOL    HW123681   1.745   3.349  14.254  0.8302 -0.2356  2.0630
 4016SOL    HW223682   1.679   3.299  14.370 -1.9440  2.5411  1.7058
 4017SOL     OW23683   1.448   2.428  14.432 -0.5487  0.4100 -0.8673
 4017SOL    HW123684   1.521   2.433  14.493 -0.3220 -2.9408 -0.8860
 4017SOL    HW223685   1.399   2.510  14.439  1.2709  1.4375 -0.0827
 4018SOL     OW23686   0.042   3.002   6.404  0.8075 -0.0174 -0.7772
 4018SOL    HW123687   4.698   2.997   6.457  0.6901  3.5118 -0.6233
 4018SOL    HW223688   0.111   3.041   6.459 -0.0108 -0.9798  0.9231
 4019SOL     OW23689   3.361   4.670   4.011 -0.4391 -0.2830  0.1341
 4019SOL    HW123690   3.390   0.009   4.064  0.0904  0.1969 -0.8207
 4019SOL    HW223691   3.406   4.599   4.056  2.0943  1.0680 -0.2539
 4020SOL     OW23692   2.334   2.226   7.058 -0.7629 -0.2208  0.2577
 4020SOL    HW123693   2.274   2.193   7.125 -0.0025 -0.5348  0.7786
 4020SOL    HW223694   2.297   2.192   6.976 -0.8944 -0.4950  0.4299
 4021SOL     OW23695   3.419   1.056  11.247 -0.2815  0.3442 -0.0965
 4021SOL    HW123696   3.360   1.122  11.211  0.3068  1.4285  0.9103
 4021SOL    HW223697   3.434   0.995  11.175 -3.5262  0.5063 -0.9242
 4022SOL     OW23698   1.058   1.203   8.949 -0.3987 -0.1440  0.2743
 4022SOL    HW123699   1.135   1.229   8.898 -0.8743 -0.3302 -0.5359
 4022SOL    HW223700   1.038   1.124   8.899  1.8658  0.1244 -1.0567
 4023SOL     OW23701   1.397   3.105   2.688 -0.0942  0.2630 -0.2770
 4023SOL    HW123702   1.433   3.137   2.605 -2.0946  4.5276  0.5143
 4023SOL    HW223703   1.421   3.181   2.741  0.9787  0.5399 -1.1566
 4024SOL     OW23704   2.880   2.940  12.996 -0.1108  0.1692  0.1353
 4024SOL    HW123705   2.960   2.944  13.049  0.5937  0.0309 -0.9169
 4024SOL    HW223706   2.895   3.014  12.936 -0.5433  1.2893  1.4108
 4025SOL     OW23707   0.212   4.134   1.192 -0.2810  0.3371 -0.0123
 4025SOL    HW123708   0.257   4.182   1.262 -0.0511 -0.4425  0.3781
 4025SOL    HW223709   0.224   4.045   1.225 -1.9684 -0.0399 -0.3835
 4026SOL     OW23710   3.638   1.755   3.979  0.3219  0.1212  0.4100
 4026SOL    HW123711   3.675   1.814   4.045 -0.3253  0.0707  0.8195
 4026SOL    HW223712   3.713   1.717   3.933 -0.7712 -0.8908 -0.5560
 4027SOL     OW23713   1.021   4.262   7.257 -0.1170  0.0950 -0.1851
 4027SOL    HW123714   1.033   4.239   7.165 -0.1653  0.5469 -0.3021
 4027SOL    HW223715   1.107   4.246   7.294  0.1454  3.1201  0.5057
 4028SOL     OW23716   0.641   3.509  17.091  0.7021  0.3975  0.2074
 4028SOL    HW123717   0.729   3.547  17.090  0.6747  0.3895 -3.3235
 4028SOL    HW223718   0.654   3.421  17.127  1.4636  1.5089  2.6321
 4029SOL     OW23719   1.561   3.461  14.962 -0.0439 -0.5561  0.4980
 4029SOL    HW123720   1.520   3.492  15.043 -1.1297  1.2589 -0.7426
 4029SOL    HW223721   1.515   3.519  14.901 -0.5155 -2.1653 -0.6733
 4030SOL     OW23722   1.910   2.672   4.005 -0.4540  0.1334 -0.0480
 4030SOL    HW123723   1.865   2.628   4.078 -1.7238  0.0978 -0.8548
 4030SOL    HW223724   1.981   2.721   4.046 -0.5404  0.0834  0.1629
 4031SOL     OW23725   2.790   3.753   6.564  0.1430  0.2864 -0.0612
 4031SOL    HW123726   2.852   3.807   6.613 -0.8972 -0.0808  1.6395
 4031SOL    HW223727   2.754   3.693   6.629  0.0045 -0.6407 -0.9929
 4032SOL     OW23728   1.948   4.380  10.901  0.0193 -0.2998  0.4722
 4032SOL    HW123729   1.917   4.461  10.941 -1.9634 -1.4549  1.2746
 4032SOL    HW223730   2.030   4.412  10.862  0.8475  0.6981  3.0083
 4033SOL     OW23731   1.388   2.789   7.689 -0.0667 -0.1213  0.1068
 4033SOL    HW123732   1.309   2.757   7.732  1.0957 -0.3534  2.0533
 4033SOL    HW223733   1.361   2.879   7.671  1.8095  0.9540  2.7684
 4034SOL     OW23734   0.003   3.223   0.192 -0.7783 -0.4067  0.4256
 4034SOL    HW123735   4.651   3.209   0.154 -0.4523  0.9343 -0.7870
 4034SOL    HW223736   0.004   3.319   0.192 -1.3296 -0.3983 -0.3559
 4035SOL     OW23737   3.092   4.238   1.905 -0.0128 -0.2957 -0.5903
 4035SOL    HW123738   3.079   4.168   1.841 -1.7467  0.2189 -0.7958
 4035SOL    HW223739   3.006   4.278   1.918  0.1006  0.1977 -1.4175
 4036SOL     OW23740   0.813   4.510   0.940  0.3783 -0.0696 -0.0293
 4036SOL    HW123741   0.833   4.568   0.867 -3.4986 -0.3486 -1.3159
 4036SOL    HW223742   0.794   4.570   1.012 -2.1842 -0.0096 -0.7674
 4037SOL     OW23743   0.193   1.756   4.869  0.5550  0.0453 -0.2678
 4037SOL    HW123744   0.153   1.687   4.922 -1.1983 -0.1166 -1.8194
 4037SOL    HW223745   0.126   1.781   4.805 -0.8219  1.1048  1.5604
 4038SOL     OW23746   0.989   0.704   8.404 -0.1170 -0.2614  0.1457
 4038SOL    HW123747   1.040   0.684   8.483  1.8439  0.5742 -0.9149
 4038SOL    HW223748   1.057   0.692   8.338 -0.7377 -0.9511 -0.3672
 4039SOL     OW23749   1.440   2.323   7.387  0.2837  0.2058  0.5823
 4039SOL    HW123750   1.510   2.308   7.451 -1.1095 -3.1365  1.3377
 4039SOL    HW223751   1.403   2.235   7.380  0.7677  0.0940 -0.5202
 4040SOL     OW23752   3.657   1.820  12.669 -0.2193 -0.1772  0.3425
 4040SOL    HW123753   3.648   1.734  12.628 -0.2386 -0.3920  0.7967
 4040SOL    HW223754   3.655   1.798  12.762 -0.0462 -0.0195  0.3841
 4041SOL     OW23755   3.454   2.704   1.366 -0.3287  0.2468  0.3597
 4041SOL    HW123756   3.420   2.793   1.364 -0.5650  0.1516  0.1382
 4041SOL    HW223757   3.375   2.657   1.342 -0.5251  0.9211 -0.3096
 4042SOL     OW23758   1.454   2.381   2.930  0.3409  0.0799  0.1036
 4042SOL    HW123759   1.447   2.293   2.893 -2.7638  0.3594  0.0160
 4042SOL    HW223760   1.441   2.350   3.020 -0.4582 -0.0751 -0.0647
 4043SOL     OW23761   1.157   4.700   9.397  0.5471 -0.3094  0.6608
 4043SOL    HW123762   1.232   4.641   9.405  0.4241 -0.6776 -0.9420
 4043SOL    HW223763   1.149   0.006   9.311  0.7060 -1.0765  0.2848
 4044SOL     OW23764   4.042   1.841   6.573 -0.2395 -0.3656  0.0840
 4044SOL    HW123765   4.075   1.820   6.485  0.5840  0.1740  0.2557
 4044SOL    HW223766   3.960   1.886   6.556 -0.1207 -0.5801 -1.0341
 4045SOL     OW23767   0.715   1.453   1.471 -0.1224 -0.3845 -0.3910
 4045SOL    HW123768   0.701   1.537   1.514  1.2509 -0.9009  1.0549
 4045SOL    HW223769   0.715   1.476   1.378  1.6831  0.9520 -0.0431
 4046SOL     OW23770   1.040   3.452  10.301  0.2039  0.1330 -0.3614
 4046SOL    HW123771   1.076   3.502  10.228  3.2625  0.3459  1.2897
 4046SOL    HW223772   1.021   3.524  10.362  0.6112 -1.8571  2.1028
 4047SOL     OW23773   2.401   2.464   6.452 -0.5097  0.3184  0.6012
 4047SOL    HW123774   2.394   2.369   6.444 -0.0862  0.4671 -1.5243
 4047SOL    HW223775   2.352   2.480   6.533 -1.7018 -1.2394  0.1825
 4048SOL     OW23776   0.510   4.433   4.753 -0.5729  0.1064  0.8352
 4048SOL    HW123777   0.475   4.497   4.690 -1.6875 -0.0153  1.3365
 4048SOL    HW223778   0.585   4.400   4.703 -2.2002  1.1467 -2.2772
 4049SOL     OW23779   3.216   3.320   6.502  0.4177 -0.1679 -0.0278
 4049SOL    HW123780   3.244   3.239   6.545 -1.5994 -0.4544  0.7476
 4049SOL    HW223781   3.302   3.361   6.497  0.6232 -0.6942 -0.8404
 4050SOL     OW23782   0.048   0.534   0.611 -0.1785 -0.1645  0.0147
 4050SOL    HW123783   0.067   0.617   0.568 -0.5383 -0.4448 -0.6816
 4050SOL    HW223784   0.079   0.472   0.545 -0.3050 -0.5058  0.2755
 4051SOL     OW23785   3.965   3.188   8.654  0.2097 -0.0794 -0.0694
 4051SOL    HW123786   3.914   3.118   8.694 -1.0321  1.0800  0.3761
 4051SOL    HW223787   3.957   3.168   8.560 -2.7556  0.0021  0.1710
 4052SOL     OW23788   1.784   4.562   1.300  0.1111  0.5369 -0.3169
 4052SOL    HW123789   1.725   4.513   1.243 -1.9947  2.7982 -0.0550
 4052SOL    HW223790   1.853   4.582   1.237  0.3390  4.2160  1.0777
 4053SOL     OW23791   4.631   2.544  12.385  0.7004 -0.0557  0.0988
 4053SOL    HW123792   4.588   2.600  12.321  0.2731 -0.0119  0.4214
 4053SOL    HW223793   4.603   2.459  12.349  2.2923 -0.6163  0.1788
 4054SOL     OW23794   3.726   0.314   1.711  0.1505 -0.5641 -0.2615
 4054SOL    HW123795   3.802   0.289   1.763  0.4889  0.0202 -0.4729
 4054SOL    HW223796   3.648   0.276   1.752 -0.0570  0.8233  0.6549
 4055SOL     OW23797   3.569   4.280   4.469  0.3443  0.5146  0.5037
 4055SOL    HW123798   3.483   4.284   4.428  1.6568 -1.7152 -2.5503
 4055SOL    HW223799   3.562   4.264   4.563 -0.8157 -0.3241  0.2804
 4056SOL     OW23800   1.992   4.032  11.209 -0.0356  0.6966  0.1113
 4056SOL    HW123801   1.968   4.055  11.119  3.9678 -1.6115 -1.6012
 4056SOL    HW223802   2.056   3.964  11.187 -1.4143  0.1308 -2.1743
 4057SOL     OW23803   3.823   2.423   0.016  0.6246  0.4626 -0.5770
 4057SOL    HW123804   3.749   2.434  17.695 -1.2811  1.8449  2.0513
 4057SOL    HW223805   3.799   2.356   0.081  1.6243 -0.6272 -1.3144
 4058SOL     OW23806   2.517   0.678  11.532  0.3671 -0.1543 -0.1498
 4058SOL    HW123807   2.479   0.591  11.542  0.7381 -0.2862  0.1278
 4058SOL    HW223808   2.455   0.741  11.568 -0.1235 -1.3902  1.1561
 4059SOL     OW23809   3.078   2.448   7.789 -0.5027  0.3230 -0.0166
 4059SOL    HW123810   3.021   2.374   7.811  1.0689 -0.4997  1.2769
 4059SOL    HW223811   3.157   2.402   7.758 -0.0227  0.9619  0.2545
 4060SOL     OW23812   0.161   4.111   1.763 -0.1631  0.2735 -0.0067
 4060SOL    HW123813   0.191   4.189   1.808 -1.6657  0.9938 -0.2533
 4060SOL    HW223814   0.146   4.050   1.836  2.4503  0.6191  0.8140
 4061SOL     OW23815   4.510   2.697   4.885  0.4350 -0.3310  0.4478
 4061SOL    HW123816   4.529   2.772   4.941 -1.8820  0.1927  0.5492
 4061SOL    HW223817   4.428   2.718   4.839  0.6872 -0.0696  0.1180
 4062SOL     OW23818   3.414   1.117   5.906 -0.4372 -0.0914  0.3812
 4062SOL    HW123819   3.364   1.035   5.906 -0.3291 -0.1541  1.3950
 4062SOL    HW223820   3.378   1.156   5.826 -1.9412  0.4225  1.3186
 4063SOL     OW23821   0.813   3.018   2.462  0.1280 -0.0421 -0.0078
 4063SOL    HW123822   0.893   3.002   2.511 -0.0645  0.3553  0.4408
 4063SOL    HW223823   0.751   2.972   2.519 -0.3972  0.6488 -0.0182
 4064SOL     OW23824   3.817   0.619   7.642 -0.6897  0.2645 -0.5042
 4064SOL    HW123825   3.816   0.703   7.596 -1.1913  0.9353  0.7546
 4064SOL    HW223826   3.778   0.646   7.725  1.0766  0.6997  0.1908
 4065SOL     OW23827   4.381   1.819   4.849 -0.0837  0.0040  0.5170
 4065SOL    HW123828   4.431   1.844   4.927  0.4711 -0.8072  0.4180
 4065SOL    HW223829   4.364   1.907   4.816  0.0998  0.1862  0.9183
 4066SOL     OW23830   2.654   0.187   3.069  0.5707 -0.1923  0.2941
 4066SOL    HW123831   2.709   0.145   3.004 -0.0673  2.5647 -2.0029
 4066SOL    HW223832   2.678   0.280   3.060 -0.0241  0.0919  1.5937
 4067SOL     OW23833   4.536   4.605  14.909 -0.2652 -0.0997 -0.3646
 4067SOL    HW123834   4.488   4.618  14.991 -0.4338 -0.0615 -0.4716
 4067SOL    HW223835   4.475   4.640  14.845 -2.1538 -1.4155  0.7330
 4068SOL     OW23836   2.263   0.471   3.868  0.4521 -0.0022 -0.6307
 4068SOL    HW123837   2.301   0.429   3.945 -1.3849  0.5363  0.5580
 4068SOL    HW223838   2.332   0.456   3.803  2.2363 -0.6504  1.4199
 4069SOL     OW23839   4.684   0.523   2.673 -0.6659  0.3753 -0.3419
 4069SOL    HW123840   4.624   0.584   2.629 -0.1676  1.6795  0.7745
 4069SOL    HW223841   0.032   0.573   2.673  0.9533 -2.3248 -0.8549
 4070SOL     OW23842   0.550   4.502  10.514  0.3407  0.3987  0.4064
 4070SOL    HW123843   0.584   4.522  10.601  1.4488  1.4218 -0.2569
 4070SOL    HW223844   0.457   4.517  10.528  0.0474 -0.5324 -0.5169
 4071SOL     OW23845   4.382   2.978  17.682  0.0313  0.1071  0.2585
 4071SOL    HW123846   4.436   2.981  17.604 -1.6152  1.0014 -0.8394
 4071SOL    HW223847   4.324   2.903  17.666  2.5866 -2.2857  2.1113
 4072SOL     OW23848   4.139   2.315   2.928 -0.3358 -0.0202 -0.6484
 4072SOL    HW123849   4.204   2.331   2.859 -0.3256 -1.3737 -0.9571
 4072SOL    HW223850   4.187   2.338   3.008 -1.2753 -0.9366  0.1635
 4073SOL     OW23851   1.167   3.827   5.050 -0.5640  0.3959 -0.1983
 4073SOL    HW123852   1.253   3.853   5.017 -1.6433  1.8678 -1.8027
 4073SOL    HW223853   1.141   3.784   4.969  0.5021 -1.6808  0.5451
 4074SOL     OW23854   2.604   0.542   7.053  0.0704 -0.1755 -0.1058
 4074SOL    HW123855   2.662   0.591   7.110  0.7236  2.2542 -2.9048
 4074SOL    HW223856   2.532   0.597   7.022 -0.6470 -0.5160  0.9705
 4075SOL     OW23857   2.309   0.505   1.222 -0.4055  0.2993 -0.5623
 4075SOL    HW123858   2.357   0.434   1.263 -1.4466 -0.7148 -1.1088
 4075SOL    HW223859   2.380   0.569   1.207  0.4131 -0.3172  0.6998
 4076SOL     OW23860   1.322   2.300   9.527 -0.1084 -0.7746  0.0986
 4076SOL    HW123861   1.281   2.374   9.481  1.1284 -0.0299  0.1968
 4076SOL    HW223862   1.343   2.238   9.457 -1.1848 -1.1919  0.1468
 4077SOL     OW23863   3.778   0.517   9.226 -0.2686 -0.0892 -0.0352
 4077SOL    HW123864   3.741   0.435   9.258  1.2911 -1.1868 -1.0528
 4077SOL    HW223865   3.705   0.557   9.178 -0.2591 -1.3941 -1.1379
 4078SOL     OW23866   4.490   2.348   5.306 -0.1568 -0.0546  0.2073
 4078SOL    HW123867   4.404   2.368   5.344  0.3189 -0.6196  1.5804
 4078SOL    HW223868   4.493   2.418   5.241  1.1579 -1.6006 -1.3937
 4079SOL     OW23869   2.492   0.362   1.333  0.4223 -0.6401 -0.1760
 4079SOL    HW123870   2.550   0.357   1.257 -0.3321  1.6403 -0.9086
 4079SOL    HW223871   2.553   0.346   1.404  0.5833  2.4396  0.4077
 4080SOL     OW23872   4.214   2.767   8.587 -0.4688 -0.2740 -0.1944
 4080SOL    HW123873   4.293   2.804   8.546 -1.0143  1.1296  0.0016
 4080SOL    HW223874   4.155   2.823   8.536 -0.1820  1.3028  1.1911
 4081SOL     OW23875   1.347   4.200   4.282 -0.1586  0.4664 -0.8477
 4081SOL    HW123876   1.294   4.174   4.357 -0.5661  5.0738  0.4889
 4081SOL    HW223877   1.428   4.155   4.305 -0.8472 -1.1438 -1.5760
 4082SOL     OW23878   2.629   3.911   8.377  0.0071 -0.2289 -0.4240
 4082SOL    HW123879   2.621   3.971   8.302  0.4310  1.9516  1.2879
 4082SOL    HW223880   2.655   3.831   8.331  0.4139 -0.7980  0.8071
 4083SOL     OW23881   2.984   3.696  13.477  0.0766  0.3977  0.4296
 4083SOL    HW123882   3.004   3.756  13.406  1.1981 -2.2813 -1.5447
 4083SOL    HW223883   3.062   3.640  13.485  0.2418  0.0443 -3.4287
 4084SOL     OW23884   0.043   3.256   0.464  0.0215  0.5322 -0.2018
 4084SOL    HW123885   0.070   3.168   0.491  0.6312  0.2897 -1.5839
 4084SOL    HW223886   0.027   3.246   0.370 -0.9600  0.9537 -0.0851
 4085SOL     OW23887   1.189   1.782   3.443 -0.3165 -0.5398 -0.2131
 4085SOL    HW123888   1.111   1.837   3.448 -0.6946 -1.1323  0.5482
 4085SOL    HW223889   1.199   1.773   3.348 -1.1546 -0.4643 -0.3081
 4086SOL     OW23890   3.466   1.855   1.146 -0.5790 -0.4567  0.0685
 4086SOL    HW123891   3.550   1.822   1.177 -0.8370 -1.1693  0.0052
 4086SOL    HW223892   3.424   1.886   1.226 -0.4886  0.5534 -0.2682
 4087SOL     OW23893   1.073   2.737   5.329 -0.2844  0.7754 -0.0937
 4087SOL    HW123894   1.045   2.785   5.407 -0.2792  0.0857  0.3306
 4087SOL    HW223895   0.987   2.717   5.293 -0.0839  1.2257 -0.8067
 4088SOL     OW23896   1.762   2.336  12.062  0.1831 -0.3180  0.0808
 4088SOL    HW123897   1.814   2.274  12.113 -0.0019  0.2505  0.9467
 4088SOL    HW223898   1.672   2.331  12.092  0.3923  0.1838  0.7796
 4089SOL     OW23899   0.554   1.160   3.045 -0.4887  0.3717 -0.3477
 4089SOL    HW123900   0.507   1.109   2.980 -3.0867  1.2027  0.8744
 4089SOL    HW223901   0.644   1.143   3.018 -0.9289 -0.9987 -0.9437
 4090SOL     OW23902   2.104   4.101   6.697  0.7381 -0.0729  0.1692
 4090SOL    HW123903   2.194   4.085   6.725  0.9201  1.8573  0.7439
 4090SOL    HW223904   2.107   4.057   6.612 -1.8268 -0.1642  0.1380
 4091SOL     OW23905   1.867   4.035   8.457 -0.0167  0.0802  0.0100
 4091SOL    HW123906   1.840   4.062   8.370  0.8611  2.3269  0.4380
 4091SOL    HW223907   1.883   4.122   8.492 -2.0994 -0.2601  1.8249
 4092SOL     OW23908   4.469   4.096   5.177  0.4096  0.0913 -0.5592
 4092SOL    HW123909   4.467   4.189   5.156 -1.6219  0.2121  0.1255
 4092SOL    HW223910   4.549   4.072   5.131  0.7934 -1.8525  1.1190
 4093SOL     OW23911   0.530   3.777   8.728 -0.0064 -0.5999 -0.6146
 4093SOL    HW123912   0.546   3.819   8.643  0.1421 -3.8426 -2.2283
 4093SOL    HW223913   0.454   3.828   8.754  0.6647 -0.0366  0.2487
 4094SOL     OW23914   3.970   3.568   0.326 -0.1400  0.0932 -0.7800
 4094SOL    HW123915   3.935   3.651   0.292  0.2501  0.3341 -0.5908
 4094SOL    HW223916   4.062   3.563   0.299 -0.1496  1.2573 -1.0391
 4095SOL     OW23917   3.849   2.658   8.115  0.1964 -0.2386 -0.5721
 4095SOL    HW123918   3.919   2.643   8.052 -1.2798  1.6199 -2.6755
 4095SOL    HW223919   3.900   2.705   8.181 -0.2750  0.7846 -0.9204
 4096SOL     OW23920   1.280   4.074   2.363  0.4793 -0.0991 -0.1825
 4096SOL    HW123921   1.309   3.991   2.324 -1.4768 -1.0738  0.4633
 4096SOL    HW223922   1.185   4.068   2.368  0.5835 -0.8874  0.8596
 4097SOL     OW23923   4.074   0.963  10.472  0.6186 -0.2283  0.0143
 4097SOL    HW123924   4.078   1.022  10.397 -3.3496  0.7934  0.5694
 4097SOL    HW223925   3.985   0.931  10.458 -0.5855  2.8244  0.7946
 4098SOL     OW23926   4.334   0.146   4.664 -0.5987  0.6677  0.2157
 4098SOL    HW123927   4.361   0.205   4.594 -0.0332  0.2987  0.1237
 4098SOL    HW223928   4.414   0.157   4.716 -1.1345  4.4479  0.2034
 4099SOL     OW23929   4.686   1.774   4.362 -0.3799  0.2778  0.1535
 4099SOL    HW123930   4.626   1.810   4.427 -0.6754  1.6135 -0.8502
 4099SOL    HW223931   4.686   1.843   4.295 -1.1237 -2.7758 -3.0018
 4100SOL     OW23932   4.580   4.083  12.843 -0.3631  0.2062 -0.1637
 4100SOL    HW123933   4.533   4.034  12.776  0.5763 -1.3825  0.3378
 4100SOL    HW223934   4.610   4.009  12.895 -1.8529  0.8365  1.5816
 4101SOL     OW23935   0.497   2.165  16.917  0.0434 -0.0799  0.1186
 4101SOL    HW123936   0.487   2.127  17.004 -0.9384 -0.1728 -0.0330
 4101SOL    HW223937   0.518   2.086  16.867  1.5536 -0.3511  1.1898
 4102SOL     OW23938   3.881   3.411   2.403  0.2607 -0.3367 -0.2320
 4102SOL    HW123939   3.831   3.455   2.472 -0.6330 -1.1714 -0.3430
 4102SOL    HW223940   3.950   3.475   2.390  1.4524 -1.9012 -1.5455
 4103SOL     OW23941   1.298   2.834   1.628 -0.6091 -0.4058 -0.1776
 4103SOL    HW123942   1.217   2.849   1.579 -1.2053 -0.2873  0.8357
 4103SOL    HW223943   1.367   2.817   1.564 -1.0268  0.5346 -0.8768
 4104SOL     OW23944   4.526   4.347   2.467 -0.8726  0.3477  0.6283
 4104SOL    HW123945   4.537   4.326   2.560  1.0613  1.0279  0.5613
 4104SOL    HW223946   4.494   4.436   2.458 -3.4121 -0.5561  0.6614
 4105SOL     OW23947   4.196   1.465   8.691 -0.2485  0.0399 -0.0248
 4105SOL    HW123948   4.291   1.473   8.686 -0.2455  0.6554  0.9686
 4105SOL    HW223949   4.184   1.371   8.697 -1.5888  0.1888 -0.3284
 4106SOL     OW23950   3.821   4.452   0.748 -0.1429 -0.0947 -0.2857
 4106SOL    HW123951   3.888   4.519   0.759  0.2887 -0.5427 -0.1914
 4106SOL    HW223952   3.820   4.444   0.653 -0.8901 -1.7225 -0.1421
 4107SOL     OW23953   2.261   0.185  16.553  0.2528  0.1872 -0.2888
 4107SOL    HW123954   2.279   0.262  16.606  0.0440 -0.7030  1.0808
 4107SOL    HW223955   2.347   0.143  16.562 -0.0564  0.0595  1.9424
 4108SOL     OW23956   4.335   2.306  10.389  0.7209 -0.0756 -0.1215
 4108SOL    HW123957   4.294   2.224  10.416 -0.5672  1.0737  1.4247
 4108SOL    HW223958   4.347   2.297  10.294  2.7534  0.4515  0.0952
 4109SOL     OW23959   2.404   2.905   4.920  0.2989  0.6162  0.1869
 4109SOL    HW123960   2.477   2.849   4.893 -0.2958  0.5337 -1.2749
 4109SOL    HW223961   2.343   2.846   4.964  1.0355 -0.3780 -0.1169
 4110SOL     OW23962   1.538   3.921   8.712 -0.1646  0.3644  0.2623
 4110SOL    HW123963   1.572   3.945   8.626 -0.5680 -1.9467 -0.5166
 4110SOL    HW223964   1.507   4.007   8.742 -1.5123 -0.2239  0.5382
 4111SOL     OW23965   1.649   2.305   4.696 -0.5037  0.5553 -0.0908
 4111SOL    HW123966   1.659   2.260   4.613 -2.2705 -0.5352  0.2986
 4111SOL    HW223967   1.697   2.385   4.675  1.5706 -0.5083  0.6002
 4112SOL     OW23968   3.143   3.183  10.463  0.3279  0.3279 -0.4303
 4112SOL    HW123969   3.223   3.222  10.426  0.4883  2.0723  1.7305
 4112SOL    HW223970   3.105   3.259  10.507  1.7247  2.0428 -2.1848
 4113SOL     OW23971   3.495   3.364   3.478  0.7988 -0.0129 -0.1772
 4113SOL    HW123972   3.438   3.289   3.461  0.2814 -0.0295  1.6286
 4113SOL    HW223973   3.453   3.410   3.550 -0.7035 -0.2984 -0.8770
 4114SOL     OW23974   3.648   2.389   6.200 -0.7034 -0.6737  0.0734
 4114SOL    HW123975   3.578   2.450   6.224 -0.8293  0.2920 -2.7562
 4114SOL    HW223976   3.668   2.414   6.110 -1.2771 -1.4479 -0.2627
 4115SOL     OW23977   2.721   3.393  11.632 -0.2838 -0.2804  0.6647
 4115SOL    HW123978   2.761   3.468  11.587 -0.9690  0.2114  0.8779
 4115SOL    HW223979   2.797   3.335  11.638 -0.5742 -0.7438  0.0100
 4116SOL     OW23980   3.991   4.376   5.160  0.1047 -0.6456 -0.5575
 4116SOL    HW123981   3.981   4.281   5.166 -2.7546 -0.3558 -0.6811
 4116SOL    HW223982   4.086   4.387   5.163  0.0675 -0.7193  0.7987
 4117SOL     OW23983   3.391   0.541  10.284 -0.4135 -0.6539 -0.4843
 4117SOL    HW123984   3.355   0.546  10.195 -0.7885  2.2339 -0.1440
 4117SOL    HW223985   3.346   0.606  10.338 -2.0896 -1.5877 -0.7666
 4118SOL     OW23986   3.544   1.925   8.414 -0.2365  0.1908 -0.6653
 4118SOL    HW123987   3.617   1.890   8.363  1.0022  0.1012  1.1562
 4118SOL    HW223988   3.472   1.875   8.377 -0.7210  0.7442 -0.4705
 4119SOL     OW23989   2.018   2.780   8.436  0.2770 -0.1668 -0.2419
 4119SOL    HW123990   2.004   2.819   8.350 -0.3514 -0.3294 -0.2090
 4119SOL    HW223991   2.035   2.854   8.495  0.6584 -0.0178 -0.5380
 4120SOL     OW23992   3.835   0.905   6.637 -0.4879 -0.0396 -0.2842
 4120SOL    HW123993   3.911   0.853   6.611  0.3074  1.6474 -1.3781
 4120SOL    HW223994   3.825   0.967   6.564 -0.2933  0.2750 -0.0399
 4121SOL     OW23995   2.963   2.165   7.768 -0.0282  0.2568  0.3598
 4121SOL    HW123996   3.058   2.174   7.762 -0.0026 -0.6632 -0.5251
 4121SOL    HW223997   2.940   2.150   7.677  2.5818 -1.3816 -0.0303
 4122SOL     OW23998   0.693   2.687   6.710  0.1501  0.3668  0.0600
 4122SOL    HW123999   0.683   2.627   6.784 -1.1378  0.4378 -0.0488
 4122SOL    HW224000   0.787   2.688   6.694  0.5485 -2.3372  2.1897
 4123SOL     OW24001   3.827   1.202   8.243 -0.5518  0.1751 -0.0029
 4123SOL    HW124002   3.874   1.203   8.159  0.1541  0.8141  0.3959
 4123SOL    HW224003   3.853   1.283   8.287  0.3037 -0.0313 -0.1256
 4124SOL     OW24004   3.584   2.053   9.804  0.1672  0.3174 -0.6177
 4124SOL    HW124005   3.494   2.072   9.831  0.5355 -1.9823  2.2315
 4124SOL    HW224006   3.625   2.117   9.862 -1.7167  1.0157 -0.0659
 4125SOL     OW24007   2.319   2.108  13.196  0.1437  0.4053  0.0807
 4125SOL    HW124008   2.329   2.203  13.185  0.0534  0.6112  1.7003
 4125SOL    HW224009   2.412   2.089  13.208  0.4502  0.9058 -1.5197
 4126SOL     OW24010   2.466   0.272   6.772  0.2992 -0.3226 -0.8743
 4126SOL    HW124011   2.380   0.304   6.743  0.6159 -0.3686 -1.8684
 4126SOL    HW224012   2.517   0.303   6.697 -1.8013 -0.2570 -2.2704
 4127SOL     OW24013   1.173   4.385   2.926  0.7823  0.3163 -0.5804
 4127SOL    HW124014   1.161   4.368   2.833 -0.5644  0.0120 -0.3600
 4127SOL    HW224015   1.186   4.294   2.954 -1.2450 -0.3609 -1.8180
 4128SOL     OW24016   0.985   3.127   5.921 -0.1275 -0.2793 -0.4346
 4128SOL    HW124017   1.039   3.096   5.848 -0.3520 -1.0917 -0.2623
 4128SOL    HW224018   0.895   3.093   5.916 -0.0526 -0.6517  0.9611
 4129SOL     OW24019   1.170   3.758   4.754  0.3459 -0.2489 -0.3004
 4129SOL    HW124020   1.199   3.674   4.721 -2.0856 -1.8175  1.5725
 4129SOL    HW224021   1.244   3.783   4.811  0.3614 -1.2655  0.1120
 4130SOL     OW24022   1.519   3.192   2.453  0.0821 -0.6778  0.5776
 4130SOL    HW124023   1.558   3.263   2.504  0.4681 -0.3844 -0.1201
 4130SOL    HW224024   1.542   3.222   2.365 -2.5688  2.4387  0.9293
 4131SOL     OW24025   2.541   2.381  17.694  0.3270 -0.0658 -0.0235
 4131SOL    HW124026   2.593   2.457  17.720  1.2647 -0.8694  0.4299
 4131SOL    HW224027   2.539   2.381  17.599  0.7718 -1.8529 -0.0257
 4132SOL     OW24028   3.086   3.642   7.217  0.5639  0.3809  0.3553
 4132SOL    HW124029   3.160   3.584   7.238  0.0321 -0.4964 -0.2238
 4132SOL    HW224030   3.068   3.674   7.306  1.8776 -2.0575  1.5103
 4133SOL     OW24031   3.106   2.450   3.456  0.1080 -0.3182 -0.6658
 4133SOL    HW124032   3.107   2.356   3.438  0.6310 -0.0270 -2.1365
 4133SOL    HW224033   3.177   2.477   3.398  2.0767 -0.1842  1.8298
 4134SOL     OW24034   3.868   1.071   7.152  0.0577 -0.7377  0.2111
 4134SOL    HW124035   3.881   1.028   7.068  0.9438  1.0953 -0.5901
 4134SOL    HW224036   3.773   1.077   7.145 -0.0914 -1.7281  1.3229
 4135SOL     OW24037   0.580   2.470   8.555 -0.3440  0.4543  0.0586
 4135SOL    HW124038   0.658   2.522   8.535 -1.3810  2.5676  1.5149
 4135SOL    HW224039   0.536   2.487   8.472 -1.0924  0.2084  0.4035
 4136SOL     OW24040   0.780   3.751   0.957  0.5619 -0.3276 -0.4692
 4136SOL    HW124041   0.809   3.667   0.922 -0.9207 -0.4523 -1.3761
 4136SOL    HW224042   0.817   3.814   0.895  2.0929 -0.6436  0.1174
 4137SOL     OW24043   1.626   1.850  15.401 -0.1981  0.1746 -0.4069
 4137SOL    HW124044   1.607   1.929  15.350 -1.6897  1.0675  1.5608
 4137SOL    HW224045   1.536   1.820  15.416 -0.0976  0.9037  1.5956
 4138SOL     OW24046   0.510   1.614   5.454  0.0085  0.0555  0.2081
 4138SOL    HW124047   0.419   1.640   5.464 -0.3950 -1.0219 -0.5826
 4138SOL    HW224048   0.517   1.628   5.359 -2.9596 -0.6773 -0.1263
 4139SOL     OW24049   0.092   0.082  16.877 -0.4373 -0.3933 -0.3175
 4139SOL    HW124050   0.130   0.149  16.821 -0.9709  0.6534  0.5664
 4139SOL    HW224051   0.015   0.050  16.830 -0.5611  2.5241 -2.0819
 4140SOL     OW24052   1.439   2.440   5.732 -0.5537  0.0543  0.0168
 4140SOL    HW124053   1.367   2.457   5.672 -0.6035  1.7344  0.5382
 4140SOL    HW224054   1.435   2.345   5.739 -0.2528  0.0137 -0.3534
 4141SOL     OW24055   0.166   3.755   3.098  0.1629  0.2500 -0.3406
 4141SOL    HW124056   0.155   3.660   3.093 -2.3328  0.4448  1.3369
 4141SOL    HW224057   0.090   3.780   3.151 -0.4155  0.2673 -1.1735
 4142SOL     OW24058   1.375   0.729   4.075 -0.0653 -0.0452 -0.1529
 4142SOL    HW124059   1.357   0.668   4.003  0.7626  0.1415 -0.5268
 4142SOL    HW224060   1.300   0.716   4.132  0.5061 -1.3349  0.2872
 4143SOL     OW24061   1.548   2.707   4.809 -0.4181  0.2036  0.2706
 4143SOL    HW124062   1.555   2.798   4.781  0.8347  0.2120  0.5906
 4143SOL    HW224063   1.591   2.661   4.738 -1.1584 -2.1010  1.3229
 4144SOL     OW24064   3.285   1.002   7.074 -0.1829 -0.5067 -1.1387
 4144SOL    HW124065   3.367   0.954   7.065  0.1881 -0.4796  1.9403
 4144SOL    HW224066   3.215   0.940   7.051 -1.6149  1.5647 -2.4388
 4145SOL     OW24067   1.523   2.671   8.529  0.1146  0.0818  0.6708
 4145SOL    HW124068   1.547   2.714   8.612 -2.4511  0.9609  0.9599
 4145SOL    HW224069   1.593   2.607   8.514  1.7330  1.7051  1.1938
 4146SOL     OW24070   3.770   2.569   3.884 -0.5863 -0.1769 -0.1340
 4146SOL    HW124071   3.740   2.629   3.815 -1.2724 -1.1110 -0.6390
 4146SOL    HW224072   3.863   2.589   3.881 -0.4821 -0.3671  1.9921
 4147SOL     OW24073   2.501   3.842   6.011 -0.2043 -0.1994 -0.0696
 4147SOL    HW124074   2.466   3.779   5.948  0.6579  2.4755 -3.2426
 4147SOL    HW224075   2.584   3.804   6.041  1.6890  3.6745 -0.3508
 4148SOL     OW24076   4.550   3.121   4.609  0.3759 -0.0542 -0.2113
 4148SOL    HW124077   4.625   3.116   4.670 -0.8799  1.1187  1.4242
 4148SOL    HW224078   4.562   3.215   4.594  1.7880 -0.3066 -0.6861
 4149SOL     OW24079   2.806   3.945   2.769 -0.0918  0.1032 -0.2314
 4149SOL    HW124080   2.823   3.899   2.851 -1.8270  1.0790  0.6855
 4149SOL    HW224081   2.804   3.873   2.706  1.8583  0.0775 -0.2602
 4150SOL     OW24082   3.804   4.119  15.405  0.7353  0.3382 -0.2919
 4150SOL    HW124083   3.745   4.045  15.421 -2.4006  2.0630 -3.6535
 4150SOL    HW224084   3.809   4.115  15.310 -3.5251 -1.9696 -0.4602
 4151SOL     OW24085   3.571   3.928   5.512  0.5232  0.2066 -0.0183
 4151SOL    HW124086   3.532   3.903   5.596  0.4684  1.6855  0.4000
 4151SOL    HW224087   3.655   3.961   5.543 -0.4366 -0.6738  3.4633
 4152SOL     OW24088   4.458   2.644  11.173 -0.2529  0.9871 -0.0901
 4152SOL    HW124089   4.532   2.694  11.209 -0.6557  0.7378  1.0785
 4152SOL    HW224090   4.475   2.660  11.080  0.2841  1.2706  0.0523
 4153SOL     OW24091   0.428   3.219   3.892 -0.1921  0.4005  0.1760
 4153SOL    HW124092   0.520   3.193   3.900 -0.5040 -0.4640  0.9221
 4153SOL    HW224093   0.419   3.247   3.801 -1.4536  0.4580  0.3181
 4154SOL     OW24094   3.405   4.143   7.838 -0.0203  0.1323 -0.3242
 4154SOL    HW124095   3.402   4.221   7.894  1.5582 -0.0110 -0.0484
 4154SOL    HW224096   3.363   4.076   7.891  0.5669 -0.5466 -0.7212
 4155SOL     OW24097   2.202   4.466   9.491 -0.2016  0.0589 -0.1029
 4155SOL    HW124098   2.145   4.484   9.417  0.1863  2.5205  0.2125
 4155SOL    HW224099   2.157   4.516   9.559 -0.8387 -0.6834  0.0161
 4156SOL     OW24100   2.880   1.606   8.367 -0.1534 -0.3946 -0.6543
 4156SOL    HW124101   2.796   1.562   8.355  0.0016 -0.7152 -0.5666
 4156SOL    HW224102   2.889   1.673   8.299 -1.9727 -0.5985 -1.0940
 4157SOL     OW24103   1.630   2.180   4.413  0.2571  0.8564 -0.1166
 4157SOL    HW124104   1.679   2.104   4.381 -1.3249 -0.3482  0.3087
 4157SOL    HW224105   1.541   2.150   4.400 -0.0477  1.6665  0.0989
 4158SOL     OW24106   2.141   0.083   8.986  0.7605 -0.0264  0.2466
 4158SOL    HW124107   2.186   0.084   9.071  0.1317 -1.0467  0.5942
 4158SOL    HW224108   2.193   0.141   8.930  1.9879  0.7342  2.1600
 4159SOL     OW24109   1.472   1.533   6.081 -0.1398 -0.7954  0.1315
 4159SOL    HW124110   1.551   1.587   6.083 -1.3072  0.8942  1.3851
 4159SOL    HW224111   1.404   1.600   6.093 -0.0259 -0.7855  0.6928
 4160SOL     OW24112   1.521   0.820   7.100 -0.3886 -0.2978  0.3209
 4160SOL    HW124113   1.445   0.791   7.049  0.1421 -0.4373 -0.3766
 4160SOL    HW224114   1.583   0.749   7.086 -3.1773 -2.1679 -2.5970
 4161SOL     OW24115   0.264   3.913   2.655  0.3005 -0.1345  0.5449
 4161SOL    HW124116   0.251   3.950   2.742  2.5156 -0.0689  0.8434
 4161SOL    HW224117   0.186   3.857   2.648  0.0110  0.2651  0.5806
 4162SOL     OW24118   0.048   3.386   7.787  0.1510  0.1011  0.2966
 4162SOL    HW124119   4.697   3.394   7.827  0.1542 -0.4659  0.4256
 4162SOL    HW224120   0.111   3.404   7.857  1.6491 -1.4156 -0.6620
 4163SOL     OW24121   3.319   3.970   8.225  0.2348  0.0012  0.2312
 4163SOL    HW124122   3.262   4.024   8.171  1.0443 -0.4358 -1.0701
 4163SOL    HW224123   3.401   4.018   8.215 -0.8619  1.3643 -2.1472
 4164SOL     OW24124   4.591   1.311   4.451 -0.2904 -0.3567  0.1377
 4164SOL    HW124125   4.616   1.387   4.399  0.7561 -1.6115 -1.1776
 4164SOL    HW224126   4.496   1.309   4.443 -0.4884  0.5674  2.0400
 4165SOL     OW24127   0.408   0.761   7.467 -0.0558 -0.2687  0.3003
 4165SOL    HW124128   0.476   0.788   7.406 -0.9430 -0.1407 -0.6289
 4165SOL    HW224129   0.410   0.829   7.535 -1.5226 -1.1089  1.1818
 4166SOL     OW24130   0.715   4.424   8.519 -0.4417  0.1747  0.3457
 4166SOL    HW124131   0.626   4.457   8.505 -0.5443 -0.6142 -0.8935
 4166SOL    HW224132   0.739   4.480   8.593  1.0738  1.8298 -1.3937
 4167SOL     OW24133   2.845   2.448   3.342 -0.5803  0.1728  0.5933
 4167SOL    HW124134   2.913   2.449   3.409 -0.0368  0.2160  0.0370
 4167SOL    HW224135   2.866   2.535   3.307 -0.5857 -0.0378  0.0642
 4168SOL     OW24136   1.618   1.853   5.810 -0.8496 -0.5508  0.8089
 4168SOL    HW124137   1.543   1.804   5.776  0.5043 -0.1417 -2.7402
 4168SOL    HW224138   1.581   1.874   5.896 -0.2979 -1.0876  1.1700
 4169SOL     OW24139   0.458   4.527   4.330 -0.0948 -0.0462 -0.5086
 4169SOL    HW124140   0.409   4.483   4.398  0.1363 -0.4323 -0.5906
 4169SOL    HW224141   0.530   4.565   4.380  0.0766  0.4726 -1.1487
 4170SOL     OW24142   2.065   0.807   6.270 -0.1518 -0.4190  0.0495
 4170SOL    HW124143   2.015   0.726   6.255  1.1083 -1.4440  1.3906
 4170SOL    HW224144   2.107   0.822   6.185 -0.4097 -0.2624 -0.0509
 4171SOL     OW24145   3.512   2.250   9.419 -0.1366  0.0364 -0.1257
 4171SOL    HW124146   3.537   2.159   9.439  0.1732  0.1302 -0.0928
 4171SOL    HW224147   3.593   2.287   9.385 -0.5175 -0.0458 -1.1081
 4172SOL     OW24148   3.599   0.625   5.157 -0.0173 -0.4419 -0.0952
 4172SOL    HW124149   3.668   0.628   5.224  2.2599 -0.8254 -2.4187
 4172SOL    HW224150   3.646   0.577   5.089 -0.0638  1.6433 -1.5763
 4173SOL     OW24151   0.100   1.600  11.369 -0.0760  0.0620  0.8162
 4173SOL    HW124152   0.195   1.592  11.373 -0.2619 -2.1708  0.7359
 4173SOL    HW224153   0.080   1.690  11.342  1.9253  0.7790  1.7067
 4174SOL     OW24154   0.802   2.792   5.279 -0.3695 -0.1762 -0.0666
 4174SOL    HW124155   0.792   2.827   5.191  1.6166 -0.3126 -0.3608
 4174SOL    HW224156   0.802   2.877   5.324 -2.6915 -0.1763 -0.0739
 4175SOL     OW24157   4.497   2.562   0.436  0.2377  0.3170 -0.1773
 4175SOL    HW124158   4.481   2.618   0.512  0.4055  0.1085  0.0136
 4175SOL    HW224159   4.518   2.475   0.470  3.4177  0.5016 -1.6470
 4176SOL     OW24160   3.082   3.815  10.665 -0.0962 -0.1514  0.0979
 4176SOL    HW124161   3.045   3.852  10.744 -1.7836 -0.4590 -0.5570
 4176SOL    HW224162   3.019   3.850  10.602 -1.3025 -2.2709  0.1490
 4177SOL     OW24163   0.388   2.266  17.268 -0.2705 -0.6145  0.3239
 4177SOL    HW124164   0.359   2.297  17.354 -0.2540 -0.5828  0.3179
 4177SOL    HW224165   0.474   2.228  17.287  0.4243  0.1035 -1.4096
 4178SOL     OW24166   0.707   4.012   5.838  0.5810 -0.0129 -0.5017
 4178SOL    HW124167   0.726   4.102   5.866 -0.1472  0.5707 -1.9017
 4178SOL    HW224168   0.617   4.017   5.806  0.5335 -0.1042 -0.3841
 4179SOL     OW24169   1.236   1.378   7.597 -0.5342 -0.0669 -0.6480
 4179SOL    HW124170   1.247   1.283   7.596  1.4149  0.1262  2.1519
 4179SOL    HW224171   1.296   1.408   7.529  0.4983  1.3361  0.8794
 4180SOL     OW24172   3.428   3.155   2.219  0.7152 -0.5272 -0.7765
 4180SOL    HW124173   3.480   3.114   2.288 -1.2568 -1.9385 -0.1371
 4180SOL    HW224174   3.463   3.104   2.146 -1.0346  0.6206 -2.4248
 4181SOL     OW24175   2.744   3.682   4.535  0.0505  0.0402  0.3013
 4181SOL    HW124176   2.665   3.647   4.577 -1.2477  1.6178 -0.8263
 4181SOL    HW224177   2.796   3.605   4.510  1.6294  0.9428  0.8033
 4182SOL     OW24178   2.873   3.527   2.415 -0.3447  0.4069 -0.1640
 4182SOL    HW124179   2.884   3.470   2.491 -1.6917  0.6306  0.1968
 4182SOL    HW224180   2.863   3.468   2.340  4.8389  0.4197 -0.8714
 4183SOL     OW24181   2.691   0.575   6.372 -0.0765 -0.4293  0.3518
 4183SOL    HW124182   2.699   0.636   6.445  0.5235  0.5972 -0.5761
 4183SOL    HW224183   2.773   0.524   6.374  0.3973  0.3305  0.2524
 4184SOL     OW24184   3.718   2.152   4.942  0.9444 -0.2390  0.4689
 4184SOL    HW124185   3.736   2.237   4.902  0.6879 -0.7277 -0.6662
 4184SOL    HW224186   3.740   2.099   4.866 -1.5234 -0.5978  0.0024
 4185SOL     OW24187   2.987   4.231   7.231  0.0435  0.2901  0.1959
 4185SOL    HW124188   3.001   4.320   7.263 -0.9319 -0.3189  2.3316
 4185SOL    HW224189   2.892   4.218   7.241 -0.1360  0.4096 -1.4224
 4186SOL     OW24190   0.371   1.072   8.244  0.1599  0.3869  0.0486
 4186SOL    HW124191   0.344   1.015   8.172  0.4494 -0.3069  0.4895
 4186SOL    HW224192   0.441   1.119   8.199  0.6491 -0.0275  0.3881
 4187SOL     OW24193   3.673   3.547   5.710 -0.4841  0.1646  0.4705
 4187SOL    HW124194   3.730   3.522   5.783 -0.1602 -0.2936  0.0571
 4187SOL    HW224195   3.640   3.635   5.731 -0.9691 -0.1645  1.0971
 4188SOL     OW24196   4.420   1.249   8.862  0.6102 -0.4476 -0.1890
 4188SOL    HW124197   4.463   1.274   8.781  0.5425 -2.2919 -0.8148
 4188SOL    HW224198   4.333   1.284   8.844  0.6863 -0.5463 -0.7532
 4189SOL     OW24199   2.387   1.672  13.276  0.1312  0.1187 -0.6848
 4189SOL    HW124200   2.459   1.624  13.236 -0.7755 -0.9499 -1.0147
 4189SOL    HW224201   2.371   1.738  13.208  0.1339 -0.3802 -1.1767
 4190SOL     OW24202   0.028   4.138   7.595 -0.2699  0.3498  0.2840
 4190SOL    HW124203   0.029   4.230   7.568  1.0741  0.7382  1.6189
 4190SOL    HW224204   0.113   4.129   7.638 -0.0516 -0.4314 -0.3209
 4191SOL     OW24205   1.457   3.637  14.766  0.2259  0.1900  0.3093
 4191SOL    HW124206   1.378   3.588  14.744  1.1330 -1.3067  0.3583
 4191SOL    HW224207   1.523   3.620  14.698 -3.2745 -0.9150 -2.8086
 4192SOL     OW24208   0.843   4.591   8.708  1.3057  0.1615 -0.8865
 4192SOL    HW124209   0.913   4.538   8.745 -0.2698 -0.4883  1.2009
 4192SOL    HW224210   0.797   4.619   8.788 -1.6116 -1.5022 -1.9665
 4193SOL     OW24211   0.777   4.289   9.466  0.2551 -0.0163 -0.1914
 4193SOL    HW124212   0.711   4.358   9.462  0.0907 -0.2404 -1.2484
 4193SOL    HW224213   0.751   4.233   9.393  0.0228 -0.7634  0.4624
 4194SOL     OW24214   4.309   2.422   3.117  0.4802 -0.0449  0.2463
 4194SOL    HW124215   4.341   2.334   3.137  0.4662 -0.2959 -0.8294
 4194SOL    HW224216   4.389   2.473   3.099  0.2750 -0.5936 -2.1360
 4195SOL     OW24217   4.434   0.559   3.629  0.1127 -0.5815 -0.1402
 4195SOL    HW124218   4.484   0.619   3.684  1.9008 -1.6773 -0.5690
 4195SOL    HW224219   4.360   0.541   3.687  0.1370 -1.0201 -0.2430
 4196SOL     OW24220   3.829   1.689   9.579  0.3334 -0.3937  0.0934
 4196SOL    HW124221   3.777   1.703   9.657 -0.3723  0.9258 -0.6136
 4196SOL    HW224222   3.763   1.715   9.515 -1.4609 -1.0243  1.7028
 4197SOL     OW24223   3.811   1.405   3.005 -0.2076  0.0237 -0.2588
 4197SOL    HW124224   3.815   1.327   2.949 -0.7303  0.7730 -1.3410
 4197SOL    HW224225   3.813   1.476   2.942 -0.8132 -0.4126 -0.7732
 4198SOL     OW24226   4.191   3.191   6.913  0.0086  0.2854  0.5845
 4198SOL    HW124227   4.195   3.264   6.974  0.9584 -0.2083  1.1111
 4198SOL    HW224228   4.132   3.134   6.962  0.3819 -0.5901  0.0132
 4199SOL     OW24229   4.441   2.072   0.196 -0.3524 -0.8501  0.0038
 4199SOL    HW124230   4.510   2.019   0.157  0.6033  1.7704 -1.8056
 4199SOL    HW224231   4.374   2.078   0.129 -0.9194 -2.8120  0.3888
 4200SOL     OW24232   2.074   3.907   8.938 -0.5371  0.9077 -0.7427
 4200SOL    HW124233   2.135   3.854   8.989  0.9350  0.3300 -3.0723
 4200SOL    HW224234   2.105   3.881   8.851 -1.0620 -0.5538 -0.5008
 4201SOL     OW24235   4.104   4.642  12.929 -0.0070 -0.1707  0.2953
 4201SOL    HW124236   4.097   4.731  12.963 -0.4255 -0.8195  1.9050
 4201SOL    HW224237   4.157   4.600  12.996  3.3562 -0.4577 -2.5373
 4202SOL     OW24238   3.236   0.068   4.255  0.2170  0.1712 -0.2518
 4202SOL    HW124239   3.330   0.066   4.240  0.5878  0.9748  1.9312
 4202SOL    HW224240   3.234   0.141   4.318  0.4323  1.9281 -2.2944
 4203SOL     OW24241   2.200   1.484   5.342 -0.4811  0.1191  0.7999
 4203SOL    HW124242   2.291   1.509   5.331 -0.7759  0.9258  0.1758
 4203SOL    HW224243   2.161   1.523   5.264 -2.2758 -1.2450  0.9995
 4204SOL     OW24244   4.417   0.661  10.824  0.0095  0.9687  0.2464
 4204SOL    HW124245   4.424   0.733  10.761 -0.2687  0.8891  0.1220
 4204SOL    HW224246   4.339   0.679  10.876 -1.0547  3.1578 -2.0728
 4205SOL     OW24247   0.767   2.869   4.470  0.0921  0.2648 -0.0086
 4205SOL    HW124248   0.826   2.810   4.422 -0.7812 -1.2805  0.8194
 4205SOL    HW224249   0.819   2.948   4.484 -1.7359  1.5347 -0.3246
 4206SOL     OW24250   0.426   2.711   6.651 -0.5394 -0.5570 -0.4072
 4206SOL    HW124251   0.515   2.675   6.653 -1.4092 -2.5287  3.1140
 4206SOL    HW224252   0.411   2.747   6.738 -0.5268  0.5656 -0.8743
 4207SOL     OW24253   2.319   4.030   3.809  0.1213  0.2828 -0.0766
 4207SOL    HW124254   2.333   4.010   3.902 -0.3001  1.5674  0.2533
 4207SOL    HW224255   2.317   4.124   3.827  1.5093  0.6018 -1.6130
 4208SOL     OW24256   2.031   1.200   7.300  0.2785  0.0921 -0.6667
 4208SOL    HW124257   1.975   1.277   7.305 -2.4989 -1.8326 -2.4253
 4208SOL    HW224258   2.034   1.191   7.205 -0.7033 -0.5994 -0.6253
 4209SOL     OW24259   4.159   1.588   8.332 -0.4194 -0.5029 -0.5205
 4209SOL    HW124260   4.180   1.526   8.402 -1.7630 -0.9044 -0.4867
 4209SOL    HW224261   4.100   1.645   8.382 -0.0876 -0.4762 -0.1563
 4210SOL     OW24262   1.266   4.171   1.474 -0.2041 -0.0416  0.3576
 4210SOL    HW124263   1.282   4.223   1.552  2.2403  0.1348 -0.2473
 4210SOL    HW224264   1.183   4.202   1.439  0.6070 -0.3354 -1.8718
 4211SOL     OW24265   2.298   3.474  17.492 -0.0383  0.0156  0.5685
 4211SOL    HW124266   2.282   3.445  17.581 -0.3523  0.7462  0.7455
 4211SOL    HW224267   2.311   3.568  17.499  1.3467 -0.1797  0.5087
 4212SOL     OW24268   4.447   0.188   2.186  0.1912  0.1416  0.1875
 4212SOL    HW124269   4.417   0.119   2.126 -0.6743  1.8809 -1.3884
 4212SOL    HW224270   4.532   0.216   2.151  0.9566  0.7670  2.5604
 4213SOL     OW24271   1.772   2.138  14.461 -0.1140  0.1058  0.5086
 4213SOL    HW124272   1.822   2.219  14.475  0.4501  0.0832 -1.4016
 4213SOL    HW224273   1.781   2.138  14.366 -1.5589  3.2252  0.3888
 4214SOL     OW24274   4.212   0.695   2.980 -0.1052  0.1560  0.1277
 4214SOL    HW124275   4.267   0.774   2.981  1.7622 -1.1718  2.5651
 4214SOL    HW224276   4.279   0.633   3.008  1.2724  2.1449  1.2773
 4215SOL     OW24277   3.499   0.412  13.958  0.5597  0.8839 -0.2212
 4215SOL    HW124278   3.446   0.379  13.886  1.8203  0.4492 -0.9436
 4215SOL    HW224279   3.586   0.400  13.920  0.7144  2.8159 -0.4622
 4216SOL     OW24280   4.071   1.315   3.528 -0.7600  0.4242  0.0387
 4216SOL    HW124281   4.000   1.276   3.477 -0.9638  2.1515 -0.9873
 4216SOL    HW224282   4.063   1.265   3.609  0.8491  2.0229  1.2079
 4217SOL     OW24283   1.834   2.315   3.511  0.2745  0.2037  0.2225
 4217SOL    HW124284   1.779   2.311   3.589  0.5825 -0.5355  0.4000
 4217SOL    HW224285   1.913   2.269   3.539  2.3986  1.9592 -2.9299
 4218SOL     OW24286   2.261   2.893   6.301 -0.1072  0.2566 -0.1094
 4218SOL    HW124287   2.171   2.914   6.327 -0.3406  0.1732 -0.8369
 4218SOL    HW224288   2.250   2.857   6.212 -0.1491  0.3656 -0.1482
 4219SOL     OW24289   2.272   1.803  12.514 -0.6252 -0.8930 -0.6644
 4219SOL    HW124290   2.363   1.821  12.538 -0.3728 -0.8583 -1.6572
 4219SOL    HW224291   2.227   1.882  12.544  1.3191  0.4932 -1.3501
 4220SOL     OW24292   2.532   2.484   2.017  0.3353 -0.0634 -0.3155
 4220SOL    HW124293   2.622   2.461   1.994  0.7564  0.5812  0.6707
 4220SOL    HW224294   2.510   2.543   1.945  1.5006 -1.6879 -1.9975
 4221SOL     OW24295   0.923   0.095   1.212 -0.6331 -0.2352 -0.0654
 4221SOL    HW124296   0.973   0.059   1.139  0.3428 -0.6777  0.8266
 4221SOL    HW224297   0.833   0.063   1.202 -0.4760 -0.3541 -1.1283
 4222SOL     OW24298   4.373   4.270   8.119  0.2569  0.3297  0.9994
 4222SOL    HW124299   4.308   4.205   8.094  0.4732  0.4030  0.2448
 4222SOL    HW224300   4.357   4.333   8.049  1.6410 -0.3532  0.0739
 4223SOL     OW24301   0.291   4.204   4.244 -0.0138 -0.0931  0.0060
 4223SOL    HW124302   0.237   4.246   4.311  0.3037  0.5810 -0.1678
 4223SOL    HW224303   0.289   4.109   4.261 -2.0050 -0.0761 -0.0712
 4224SOL     OW24304   2.960   2.924   1.865  0.2192 -0.0595  0.4616
 4224SOL    HW124305   2.999   3.011   1.850 -0.7999  0.7625  2.6481
 4224SOL    HW224306   3.034   2.872   1.895 -0.5867 -1.0841  0.6672
 4225SOL     OW24307   1.326   2.345  11.653  0.3461 -0.5014 -0.3912
 4225SOL    HW124308   1.259   2.368  11.588  0.9094  0.4650 -0.6296
 4225SOL    HW224309   1.406   2.387  11.622  0.5381 -0.0846  0.6564
 4226SOL     OW24310   1.676   2.455   8.566 -0.2985  0.0180  0.2475
 4226SOL    HW124311   1.740   2.441   8.497  0.1111  0.2812  0.5771
 4226SOL    HW224312   1.704   2.389   8.628  2.0301  1.0557  0.2737
 4227SOL     OW24313   3.509   0.924   6.434  0.1039 -0.7883 -0.2057
 4227SOL    HW124314   3.442   0.988   6.458  1.0194 -0.7642  2.3444
 4227SOL    HW224315   3.518   0.880   6.519 -1.8536  0.1542  0.4786
 4228SOL     OW24316   2.997   3.402   6.375 -0.0826  0.0417  0.2594
 4228SOL    HW124317   3.073   3.381   6.430  1.1444  0.3809 -1.3068
 4228SOL    HW224318   2.957   3.315   6.379  1.1324 -0.4386  1.9253
 4229SOL     OW24319   4.205   4.650   3.703 -0.2445 -0.0999 -0.1175
 4229SOL    HW124320   4.161   4.673   3.621 -2.2869  3.2122  1.9326
 4229SOL    HW224321   4.131   4.633   3.760 -0.3872  1.7028  0.2537
 4230SOL     OW24322   1.295   4.231   7.401  0.2332  0.1854  0.3210
 4230SOL    HW124323   1.301   4.276   7.316 -0.8731 -2.5364 -1.1819
 4230SOL    HW224324   1.325   4.303   7.457 -0.5575  1.2961 -0.6748
 4231SOL     OW24325   4.147   4.324   6.733  0.4786 -0.5422  0.2948
 4231SOL    HW124326   4.132   4.416   6.713 -0.1243 -0.8411 -0.6496
 4231SOL    HW224327   4.156   4.294   6.642  4.5432  1.8264 -0.0996
 4232SOL     OW24328   4.413   3.519   5.904 -0.4374 -0.6013  0.1400
 4232SOL    HW124329   4.421   3.429   5.933 -2.7642 -1.7785 -2.8446
 4232SOL    HW224330   4.503   3.544   5.885 -0.2507 -1.7910 -0.5526
 4233SOL     OW24331   0.299   3.366  14.364  0.5358  0.1288 -0.2402
 4233SOL    HW124332   0.378   3.418  14.378  0.4936  0.4501 -1.2020
 4233SOL    HW224333   0.343   3.283  14.383  0.2134 -0.4655 -2.0547
 4234SOL     OW24334   3.299   3.853   2.781 -0.1354  0.5837  0.5146
 4234SOL    HW124335   3.322   3.811   2.864  0.3933 -3.3612 -1.6149
 4234SOL    HW224336   3.383   3.887   2.752 -0.0131 -1.4209 -1.5129
 4235SOL     OW24337   2.072   0.764  10.070 -0.0727 -0.4605  0.3540
 4235SOL    HW124338   2.009   0.719  10.014 -0.5162 -0.7314  1.0780
 4235SOL    HW224339   2.023   0.825  10.125  2.2167  1.7009  0.0058
 4236SOL     OW24340   1.629   4.038   3.011  0.0401  0.1852 -0.2731
 4236SOL    HW124341   1.612   4.118   2.961  0.5915 -0.3117 -1.2541
 4236SOL    HW224342   1.721   4.048   3.037 -0.8205 -1.7112  3.5363
 4237SOL     OW24343   0.739   0.942  12.118  0.4769 -0.9659  0.2776
 4237SOL    HW124344   0.756   1.020  12.066 -1.7151 -0.3077  0.5496
 4237SOL    HW224345   0.663   0.971  12.168  0.1634 -1.1080 -0.1057
 4238SOL     OW24346   3.848   2.052   7.697  0.2958  0.5075  0.0452
 4238SOL    HW124347   3.774   1.992   7.698  0.7095 -0.0120 -0.4717
 4238SOL    HW224348   3.919   1.996   7.731 -1.3955 -0.7459  1.5076
 4239SOL     OW24349   4.702   3.656  16.048  0.6843 -0.5646 -0.6994
 4239SOL    HW124350   4.625   3.710  16.032 -0.3991 -1.4186  1.7407
 4239SOL    HW224351   0.028   3.677  15.976  0.1404  1.7387 -0.5010
 4240SOL     OW24352   1.130   0.903  12.065  0.0667 -0.4252 -0.6067
 4240SOL    HW124353   1.205   0.880  12.121  0.7324  0.5116 -1.1095
 4240SOL    HW224354   1.141   0.832  12.002  2.1895  1.9080 -2.8427
 4241SOL     OW24355   3.680   1.116  11.258  0.5948  0.2130 -0.2224
 4241SOL    HW124356   3.584   1.106  11.254  0.7780 -1.3327 -0.9871
 4241SOL    HW224357   3.707   1.157  11.176 -1.4696 -0.5332 -1.2924
 4242SOL     OW24358   0.871   1.815  11.593  0.7640  0.4552 -0.2722
 4242SOL    HW124359   0.906   1.802  11.505  1.4301  0.6771 -0.0408
 4242SOL    HW224360   0.951   1.795  11.642  2.0023  2.2390 -1.5200
 4243SOL     OW24361   3.097   0.222  15.908  0.0576  1.0365  0.2584
 4243SOL    HW124362   3.179   0.269  15.918  0.2288  0.8738 -0.4184
 4243SOL    HW224363   3.071   0.220  16.000 -1.6919  0.0368 -0.2476
 4244SOL     OW24364   2.654   3.899  16.039 -0.3037  0.1793  0.2855
 4244SOL    HW124365   2.565   3.875  16.011  0.4369  0.2502 -2.1353
 4244SOL    HW224366   2.658   3.984  15.994 -0.8383 -0.3568 -0.7885
 4245SOL     OW24367   0.779   2.166  17.703 -0.2653 -0.0728  0.1602
 4245SOL    HW124368   0.826   2.112   0.029 -1.0969 -1.7182 -0.6053
 4245SOL    HW224369   0.720   2.214   0.023  1.4546  1.7340  0.4012
 4246SOL     OW24370   0.987   2.554   4.090  0.0748  0.1711  0.4723
 4246SOL    HW124371   1.046   2.480   4.107  0.2244  0.4184  1.0013
 4246SOL    HW224372   1.032   2.605   4.022  1.3012 -3.7674 -1.7092
 4247SOL     OW24373   2.565   3.993   1.745  0.0713 -0.0639 -0.1290
 4247SOL    HW124374   2.482   3.986   1.791 -0.9938 -1.6797 -2.2989
 4247SOL    HW224375   2.615   3.942   1.808 -0.1279  0.3145  0.3347
 4248SOL     OW24376   1.311   3.721   1.870 -0.2907  0.0603 -0.7504
 4248SOL    HW124377   1.324   3.716   1.964  0.8488 -0.7052 -0.9386
 4248SOL    HW224378   1.230   3.671   1.865  1.2052 -2.8347  3.9959
 4249SOL     OW24379   4.321   4.534   1.725 -0.8217 -0.4326 -0.0983
 4249SOL    HW124380   4.396   4.493   1.768 -1.3347 -1.7950 -0.4724
 4249SOL    HW224381   4.277   4.455   1.693 -0.9679  0.6669 -2.5993
 4250SOL     OW24382   2.113   2.986   2.703  0.0287 -0.4529 -0.6078
 4250SOL    HW124383   2.155   3.067   2.731  0.9146 -1.2102  0.2325
 4250SOL    HW224384   2.031   2.987   2.753  0.6906  0.2312  0.4692
 4251SOL     OW24385   0.448   2.661   2.198 -0.4259  0.2419 -0.0279
 4251SOL    HW124386   0.502   2.588   2.168 -1.6522  0.6860 -3.2777
 4251SOL    HW224387   0.387   2.609   2.251 -0.4274 -1.3031 -1.5688
 4252SOL     OW24388   1.988   2.695   1.975  0.2472 -0.2047  0.1087
 4252SOL    HW124389   2.075   2.669   2.004 -0.6712 -1.5517  1.6560
 4252SOL    HW224390   1.936   2.656   2.045  1.8949 -0.5905  1.1072
 4253SOL     OW24391   0.426   3.402   4.635  0.0868 -0.2141 -0.8288
 4253SOL    HW124392   0.476   3.354   4.700 -1.1045  0.2517  0.4270
 4253SOL    HW224393   0.365   3.337   4.599 -0.8804 -0.0394  0.4921
 4254SOL     OW24394   3.153   2.850  15.124  0.1971  0.0208 -0.2573
 4254SOL    HW124395   3.184   2.864  15.213 -1.1481 -0.7133  0.3274
 4254SOL    HW224396   3.121   2.761  15.138  2.3107 -1.0986 -2.5532
 4255SOL     OW24397   3.177   1.200   9.152  0.3489 -0.1548 -0.4009
 4255SOL    HW124398   3.203   1.176   9.241 -0.5310 -2.8155 -0.8293
 4255SOL    HW224399   3.115   1.271   9.171  1.2653 -0.4136  3.5640
 4256SOL     OW24400   3.427   0.153   3.104 -0.3688  0.2778  0.1621
 4256SOL    HW124401   3.376   0.228   3.134  0.9813  0.6390  1.5672
 4256SOL    HW224402   3.426   0.173   3.010 -1.2948  0.7797  0.2858
 4257SOL     OW24403   0.851   4.240   6.942 -0.5141  0.4435 -0.0245
 4257SOL    HW124404   0.830   4.185   7.017  0.5290  1.2344  0.8361
 4257SOL    HW224405   0.851   4.326   6.983  3.7151 -0.5649  2.0260
 4258SOL     OW24406   1.170   2.743   3.081  0.2656 -0.0713  0.2408
 4258SOL    HW124407   1.161   2.663   3.133 -0.6127 -0.9098 -1.2147
 4258SOL    HW224408   1.259   2.733   3.048  0.0858  1.6443 -0.7456
 4259SOL     OW24409   4.573   4.460   3.801 -0.1590 -0.4752  0.6689
 4259SOL    HW124410   4.664   4.475   3.830 -0.3912  0.8004  0.7701
 4259SOL    HW224411   4.524   4.536   3.832 -1.4727 -0.8902 -0.3981
 4260SOL     OW24412   4.166   1.675   1.457  0.4877 -0.0854 -0.1585
 4260SOL    HW124413   4.230   1.722   1.404  0.9914  1.9231  2.2189
 4260SOL    HW224414   4.211   1.591   1.470  1.5441 -0.1239 -4.2009
 4261SOL     OW24415   0.347   3.760   5.919 -0.3638  0.1697 -0.0239
 4261SOL    HW124416   0.434   3.762   5.960 -1.6111 -2.7287  2.7541
 4261SOL    HW224417   0.329   3.666   5.922 -1.1869  0.2975 -1.0904
 4262SOL     OW24418   3.331   0.214   3.856 -0.9148  0.3738 -0.5608
 4262SOL    HW124419   3.285   0.137   3.822 -1.1651  0.1061  0.3681
 4262SOL    HW224420   3.341   0.279   3.786  1.1905  2.0969  1.3381
 4263SOL     OW24421   2.012   3.122   0.546  0.6414 -0.1670  0.4554
 4263SOL    HW124422   2.045   3.125   0.636  0.6516  1.5857  0.3871
 4263SOL    HW224423   1.919   3.111   0.566  0.4692 -1.0771 -0.8774
 4264SOL     OW24424   1.387   3.034   0.097  0.1086 -0.5923  0.1712
 4264SOL    HW124425   1.381   3.074   0.183 -0.0815  1.1446 -0.6499
 4264SOL    HW224426   1.395   2.943   0.124  0.3972 -0.4149  0.6789
 4265SOL     OW24427   3.811   3.969  14.071 -0.6443 -0.1792 -0.5409
 4265SOL    HW124428   3.771   3.951  14.156  1.6038 -0.5661  0.4381
 4265SOL    HW224429   3.788   4.061  14.057 -1.6597 -1.0331 -4.4530
 4266SOL     OW24430   0.930   3.835   9.696 -0.5778  0.1526  0.4164
 4266SOL    HW124431   0.916   3.928   9.678  0.9491  0.5694  1.3878
 4266SOL    HW224432   0.941   3.797   9.608  1.9984  2.2281 -0.1484
 4267SOL     OW24433   2.673   1.878   4.366  0.2938  0.7491  0.1527
 4267SOL    HW124434   2.703   1.956   4.412 -0.0741  0.3928  1.0070
 4267SOL    HW224435   2.628   1.916   4.291 -0.1310  0.9889  0.5264
 4268SOL     OW24436   1.131   1.981  14.050 -0.4345  0.8175  0.7957
 4268SOL    HW124437   1.159   2.052  13.993 -3.5734  1.1445 -0.3601
 4268SOL    HW224438   1.134   1.912  13.983  1.8577  1.6262  0.0854
 4269SOL     OW24439   3.864   4.722   7.432 -0.0376  0.1942 -0.2078
 4269SOL    HW124440   3.914   0.042   7.371  0.0045 -0.6124 -0.8840
 4269SOL    HW224441   3.876   0.031   7.517  3.2229 -1.5762  0.2464
 4270SOL     OW24442   4.721   4.241   8.437  0.2811  0.0333  0.2397
 4270SOL    HW124443   4.695   4.191   8.359  1.0445 -0.6855  0.4532
 4270SOL    HW224444   0.068   4.284   8.413 -0.2906  2.3093  2.3797
 4271SOL     OW24445   4.063   2.697  17.111  0.3721  0.6431  0.5067
 4271SOL    HW124446   3.974   2.669  17.090  0.9301 -1.4189  0.9630
 4271SOL    HW224447   4.109   2.626  17.068 -0.2470  0.6346 -0.1464
 4272SOL     OW24448   1.410   4.021   7.098 -0.5837  0.2010  0.3336
 4272SOL    HW124449   1.500   4.051   7.111 -1.2245  2.0454  0.4831
 4272SOL    HW224450   1.421   3.938   7.052 -1.1389 -0.8478  2.1039
 4273SOL     OW24451   1.431   0.613   8.408 -0.1609 -0.4515 -0.2205
 4273SOL    HW124452   1.367   0.659   8.354 -1.2306 -1.4474  0.1867
 4273SOL    HW224453   1.375   0.541   8.438  0.7400 -0.6686  0.9167
 4274SOL     OW24454   3.686   4.697  10.240  0.5476 -0.2286 -0.3627
 4274SOL    HW124455   3.779   4.675  10.248  0.9818  2.2815  1.3022
 4274SOL    HW224456   3.657   0.002  10.322  0.5183 -0.3169 -0.3300
 4275SOL     OW24457   3.174   1.584   4.695  0.5499  0.5556 -0.7250
 4275SOL    HW124458   3.126   1.513   4.739 -2.6138  2.0441 -1.7411
 4275SOL    HW224459   3.250   1.531   4.672  0.9636  1.8904 -2.3763
 4276SOL     OW24460   3.004   1.314   3.441 -0.4643 -0.0767  0.0886
 4276SOL    HW124461   3.031   1.376   3.509 -0.1950 -1.7031  1.4750
 4276SOL    HW224462   3.022   1.373   3.368 -0.2784 -2.0395 -1.4612
 4277SOL     OW24463   2.083   0.075   5.304 -0.4232  0.0854  0.5729
 4277SOL    HW124464   2.007   0.113   5.259  0.5271  0.5989 -0.5922
 4277SOL    HW224465   2.056   4.720   5.287  1.9487 -0.7272  1.1906
 4278SOL     OW24466   4.001   4.419   9.043 -0.1709  0.2838  0.0105
 4278SOL    HW124467   4.047   4.389   8.964 -1.1959  1.0001 -0.8600
 4278SOL    HW224468   3.950   4.341   9.065  2.7867 -0.7955  3.0515
 4279SOL     OW24469   2.477   3.806  12.440 -0.6866 -0.5822 -0.0844
 4279SOL    HW124470   2.500   3.721  12.402  1.6197  0.4045 -0.8817
 4279SOL    HW224471   2.522   3.803  12.525 -2.0454  1.7174  0.7143
 4280SOL     OW24472   4.489   3.663   6.560  0.3493  0.2509  0.4706
 4280SOL    HW124473   4.402   3.687   6.591 -0.3555  1.3248 -2.3888
 4280SOL    HW224474   4.520   3.614   6.636  0.0016 -0.8237 -0.0722
 4281SOL     OW24475   3.511   4.445   2.111  0.1901  0.5896  0.3392
 4281SOL    HW124476   3.528   4.397   2.193 -2.4910 -1.1695 -0.1099
 4281SOL    HW224477   3.415   4.446   2.107  0.1772 -0.0086  0.4677
 4282SOL     OW24478   3.845   2.540   3.399 -0.6987 -0.1701  0.3068
 4282SOL    HW124479   3.798   2.621   3.422 -2.4714 -0.6997 -1.3893
 4282SOL    HW224480   3.938   2.562   3.402 -0.7004  0.1590 -2.0035
 4283SOL     OW24481   0.008   1.764   6.501 -0.0090  0.2196 -0.5988
 4283SOL    HW124482   4.723   1.833   6.565 -0.4951 -1.9503  1.5473
 4283SOL    HW224483   4.658   1.723   6.487  0.4998 -1.0934  0.1283
 4284SOL     OW24484   2.698   4.473   4.786  0.7063 -0.5730  0.0666
 4284SOL    HW124485   2.719   4.381   4.798  1.1550 -0.8210 -2.7603
 4284SOL    HW224486   2.696   4.491   4.880  0.7016  0.6178 -0.1611
 4285SOL     OW24487   2.619   3.113   5.093 -0.1157 -0.0131  0.8916
 4285SOL    HW124488   2.709   3.130   5.121  0.1242 -3.9436  2.4752
 4285SOL    HW224489   2.620   3.019   5.113  0.5179  0.0142  0.9875
 4286SOL     OW24490   0.487   3.457   0.854 -0.2621 -0.2636 -0.4506
 4286SOL    HW124491   0.408   3.434   0.903  0.3766  0.8725  1.1119
 4286SOL    HW224492   0.446   3.500   0.779 -1.1985  0.3738  0.4400
 4287SOL     OW24493   1.824   3.605  11.881  0.5810 -0.0587  0.0090
 4287SOL    HW124494   1.820   3.700  11.889  1.1245 -0.0356  0.0090
 4287SOL    HW224495   1.736   3.574  11.901  1.4421 -0.9050  2.4667
 4288SOL     OW24496   1.761   2.594   4.242 -0.6033  0.3038  0.4705
 4288SOL    HW124497   1.728   2.521   4.293  1.1561 -2.1207 -1.8537
 4288SOL    HW224498   1.765   2.663   4.308 -0.3096  1.5233 -0.8066
 4289SOL     OW24499   4.067   3.990  16.624 -0.0848  0.2329  0.0429
 4289SOL    HW124500   4.099   4.077  16.602  1.6722 -0.2270  0.7241
 4289SOL    HW224501   3.975   3.996  16.601  0.0512  2.0006 -0.0127
 4290SOL     OW24502   3.335   0.116   6.776 -0.7395 -0.0972 -0.4146
 4290SOL    HW124503   3.421   0.153   6.799  0.1709 -1.6399 -1.3505
 4290SOL    HW224504   3.304   0.069   6.854 -2.4663  3.8981  1.2808
 4291SOL     OW24505   1.845   0.703   8.504  0.1997 -0.0757  0.3001
 4291SOL    HW124506   1.798   0.704   8.421  1.1205 -1.7612 -0.2202
 4291SOL    HW224507   1.778   0.756   8.549 -0.1989 -1.2757  1.1070
 4292SOL     OW24508   2.672   4.085   3.038 -0.1171  0.1111  1.0248
 4292SOL    HW124509   2.640   4.078   2.948 -0.2289 -1.2116  1.1750
 4292SOL    HW224510   2.656   4.178   3.055 -2.4766  0.2397 -2.0104
 4293SOL     OW24511   1.676   0.668   8.307 -0.0654 -0.1389 -0.2496
 4293SOL    HW124512   1.599   0.662   8.364 -0.6834 -0.1726 -1.0793
 4293SOL    HW224513   1.640   0.719   8.234 -1.1945  0.7661  0.9326
 4294SOL     OW24514   1.533   2.955  16.835  0.1912  0.2556  0.2073
 4294SOL    HW124515   1.529   2.865  16.803 -1.3783 -0.3084  2.0156
 4294SOL    HW224516   1.590   2.937  16.910  0.3014 -0.6765 -0.1035
 4295SOL     OW24517   0.216   0.712   6.045 -0.1896  1.2788  0.4983
 4295SOL    HW124518   0.206   0.748   6.134 -1.0994  0.3284  0.7833
 4295SOL    HW224519   0.192   0.622   6.068 -1.8888  1.1532 -1.8207
 4296SOL     OW24520   2.797   1.244  17.176 -0.0409  0.2549  0.6364
 4296SOL    HW124521   2.757   1.303  17.240 -0.7206  1.8341 -1.2268
 4296SOL    HW224522   2.802   1.308  17.105 -2.0849 -0.8531 -0.4716
 4297SOL     OW24523   4.280   0.569   6.767  0.3692  0.7557 -0.0929
 4297SOL    HW124524   4.325   0.639   6.721  1.8105 -0.0872  0.0468
 4297SOL    HW224525   4.344   0.544   6.834  0.7376  1.5831 -0.1433
 4298SOL     OW24526   3.222   1.244   8.723  0.3446 -0.2712  0.2422
 4298SOL    HW124527   3.226   1.261   8.629 -1.8679 -1.1654 -0.0032
 4298SOL    HW224528   3.245   1.326   8.768  1.6179 -0.5734  0.1516
 4299SOL     OW24529   0.394   1.447  10.809 -0.0720  0.4972  0.7233
 4299SOL    HW124530   0.407   1.411  10.721 -1.2798 -0.3056  0.8733
 4299SOL    HW224531   0.484   1.476  10.829  1.0941 -1.2988 -1.8784
 4300SOL     OW24532   0.391   2.546   8.726 -0.3506 -0.3054  0.1274
 4300SOL    HW124533   0.460   2.503   8.676 -1.5166 -0.4964 -1.3317
 4300SOL    HW224534   0.320   2.536   8.662 -0.4300 -1.7949  0.4473
 4301SOL     OW24535   2.234   3.274   2.264 -0.0842  0.3482 -0.2125
 4301SOL    HW124536   2.142   3.293   2.281 -0.0639 -0.1433  0.4988
 4301SOL    HW224537   2.247   3.182   2.289 -0.1836  0.5431  0.5596
 4302SOL     OW24538   2.793   1.684   3.895 -0.4190  0.3777 -0.3122
 4302SOL    HW124539   2.789   1.756   3.958  0.3776 -0.1674  0.3544
 4302SOL    HW224540   2.885   1.689   3.867 -0.3458  0.0775 -0.1262
 4303SOL     OW24541   1.041   2.804  14.170 -0.2923  0.1030 -0.2630
 4303SOL    HW124542   1.093   2.781  14.247  0.1177  0.0710 -0.5457
 4303SOL    HW224543   1.074   2.729  14.120  1.0739 -0.4060  1.3795
 4304SOL     OW24544   2.230   2.601   6.075  0.1431  0.6524  0.0277
 4304SOL    HW124545   2.293   2.641   6.015  0.3005  0.3624  0.0035
 4304SOL    HW224546   2.268   2.516   6.098 -1.9215  0.3984  2.5709
 4305SOL     OW24547   3.601   1.166   4.997  0.4435  0.3279  0.1319
 4305SOL    HW124548   3.661   1.206   5.059 -0.9155 -2.0515  2.9986
 4305SOL    HW224549   3.635   1.076   5.001 -0.2036  0.1546  1.6689
 4306SOL     OW24550   0.034   4.135   4.594 -0.5640 -0.3785  0.0044
 4306SOL    HW124551   4.680   4.145   4.630 -1.7466 -2.1771 -2.4343
 4306SOL    HW224552   0.056   4.055   4.642  1.3402  0.8607  1.1871
 4307SOL     OW24553   0.471   2.819  14.674  0.7795 -0.4313 -0.1012
 4307SOL    HW124554   0.418   2.779  14.605  0.3996  0.0383 -0.0822
 4307SOL    HW224555   0.409   2.793  14.742  0.3986  2.5204  0.6861
 4308SOL     OW24556   1.371   0.237   7.602  0.4422  0.0105  0.1951
 4308SOL    HW124557   1.370   0.314   7.546 -2.3557 -0.7177 -0.7618
 4308SOL    HW224558   1.276   0.220   7.605  0.2844  0.7770 -0.6953
 4309SOL     OW24559   2.390   0.020   5.964  0.3947 -0.5143 -0.2003
 4309SOL    HW124560   2.399   0.012   5.869  0.9408  1.4040 -0.3192
 4309SOL    HW224561   2.318   0.083   5.955  0.8482  0.2049  1.1556
 4310SOL     OW24562   1.374   4.060   8.071 -0.5267  0.0776  0.0125
 4310SOL    HW124563   1.419   3.989   8.026  1.3081  1.3507 -0.1928
 4310SOL    HW224564   1.424   4.053   8.153 -1.4163  0.6228  0.5954
 4311SOL     OW24565   2.929   3.288   7.753 -0.3512 -0.4089  0.2661
 4311SOL    HW124566   2.878   3.259   7.829 -1.5384 -0.3546 -0.5213
 4311SOL    HW224567   2.938   3.205   7.706  0.8627  1.6465 -3.0628
 4312SOL     OW24568   0.221   0.811  11.513 -0.2597  0.6180  0.5231
 4312SOL    HW124569   0.255   0.775  11.594 -0.4266  1.7022  1.0866
 4312SOL    HW224570   0.131   0.837  11.535 -1.3115 -1.5449 -1.2104
 4313SOL     OW24571   2.868   2.563  12.770  0.6507  0.4021  0.0478
 4313SOL    HW124572   2.906   2.645  12.737 -0.6780  1.0930  0.2291
 4313SOL    HW224573   2.941   2.525  12.819  2.1066  1.2711 -1.4015
 4314SOL     OW24574   2.082   1.227  11.617  0.2899 -0.4152  0.3051
 4314SOL    HW124575   2.040   1.246  11.533 -0.6047 -2.1723  0.3542
 4314SOL    HW224576   2.159   1.201  11.568  1.2750  1.2427  0.9747
 4315SOL     OW24577   2.053   3.971   3.831  0.4007 -0.0515  0.2462
 4315SOL    HW124578   2.148   3.963   3.830  0.3301 -0.6975 -1.2920
 4315SOL    HW224579   2.050   3.891   3.883 -0.5381  0.1271  0.4686
 4316SOL     OW24580   3.457   1.226   1.940  0.3031 -0.3804 -0.0256
 4316SOL    HW124581   3.461   1.141   1.983  1.2818 -1.5273 -2.3999
 4316SOL    HW224582   3.376   1.260   1.978  1.2276  1.9440 -0.1364
 4317SOL     OW24583   2.455   0.932   8.694 -0.1370 -0.0766  0.3268
 4317SOL    HW124584   2.410   0.939   8.609  0.4216 -0.6404 -0.0168
 4317SOL    HW224585   2.378   0.919   8.750  0.2115 -1.4177  0.5051
 4318SOL     OW24586   2.304   4.389   3.191 -0.1545 -0.3210 -0.0329
 4318SOL    HW124587   2.241   4.419   3.256 -1.0195  0.2433 -1.1276
 4318SOL    HW224588   2.258   4.410   3.110  2.3018 -0.6792 -1.5392
 4319SOL     OW24589   1.316   1.726   5.151 -0.1015 -0.4445  0.3404
 4319SOL    HW124590   1.401   1.687   5.168  0.4953  0.3701 -0.7696
 4319SOL    HW224591   1.265   1.649   5.125 -0.4086 -0.1588  0.0871
 4320SOL     OW24592   1.498   2.027   3.576 -0.2674  0.3985  0.1464
 4320SOL    HW124593   1.490   1.935   3.603  0.0482  0.0795 -0.8202
 4320SOL    HW224594   1.437   2.021   3.502  0.6439 -2.0819 -0.4047
 4321SOL     OW24595   1.691   1.702   6.108 -0.7074  0.2411  0.5298
 4321SOL    HW124596   1.674   1.693   6.202  1.1043 -2.9833  0.5321
 4321SOL    HW224597   1.647   1.785   6.092 -1.1061  0.4577  2.7419
 4322SOL     OW24598   0.705   4.425   0.004 -0.0158 -0.0746 -0.3641
 4322SOL    HW124599   0.690   4.342   0.051 -0.8073 -0.1619 -0.7734
 4322SOL    HW224600   0.707   4.491   0.073 -0.3301  0.7268 -1.1208
 4323SOL     OW24601   4.620   4.673   9.325  0.6883 -0.1572 -0.6559
 4323SOL    HW124602   4.616   4.578   9.316 -0.5306 -0.5420  3.9603
 4323SOL    HW224603   4.642   4.676   9.418 -1.3140  3.5761 -0.2990
 4324SOL     OW24604   1.484   2.744   6.645 -0.3191  0.0810  0.2259
 4324SOL    HW124605   1.441   2.829   6.658 -2.9456 -1.2018 -0.2267
 4324SOL    HW224606   1.528   2.731   6.730  1.7064  0.3617 -0.7905
 4325SOL     OW24607   4.308   0.660  12.991 -0.5015 -0.3911  0.5335
 4325SOL    HW124608   4.301   0.566  13.012  3.1457 -0.6490  0.5418
 4325SOL    HW224609   4.222   0.669  12.949 -0.0214  1.3838 -0.0243
 4326SOL     OW24610   2.520   4.014   2.072 -0.5119 -0.0503  0.4824
 4326SOL    HW124611   2.555   4.100   2.051  0.9508 -0.2129  2.2499
 4326SOL    HW224612   2.590   3.969   2.120 -0.0165  0.3448  0.1280
 4327SOL     OW24613   4.263   4.670   2.526  0.5535  0.1100  0.0508
 4327SOL    HW124614   4.205   0.010   2.537  2.6114  1.3999  2.2083
 4327SOL    HW224615   4.213   4.595   2.492  0.4674  0.3814 -0.4247
 4328SOL     OW24616   3.620   0.040  10.767 -0.0695 -0.0690  0.5049
 4328SOL    HW124617   3.539   0.015  10.723 -0.7870 -0.8773  2.2819
 4328SOL    HW224618   3.662   0.103  10.709  2.1190 -0.0206  2.1251
 4329SOL     OW24619   1.204   3.894   5.403 -0.6349 -0.1046 -0.4999
 4329SOL    HW124620   1.186   3.802   5.422  0.8565 -0.3906 -0.4816
 4329SOL    HW224621   1.179   3.940   5.483 -1.1261  2.1226 -1.9455
 4330SOL     OW24622   2.884   2.180   7.345 -0.1983  0.8444 -0.0842
 4330SOL    HW124623   2.867   2.222   7.261 -0.4250  0.5946 -0.1640
 4330SOL    HW224624   2.972   2.212   7.366 -1.3364  2.3670  2.3338
 4331SOL     OW24625   3.360   4.350   5.697  0.0627 -0.4757 -0.2099
 4331SOL    HW124626   3.324   4.419   5.641  0.8517  1.1359  1.2456
 4331SOL    HW224627   3.451   4.379   5.701 -0.1966  0.3852 -0.4063
 4332SOL     OW24628   3.571   3.342   9.933  0.0965 -0.0924 -0.0608
 4332SOL    HW124629   3.531   3.399   9.999 -1.1652  1.7035 -2.4212
 4332SOL    HW224630   3.654   3.319   9.976 -1.3014 -1.7855  1.7713
 4333SOL     OW24631   2.612   3.567   7.741 -0.0006 -0.5143  0.2831
 4333SOL    HW124632   2.669   3.508   7.691  0.0073  0.8950 -1.4034
 4333SOL    HW224633   2.674   3.630   7.777  1.2517 -2.6824  1.8907
 4334SOL     OW24634   4.097   0.236  12.145  0.4193  0.3745  0.9635
 4334SOL    HW124635   4.021   0.290  12.126  1.7397  0.8571 -3.0502
 4334SOL    HW224636   4.141   0.299  12.202  1.3244  1.4650 -0.9240
 4335SOL     OW24637   4.499   1.076   3.693  0.3834 -0.1536 -0.2983
 4335SOL    HW124638   4.445   0.998   3.686 -0.3425  0.1668  1.6774
 4335SOL    HW224639   4.530   1.070   3.784 -1.1731  1.9055  0.3654
 4336SOL     OW24640   4.069   1.423   2.698  0.5379  0.5594 -0.2061
 4336SOL    HW124641   4.017   1.412   2.618 -0.9132  0.1059  0.7928
 4336SOL    HW224642   4.065   1.515   2.725 -1.3132  0.2557  0.5241
 4337SOL     OW24643   1.268   2.689   8.463 -0.4382 -0.1424 -0.4295
 4337SOL    HW124644   1.350   2.674   8.510 -1.1575  0.5897  1.0430
 4337SOL    HW224645   1.200   2.674   8.529  2.6328 -0.9315  2.5180
 4338SOL     OW24646   3.200   3.599  12.237 -0.2997 -0.2495  0.2261
 4338SOL    HW124647   3.172   3.655  12.165  1.3200  1.4750  0.9602
 4338SOL    HW224648   3.288   3.572  12.210 -0.2948 -1.6647  1.6743
 4339SOL     OW24649   0.490   1.794   2.764  0.3953 -0.3433  0.3424
 4339SOL    HW124650   0.450   1.707   2.761 -1.4447  0.4631  1.3026
 4339SOL    HW224651   0.408   1.842   2.777  0.1557 -0.7783  0.4512
 4340SOL     OW24652   0.023   0.242   1.345 -0.5486 -0.0506  0.2846
 4340SOL    HW124653   4.686   0.303   1.325 -0.6637 -0.0825  0.5965
 4340SOL    HW224654   4.721   0.169   1.295 -2.0415  0.7471  0.2246
 4341SOL     OW24655   4.364   2.421   4.910 -0.5056 -0.0247 -0.0656
 4341SOL    HW124656   4.434   2.369   4.950 -2.5290 -1.8928  0.9827
 4341SOL    HW224657   4.403   2.505   4.885  1.5077 -1.1356 -0.6724
 4342SOL     OW24658   3.860   2.456   4.403  0.0814  0.5610 -0.4500
 4342SOL    HW124659   3.800   2.528   4.383  0.6618  0.7257 -1.5977
 4342SOL    HW224660   3.803   2.379   4.403  1.5330 -0.4957  3.0273
 4343SOL     OW24661   4.231   1.884   2.239  0.1600  0.1868  0.5836
 4343SOL    HW124662   4.224   1.863   2.333 -1.5730  0.7808  0.5858
 4343SOL    HW224663   4.239   1.979   2.245 -1.7599  0.3913 -0.1285
 4344SOL     OW24664   3.664   3.378  11.640 -0.1463  0.5852 -0.5143
 4344SOL    HW124665   3.674   3.456  11.586 -0.1390  0.7693 -0.2432
 4344SOL    HW224666   3.681   3.309  11.575  1.2495  0.2037  0.2680
 4345SOL     OW24667   3.336   0.796   3.528  0.0872  0.2773 -0.4080
 4345SOL    HW124668   3.377   0.831   3.608 -0.5344  0.6520 -0.2574
 4345SOL    HW224669   3.410   0.751   3.487 -0.0398 -0.3600  0.0739
 4346SOL     OW24670   3.060   1.002   8.954 -0.1020 -0.2536 -0.0218
 4346SOL    HW124671   3.088   0.912   8.965  1.9690  0.6011  1.7000
 4346SOL    HW224672   3.104   1.040   9.030  2.0500 -2.6450 -0.0972
 4347SOL     OW24673   3.168   1.413  13.975 -0.2123 -0.9584 -0.8551
 4347SOL    HW124674   3.095   1.460  13.935  0.1666  1.4965  1.3591
 4347SOL    HW224675   3.194   1.353  13.905  1.0220  1.1875 -2.2329
 4348SOL     OW24676   3.782   1.766   7.130  0.0792  0.5545  0.5331
 4348SOL    HW124677   3.786   1.808   7.044  0.8144 -1.8710 -0.6350
 4348SOL    HW224678   3.865   1.719   7.139 -1.0197 -1.7178 -1.2129
 4349SOL     OW24679   1.279   0.862  17.585 -1.0903 -0.2539  0.2745
 4349SOL    HW124680   1.274   0.767  17.600 -0.0334 -0.3074  0.3030
 4349SOL    HW224681   1.236   0.867  17.500 -0.8384 -1.3156  0.0823
 4350SOL     OW24682   4.438   2.039   2.424  0.2429 -0.2332  0.3979
 4350SOL    HW124683   4.462   2.032   2.517 -1.0272  1.5303  0.8469
 4350SOL    HW224684   4.494   1.966   2.396 -0.1437 -0.2994 -0.1919
 4351SOL     OW24685   2.661   0.043  14.345  0.9636  0.1059 -0.2845
 4351SOL    HW124686   2.679   0.088  14.262 -0.4863  1.2935  0.0413
 4351SOL    HW224687   2.696   4.690  14.332 -0.4837 -0.4634 -0.2746
 4352SOL     OW24688   2.841   1.809  16.898 -0.4378 -0.4315 -0.5059
 4352SOL    HW124689   2.912   1.873  16.907 -1.0417  0.1465  0.2128
 4352SOL    HW224690   2.792   1.816  16.980 -0.4985 -0.2579 -0.5579
 4353SOL     OW24691   0.175   0.333   2.173 -0.0143  0.2673  0.0754
 4353SOL    HW124692   0.154   0.350   2.265 -1.7526  2.7402 -0.7826
 4353SOL    HW224693   0.254   0.283   2.195 -0.4623  0.0403  1.1630
 4354SOL     OW24694   1.926   3.394  11.699  0.1735 -0.2154  0.2106
 4354SOL    HW124695   2.008   3.418  11.656  0.6437 -3.1099 -0.5322
 4354SOL    HW224696   1.912   3.464  11.763  0.7452  0.0344  0.0568
 4355SOL     OW24697   1.251   3.856  16.322 -0.7159 -0.0796 -0.1553
 4355SOL    HW124698   1.335   3.848  16.277  0.4781 -1.1291  2.2407
 4355SOL    HW224699   1.211   3.771  16.304  0.7936 -0.9102  0.3698
 4356SOL     OW24700   3.927   2.569   1.494  0.0758  0.4605 -0.1835
 4356SOL    HW124701   3.942   2.488   1.541 -1.2682  0.4994  0.3098
 4356SOL    HW224702   3.901   2.621   1.570  0.0844 -0.4651  0.4498
 4357SOL     OW24703   2.167   3.361  16.360  0.3844 -0.8738 -0.2252
 4357SOL    HW124704   2.083   3.407  16.353  0.1609 -1.1801  0.5287
 4357SOL    HW224705   2.196   3.367  16.269  0.7389  1.9256  0.0494
 4358SOL     OW24706   3.243   1.120   5.165  0.0548 -0.4969 -0.5727
 4358SOL    HW124707   3.250   1.168   5.247 -0.9071  0.4194 -1.0271
 4358SOL    HW224708   3.156   1.154   5.146  0.4673  1.1094  0.4840
 4359SOL     OW24709   2.666   1.937   1.278 -0.0747 -0.0930  0.4880
 4359SOL    HW124710   2.576   1.907   1.269  0.0186 -0.3477  0.4171
 4359SOL    HW224711   2.716   1.856   1.276 -1.2892 -0.8213  0.0053
 4360SOL     OW24712   0.244   3.858  17.386 -0.5696  0.4773 -0.0970
 4360SOL    HW124713   0.218   3.841  17.476 -1.1789 -0.3779 -0.4351
 4360SOL    HW224714   0.202   3.784  17.341 -2.5340  1.8225 -0.4770
 4361SOL     OW24715   3.669   3.132   8.867  0.5227  0.5180  0.0487
 4361SOL    HW124716   3.616   3.092   8.798  1.8467 -1.6874  0.3026
 4361SOL    HW224717   3.615   3.162   8.940  0.9209 -0.0902  0.5952
 4362SOL     OW24718   1.425   3.246   5.482 -0.2206  0.2802  0.7740
 4362SOL    HW124719   1.470   3.246   5.567  2.4005  3.3773 -0.6349
 4362SOL    HW224720   1.371   3.169   5.503 -0.3159  0.0304 -0.4185
 4363SOL     OW24721   1.832   3.374   3.765 -0.0451  0.4327  0.4161
 4363SOL    HW124722   1.900   3.315   3.732 -0.4498  0.6208 -0.7362
 4363SOL    HW224723   1.881   3.456   3.759 -0.4919  0.7435  0.9547
 4364SOL     OW24724   1.985   3.219  12.209 -0.0547  0.2041  0.7034
 4364SOL    HW124725   1.892   3.227  12.234 -0.9565  0.6344 -2.8143
 4364SOL    HW224726   1.993   3.297  12.153  0.1821 -0.1846  0.2053
 4365SOL     OW24727   3.874   0.765   1.560 -0.3369 -0.7009  0.2957
 4365SOL    HW124728   3.935   0.695   1.583  0.7399  0.3370  0.6087
 4365SOL    HW224729   3.897   0.777   1.468 -1.7800  0.0695  0.0293
 4366SOL     OW24730   3.572   2.242  11.791  0.4179  0.1267 -0.3705
 4366SOL    HW124731   3.651   2.276  11.832 -1.4361  0.3688  3.0292
 4366SOL    HW224732   3.564   2.156  11.832 -0.6430  0.1532 -0.5114
 4367SOL     OW24733   2.454   1.370   7.300 -0.2481 -0.0829 -0.1617
 4367SOL    HW124734   2.381   1.324   7.259  0.0576 -0.6919 -0.0154
 4367SOL    HW224735   2.433   1.379   7.393  0.0318 -0.1430 -0.0933
 4368SOL     OW24736   3.665   4.602   4.922  0.6704  0.3214 -0.3226
 4368SOL    HW124737   3.629   4.550   4.850  1.5564 -1.1844  0.3041
 4368SOL    HW224738   3.618   4.572   5.000  0.6668  0.4201 -0.2870
 4369SOL     OW24739   4.540   2.934   6.528 -0.8783 -0.3793  0.5463
 4369SOL    HW124740   4.454   2.934   6.486 -0.2816 -2.0536 -0.6785
 4369SOL    HW224741   4.527   2.865   6.594 -0.8114 -0.5985  0.3277
 4370SOL     OW24742   4.046   1.005  13.839  0.4102 -0.4917  0.0873
 4370SOL    HW124743   3.995   1.048  13.770 -0.2773  3.4394  3.0448
 4370SOL    HW224744   4.124   0.982  13.788 -0.1365  1.8668 -1.7766
 4371SOL     OW24745   1.185   3.433  15.776 -0.1655  0.0264 -0.4028
 4371SOL    HW124746   1.202   3.375  15.702  1.1398 -1.2354  0.9164
 4371SOL    HW224747   1.273   3.435  15.811 -0.8036  0.2651  1.1901
 4372SOL     OW24748   1.751   4.268  15.150  0.1284 -0.3004  0.4773
 4372SOL    HW124749   1.704   4.184  15.149 -0.1236 -0.1514 -0.3911
 4372SOL    HW224750   1.835   4.246  15.109  2.1855  0.8258  4.0896
 4373SOL     OW24751   2.835   1.809   5.302  0.0308 -0.1711 -0.0684
 4373SOL    HW124752   2.815   1.747   5.232  1.4146 -1.2331  0.4814
 4373SOL    HW224753   2.924   1.779   5.319 -0.4412 -0.7889  1.3397
 4374SOL     OW24754   4.225   0.427  10.776 -0.4876 -0.2375  0.5171
 4374SOL    HW124755   4.305   0.389  10.738 -0.5502  0.9979 -0.8311
 4374SOL    HW224756   4.211   0.495  10.710 -0.3903  0.9259  1.6997
 4375SOL     OW24757   3.921   3.907   3.289  0.2616  0.2985  0.0804
 4375SOL    HW124758   3.944   3.827   3.241 -1.1143  0.3056 -0.5948
 4375SOL    HW224759   3.965   3.966   3.227  1.6202 -0.2629  0.5211
 4376SOL     OW24760   0.887   4.069   8.832  0.3950 -0.4520  0.1045
 4376SOL    HW124761   0.981   4.060   8.850  1.4404 -0.5738 -5.2892
 4376SOL    HW224762   0.861   3.977   8.830  0.1641 -0.3662 -0.8004
 4377SOL     OW24763   0.840   3.218   7.054 -0.8310  0.0129  0.1585
 4377SOL    HW124764   0.786   3.143   7.081  1.4160 -0.4005  3.4192
 4377SOL    HW224765   0.812   3.219   6.962 -1.2380 -0.2833  0.2783
 4378SOL     OW24766   0.814   4.582   8.177  0.3704  0.0259  0.0146
 4378SOL    HW124767   0.831   4.676   8.168 -1.4289  0.5700  2.3013
 4378SOL    HW224768   0.721   4.587   8.201  0.1881  0.3828 -0.7546
 4379SOL     OW24769   1.592   3.430  16.797 -0.0160 -0.0720 -0.1030
 4379SOL    HW124770   1.597   3.444  16.892 -1.7770  0.6091 -0.1059
 4379SOL    HW224771   1.624   3.341  16.784 -1.4046 -0.5932  0.0214
 4380SOL     OW24772   2.933   4.552   7.990 -0.0722  0.2285 -0.5428
 4380SOL    HW124773   2.978   4.514   7.914 -0.4956  0.8121 -1.0855
 4380SOL    HW224774   2.948   4.471   8.038 -2.0097  0.5773  0.6435
 4381SOL     OW24775   0.130   1.905   3.504  0.2647  0.4593 -0.0927
 4381SOL    HW124776   0.106   1.836   3.442  1.2380  0.7011 -0.7247
 4381SOL    HW224777   0.209   1.863   3.539  0.0728  0.6731  0.6114
 4382SOL     OW24778   2.970   3.551   7.761  0.0378  1.1186 -0.6128
 4382SOL    HW124779   2.944   3.560   7.853  1.5198 -1.8606  0.1045
 4382SOL    HW224780   2.957   3.456   7.752  1.6670  0.9120 -0.6809
 4383SOL     OW24781   0.756   1.730   2.672 -0.6372  0.7379 -0.4086
 4383SOL    HW124782   0.677   1.778   2.696 -0.0987  1.9654 -1.0670
 4383SOL    HW224783   0.715   1.665   2.616 -0.5353  1.1965 -1.0181
 4384SOL     OW24784   0.730   3.622   1.360 -0.2629  0.2778  0.4507
 4384SOL    HW124785   0.693   3.638   1.446 -0.6330 -1.2626  0.5789
 4384SOL    HW224786   0.667   3.671   1.308 -0.1918 -0.5976 -0.4647
 4385SOL     OW24787   2.381   1.908   6.627 -0.1173  0.3429  0.3140
 4385SOL    HW124788   2.419   1.993   6.602  1.4081  0.0212  1.4683
 4385SOL    HW224789   2.451   1.851   6.596 -0.4751 -0.0161  0.1747
 4386SOL     OW24790   4.608   0.970   7.002  0.1268  0.1535 -0.1390
 4386SOL    HW124791   4.617   0.881   7.036 -0.0251 -0.0210 -0.5518
 4386SOL    HW224792   4.694   1.002   7.029  0.3937 -2.0620  1.6411
 4387SOL     OW24793   3.428   0.862   5.640 -0.6380  0.6386  0.1811
 4387SOL    HW124794   3.394   0.948   5.619  2.5539  1.0013 -3.4655
 4387SOL    HW224795   3.519   0.880   5.664 -0.5201  0.3814 -0.0772
 4388SOL     OW24796   3.483   3.781   2.094  0.7278  0.0356  0.5117
 4388SOL    HW124797   3.532   3.729   2.158 -0.8500 -0.9501  0.9115
 4388SOL    HW224798   3.418   3.823   2.149  1.7193 -0.3935  1.9919
 4389SOL     OW24799   0.655   2.895   8.475  0.2013 -0.5839 -0.0160
 4389SOL    HW124800   0.655   2.888   8.571  0.8591  2.4944  0.2343
 4389SOL    HW224801   0.692   2.809   8.455  2.4244  1.0846 -3.0716
 4390SOL     OW24802   4.109   3.096  15.489 -0.3234  0.4135  0.3665
 4390SOL    HW124803   4.025   3.050  15.480  0.7032 -0.7663 -2.9676
 4390SOL    HW224804   4.120   3.060  15.576  3.3674 -0.5431 -0.5398
 4391SOL     OW24805   0.565   4.330  13.050 -0.3668  0.2993  0.0416
 4391SOL    HW124806   0.532   4.261  13.108  1.9530 -0.5140  0.3703
 4391SOL    HW224807   0.650   4.339  13.091  0.1419 -0.2985 -0.8756
 4392SOL     OW24808   2.921   3.064   5.787 -0.1547 -0.6112 -0.3922
 4392SOL    HW124809   2.944   3.102   5.702  0.3560  2.4736  1.1031
 4392SOL    HW224810   2.841   3.016   5.769 -0.0364 -0.2599 -1.8170
 4393SOL     OW24811   3.096   1.949   2.074 -0.1927  0.2451  0.3255
 4393SOL    HW124812   3.107   1.904   1.990  2.5631 -0.5933  1.1417
 4393SOL    HW224813   3.011   1.992   2.060  0.0416 -0.0774 -1.9978
 4394SOL     OW24814   3.552   3.027   1.970  0.1096 -1.1079  0.2041
 4394SOL    HW124815   3.483   3.071   1.920  1.9330  0.8993 -0.5416
 4394SOL    HW224816   3.620   3.095   1.974 -0.6496 -0.3210 -0.0862
 4395SOL     OW24817   0.028   4.337  14.798  0.1749  0.0628  0.0619
 4395SOL    HW124818   0.067   4.253  14.772 -0.4337  0.4831 -2.1906
 4395SOL    HW224819   0.079   4.361  14.875  2.1868 -1.4966 -0.7719
 4396SOL     OW24820   0.427   2.499   7.397  0.4155  0.1773 -0.2091
 4396SOL    HW124821   0.448   2.592   7.390 -1.3374  0.6069  0.0921
 4396SOL    HW224822   0.342   2.506   7.441 -0.1169  0.0911 -1.2434
 4397SOL     OW24823   2.900   1.609  16.671  0.2305 -0.1041 -0.2050
 4397SOL    HW124824   2.857   1.622  16.755 -0.1762 -0.6004 -0.3390
 4397SOL    HW224825   2.848   1.531  16.649  1.3657 -0.4574 -1.6996
 4398SOL     OW24826   3.174   1.135   4.334  0.2200  0.3204 -0.2385
 4398SOL    HW124827   3.186   1.230   4.322 -2.4620  0.7597  0.5764
 4398SOL    HW224828   3.080   1.128   4.345  0.0781 -0.1679 -1.8341
 4399SOL     OW24829   3.093   0.254   0.657  0.8380 -0.5654 -0.0054
 4399SOL    HW124830   3.182   0.286   0.670  2.2132 -3.7686 -1.6130
 4399SOL    HW224831   3.106   0.180   0.597  0.5458  0.1040 -0.8980
 4400SOL     OW24832   0.834   4.318   2.735 -0.1620 -0.6607 -0.5377
 4400SOL    HW124833   0.898   4.259   2.775  1.0764  1.5542  0.7589
 4400SOL    HW224834   0.758   4.261   2.748  0.4140 -1.0777  0.9192
 4401SOL     OW24835   0.855   4.464   4.847 -0.1834  0.8472 -0.1605
 4401SOL    HW124836   0.872   4.558   4.839 -1.1480  1.1450  1.2661
 4401SOL    HW224837   0.777   4.458   4.902 -1.0386 -1.8411 -1.6642
 4402SOL     OW24838   0.880   4.347  16.932 -0.0129  0.0374 -0.2553
 4402SOL    HW124839   0.912   4.408  16.866  0.9286 -0.5683 -0.3575
 4402SOL    HW224840   0.906   4.268  16.885  0.0421  0.5420 -1.0672
 4403SOL     OW24841   4.118   4.175   7.585  0.1865  0.5604  0.0025
 4403SOL    HW124842   4.077   4.176   7.671 -1.0805 -2.1254 -0.5417
 4403SOL    HW224843   4.054   4.215   7.526 -0.5838 -1.5556 -0.6174
 4404SOL     OW24844   4.478   2.401  14.164  0.3734 -0.0352 -0.2011
 4404SOL    HW124845   4.537   2.335  14.129  2.4530  1.7532 -0.0552
 4404SOL    HW224846   4.389   2.365  14.169  0.8667 -1.5264 -2.2682
 4405SOL     OW24847   4.521   0.867   4.972 -0.1567  0.1466  0.1434
 4405SOL    HW124848   4.569   0.944   4.944  0.1593  0.0096  0.3041
 4405SOL    HW224849   4.579   0.797   4.941  0.8356 -0.1753  2.7283
 4406SOL     OW24850   2.074   1.332   6.718  0.2736  0.5619  0.0208
 4406SOL    HW124851   2.089   1.246   6.758 -1.7466 -1.0223 -2.6460
 4406SOL    HW224852   2.037   1.308   6.633  1.4539  3.2136 -1.2431
 4407SOL     OW24853   4.399   0.857   8.874 -0.3158  0.3726 -0.0410
 4407SOL    HW124854   4.361   0.905   8.947 -3.4852 -0.3995 -1.1678
 4407SOL    HW224855   4.363   0.773   8.902 -1.9173  0.4297 -1.8913
 4408SOL     OW24856   0.664   3.739   7.213 -0.2903  0.4511  0.0333
 4408SOL    HW124857   0.620   3.655   7.199  0.3637 -0.0217  0.7725
 4408SOL    HW224858   0.753   3.707   7.200 -1.5317 -3.0458  0.2203
 4409SOL     OW24859   4.707   2.766   1.386  0.7038  0.3133  0.0767
 4409SOL    HW124860   4.648   2.717   1.442 -0.2983  0.6955 -0.6347
 4409SOL    HW224861   4.729   2.835   1.448  1.4011  0.3045 -0.1638
 4410SOL     OW24862   0.263   4.413   5.481  0.4234 -0.1043  0.2865
 4410SOL    HW124863   0.325   4.419   5.553  0.8360  1.3929 -0.1971
 4410SOL    HW224864   0.310   4.455   5.409  0.7348 -0.6832  0.1543
 4411SOL     OW24865   4.106   1.521   4.371 -0.1348  0.1911  0.4542
 4411SOL    HW124866   4.087   1.573   4.449  0.0733  1.4272 -0.3111
 4411SOL    HW224867   4.167   1.458   4.409 -0.9096  0.0818  1.4891
 4412SOL     OW24868   3.728   0.152  12.010 -0.1551  0.3892  0.2148
 4412SOL    HW124869   3.666   0.132  12.080 -1.1263  0.3971 -0.6390
 4412SOL    HW224870   3.769   0.068  11.990 -0.5312  0.8602 -2.4709
 4413SOL     OW24871   4.034   0.608   2.630  0.5293  0.1360 -0.2363
 4413SOL    HW124872   4.039   0.573   2.541  0.1578 -0.8529  0.1331
 4413SOL    HW224873   4.119   0.578   2.662  0.4248 -0.5368 -0.5993
 4414SOL     OW24874   2.593   3.069   7.788 -0.0164 -0.1962  0.0213
 4414SOL    HW124875   2.623   2.991   7.835 -3.8708 -0.6298  1.7356
 4414SOL    HW224876   2.643   3.136   7.835  2.0613 -3.3254  2.3097
 4415SOL     OW24877   1.524   4.311   3.925  0.1328  0.2650  0.1931
 4415SOL    HW124878   1.550   4.226   3.959  1.4874  0.5114 -0.2196
 4415SOL    HW224879   1.596   4.318   3.863 -2.3635  3.6256 -2.3031
 4416SOL     OW24880   4.609   3.293   3.043  0.1454 -0.1651 -1.0767
 4416SOL    HW124881   4.635   3.201   3.048  0.2985 -0.1145 -0.9525
 4416SOL    HW224882   4.584   3.307   2.952 -1.3422  1.7525 -0.3917
 4417SOL     OW24883   1.301   3.436  10.461 -0.9067  0.2102  0.2712
 4417SOL    HW124884   1.213   3.403  10.444 -1.1109  0.6736  0.4425
 4417SOL    HW224885   1.355   3.359  10.444 -0.0081  0.6673  0.9887
 4418SOL     OW24886   4.302   1.490   3.934 -0.5536 -0.3399 -0.2469
 4418SOL    HW124887   4.223   1.436   3.928 -0.4330 -0.2423 -2.6960
 4418SOL    HW224888   4.347   1.446   4.006  2.8110 -1.1875 -2.8659
 4419SOL     OW24889   4.080   3.180   3.846  0.1795 -0.2105  0.0257
 4419SOL    HW124890   4.160   3.208   3.892  1.2958  0.6058 -2.4424
 4419SOL    HW224891   4.024   3.160   3.921 -1.7125  1.3802 -0.9925
 4420SOL     OW24892   4.522   1.428   6.503 -0.5351 -0.2528  0.4856
 4420SOL    HW124893   4.598   1.475   6.536 -0.7432  0.3654  0.0970
 4420SOL    HW224894   4.496   1.366   6.571  0.4206 -2.6616 -1.3300
 4421SOL     OW24895   4.031   0.670   8.280 -0.8474 -0.7711 -0.0639
 4421SOL    HW124896   3.978   0.627   8.347  0.0409 -3.9658 -1.3781
 4421SOL    HW224897   4.080   0.599   8.237  2.0640 -0.4335  2.7233
 4422SOL     OW24898   1.348   3.984   3.822 -0.4555  0.2489 -0.2636
 4422SOL    HW124899   1.323   3.945   3.906  0.2578 -2.1963 -1.1860
 4422SOL    HW224900   1.443   3.995   3.834 -0.4233  1.1639 -1.2647
 4423SOL     OW24901   3.641   2.102   1.358  0.2223  0.2773 -0.4222
 4423SOL    HW124902   3.554   2.060   1.358  0.5710 -0.4477 -2.9949
 4423SOL    HW224903   3.649   2.131   1.267  1.7974  0.0805 -0.3369
 4424SOL     OW24904   3.075   2.397   5.527  1.1070 -0.2576 -0.6410
 4424SOL    HW124905   3.031   2.385   5.443 -1.0299  0.8896  0.3264
 4424SOL    HW224906   3.040   2.484   5.545  1.4640 -0.2138 -0.1631
 4425SOL     OW24907   0.196   2.650   9.790 -0.4128  0.0295  0.5672
 4425SOL    HW124908   0.264   2.717   9.797  1.0141 -1.2832 -0.7715
 4425SOL    HW224909   0.183   2.645   9.695  0.2594  0.7253  0.4319
 4426SOL     OW24910   3.417   2.592   7.528  0.2773 -0.2391 -0.6018
 4426SOL    HW124911   3.333   2.634   7.512 -0.8032 -1.9207  0.6689
 4426SOL    HW224912   3.434   2.600   7.622 -0.4165 -3.0085 -0.2379
 4427SOL     OW24913   2.723   4.009   6.080 -0.1080 -0.0159 -0.1226
 4427SOL    HW124914   2.810   4.027   6.043  0.8407 -0.5167  1.8512
 4427SOL    HW224915   2.658   4.041   6.018 -0.5048  0.2776  0.4446
 4428SOL     OW24916   1.566   3.436   3.773  0.2796  0.3348 -0.2361
 4428SOL    HW124917   1.654   3.415   3.741  0.0495 -0.0615 -0.6083
 4428SOL    HW224918   1.566   3.398   3.860 -0.6778  0.4660 -0.1829
 4429SOL     OW24919   1.669   0.270   2.566 -0.5914 -0.1825  0.5883
 4429SOL    HW124920   1.648   0.362   2.583  2.0707  0.0052  2.7547
 4429SOL    HW224921   1.581   0.232   2.564 -0.4746 -0.4986  1.3952
 4430SOL     OW24922   2.856   0.749   0.481 -0.2784  0.4065  0.0014
 4430SOL    HW124923   2.825   0.774   0.394  0.7589 -0.1422 -0.5270
 4430SOL    HW224924   2.951   0.761   0.477 -0.1450 -0.5901  0.2333
 4431SOL     OW24925   0.981   2.263   6.652 -0.2566  0.2207 -0.1236
 4431SOL    HW124926   1.041   2.318   6.702 -0.6758  0.2039  0.3905
 4431SOL    HW224927   1.015   2.176   6.674 -0.3922  0.3760  0.7016
 4432SOL     OW24928   0.002   3.573   5.308 -0.3648  0.4925 -0.0067
 4432SOL    HW124929   0.008   3.480   5.286 -0.7693  0.6992 -1.0060
 4432SOL    HW224930   0.076   3.570   5.369 -1.0964  1.0019  0.8962
 4433SOL     OW24931   1.320   3.943   7.359  0.5369  0.2458  0.2229
 4433SOL    HW124932   1.293   4.029   7.389  1.8201  1.6301 -2.6244
 4433SOL    HW224933   1.357   3.965   7.273 -2.2238 -0.1487 -1.0574
 4434SOL     OW24934   2.658   0.107   9.174  0.6932  0.2158  0.9821
 4434SOL    HW124935   2.589   0.057   9.217 -0.8170  0.1112 -1.5768
 4434SOL    HW224936   2.679   0.069   9.089 -0.6495  0.5184  0.5128
 4435SOL     OW24937   4.472   2.955  10.924 -0.6155 -0.2008 -0.2606
 4435SOL    HW124938   4.421   3.028  10.959  1.2437  1.5957 -1.3048
 4435SOL    HW224939   4.560   2.977  10.957 -0.1006  0.5446 -2.1323
 4436SOL     OW24940   4.220   0.568  10.557 -0.2746 -0.4000  0.0996
 4436SOL    HW124941   4.284   0.637  10.543  0.0348 -0.1906  2.6204
 4436SOL    HW224942   4.154   0.592  10.491  1.5114 -1.1223 -1.9625
 4437SOL     OW24943   1.580   0.539   6.159 -0.2218  0.8830  0.1588
 4437SOL    HW124944   1.576   0.491   6.242  0.0152  0.0541 -0.3112
 4437SOL    HW224945   1.622   0.470   6.108  0.2500 -0.1538  1.9661
 4438SOL     OW24946   1.421   3.338  13.883  0.0126  0.1506 -0.0139
 4438SOL    HW124947   1.371   3.257  13.888  1.1983 -0.5263  0.8341
 4438SOL    HW224948   1.463   3.329  13.797 -0.3115 -0.2410 -0.1298
 4439SOL     OW24949   2.162   3.165   0.763 -0.7971 -0.0179 -0.3346
 4439SOL    HW124950   2.236   3.121   0.720  0.4512  2.4288 -0.6769
 4439SOL    HW224951   2.217   3.234   0.799 -1.7957  1.1795 -1.1070
 4440SOL     OW24952   2.424   4.157   3.290 -0.0106  0.2220 -0.4685
 4440SOL    HW124953   2.424   4.177   3.384 -0.8566  0.9042 -0.6176
 4440SOL    HW224954   2.369   4.227   3.256  0.8399  1.6125  1.0264
 4441SOL     OW24955   3.212   0.962   3.324  0.3962  0.0262 -0.0760
 4441SOL    HW124956   3.300   0.971   3.288  0.6059  1.3390  0.7718
 4441SOL    HW224957   3.224   0.900   3.396 -1.1247  0.7345  0.7834
 4442SOL     OW24958   3.191   3.023   8.905 -0.2881 -0.1144  0.2791
 4442SOL    HW124959   3.159   3.046   8.992  1.0226  2.2808  0.1198
 4442SOL    HW224960   3.277   2.984   8.924  0.0669 -0.2674 -1.6737
 4443SOL     OW24961   3.378   1.261   7.141  0.1019  0.1579 -0.1054
 4443SOL    HW124962   3.310   1.206   7.100  0.1911  2.0021 -2.7328
 4443SOL    HW224963   3.379   1.224   7.229  1.0701  1.6903  0.5109
 4444SOL     OW24964   4.042   3.356  15.496  0.4240  0.1631 -0.3519
 4444SOL    HW124965   4.123   3.395  15.462  1.6112 -1.1489  0.9553
 4444SOL    HW224966   4.052   3.264  15.470  1.3111  0.0595  0.3349
 4445SOL     OW24967   1.404   0.709  10.058 -0.0180 -0.8351  0.2276
 4445SOL    HW124968   1.334   0.752  10.107  0.4330  0.2274 -0.0640
 4445SOL    HW224969   1.486   0.733  10.100  0.3093  1.4649 -1.7461
 4446SOL     OW24970   2.803   1.326   1.355 -0.0894 -0.5832  0.1416
 4446SOL    HW124971   2.892   1.321   1.389  0.2143 -1.1618 -0.7508
 4446SOL    HW224972   2.752   1.330   1.436 -2.4791 -1.7311 -1.2967
 4447SOL     OW24973   2.279   0.131  15.760 -0.2123 -0.4955  0.0609
 4447SOL    HW124974   2.215   0.135  15.689  0.3722 -2.3034 -0.5628
 4447SOL    HW224975   2.337   0.194  15.715  1.8690 -2.4407  0.0066
 4448SOL     OW24976   0.115   4.042  17.099 -0.0903 -0.0332 -0.2955
 4448SOL    HW124977   0.076   3.975  17.043 -0.9613 -1.0772  1.5661
 4448SOL    HW224978   0.065   4.121  17.076  0.3230  0.9329  2.1318
 4449SOL     OW24979   4.058   1.021  12.416 -0.3755 -0.3501  0.5684
 4449SOL    HW124980   4.000   1.059  12.350 -1.4308  1.3459  2.4833
 4449SOL    HW224981   4.047   0.931  12.388  0.3410 -0.7810  1.6716
 4450SOL     OW24982   2.329   3.505   1.839  0.1736 -0.1290 -0.0827
 4450SOL    HW124983   2.320   3.556   1.759  0.8140 -0.7722 -0.5644
 4450SOL    HW224984   2.376   3.427   1.808 -2.1937 -1.1731 -0.9876
 4451SOL     OW24985   4.065   2.528   5.724 -0.6622 -0.1481 -0.5999
 4451SOL    HW124986   4.016   2.554   5.645 -1.2432 -0.2790 -0.2802
 4451SOL    HW224987   4.026   2.442   5.737 -1.9144  0.9452  2.8307
 4452SOL     OW24988   0.761   1.856   9.397  1.0322  0.0283 -0.0720
 4452SOL    HW124989   0.723   1.805   9.468  0.8725 -1.8452 -1.4991
 4452SOL    HW224990   0.829   1.799   9.360  1.2040 -0.1376  0.5115
 4453SOL     OW24991   2.396   0.912  13.839  0.1638  0.2661  0.3695
 4453SOL    HW124992   2.428   0.907  13.748 -0.0779 -0.5430  0.3325
 4453SOL    HW224993   2.359   1.000  13.834 -0.0547  0.2533  1.7359
 4454SOL     OW24994   3.760   4.310  12.576  0.4163 -0.8946  0.7075
 4454SOL    HW124995   3.670   4.325  12.605 -0.0275  1.3996 -1.8714
 4454SOL    HW224996   3.743   4.260  12.496  0.3894 -0.4245  0.4182
 4455SOL     OW24997   1.153   0.750   4.262 -0.4251 -0.0799 -0.4833
 4455SOL    HW124998   1.174   0.840   4.291  1.3019 -0.5619 -0.2119
 4455SOL    HW224999   1.058   0.756   4.267 -0.3722  1.4183 -1.1049
 4456SOL     OW25000   3.738   1.347   6.285 -0.0863 -0.0135  0.0983
 4456SOL    HW125001   3.749   1.423   6.341  0.8575 -0.3705  0.3921
 4456SOL    HW225002   3.766   1.275   6.341 -0.8355  1.0888  1.8882
 4457SOL     OW25003   0.988   1.040  16.428  0.0953  0.6324 -0.1733
 4457SOL    HW125004   0.933   1.010  16.500  0.4874 -0.9870 -0.5543
 4457SOL    HW225005   1.013   0.955  16.392 -1.6421 -0.1707  0.4981
 4458SOL     OW25006   1.266   3.216   8.155 -0.1053 -0.3849  0.3350
 4458SOL    HW125007   1.250   3.125   8.179  1.8524 -0.9588 -0.5490
 4458SOL    HW225008   1.281   3.259   8.240  0.2571  2.9600 -1.4063
 4459SOL     OW25009   0.085   2.444  14.295 -0.3069 -0.0347 -0.3776
 4459SOL    HW125010   0.141   2.408  14.363  0.4023 -0.8895 -1.4156
 4459SOL    HW225011   0.085   2.370  14.234 -3.0304 -0.5537  0.2219
 4460SOL     OW25012   4.730   2.422   4.359  0.0367 -0.3925 -0.0314
 4460SOL    HW125013   0.034   2.408   4.445 -1.8027  1.9080  1.1673
 4460SOL    HW225014   0.081   2.422   4.315 -0.5670 -0.6857 -1.2282
 4461SOL     OW25015   3.481   1.776   3.746 -0.2462 -0.4005 -0.0189
 4461SOL    HW125016   3.518   1.767   3.835  1.0983  0.6413 -0.4669
 4461SOL    HW225017   3.391   1.798   3.770 -0.2058 -0.7312  0.4420
 4462SOL     OW25018   1.611   3.965   5.864  0.6672 -0.8881  0.6474
 4462SOL    HW125019   1.599   3.905   5.937 -1.1471 -0.9130  0.3390
 4462SOL    HW225020   1.706   3.971   5.853  0.8124 -2.3617  1.0928
 4463SOL     OW25021   2.866   0.020   7.413  0.1497  0.5669  0.1506
 4463SOL    HW125022   2.797   0.086   7.407  0.1463  0.6664  1.3330
 4463SOL    HW225023   2.928   0.074   7.462 -1.6774  0.8624  2.1705
 4464SOL     OW25024   3.925   0.752   3.371 -0.2946  0.2510  0.2956
 4464SOL    HW125025   3.844   0.761   3.321  0.2675  0.9992 -0.5023
 4464SOL    HW225026   3.890   0.691   3.435  1.3717 -0.0200  0.9577
 4465SOL     OW25027   3.509   0.297  17.246 -0.2257  0.7178  1.0453
 4465SOL    HW125028   3.417   0.323  17.256 -1.1913 -2.2856 -0.3714
 4465SOL    HW225029   3.531   0.331  17.159 -1.4562  0.5370  0.6715
 4466SOL     OW25030   3.060   1.264   1.767  0.4027  0.3599  0.1897
 4466SOL    HW125031   3.115   1.188   1.787  0.2561  0.8270  2.3956
 4466SOL    HW225032   3.043   1.297   1.856 -1.2715  0.2034 -0.0755
 4467SOL     OW25033   4.363   1.920   1.209  0.6704  0.1959  0.0861
 4467SOL    HW125034   4.301   1.992   1.217 -0.2012 -0.8843  3.0738
 4467SOL    HW225035   4.390   1.899   1.298  3.1594  0.1905 -0.6484
 4468SOL     OW25036   2.612   0.862   4.715  0.2819  0.3857  0.4482
 4468SOL    HW125037   2.583   0.832   4.629 -0.6110  0.8609  0.5810
 4468SOL    HW225038   2.631   0.780   4.759 -1.8035  0.7665  2.0766
 4469SOL     OW25039   0.386   0.876   4.315  0.3623  0.1150 -0.0395
 4469SOL    HW125040   0.423   0.956   4.280 -3.0487  1.1126 -1.4065
 4469SOL    HW225041   0.414   0.820   4.243  1.7951 -2.0523  2.1914
 4470SOL     OW25042   0.408   2.483  13.321  0.1321 -0.2466 -0.4250
 4470SOL    HW125043   0.449   2.490  13.235  2.2935  0.7290  0.7053
 4470SOL    HW225044   0.319   2.452  13.302  0.1679 -0.1384 -0.7697
 4471SOL     OW25045   4.721   0.255   6.287  0.4044  0.0825 -0.1327
 4471SOL    HW125046   0.018   0.175   6.329 -0.1921  0.2812  0.7073
 4471SOL    HW225047   4.706   0.209   6.204  0.8645  0.3436 -0.3600
 4472SOL     OW25048   4.728   0.837  13.568  0.2290  0.4228  0.4043
 4472SOL    HW125049   0.039   0.787  13.636 -0.5177 -0.6996  0.0912
 4472SOL    HW225050   0.067   0.857  13.511  1.9940 -1.7750  1.8990
 4473SOL     OW25051   0.506   0.213   3.706  0.7115  0.4414  0.2268
 4473SOL    HW125052   0.513   0.155   3.781 -1.3954  0.9682  0.8185
 4473SOL    HW225053   0.594   0.251   3.702 -0.0267  2.1807  0.8241
 4474SOL     OW25054   0.080   2.585  17.218  0.1012 -0.0622  0.2969
 4474SOL    HW125055   0.013   2.625  17.273  1.7751  3.5509 -0.2557
 4474SOL    HW225056   0.034   2.510  17.181 -1.1199  1.1385 -0.6500
 4475SOL     OW25057   4.503   2.902  13.838  0.0359  0.2484  0.1678
 4475SOL    HW125058   4.538   2.825  13.883  0.1779 -0.0428 -0.4373
 4475SOL    HW225059   4.479   2.862  13.754  0.6953  1.2921 -0.5188
 4476SOL     OW25060   2.580   4.586  15.129  0.3331  0.3492 -0.3488
 4476SOL    HW125061   2.563   4.664  15.182 -0.4464 -0.6397  0.8620
 4476SOL    HW225062   2.492   4.549  15.121 -0.0877  1.5469 -1.1738
 4477SOL     OW25063   2.139   3.957   9.507  0.7234  0.0238  0.4391
 4477SOL    HW125064   2.079   3.978   9.578  0.2225  0.4478 -0.1146
 4477SOL    HW225065   2.109   3.867   9.494 -0.9348  0.9793 -2.4115
 4478SOL     OW25066   1.323   3.796   8.731 -0.2251 -0.3930 -0.1239
 4478SOL    HW125067   1.412   3.826   8.747 -0.8853  0.8172  1.2647
 4478SOL    HW225068   1.313   3.776   8.638 -0.2506 -0.4130 -0.1172
 4479SOL     OW25069   1.773   3.877   0.301 -0.2791 -0.3652  0.3958
 4479SOL    HW125070   1.847   3.905   0.247  0.0100 -1.3307  0.3058
 4479SOL    HW225071   1.712   3.835   0.240 -0.0699  0.2094 -0.2197
 4480SOL     OW25072   1.040   1.802  10.945  0.0688  0.2294 -0.6408
 4480SOL    HW125073   1.133   1.779  10.950  0.4829  1.6841 -1.7238
 4480SOL    HW225074   1.046   1.891  10.979  0.9993  0.6587 -1.9642
 4481SOL     OW25075   0.113   0.029   1.918 -0.2617  0.2234 -0.5058
 4481SOL    HW125076   0.206   0.037   1.941 -0.3299  2.3090 -0.9345
 4481SOL    HW225077   0.121   0.001   1.827  0.1025 -1.0872 -0.0745
 4482SOL     OW25078   3.562   0.784  12.426  0.3148  0.1188  0.0955
 4482SOL    HW125079   3.564   0.758  12.334 -0.7822  2.0234 -0.4745
 4482SOL    HW225080   3.608   0.869  12.426 -1.3260  1.0202 -1.8838
 4483SOL     OW25081   1.018   1.360  14.012  0.3033 -0.5934  0.2241
 4483SOL    HW125082   1.034   1.324  13.925  0.8273 -0.4994  0.2809
 4483SOL    HW225083   1.104   1.394  14.038  0.4088  0.0464 -0.9488
 4484SOL     OW25084   1.729   4.054   5.273  0.5458  0.0998  0.0724
 4484SOL    HW125085   1.693   4.009   5.350 -1.4578  1.2947 -0.1629
 4484SOL    HW225086   1.768   3.985   5.221 -1.5420  0.3717 -1.8425
 4485SOL     OW25087   4.400   4.269   6.835 -0.6136 -1.0318  0.0093
 4485SOL    HW125088   4.313   4.289   6.802 -0.2243  1.2955  0.4276
 4485SOL    HW225089   4.383   4.278   6.929 -0.3141 -0.7267  0.0378
 4486SOL     OW25090   2.974   4.585   9.009  0.0095 -0.0585  0.3462
 4486SOL    HW125091   3.004   4.657   9.063  2.4677 -1.3345  0.6834
 4486SOL    HW225092   3.030   4.515   9.043  0.7991  0.1644 -0.5018
 4487SOL     OW25093   2.904   4.045   0.963 -0.2990  0.3178  0.1802
 4487SOL    HW125094   2.923   4.077   1.051  1.9128 -0.2285 -0.0891
 4487SOL    HW225095   2.811   4.066   0.953 -0.1546  1.3995  1.0112
 4488SOL     OW25096   2.378   2.725   1.519 -0.9653  0.2558  0.1064
 4488SOL    HW125097   2.302   2.748   1.574 -1.7819 -0.4389 -0.7411
 4488SOL    HW225098   2.379   2.630   1.510  0.3967  0.4517 -1.5620
 4489SOL     OW25099   4.198   0.105   2.927  0.1825 -0.3542  0.3253
 4489SOL    HW125100   4.242   0.187   2.950 -1.0778  0.6058 -0.6141
 4489SOL    HW225101   4.258   0.037   2.956  0.9713  0.2947  0.2264
 4490SOL     OW25102   3.808   3.612  12.825  0.0967  0.4697 -0.4433
 4490SOL    HW125103   3.896   3.649  12.814  0.7207 -0.5483  1.0382
 4490SOL    HW225104   3.839   3.538  12.877  0.7152  1.7079  0.9743
 4491SOL     OW25105   2.985   2.573   4.893 -0.1525  0.3519 -0.1256
 4491SOL    HW125106   2.902   2.532   4.919  1.1177 -1.4480  1.0935
 4491SOL    HW225107   3.029   2.567   4.978 -0.7512 -1.0230  0.0741
 4492SOL     OW25108   4.076   0.627   9.255  0.4122 -0.5803  0.7533
 4492SOL    HW125109   3.988   0.595   9.232  0.9737 -0.2589 -1.9041
 4492SOL    HW225110   4.090   0.701   9.197  0.1358 -1.9345 -1.0601
 4493SOL     OW25111   4.029   3.805   2.318  0.0972 -0.3042 -0.1388
 4493SOL    HW125112   4.038   3.715   2.350  3.3129 -0.4926 -1.5406
 4493SOL    HW225113   4.123   3.824   2.315  0.0180 -0.2756 -2.4183
 4494SOL     OW25114   1.839   0.208  10.083 -0.2885 -0.0606  0.2738
 4494SOL    HW125115   1.744   0.217  10.078 -0.1066  1.8751  0.6090
 4494SOL    HW225116   1.833   0.182  10.175 -1.4486  0.3984  0.3316
 4495SOL     OW25117   2.699   0.365   4.686 -0.3412 -0.8137 -0.8769
 4495SOL    HW125118   2.698   0.364   4.591 -1.1849 -5.3888 -0.8104
 4495SOL    HW225119   2.649   0.439   4.720 -0.5778 -0.7987 -1.2683
 4496SOL     OW25120   0.109   4.240   3.688 -0.2465  0.2803 -0.0038
 4496SOL    HW125121   0.036   4.230   3.749  0.2012 -0.3547  0.4399
 4496SOL    HW225122   0.094   4.323   3.643 -1.5308 -0.5027 -1.0140
 4497SOL     OW25123   1.861   0.270   7.499 -0.5558 -0.0756 -0.4560
 4497SOL    HW125124   1.941   0.317   7.521  0.5446 -2.6593  0.9813
 4497SOL    HW225125   1.795   0.335   7.523 -0.2591 -1.2789  3.6354
 4498SOL     OW25126   3.156   1.600   3.915  0.6050  0.3582 -0.1214
 4498SOL    HW125127   3.119   1.515   3.891  1.7139 -0.1693  0.0386
 4498SOL    HW225128   3.206   1.571   3.992  2.6430  0.9116 -1.2251
 4499SOL     OW25129   0.929   0.182   6.738 -0.1527 -0.1509  0.3700
 4499SOL    HW125130   0.973   0.100   6.715  1.8722  0.6807  1.2669
 4499SOL    HW225131   0.889   0.207   6.655  0.6429 -0.4386 -0.1010
 4500SOL     OW25132   0.855   2.182  14.346 -0.1299  0.2232 -0.2259
 4500SOL    HW125133   0.905   2.216  14.420 -2.7542 -1.2612  2.2026
 4500SOL    HW225134   0.930   2.140  14.303  0.3891  2.1794 -1.2439
 4501SOL     OW25135   4.101   4.724   3.459 -0.4540  0.3701 -0.1774
 4501SOL    HW125136   4.053   0.064   3.422 -0.7488 -1.5136 -3.5490
 4501SOL    HW225137   4.057   4.655   3.410  0.4179 -0.3324  0.0277
 4502SOL     OW25138   0.943   4.445  16.120 -0.4026  0.1058  0.1718
 4502SOL    HW125139   0.860   4.492  16.123 -0.0552  0.7396 -0.1180
 4502SOL    HW225140   0.979   4.472  16.205 -1.5552  0.0397  0.6899
 4503SOL     OW25141   4.087   0.843   4.162  0.3390  0.2722 -0.0626
 4503SOL    HW125142   4.015   0.892   4.124  0.3037  0.0272 -0.3183
 4503SOL    HW225143   4.160   0.880   4.111 -0.1479  1.0970 -0.1419
 4504SOL     OW25144   3.069   1.199   2.430 -0.2456  0.5748  0.4493
 4504SOL    HW125145   3.028   1.137   2.491 -0.5012  1.3985  1.1088
 4504SOL    HW225146   3.055   1.279   2.481 -1.7614  1.9295 -2.1211
 4505SOL     OW25147   3.020   1.507  17.434  0.0392 -0.6721  0.0786
 4505SOL    HW125148   2.967   1.470  17.363 -0.0197 -1.4143  0.5059
 4505SOL    HW225149   3.071   1.572  17.386 -2.1303  1.6052  0.8699
 4506SOL     OW25150   1.028   4.078  12.917 -0.0532 -0.0553 -0.0226
 4506SOL    HW125151   1.093   4.014  12.947  0.2845 -0.7617 -2.2706
 4506SOL    HW225152   1.084   4.130  12.859  1.2913 -0.8626  0.5504
 4507SOL     OW25153   3.007   0.862   4.578 -0.9165  0.1833  0.1417
 4507SOL    HW125154   3.034   0.779   4.617 -0.2097  0.1090 -0.5174
 4507SOL    HW225155   2.949   0.843   4.504  0.4030  0.7901 -1.0409
 4508SOL     OW25156   3.872   3.859   0.189  0.3070  0.5808  0.0412
 4508SOL    HW125157   3.858   3.883   0.280  2.7133  1.8815  0.0899
 4508SOL    HW225158   3.788   3.827   0.158 -0.0550  0.2136  1.4260
 4509SOL     OW25159   1.198   2.329   2.670 -0.4013 -0.7837 -0.1628
 4509SOL    HW125160   1.205   2.239   2.638  2.8428 -1.1169  1.4352
 4509SOL    HW225161   1.222   2.378   2.591  1.5569 -1.9483 -0.2833
 4510SOL     OW25162   4.076   1.816   5.566 -0.1053  0.3817  0.0246
 4510SOL    HW125163   4.132   1.893   5.577 -0.2603  0.4305  0.4692
 4510SOL    HW225164   4.030   1.840   5.486  0.2627  0.7542 -0.0724
 4511SOL     OW25165   1.211   1.314  16.547 -0.1318 -0.5058  0.2344
 4511SOL    HW125166   1.300   1.306  16.580  0.2318  0.0887 -0.6194
 4511SOL    HW225167   1.167   1.285  16.627  1.4942  0.8469  1.6045
 4512SOL     OW25168   4.080   1.690  12.522 -0.9103 -0.0701 -0.2474
 4512SOL    HW125169   4.133   1.768  12.506 -2.9392  1.0181 -1.5929
 4512SOL    HW225170   4.090   1.643  12.440 -1.0369  0.1373 -0.3824
 4513SOL     OW25171   2.598   1.769   8.469  0.1465  0.3732  0.0100
 4513SOL    HW125172   2.572   1.770   8.562  1.2576  1.9344  0.2964
 4513SOL    HW225173   2.690   1.744   8.476  0.5606  1.5501 -1.3202
 4514SOL     OW25174   1.373   2.308   4.535 -0.2505 -0.0740  0.3965
 4514SOL    HW125175   1.429   2.365   4.481 -0.4701  0.4585  0.7399
 4514SOL    HW225176   1.369   2.235   4.472 -0.7707  0.8251 -0.6210
 4515SOL     OW25177   3.626   1.970  10.631 -0.2302  0.1312  0.2201
 4515SOL    HW125178   3.655   2.060  10.650  0.9256  0.6144 -3.7626
 4515SOL    HW225179   3.602   1.986  10.539 -2.5385 -0.7992  0.6582
 4516SOL     OW25180   1.608   3.896   4.634  0.1925  0.0180  0.0853
 4516SOL    HW125181   1.608   3.812   4.588  1.6123  0.1533 -0.1583
 4516SOL    HW225182   1.680   3.885   4.696  0.5184  0.0594 -0.2859
 4517SOL     OW25183   0.945   4.248  13.777  0.1719 -0.0648  0.0240
 4517SOL    HW125184   0.856   4.213  13.778  0.0279  0.2552 -1.2184
 4517SOL    HW225185   0.957   4.251  13.682 -1.5473  0.5942 -0.1821
 4518SOL     OW25186   3.992   0.597   3.851 -0.2921  0.1361  0.1791
 4518SOL    HW125187   4.000   0.612   3.946  0.8802 -0.6759  0.2180
 4518SOL    HW225188   4.015   0.677   3.804  2.7870  1.1423  3.2962
 4519SOL     OW25189   4.297   0.010   8.886 -0.4540 -0.3165  0.3511
 4519SOL    HW125190   4.317   4.681   8.818  1.2401  2.7606 -2.0743
 4519SOL    HW225191   4.251   4.682   8.941 -1.2119 -0.4411 -0.4347
 4520SOL     OW25192   1.236   1.528   2.910  0.0718  0.1339  0.4817
 4520SOL    HW125193   1.260   1.621   2.911 -0.9570  0.4384 -2.7590
 4520SOL    HW225194   1.179   1.521   2.986 -0.1770  1.4542  0.4092
 4521SOL     OW25195   1.690   1.892   3.343  0.5327  0.2548 -0.0110
 4521SOL    HW125196   1.674   1.878   3.250 -1.1722 -0.8484  0.4485
 4521SOL    HW225197   1.600   1.894   3.376 -0.2212 -1.8958 -1.9114
 4522SOL     OW25198   2.227   3.149   6.763 -0.2188 -0.1332 -0.5153
 4522SOL    HW125199   2.239   3.055   6.775 -0.1302  0.0006  0.4856
 4522SOL    HW225200   2.239   3.161   6.669 -0.0103  1.0765 -0.3348
 4523SOL     OW25201   0.983   0.148   2.757 -0.3761  0.0607 -0.0198
 4523SOL    HW125202   0.938   0.175   2.838 -0.7137 -0.0216 -0.1813
 4523SOL    HW225203   0.917   0.098   2.709 -0.5871  2.3958 -2.1782
 4524SOL     OW25204   4.675   4.666   5.819 -0.2907  0.1709  0.2617
 4524SOL    HW125205   4.729   4.623   5.885  2.6667  3.4650 -0.0670
 4524SOL    HW225206   4.642   4.585   5.779 -2.1451  1.2290 -0.3779
 4525SOL     OW25207   0.126   2.884  10.478 -0.2649 -0.0922 -0.6972
 4525SOL    HW125208   0.161   2.866  10.390  2.2250 -0.3576  0.3533
 4525SOL    HW225209   0.142   2.798  10.516 -3.8074 -0.4058  0.0996
 4526SOL     OW25210   2.474   0.274  16.322  0.5083  0.7690  0.0990
 4526SOL    HW125211   2.449   0.207  16.385  1.2517 -0.6216 -1.0996
 4526SOL    HW225212   2.388   0.312  16.305  0.4280  0.6751  0.2935
 4527SOL     OW25213   3.311   0.531   2.741  0.2924 -0.1669 -0.1028
 4527SOL    HW125214   3.294   0.606   2.797 -4.2621 -1.1981 -0.1507
 4527SOL    HW225215   3.392   0.553   2.694  0.0869  0.4372 -0.1767
 4528SOL     OW25216   2.968   2.467  10.142  0.3694  0.5560 -0.1695
 4528SOL    HW125217   3.018   2.416  10.205 -0.4265 -0.3091 -0.2411
 4528SOL    HW225218   2.994   2.556  10.166 -0.0333  0.4328  0.7128
 4529SOL     OW25219   3.056   1.350   5.659 -0.2693  0.0041  0.0606
 4529SOL    HW125220   3.135   1.350   5.713 -0.8870  0.8628  0.9658
 4529SOL    HW225221   3.012   1.274   5.697 -0.0777  0.8856  2.0030
 4530SOL     OW25222   1.013   1.588  14.765  0.4280 -0.1644  0.7852
 4530SOL    HW125223   1.051   1.677  14.766  0.4823 -0.1335 -2.6633
 4530SOL    HW225224   0.933   1.603  14.714  1.5508 -0.3434 -1.0435
 4531SOL     OW25225   2.809   4.156   7.982 -0.0569 -0.0092 -0.3053
 4531SOL    HW125226   2.852   4.083   7.937  0.1276  0.2821 -0.6010
 4531SOL    HW225227   2.773   4.204   7.908 -0.5781 -0.3350 -0.2607
 4532SOL     OW25228   2.652   1.970   7.814  0.2485  0.3017 -0.7931
 4532SOL    HW125229   2.641   2.035   7.745  0.7439 -0.0517 -1.1992
 4532SOL    HW225230   2.679   2.017   7.893  2.0109 -0.4851 -0.9414
 4533SOL     OW25231   0.852   2.428   3.806  0.1860 -0.2805  0.1008
 4533SOL    HW125232   0.777   2.438   3.747 -0.0471  1.0977  0.6295
 4533SOL    HW225233   0.802   2.412   3.886 -0.1743  0.7376  0.0850
 4534SOL     OW25234   4.678   3.645   8.010  0.0487 -0.1153 -0.2552
 4534SOL    HW125235   4.631   3.686   8.082 -2.7175  0.8341 -2.5886
 4534SOL    HW225236   0.033   3.672   8.028  0.5793  0.1925 -3.2422
 4535SOL     OW25237   3.416   1.188   6.744  0.1854 -0.0697 -0.1000
 4535SOL    HW125238   3.412   1.092   6.739  0.2305 -0.2012  2.3293
 4535SOL    HW225239   3.475   1.206   6.817 -0.7967 -0.5580  0.8185
 4536SOL     OW25240   2.177   4.517   2.979  0.8118 -0.2776  0.0869
 4536SOL    HW125241   2.175   4.467   2.897  0.4907 -0.2682  0.0888
 4536SOL    HW225242   2.088   4.553   2.979  2.3321  3.4373 -0.7392
 4537SOL     OW25243   2.606   2.298   2.839 -0.5099  0.9609 -0.3328
 4537SOL    HW125244   2.662   2.372   2.862  1.7769  0.0776 -2.9496
 4537SOL    HW225245   2.613   2.301   2.743 -0.6411 -1.4035 -0.4248
 4538SOL     OW25246   4.731   0.191  11.084 -0.4056  0.0074 -0.2203
 4538SOL    HW125247   4.723   0.096  11.074 -0.9370 -0.3558  3.5576
 4538SOL    HW225248   0.040   0.200  11.169 -0.5903  2.5862 -0.4109
 4539SOL     OW25249   1.391   2.666   3.318 -0.4128 -0.5490 -0.1720
 4539SOL    HW125250   1.474   2.704   3.291 -1.4208  0.3694 -1.9362
 4539SOL    HW225251   1.363   2.638   3.231  0.3522  1.3357 -1.0328
 4540SOL     OW25252   3.140   1.883   8.887  0.9463 -0.5464  0.0288
 4540SOL    HW125253   3.203   1.952   8.864 -1.6637  1.9165  0.2282
 4540SOL    HW225254   3.145   1.833   8.806 -2.0130  0.2348 -0.6412
 4541SOL     OW25255   0.750   3.938   2.312 -0.3218  0.5361  0.4419
 4541SOL    HW125256   0.706   3.998   2.251  0.5639  3.0000  2.1890
 4541SOL    HW225257   0.679   3.881   2.339  0.4798 -1.4749 -1.7219
 4542SOL     OW25258   4.583   4.125   0.842  0.1477 -0.3861  0.7722
 4542SOL    HW125259   4.676   4.118   0.865  1.2046 -0.3793 -3.4612
 4542SOL    HW225260   4.581   4.179   0.763  0.9652 -1.8197 -0.2317
 4543SOL     OW25261   1.222   2.879  16.728  0.9310  0.2994  0.1253
 4543SOL    HW125262   1.238   2.865  16.822  0.4003  0.1190  0.1934
 4543SOL    HW225263   1.211   2.974  16.722  2.8958  0.4087 -1.5099
 4544SOL     OW25264   1.195   1.596  16.481 -0.2924 -0.5817  0.1647
 4544SOL    HW125265   1.274   1.627  16.525  0.4621 -0.8573 -0.9737
 4544SOL    HW225266   1.184   1.512  16.525  2.1534 -0.4198  1.0952
 4545SOL     OW25267   0.740   2.885   7.437 -0.2227 -0.1521 -0.0513
 4545SOL    HW125268   0.692   2.804   7.458 -2.0971  1.7357  2.9566
 4545SOL    HW225269   0.820   2.839   7.411 -0.7276 -0.6878 -0.6459
 4546SOL     OW25270   4.186   1.355   5.420 -0.0804  0.3357 -0.1451
 4546SOL    HW125271   4.269   1.343   5.466 -0.2184 -0.3568 -0.0791
 4546SOL    HW225272   4.206   1.441   5.384 -0.9230  1.4053  1.9219
 4547SOL     OW25273   0.320   3.220   2.196 -0.4253 -0.4463  0.2686
 4547SOL    HW125274   0.395   3.265   2.234  0.7079 -1.9465 -0.1930
 4547SOL    HW225275   0.257   3.234   2.266 -0.1942 -0.4592  0.4776
 4548SOL     OW25276   1.560   0.146   6.838 -0.0693 -0.4805 -0.2733
 4548SOL    HW125277   1.560   0.055   6.806 -2.9117 -0.2810 -0.8467
 4548SOL    HW225278   1.650   0.142   6.871 -0.2444  0.8395  0.3601
 4549SOL     OW25279   2.889   3.368  17.024 -0.6343 -0.2078 -0.4279
 4549SOL    HW125280   2.805   3.396  17.060 -0.4994  0.3863 -0.5907
 4549SOL    HW225281   2.907   3.421  16.946 -0.3361  0.3226  0.0061
 4550SOL     OW25282   2.059   1.175   8.750  0.0739 -0.4147  1.5974
 4550SOL    HW125283   2.004   1.098   8.734 -0.0098  0.2201 -1.3402
 4550SOL    HW225284   1.996   1.247   8.755  1.3327  0.7782  0.3410
 4551SOL     OW25285   2.118   2.408   8.341 -0.1083 -0.4834 -0.2755
 4551SOL    HW125286   2.132   2.476   8.407  2.0557 -2.4854  1.3439
 4551SOL    HW225287   2.163   2.451   8.269  0.8528 -1.2362 -0.1195
 4552SOL     OW25288   3.636   0.793   2.670 -0.4032  0.5083  0.5179
 4552SOL    HW125289   3.612   0.701   2.681  1.5930 -0.1170 -0.4359
 4552SOL    HW225290   3.551   0.833   2.689 -0.6181 -0.3198  1.2507
 4553SOL     OW25291   4.046   2.861   1.211  0.2110  0.9410  0.0964
 4553SOL    HW125292   4.015   2.771   1.225  2.1579  0.0093 -1.6251
 4553SOL    HW225293   4.061   2.853   1.117 -1.6317 -0.9043 -0.0378
 4554SOL     OW25294   1.870   2.710   7.992  0.4726 -0.3449 -0.3742
 4554SOL    HW125295   1.818   2.664   7.925 -0.8583 -1.8147  1.6535
 4554SOL    HW225296   1.822   2.687   8.072 -0.0283 -1.7169 -1.0696
 4555SOL     OW25297   2.094   4.292   4.486 -0.5845 -0.2653  0.0398
 4555SOL    HW125298   2.051   4.361   4.436  1.6040  0.3224 -1.0189
 4555SOL    HW225299   2.184   4.326   4.482 -0.8135  0.4017  0.6031
 4556SOL     OW25300   4.609   1.029   4.453  0.4802 -0.1410 -0.0939
 4556SOL    HW125301   4.632   1.119   4.476  0.8405 -0.7414  1.8542
 4556SOL    HW225302   4.546   1.025   4.525  2.2144  1.7827  1.5602
 4557SOL     OW25303   3.013   3.275  16.294 -0.1074 -0.5428 -0.1496
 4557SOL    HW125304   2.987   3.254  16.204 -3.1386 -3.4999  1.4235
 4557SOL    HW225305   3.102   3.306  16.275 -0.5466  0.5240 -0.4018
 4558SOL     OW25306   0.093   3.892   8.510  0.0785  0.1505  0.4781
 4558SOL    HW125307   0.149   3.948   8.565  1.0386 -0.7616  0.4513
 4558SOL    HW225308   0.132   3.906   8.424  1.3198  1.2198  1.2039
 4559SOL     OW25309   2.010   3.953   7.630 -0.0854  0.1938  0.9394
 4559SOL    HW125310   2.056   3.987   7.553 -1.0872  0.3598  0.4117
 4559SOL    HW225311   1.993   3.860   7.615  1.2148  0.0852  0.1358
 4560SOL     OW25312   1.934   2.516  11.381 -0.1270 -0.3640 -0.4077
 4560SOL    HW125313   1.872   2.588  11.379  0.6615  0.2201 -3.3226
 4560SOL    HW225314   1.883   2.450  11.334  0.7962 -1.1086 -0.3596
 4561SOL     OW25315   2.460   1.775  13.516  0.0248 -0.1134  0.9842
 4561SOL    HW125316   2.420   1.731  13.441  0.1224 -0.9132  1.4023
 4561SOL    HW225317   2.465   1.703  13.578 -0.0117 -0.8711  0.1091
 4562SOL     OW25318   4.645   2.058  16.716  0.2643  0.3553  0.4352
 4562SOL    HW125319   4.608   2.135  16.673 -0.0662  0.1435  0.3492
 4562SOL    HW225320   0.002   2.082  16.703  0.9443 -1.9869  1.0442
 4563SOL     OW25321   1.566   4.072   2.349  0.0535 -0.2528  0.3962
 4563SOL    HW125322   1.542   4.012   2.278 -0.4504  2.0354 -1.3601
 4563SOL    HW225323   1.490   4.130   2.351 -0.0522 -0.4295  1.7086
 4564SOL     OW25324   2.984   0.015  15.336 -0.0424  0.3914  1.3349
 4564SOL    HW125325   3.025   0.008  15.422  0.8739 -2.3484  0.6693
 4564SOL    HW225326   3.030   4.679  15.291 -1.8025 -1.0541  1.7928
 4565SOL     OW25327   4.660   0.842   2.637  0.3110 -0.4324  0.1394
 4565SOL    HW125328   4.626   0.837   2.726  0.7046 -2.3941  0.1800
 4565SOL    HW225329   0.002   0.785   2.640  1.1281  0.5591 -1.8640
 4566SOL     OW25330   0.607   2.432   2.115  0.2344 -0.4890  0.0563
 4566SOL    HW125331   0.593   2.363   2.050 -2.1950 -2.3104  2.4515
 4566SOL    HW225332   0.702   2.444   2.112  0.0663  0.8755  0.1122
 4567SOL     OW25333   2.288   0.243   7.563 -0.0120  0.1351 -0.0145
 4567SOL    HW125334   2.379   0.271   7.577  0.0677 -0.0113 -0.2333
 4567SOL    HW225335   2.299   0.152   7.590  0.3216  0.6236  1.4852
 4568SOL     OW25336   3.084   0.731   4.058 -0.3304  0.0838 -0.0716
 4568SOL    HW125337   3.031   0.669   4.108  0.8898  0.0499  1.1840
 4568SOL    HW225338   3.169   0.728   4.103 -0.0048 -3.0172 -0.8989
 4569SOL     OW25339   3.339   2.007   1.804 -0.1992 -0.2794 -0.2938
 4569SOL    HW125340   3.362   2.070   1.735 -0.1085 -2.7399 -2.5273
 4569SOL    HW225341   3.277   2.058   1.856  0.7204  2.3681 -1.7975
 4570SOL     OW25342   3.472   2.323   1.946  0.6769 -0.2136 -0.0147
 4570SOL    HW125343   3.428   2.337   1.862 -1.7210  1.9880  1.5991
 4570SOL    HW225344   3.443   2.234   1.963  0.8273 -0.4849 -1.1201
 4571SOL     OW25345   1.794   3.811   2.691  0.1377 -0.4218  0.7352
 4571SOL    HW125346   1.719   3.855   2.650 -0.1561  0.6476  2.4253
 4571SOL    HW225347   1.752   3.729   2.716 -0.3945 -0.1529  0.7291
 4572SOL     OW25348   2.415   3.496   8.684  0.8276  0.7743 -0.2965
 4572SOL    HW125349   2.511   3.485   8.687  1.0326  2.4813 -0.5189
 4572SOL    HW225350   2.410   3.563   8.616  0.6482  0.5578 -0.4982
 4573SOL     OW25351   2.884   4.368   6.006 -0.1250 -0.0296 -0.1272
 4573SOL    HW125352   2.970   4.386   5.969  0.4235  1.1038  1.6812
 4573SOL    HW225353   2.905   4.315   6.083 -0.7689 -0.3941 -0.2004
 4574SOL     OW25354   0.944   0.359   7.189  0.3055  0.2492 -0.3275
 4574SOL    HW125355   0.927   0.399   7.104 -0.6735 -1.0571 -0.7608
 4574SOL    HW225356   1.032   0.324   7.175  1.2424  2.7248 -0.5569
 4575SOL     OW25357   4.031   0.436   5.506 -0.1215 -0.2680 -0.5336
 4575SOL    HW125358   4.067   0.501   5.567  0.6626 -0.6561 -0.5912
 4575SOL    HW225359   3.984   0.374   5.562  0.7515 -2.1663 -1.8892
 4576SOL     OW25360   1.640   1.137  12.057  0.5917  0.2805  0.0097
 4576SOL    HW125361   1.735   1.136  12.072  0.7365  0.1234 -0.9526
 4576SOL    HW225362   1.648   1.096  11.971 -1.4456  0.1160 -0.1029
 4577SOL     OW25363   4.338   1.284   4.409  0.4873  0.2033  0.0083
 4577SOL    HW125364   4.293   1.206   4.375 -0.4702  0.7383  0.0411
 4577SOL    HW225365   4.340   1.275   4.504  1.5373  0.2645 -0.0069
 4578SOL     OW25366   3.496   3.052   7.085  0.0718  0.1202  0.3654
 4578SOL    HW125367   3.500   3.062   7.180  2.7267 -0.3914  0.3180
 4578SOL    HW225368   3.589   3.058   7.062 -0.1156  0.5294 -0.2934
 4579SOL     OW25369   2.319   0.245   8.824  0.5247 -0.4638  0.3741
 4579SOL    HW125370   2.318   0.316   8.760 -1.5590 -2.0046 -1.2912
 4579SOL    HW225371   2.354   0.169   8.778  1.3227  0.5176 -0.6331
 4580SOL     OW25372   2.031   2.784   2.512  0.0439  0.1615 -0.3930
 4580SOL    HW125373   1.943   2.820   2.501  0.1536  0.7302  0.5682
 4580SOL    HW225374   2.049   2.812   2.422  2.2236 -1.0954 -0.3390
 4581SOL     OW25375   3.866   4.642   5.667  0.1054 -0.1447  0.0313
 4581SOL    HW125376   3.865   4.727   5.624  1.4624  0.8133  1.8716
 4581SOL    HW225377   3.796   4.597   5.620 -0.6731  1.1629 -0.0799
 4582SOL     OW25378   3.990   0.158  10.160  1.0279  0.4990  0.5858
 4582SOL    HW125379   4.033   0.216  10.097  0.4093 -0.8271 -1.0480
 4582SOL    HW225380   4.025   0.074  10.130  3.1051  0.4479  3.2123
 4583SOL     OW25381   0.356   1.021   7.274 -0.3398  0.2091 -0.0752
 4583SOL    HW125382   0.418   1.040   7.204  1.1093  0.1908  1.1851
 4583SOL    HW225383   0.365   1.095   7.335  0.0014 -0.5107  0.7464
 4584SOL     OW25384   3.125   3.163  15.660  0.6449 -0.1188 -1.0516
 4584SOL    HW125385   3.040   3.121  15.663  0.8172 -0.4048 -0.2559
 4584SOL    HW225386   3.096   3.254  15.664 -0.8496 -0.5921 -1.1996
 4585SOL     OW25387   3.497   3.595   6.045 -0.3640 -0.7432 -0.1944
 4585SOL    HW125388   3.535   3.522   6.094  1.4767  0.4531  0.1547
 4585SOL    HW225389   3.561   3.662   6.069 -1.2884  0.2411 -0.4260
 4586SOL     OW25390   3.717   4.218   6.970 -0.2054  0.1850 -0.2728
 4586SOL    HW125391   3.750   4.203   6.882 -2.3175  0.8865 -1.1825
 4586SOL    HW225392   3.632   4.174   6.972  0.5205 -1.2834 -1.8880
 4587SOL     OW25393   0.785   3.549   8.028  0.2474 -0.4852 -0.4259
 4587SOL    HW125394   0.794   3.475   7.968  0.7116 -2.2791  1.8305
 4587SOL    HW225395   0.877   3.567   8.045  0.3813 -2.7457  1.1956
 4588SOL     OW25396   2.002   1.142   7.044  0.1312 -0.3013  0.4971
 4588SOL    HW125397   2.022   1.096   6.962 -0.2968  0.1889  0.1219
 4588SOL    HW225398   1.957   1.074   7.095  0.8530  1.0972  2.9741
 4589SOL     OW25399   0.340   2.606  10.863  0.7737 -0.0507  0.7874
 4589SOL    HW125400   0.394   2.647  10.794 -1.7078  1.8500 -0.0390
 4589SOL    HW225401   0.416   2.564  10.904 -0.6024 -2.4342  0.8469
 4590SOL     OW25402   3.103   3.115   5.997  0.1255  0.3059  0.0572
 4590SOL    HW125403   3.065   3.198   6.025  0.2098  0.0483  0.9323
 4590SOL    HW225404   3.049   3.091   5.923  0.2967 -2.2270  0.7642
 4591SOL     OW25405   2.707   4.603   3.047 -0.2827  0.0811 -0.0730
 4591SOL    HW125406   2.724   4.514   3.016  1.4561  0.2922  0.2659
 4591SOL    HW225407   2.704   4.642   2.960 -1.1838  1.3926  0.5462
 4592SOL     OW25408   1.921   2.021   2.465  0.2497 -0.2434  0.3561
 4592SOL    HW125409   1.871   2.094   2.501  0.6924  1.2222 -2.0299
 4592SOL    HW225410   1.852   1.976   2.417  1.0183 -0.4525 -0.5494
 4593SOL     OW25411   2.810   1.032  16.889 -0.2207  0.3883  0.3143
 4593SOL    HW125412   2.846   1.119  16.909 -0.4844 -0.0060  2.4789
 4593SOL    HW225413   2.827   1.039  16.795 -2.5676  1.3835 -0.0447
 4594SOL     OW25414   1.250   2.478  16.973  0.7079  0.8496  0.2444
 4594SOL    HW125415   1.217   2.438  16.893  1.4954  1.2865 -0.2949
 4594SOL    HW225416   1.217   2.414  17.036  0.1643  2.0615  1.1906
 4595SOL     OW25417   3.173   3.859   1.833 -0.0132 -0.1065 -0.0253
 4595SOL    HW125418   3.083   3.848   1.861  0.5202 -2.5522  0.7586
 4595SOL    HW225419   3.213   3.888   1.915  1.7174 -0.7687 -0.6283
 4596SOL     OW25420   1.369   1.657   0.436 -0.4271 -0.3163 -0.0504
 4596SOL    HW125421   1.430   1.729   0.420 -0.0559 -1.0805 -2.1433
 4596SOL    HW225422   1.344   1.635   0.346  1.8932  1.2499 -1.0722
 4597SOL     OW25423   4.151   2.676   3.159  0.1933 -0.2266  0.3731
 4597SOL    HW125424   4.152   2.581   3.147  0.5431 -0.1731 -0.0227
 4597SOL    HW225425   4.244   2.695   3.168  0.2756  0.9093 -2.7448
 4598SOL     OW25426   3.721   0.512  10.971 -0.2287 -0.3165 -0.7302
 4598SOL    HW125427   3.712   0.428  11.015  0.2355 -0.4132 -0.8235
 4598SOL    HW225428   3.792   0.547  11.024 -0.0546 -1.4275 -0.2382
 4599SOL     OW25429   3.820   0.471  16.502 -0.2774 -0.1190 -0.6890
 4599SOL    HW125430   3.882   0.447  16.433  1.1120 -2.9341  1.5168
 4599SOL    HW225431   3.764   0.516  16.439  1.3816 -1.1646 -2.9180
 4600SOL     OW25432   1.755   0.243   3.685 -0.3689 -0.2448 -0.1451
 4600SOL    HW125433   1.834   0.298   3.686 -1.1289  0.8342  2.9214
 4600SOL    HW225434   1.798   0.160   3.668 -0.6691 -0.4037 -0.1230
 4601SOL     OW25435   1.649   2.254   0.602 -0.2178  0.0196  0.0929
 4601SOL    HW125436   1.714   2.192   0.634  1.5482  0.7854 -2.0152
 4601SOL    HW225437   1.662   2.249   0.508  0.3950  1.5298  0.0981
 4602SOL     OW25438   2.009   3.928   2.846 -0.2525 -0.4001  0.7196
 4602SOL    HW125439   1.981   3.932   2.937 -0.4716 -0.7233  0.6685
 4602SOL    HW225440   1.944   3.874   2.801 -0.5593  0.4512  0.1363
 4603SOL     OW25441   2.241   0.586   5.194  0.0225  0.1624 -0.2681
 4603SOL    HW125442   2.258   0.645   5.267 -1.6628  0.8744 -0.4445
 4603SOL    HW225443   2.240   0.494   5.222  0.1942  0.4087  0.5376
 4604SOL     OW25444   1.405   4.243   5.810 -0.3347  0.9876 -0.7919
 4604SOL    HW125445   1.368   4.297   5.740  1.1362  0.0199 -2.3175
 4604SOL    HW225446   1.349   4.280   5.878  1.0365  2.0021 -0.2013
 4605SOL     OW25447   0.056   2.995   1.543  0.5019  0.0506 -0.9959
 4605SOL    HW125448   4.711   3.048   1.556 -0.6735 -1.2264 -2.9011
 4605SOL    HW225449   0.100   3.001   1.627  0.2346 -1.3246 -0.7656
 4606SOL     OW25450   3.383   2.910  15.602 -0.0040  0.0385 -0.8972
 4606SOL    HW125451   3.372   2.818  15.626 -2.5216 -0.0254 -2.3514
 4606SOL    HW225452   3.472   2.912  15.564  0.2989 -0.7524 -0.2263
 4607SOL     OW25453   4.252   0.303  16.099  0.0478  0.3952 -0.1879
 4607SOL    HW125454   4.188   0.312  16.029  0.4139 -2.2607 -0.8877
 4607SOL    HW225455   4.330   0.278  16.050 -1.2766 -1.9545 -1.0977
 4608SOL     OW25456   1.356   4.196  11.566 -0.4876 -0.1376  0.0811
 4608SOL    HW125457   1.450   4.180  11.570 -0.3097  0.5693 -1.1045
 4608SOL    HW225458   1.324   4.131  11.628 -1.0518  1.6589  1.6749
 4609SOL     OW25459   0.300   1.342  12.793  0.3831 -0.2528 -0.5885
 4609SOL    HW125460   0.217   1.305  12.763 -0.4840  1.4274 -0.2676
 4609SOL    HW225461   0.370   1.289  12.757  0.8713 -1.8433  2.7321
 4610SOL     OW25462   4.173   1.751   2.765  0.5768  0.0199  1.1444
 4610SOL    HW125463   4.112   1.716   2.830 -0.0733 -1.5329 -0.2787
 4610SOL    HW225464   4.192   1.836   2.802  0.5657  0.1049  0.9558
 4611SOL     OW25465   1.139   3.783   5.881 -0.2499  0.5190  0.4535
 4611SOL    HW125466   1.107   3.865   5.919  0.5899  1.3936 -0.7181
 4611SOL    HW225467   1.191   3.745   5.952  1.7701  0.5120 -1.0142
 4612SOL     OW25468   0.409   4.117   0.813  0.2024 -0.0826 -0.0055
 4612SOL    HW125469   0.400   4.185   0.746  0.0213  0.2570  0.3570
 4612SOL    HW225470   0.486   4.070   0.781  1.9152 -0.3658  4.5198
 4613SOL     OW25471   2.980   0.547   3.765 -0.6130  0.2106  0.1870
 4613SOL    HW125472   2.914   0.601   3.809  0.0200  0.2219  1.1343
 4613SOL    HW225473   3.064   0.589   3.784 -0.8228  0.4041  0.6954
 4614SOL     OW25474   0.669   4.708  13.270  0.6267 -0.4776  0.4762
 4614SOL    HW125475   0.663   4.698  13.175  1.7079 -1.1171  0.4774
 4614SOL    HW225476   0.621   4.631  13.299 -2.5733  1.7467  1.0885
 4615SOL     OW25477   2.631   0.145   4.860  0.0832  0.5174  0.5264
 4615SOL    HW125478   2.641   0.108   4.772  0.4024 -2.0980  1.6576
 4615SOL    HW225479   2.675   0.230   4.848  0.8444 -0.2586 -2.2052
 4616SOL     OW25480   2.409   3.279   7.759 -0.6280  0.3000  0.3650
 4616SOL    HW125481   2.482   3.223   7.788 -0.7174 -1.1690 -2.2303
 4616SOL    HW225482   2.450   3.331   7.690  0.2780  2.3845  2.4452
 4617SOL     OW25483   4.147   3.150   1.297 -0.2498 -0.0114 -0.5808
 4617SOL    HW125484   4.154   3.110   1.211  1.1096  0.1932 -0.5632
 4617SOL    HW225485   4.196   3.088   1.352 -0.8869  0.6778  0.7425
 4618SOL     OW25486   4.696   3.143  14.403  0.0037 -0.1289  0.1552
 4618SOL    HW125487   0.023   3.070  14.406  1.3580  1.0181  0.4286
 4618SOL    HW225488   4.730   3.213  14.460 -1.6551  1.9996 -1.4910
 4619SOL     OW25489   0.649   1.927   8.285  0.4061  0.5602 -0.4045
 4619SOL    HW125490   0.572   1.892   8.239  1.2190 -0.4745 -0.9780
 4619SOL    HW225491   0.700   1.847   8.272  0.8201  0.9488 -1.1314
 4620SOL     OW25492   2.666   3.874  16.960  0.4134  0.1313 -0.3494
 4620SOL    HW125493   2.752   3.911  16.980 -0.7025  1.6129  1.6713
 4620SOL    HW225494   2.618   3.910  17.034  1.3709 -1.8496  1.2315
 4621SOL     OW25495   2.026   2.348  11.692  0.0297  1.4642 -0.1457
 4621SOL    HW125496   2.037   2.415  11.759  1.4594 -0.0351  1.1585
 4621SOL    HW225497   2.076   2.282  11.742  0.0811  2.4766  1.1468
 4622SOL     OW25498   2.360   4.493  11.542  1.0144  0.3625 -0.7079
 4622SOL    HW125499   2.439   4.440  11.549  1.5484  1.3874  0.9279
 4622SOL    HW225500   2.329   4.496  11.632  2.0703 -2.0598 -0.2567
 4623SOL     OW25501   1.196   1.127  15.692 -0.0301 -0.5198 -0.2441
 4623SOL    HW125502   1.291   1.124  15.677  0.2803  1.6579  1.2974
 4623SOL    HW225503   1.186   1.187  15.765  1.7098  0.6330 -0.9484
 4624SOL     OW25504   3.994   0.892   5.387 -0.0512  0.4241 -0.1360
 4624SOL    HW125505   4.041   0.883   5.304 -2.4170 -1.7445 -1.2356
 4624SOL    HW225506   4.050   0.955   5.433  0.8198 -0.9646  0.7320
 4625SOL     OW25507   4.183   4.705   6.855 -0.2945  0.2329 -0.3798
 4625SOL    HW125508   4.225   0.051   6.822  0.4469 -0.2706 -0.6733
 4625SOL    HW225509   4.257   4.646   6.841  0.2675  0.9103 -0.3020
 4626SOL     OW25510   2.599   3.468   8.996 -0.3487 -0.2198 -0.0414
 4626SOL    HW125511   2.585   3.507   9.083  1.4673  1.3484 -0.4510
 4626SOL    HW225512   2.604   3.376   9.022  2.1837 -0.5509 -1.7198
 4627SOL     OW25513   1.897   2.482  10.108 -0.3698  0.5887  0.6595
 4627SOL    HW125514   1.850   2.399  10.100  0.6869  0.0161  0.3269
 4627SOL    HW225515   1.861   2.524  10.030  0.4911  0.3203  0.1154
 4628SOL     OW25516   3.657   0.968   4.354 -0.0749 -0.4388  0.2825
 4628SOL    HW125517   3.719   0.937   4.288  1.4822 -0.5251  1.7622
 4628SOL    HW225518   3.588   1.006   4.300  0.2343 -0.9706 -0.4893
 4629SOL     OW25519   0.233   3.218   4.557 -0.4590  0.0265 -0.4685
 4629SOL    HW125520   0.161   3.215   4.494 -0.4951  0.3441 -0.4394
 4629SOL    HW225521   0.293   3.155   4.515 -0.9822 -0.4777 -0.4648
 4630SOL     OW25522   1.673   4.666   7.259  0.3747 -0.1427  0.2946
 4630SOL    HW125523   1.732   4.731   7.220  1.0562 -2.2385 -2.1435
 4630SOL    HW225524   1.643   4.711   7.339 -0.1642  0.6399 -0.3452
 4631SOL     OW25525   1.626   2.307   1.911 -0.2791 -0.4661 -0.3283
 4631SOL    HW125526   1.598   2.374   1.974 -0.7374 -0.1090 -0.9137
 4631SOL    HW225527   1.547   2.302   1.857 -1.2355  0.2249  0.9937
 4632SOL     OW25528   0.437   2.613   6.220  0.2592 -0.5572  0.1411
 4632SOL    HW125529   0.360   2.615   6.277 -0.8926 -1.4567 -1.3892
 4632SOL    HW225530   0.509   2.603   6.283  0.7518  0.5713 -0.2501
 4633SOL     OW25531   2.052   4.428  12.920  0.0982  0.1962  0.1052
 4633SOL    HW125532   2.142   4.427  12.886 -0.3304  0.9251 -1.0682
 4633SOL    HW225533   2.019   4.493  12.857 -1.5292 -0.9184 -0.1683
 4634SOL     OW25534   0.887   2.045  13.971 -0.5028 -0.2497  0.1831
 4634SOL    HW125535   0.828   1.988  14.020  0.0035 -0.2526  0.7755
 4634SOL    HW225536   0.968   2.000  13.994 -0.1378  0.6903  0.6936
 4635SOL     OW25537   1.921   0.657   9.784  0.9544  0.0918  0.4197
 4635SOL    HW125538   1.872   0.580   9.812  0.0778  0.6135  0.2910
 4635SOL    HW225539   1.969   0.610   9.715 -1.1864 -0.2975 -0.8089
 4636SOL     OW25540   3.526   1.082   5.287 -0.0594 -0.3176 -0.3715
 4636SOL    HW125541   3.569   1.112   5.206 -1.6619 -0.7987 -1.3978
 4636SOL    HW225542   3.513   0.989   5.271  0.0482 -0.4876  0.5272
 4637SOL     OW25543   0.420   4.367   5.967 -0.2798 -0.5559 -0.1102
 4637SOL    HW125544   0.336   4.409   5.985 -0.8291 -1.3033 -0.9184
 4637SOL    HW225545   0.402   4.273   5.963 -1.6129 -0.3496  1.0015
 4638SOL     OW25546   0.260   0.559  13.948 -0.3015 -0.2874 -0.0628
 4638SOL    HW125547   0.208   0.488  13.986  0.0609 -0.4392  0.1482
 4638SOL    HW225548   0.340   0.544  13.997  0.4149  3.2233 -0.1141
 4639SOL     OW25549   2.719   1.274   5.852  0.4413 -0.1098  0.5435
 4639SOL    HW125550   2.702   1.368   5.856 -1.0326 -0.3381 -0.2791
 4639SOL    HW225551   2.680   1.247   5.935 -0.1686 -1.5803 -0.2140
 4640SOL     OW25552   0.033   1.925   7.857  0.0179  0.1912  0.0132
 4640SOL    HW125553   0.104   1.944   7.919 -1.2335  0.0238  1.5056
 4640SOL    HW225554   4.705   1.872   7.905  0.8840  1.6786  2.7891
 4641SOL     OW25555   2.090   3.543   4.053  0.3585 -0.0525  0.0012
 4641SOL    HW125556   2.072   3.453   4.027 -0.6176  0.0424  0.3543
 4641SOL    HW225557   2.057   3.544   4.142  3.2850  1.4326  1.0899
 4642SOL     OW25558   4.235   2.113  16.010  0.1854 -0.2778  0.2534
 4642SOL    HW125559   4.296   2.141  15.941 -1.1307  4.1164  0.9270
 4642SOL    HW225560   4.156   2.163  15.991 -1.3892 -3.3115 -1.2626
 4643SOL     OW25561   2.053   2.512   3.403  0.0626 -0.4451  0.3004
 4643SOL    HW125562   1.980   2.451   3.413  0.2861 -0.9405 -1.1232
 4643SOL    HW225563   2.075   2.518   3.496 -1.2041 -1.5112  0.6710
 4644SOL     OW25564   1.669   3.727  17.097  0.0689 -0.1859 -0.0049
 4644SOL    HW125565   1.612   3.662  17.138 -1.1776  0.9141  0.0083
 4644SOL    HW225566   1.749   3.692  17.137 -1.0690 -1.6452  1.0098
 4645SOL     OW25567   3.212   3.229   2.416  0.5762  0.1528  0.1005
 4645SOL    HW125568   3.236   3.141   2.388  1.1454 -0.1767  1.6347
 4645SOL    HW225569   3.221   3.278   2.334  2.0502  2.4557  1.6314
 4646SOL     OW25570   0.757   3.305   1.264  0.6497  0.2904  0.1626
 4646SOL    HW125571   0.735   3.389   1.222 -1.4537 -0.7073 -0.7522
 4646SOL    HW225572   0.763   3.326   1.357 -0.4058 -0.5325  0.4164
 4647SOL     OW25573   2.968   2.288   9.082  0.8498  0.4632 -0.3392
 4647SOL    HW125574   3.048   2.327   9.118  0.0843  1.2010  0.5602
 4647SOL    HW225575   2.991   2.219   9.020 -0.4925  0.1845 -0.5295
 4648SOL     OW25576   0.975   2.836   3.553  0.3406  0.3367  0.6727
 4648SOL    HW125577   0.899   2.818   3.497 -0.3999  0.0814  1.7473
 4648SOL    HW225578   1.036   2.794   3.493  0.1815 -1.1494  1.5504
 4649SOL     OW25579   1.293   3.820   0.127 -0.0681 -0.0316 -0.4465
 4649SOL    HW125580   1.197   3.823   0.129 -0.0774 -1.0538  0.3472
 4649SOL    HW225581   1.297   3.818   0.222  1.6690  1.2781 -0.5002
 4650SOL     OW25582   2.666   3.003   6.537 -0.1496 -0.4293  0.0111
 4650SOL    HW125583   2.673   2.924   6.483 -2.0683 -0.8701  0.4128
 4650SOL    HW225584   2.623   3.060   6.474  1.7105  0.3961 -0.4971
 4651SOL     OW25585   3.375   4.349   3.706  0.3118 -0.4193  0.5707
 4651SOL    HW125586   3.287   4.333   3.673  0.8603 -0.0089 -1.1006
 4651SOL    HW225587   3.433   4.324   3.634 -0.4074 -0.3395 -0.0340
 4652SOL     OW25588   0.392   2.775   1.703 -0.1906 -0.2575  0.1234
 4652SOL    HW125589   0.336   2.699   1.713  0.1846 -0.6652 -0.9027
 4652SOL    HW225590   0.363   2.811   1.787  1.5033  1.4307 -0.0231
 4653SOL     OW25591   2.457   0.111   1.996  0.1234 -0.3040  0.1833
 4653SOL    HW125592   2.543   0.088   1.960 -0.5111 -0.6169 -1.1511
 4653SOL    HW225593   2.439   0.036   2.052  1.3663 -0.3361  0.5538
 4654SOL     OW25594   2.431   3.754   4.999  0.1899 -0.1909 -0.1659
 4654SOL    HW125595   2.488   3.789   4.931 -0.1345 -0.5561 -0.6312
 4654SOL    HW225596   2.456   3.662   4.989  2.2508  0.3540  0.0454
 4655SOL     OW25597   1.215   4.119  16.390 -0.3905  0.7059 -0.2671
 4655SOL    HW125598   1.176   4.151  16.309  0.9607  1.7617 -0.5084
 4655SOL    HW225599   1.222   4.026  16.369  2.4685  1.1845 -1.4454
 4656SOL     OW25600   1.276   3.081  17.586  0.4124  0.4217 -0.0512
 4656SOL    HW125601   1.290   3.171  17.558  2.2152 -0.9923 -3.7732
 4656SOL    HW225602   1.313   3.083  17.675  0.4849 -0.9567 -0.0377
 4657SOL     OW25603   4.288   1.539   2.141 -0.1330 -0.2210  0.7095
 4657SOL    HW125604   4.238   1.458   2.125 -2.0599  1.0329  0.3890
 4657SOL    HW225605   4.251   1.558   2.227 -1.9419 -0.3898 -0.0305
 4658SOL     OW25606   2.677   3.902   4.376  0.5847  0.0581 -0.4958
 4658SOL    HW125607   2.724   3.830   4.417  0.4101 -0.1768 -0.7057
 4658SOL    HW225608   2.609   3.925   4.439 -0.7888 -1.5147 -1.3919
 4659SOL     OW25609   1.455   4.142   1.725 -0.3054 -0.1580 -0.2869
 4659SOL    HW125610   1.514   4.210   1.693 -0.9724  0.1702 -0.8207
 4659SOL    HW225611   1.494   4.065   1.684 -0.3299  0.1554 -0.9014
 4660SOL     OW25612   1.676   3.795   7.558  0.7074  0.2039 -0.1215
 4660SOL    HW125613   1.698   3.724   7.498 -1.9075 -2.2319  1.8343
 4660SOL    HW225614   1.726   3.779   7.638 -1.6046 -0.4910  1.1749
 4661SOL     OW25615   3.002   0.212   9.248  0.3166  0.4126 -0.6103
 4661SOL    HW125616   2.992   0.294   9.200 -0.7585  0.7699  0.2053
 4661SOL    HW225617   2.996   0.244   9.339  3.3708 -2.6301  0.6808
 4662SOL     OW25618   2.396   0.381   2.107 -0.0382  0.2466 -0.0696
 4662SOL    HW125619   2.425   0.292   2.088  1.4414  0.1092  2.7954
 4662SOL    HW225620   2.468   0.427   2.152 -1.5434  0.9298  1.6375
 4663SOL     OW25621   0.108   1.402   0.377  0.3663 -0.0650  0.2077
 4663SOL    HW125622   0.107   1.428   0.284  0.3058 -0.6284  0.0541
 4663SOL    HW225623   0.102   1.489   0.417 -0.6446 -0.4667  0.9325
 4664SOL     OW25624   2.453   1.381   4.065  0.2337  0.6142  0.3449
 4664SOL    HW125625   2.505   1.365   3.987 -1.6694 -3.1762 -0.1696
 4664SOL    HW225626   2.522   1.432   4.107  0.9800 -1.0740  1.1812
 4665SOL     OW25627   2.036   2.268  12.333  0.0094 -0.6033  0.0091
 4665SOL    HW125628   2.051   2.354  12.294 -1.4916 -0.3185  0.0827
 4665SOL    HW225629   2.108   2.262  12.396  0.5869  1.5690 -0.4216
 4666SOL     OW25630   3.918   0.840   2.664 -0.3733  0.3861 -0.1743
 4666SOL    HW125631   3.830   0.817   2.632 -0.4648  0.9475 -0.3187
 4666SOL    HW225632   3.960   0.755   2.650  0.3138  0.2296  2.9340
 4667SOL     OW25633   0.623   4.277  16.457  0.8791 -0.4744  0.3930
 4667SOL    HW125634   0.608   4.229  16.375  0.7673 -3.2646  2.0629
 4667SOL    HW225635   0.715   4.305  16.449  0.0289  2.1624 -0.2888
 4668SOL     OW25636   0.666   0.482   5.227 -0.1751  0.1402  0.2726
 4668SOL    HW125637   0.583   0.529   5.235 -0.1144  0.6364 -2.1199
 4668SOL    HW225638   0.727   0.555   5.215  1.3113 -0.8275  1.9838
 4669SOL     OW25639   2.236   2.403   2.020 -0.1252 -0.5160 -0.4634
 4669SOL    HW125640   2.215   2.495   2.006 -3.0079 -1.2150 -0.7311
 4669SOL    HW225641   2.329   2.391   2.003 -0.4402 -0.4139 -2.2087
 4670SOL     OW25642   0.260   1.985   7.471  0.3604 -0.3681 -0.0501
 4670SOL    HW125643   0.248   2.061   7.528  0.5166 -1.1493  1.0005
 4670SOL    HW225644   0.352   1.995   7.449  0.5004 -2.2203 -0.2982
 4671SOL     OW25645   1.344   3.391   8.645  0.3421 -0.3035 -0.1255
 4671SOL    HW125646   1.345   3.413   8.738 -1.2915  1.4135 -0.5177
 4671SOL    HW225647   1.433   3.408   8.613  0.7074 -3.2540 -0.7163
 4672SOL     OW25648   0.301   3.417   6.441  0.5932  0.2532 -0.0583
 4672SOL    HW125649   0.301   3.379   6.528  1.8063 -0.1301 -0.2283
 4672SOL    HW225650   0.243   3.490   6.466 -0.3482 -0.3275 -0.5270
 4673SOL     OW25651   0.074   2.058   2.473  0.2105 -0.4142 -0.2656
 4673SOL    HW125652   0.168   2.041   2.480  0.4101  0.9537  0.2710
 4673SOL    HW225653   0.047   1.967   2.465  1.0886 -1.0171  3.3592
 4674SOL     OW25654   3.944   1.353  10.447 -0.7706 -0.2120  0.3181
 4674SOL    HW125655   3.913   1.324  10.533  1.9188 -0.4801  1.2308
 4674SOL    HW225656   3.948   1.448  10.449 -0.1740 -0.2641  2.6100
 4675SOL     OW25657   0.846   2.681   4.739 -0.6749 -0.3511 -0.0926
 4675SOL    HW125658   0.872   2.651   4.652 -1.7335  0.9765 -0.8656
 4675SOL    HW225659   0.923   2.652   4.788 -0.6119 -2.6254 -1.5234
 4676SOL     OW25660   0.409   0.582   5.258  0.6100 -0.0276  0.6442
 4676SOL    HW125661   0.365   0.603   5.175 -1.0179 -1.1511  1.2306
 4676SOL    HW225662   0.369   0.498   5.279  0.4305 -0.5776 -1.9065
 4677SOL     OW25663   4.398   0.525   5.215  0.6176  0.0909  0.3471
 4677SOL    HW125664   4.405   0.620   5.208  0.0817  0.2266  1.7405
 4677SOL    HW225665   4.458   0.506   5.286  2.4070  0.3092 -1.1080
 4678SOL     OW25666   3.001   2.070  13.234  0.2640  0.1022 -0.3232
 4678SOL    HW125667   2.930   2.048  13.174  1.8545 -0.7210 -1.8994
 4678SOL    HW225668   3.076   2.065  13.175  3.3128 -2.6284  3.7732
 4679SOL     OW25669   0.609   3.502   8.748  0.2063 -0.2522 -0.9652
 4679SOL    HW125670   0.619   3.521   8.654  1.2309 -0.7090 -0.9409
 4679SOL    HW225671   0.544   3.566   8.778  1.5008  0.6113  0.0090
 4680SOL     OW25672   1.423   0.031  10.486  0.4216 -0.3338 -0.2615
 4680SOL    HW125673   1.402   0.124  10.482  0.6000 -0.3298 -1.1842
 4680SOL    HW225674   1.389   0.012  10.573  1.6771  0.4223  0.4037
 4681SOL     OW25675   2.954   4.115   5.691 -0.1475  0.0099 -0.4214
 4681SOL    HW125676   2.892   4.049   5.662 -1.4666 -0.0182  2.4228
 4681SOL    HW225677   2.916   4.194   5.651  0.1224  0.1800 -0.3426
 4682SOL     OW25678   2.509   2.275   5.785  0.1618  0.3805 -0.0532
 4682SOL    HW125679   2.549   2.234   5.861 -0.3590  2.0375  1.1186
 4682SOL    HW225680   2.420   2.299   5.812  0.0908  0.2602 -0.1762
 4683SOL     OW25681   2.611   2.525   8.692  0.2308  0.0189 -0.0246
 4683SOL    HW125682   2.568   2.443   8.717 -1.7670  1.6476  1.8052
 4683SOL    HW225683   2.701   2.510   8.721 -0.7758 -2.3284  1.8740
 4684SOL     OW25684   0.936   4.391  10.933 -0.1557 -0.0880  0.0069
 4684SOL    HW125685   0.974   4.332  10.999  1.0150  1.5686  0.8212
 4684SOL    HW225686   0.865   4.438  10.976 -0.2895 -1.4193  1.2253
 4685SOL     OW25687   1.684   3.374   6.873 -0.4527  0.0140 -0.7258
 4685SOL    HW125688   1.623   3.301   6.882 -0.1452 -0.0481  0.7721
 4685SOL    HW225689   1.650   3.414   6.793  0.8271  1.9523 -0.3120
 4686SOL     OW25690   3.162   4.505   6.531 -0.1806 -0.1283 -0.1607
 4686SOL    HW125691   3.166   4.415   6.499  0.6054 -0.7262  1.6006
 4686SOL    HW225692   3.069   4.526   6.524 -0.2679 -0.2800  0.5343
 4687SOL     OW25693   2.886   3.322   9.211 -0.0005  0.0314  0.3671
 4687SOL    HW125694   2.938   3.243   9.220  0.4846  0.1220 -1.6954
 4687SOL    HW225695   2.834   3.304   9.132  0.4864 -0.0427  0.0657
 4688SOL     OW25696   1.592   4.155  10.093 -0.3859  0.8539  0.1672
 4688SOL    HW125697   1.605   4.212  10.018  0.7212 -1.8395 -1.6508
 4688SOL    HW225698   1.676   4.115  10.115 -0.4111  0.0676 -1.1761
 4689SOL     OW25699   0.510   4.110  17.679  0.1554  0.0861  0.1528
 4689SOL    HW125700   0.468   4.042  17.733  1.3141 -1.3279 -0.7173
 4689SOL    HW225701   0.575   4.147   0.001 -0.9507  1.8040  0.2841
 4690SOL     OW25702   2.548   1.657   1.140 -0.1122 -0.7238 -0.0562
 4690SOL    HW125703   2.514   1.650   1.229 -1.0771  0.4481 -0.3233
 4690SOL    HW225704   2.617   1.591   1.143 -1.2536 -1.9196 -0.2215
 4691SOL     OW25705   0.956   0.242   8.375 -0.1934 -0.3066  0.6618
 4691SOL    HW125706   0.953   0.155   8.416  0.0984 -0.3235  0.6522
 4691SOL    HW225707   0.915   0.293   8.445 -0.9644  0.2606 -0.2086
 4692SOL     OW25708   2.709   3.459   8.749  0.4609  0.0710  0.1233
 4692SOL    HW125709   2.712   3.364   8.738  1.8772 -0.0517  1.6072
 4692SOL    HW225710   2.677   3.464   8.839 -0.5056 -0.5725 -0.1752
 4693SOL     OW25711   4.366   4.039  14.764  0.3534  0.3516  0.5942
 4693SOL    HW125712   4.311   4.038  14.843  1.5833  2.3794  1.4584
 4693SOL    HW225713   4.379   3.944  14.754 -4.5784 -0.1839 -0.4293
 4694SOL     OW25714   4.217   0.420   9.374 -0.2634 -0.2752  0.1368
 4694SOL    HW125715   4.183   0.504   9.343  0.2728  0.4835  1.5614
 4694SOL    HW225716   4.137   0.368   9.370 -0.5730  0.4443 -2.7189
 4695SOL     OW25717   0.003   0.709   7.556  0.1405  0.0584 -0.6452
 4695SOL    HW125718   0.068   0.724   7.625  0.3002 -0.5941 -0.6528
 4695SOL    HW225719   4.697   0.623   7.563 -1.6604  1.1682  2.7139
 4696SOL     OW25720   3.993   0.240   4.464 -0.3087  0.1656  0.6528
 4696SOL    HW125721   4.065   0.302   4.455 -0.6238  0.5582  0.8457
 4696SOL    HW225722   3.956   0.241   4.376  1.2635  2.4689  0.0351
 4697SOL     OW25723   1.174   4.379  13.308  0.0427  0.4736 -0.0503
 4697SOL    HW125724   1.225   4.460  13.314 -0.8541  1.0015  0.3041
 4697SOL    HW225725   1.203   4.342  13.224 -1.8755  1.3342 -1.0722
 4698SOL     OW25726   4.039   1.883   9.447  0.3786 -0.1724 -0.5109
 4698SOL    HW125727   3.961   1.916   9.492 -0.6401 -2.1119 -0.8573
 4698SOL    HW225728   4.065   1.815   9.508  2.2241  0.2127 -0.8629
 4699SOL     OW25729   3.147   3.495  17.099  0.2839 -0.2347  0.5330
 4699SOL    HW125730   3.065   3.447  17.086  0.1735  0.5184 -1.4786
 4699SOL    HW225731   3.144   3.531  17.188 -1.4979  1.9044 -0.3948
 4700SOL     OW25732   0.646   3.504   1.076 -0.4082  0.8183 -0.0081
 4700SOL    HW125733   0.682   3.584   1.037  1.3159  0.6787  1.2636
 4700SOL    HW225734   0.579   3.473   1.015  0.8617  2.6838 -2.3683
 4701SOL     OW25735   3.443   4.013  13.224  0.1133  0.6594 -0.0680
 4701SOL    HW125736   3.500   3.971  13.160 -0.6562  0.4261 -0.5966
 4701SOL    HW225737   3.401   3.939  13.268  2.5167 -1.0658 -0.6641
 4702SOL     OW25738   2.761   3.373   7.298  0.2916 -0.1051  0.3523
 4702SOL    HW125739   2.743   3.285   7.266  1.1135 -0.0426 -0.3021
 4702SOL    HW225740   2.852   3.375   7.269  0.2420  0.9711  0.2494
 4703SOL     OW25741   4.172   2.851  15.978  0.0673  0.5438 -0.0529
 4703SOL    HW125742   4.170   2.765  16.018  0.3696  0.7118  0.3122
 4703SOL    HW225743   4.232   2.827  15.908 -0.9223 -1.8624 -0.0473
 4704SOL     OW25744   4.130   4.065   3.151  0.4611  0.3805 -0.2183
 4704SOL    HW125745   4.133   4.158   3.172 -2.0665  0.5984 -0.8223
 4704SOL    HW225746   4.175   4.061   3.067 -2.2426 -0.8852 -1.6178
 4705SOL     OW25747   3.191   0.799   5.241 -0.2292  0.0912  0.6772
 4705SOL    HW125748   3.165   0.708   5.255  1.9322 -0.3829  1.5013
 4705SOL    HW225749   3.277   0.801   5.283 -0.1740 -0.3355  0.5835
 4706SOL     OW25750   1.855   0.525   2.978 -0.0475  0.1545  0.3199
 4706SOL    HW125751   1.773   0.547   3.022 -0.9822 -0.2477 -1.2392
 4706SOL    HW225752   1.861   0.588   2.906  3.8243 -0.0813  0.4250
 4707SOL     OW25753   0.354   4.224   6.402 -0.2444 -0.1466 -0.3761
 4707SOL    HW125754   0.310   4.226   6.317  1.1409 -2.0643 -1.1328
 4707SOL    HW225755   0.279   4.233   6.462  0.7538  1.9621  0.5787
 4708SOL     OW25756   3.744   0.768   9.902  0.0144  0.4737  0.0183
 4708SOL    HW125757   3.768   0.685   9.942  0.0154  1.1384  1.3955
 4708SOL    HW225758   3.801   0.824   9.956  1.0936 -0.0179 -0.6076
 4709SOL     OW25759   3.738   3.731   7.080  0.3587 -0.3616 -0.0708
 4709SOL    HW125760   3.791   3.811   7.073  0.8960 -0.7132 -0.0741
 4709SOL    HW225761   3.659   3.774   7.048  0.2897 -1.0621 -0.8467
 4710SOL     OW25762   3.837   3.062   6.706 -0.5707  0.1059 -1.1110
 4710SOL    HW125763   3.848   2.971   6.734  1.5491  0.4055 -0.9470
 4710SOL    HW225764   3.792   3.094   6.784  1.0304 -0.2264 -0.0476
 4711SOL     OW25765   3.236   3.572   5.976  0.1086 -0.4426  0.6284
 4711SOL    HW125766   3.217   3.574   6.070 -0.5663  2.9773  0.3951
 4711SOL    HW225767   3.331   3.583   5.984 -0.3012  2.8367  0.8569
 4712SOL     OW25768   0.842   4.116   8.174  0.1522  0.5154 -0.3770
 4712SOL    HW125769   0.825   4.038   8.122 -1.8705  0.2572  0.6733
 4712SOL    HW225770   0.758   4.161   8.183 -0.4764 -0.9798  1.2647
 4713SOL     OW25771   2.449   2.720   5.341  0.1423 -0.2144  0.2199
 4713SOL    HW125772   2.385   2.785   5.315 -0.6345 -1.0496  0.0327
 4713SOL    HW225773   2.400   2.641   5.320 -1.9656  0.9450  0.7931
 4714SOL     OW25774   3.728   2.961  10.369  0.1728 -0.1470 -0.3056
 4714SOL    HW125775   3.660   3.027  10.363  0.7426  0.2693 -1.9330
 4714SOL    HW225776   3.733   2.938  10.462 -0.5010  2.2579  0.3253
 4715SOL     OW25777   2.217   4.572   2.530  0.2855 -0.2901  0.0533
 4715SOL    HW125778   2.206   4.619   2.447  1.2358 -0.5174 -0.2002
 4715SOL    HW225779   2.221   4.482   2.500  0.1699 -0.2875  0.0325
 4716SOL     OW25780   0.133   3.616   7.082  0.0417 -0.0189 -0.4155
 4716SOL    HW125781   0.068   3.654   7.142  0.2674  1.1436 -0.9023
 4716SOL    HW225782   0.126   3.521   7.088 -1.2216  0.2745  2.5394
 4717SOL     OW25783   3.177   2.577  14.011 -0.0250 -0.4366  0.2332
 4717SOL    HW125784   3.092   2.578  13.967 -0.4856  0.7199  1.1363
 4717SOL    HW225785   3.211   2.500  13.966 -1.3866 -1.4133  0.8749
 4718SOL     OW25786   0.102   2.880   7.988  0.2989 -0.6836 -0.1077
 4718SOL    HW125787   0.068   2.904   8.074  0.8606 -0.2910 -0.0012
 4718SOL    HW225788   0.096   2.785   7.998  0.7456 -0.6528  0.4250
 4719SOL     OW25789   4.654   1.980   6.726  0.6309 -0.1558  0.0706
 4719SOL    HW125790   4.710   1.975   6.803  0.9706  0.4762 -0.1330
 4719SOL    HW225791   4.620   2.069   6.735 -1.7831 -0.6992 -3.8305
 4720SOL     OW25792   2.024   0.741  16.713  0.1193  0.2449 -0.3221
 4720SOL    HW125793   1.974   0.665  16.743 -0.4706  0.1822 -1.4258
 4720SOL    HW225794   1.963   0.768  16.643  0.0805  0.0164 -0.3764
 4721SOL     OW25795   1.322   3.046   5.847  0.6554  0.2907  0.2215
 4721SOL    HW125796   1.380   3.107   5.801 -0.9890  0.3051 -1.8196
 4721SOL    HW225797   1.287   3.104   5.914  0.6866 -0.5699  0.9796
 4722SOL     OW25798   2.705   4.467   5.361 -0.7709  0.1748 -0.1509
 4722SOL    HW125799   2.634   4.409   5.332 -0.9503  0.9365 -1.2238
 4722SOL    HW225800   2.656   4.548   5.374  0.4968  0.4946  2.5252
 4723SOL     OW25801   0.108   0.096   1.593  0.7586 -0.5481 -0.2511
 4723SOL    HW125802   0.024   0.142   1.586  1.3383  0.5797  0.1191
 4723SOL    HW225803   0.166   0.155   1.544  2.6469 -3.6231 -1.6968
 4724SOL     OW25804   3.643   1.149  10.067 -0.2225 -0.5393 -0.1307
 4724SOL    HW125805   3.600   1.082  10.120  0.0402 -1.1052 -0.6274
 4724SOL    HW225806   3.736   1.133  10.083 -0.9275  0.4539  4.9474
 4725SOL     OW25807   1.492   1.357   4.577  0.1322 -0.1680 -0.3952
 4725SOL    HW125808   1.407   1.400   4.579 -0.1940 -0.8209  0.0181
 4725SOL    HW225809   1.555   1.428   4.566 -2.2559  1.5943 -2.7702
 4726SOL     OW25810   2.345   0.063   5.242  0.4558 -0.2688  0.6655
 4726SOL    HW125811   2.346   0.107   5.157 -0.2875  1.4401  1.5463
 4726SOL    HW225812   2.255   0.029   5.244 -0.9829  3.5293  0.1560
 4727SOL     OW25813   3.349   1.020   0.473 -0.1622  0.3044  0.1147
 4727SOL    HW125814   3.398   1.085   0.422  0.6696 -0.8926 -0.6162
 4727SOL    HW225815   3.416   0.953   0.459 -3.8375 -2.9656 -1.8881
 4728SOL     OW25816   2.768   3.729   2.582 -0.1632 -0.1490 -0.1475
 4728SOL    HW125817   2.676   3.724   2.556 -0.1649  0.2936 -0.2305
 4728SOL    HW225818   2.816   3.680   2.516  0.9565 -2.4509  2.3507
 4729SOL     OW25819   2.307   1.736   2.569 -0.6165  0.3576 -0.0607
 4729SOL    HW125820   2.333   1.767   2.656  1.3770 -0.2153 -0.4426
 4729SOL    HW225821   2.223   1.778   2.550 -0.7999 -0.1822 -0.4299
 4730SOL     OW25822   1.109   3.168   8.498  0.2775  0.0146 -0.3851
 4730SOL    HW125823   1.180   3.107   8.478 -0.0020  0.4318 -2.6066
 4730SOL    HW225824   1.063   3.168   8.414  0.9084  0.8536 -0.7282
 4731SOL     OW25825   1.419   0.273   7.034  0.2703  0.0255 -0.1626
 4731SOL    HW125826   1.435   0.195   7.089  0.2653  0.5187  0.5446
 4731SOL    HW225827   1.464   0.244   6.955 -1.3026 -2.7910 -0.0450
 4732SOL     OW25828   2.527   4.275   5.317  0.2442 -0.2660  0.0799
 4732SOL    HW125829   2.461   4.333   5.357  2.0537 -0.0131  2.6791
 4732SOL    HW225830   2.550   4.209   5.382 -1.5821 -0.6523  0.3559
 4733SOL     OW25831   0.682   3.955  15.591  0.2017 -0.4341  0.1683
 4733SOL    HW125832   0.610   3.945  15.654  0.3760 -2.0104  0.1243
 4733SOL    HW225833   0.650   4.016  15.525  0.6252 -0.1856  0.1939
 4734SOL     OW25834   3.065   2.656   8.897  0.1218 -0.0218 -0.5186
 4734SOL    HW125835   3.117   2.736   8.902 -1.7639  1.0601  2.0747
 4734SOL    HW225836   3.073   2.615   8.983 -2.3103  1.3821  0.3966
 4735SOL     OW25837   3.441   1.166   7.397  0.0542 -0.7373  0.3860
 4735SOL    HW125838   3.473   1.081   7.429  3.0465 -0.6388 -2.3823
 4735SOL    HW225839   3.493   1.237   7.434 -0.8693 -0.3525  0.9565
 4736SOL     OW25840   0.765   1.711   1.512  0.2558 -0.2741 -0.7437
 4736SOL    HW125841   0.825   1.671   1.449  0.6897 -0.8060  0.0124
 4736SOL    HW225842   0.826   1.720   1.586  0.1944 -1.9604 -0.4860
 4737SOL     OW25843   1.653   2.063   2.747 -0.0033  0.3035  0.4625
 4737SOL    HW125844   1.741   2.047   2.713 -0.3087  1.8560 -1.0862
 4737SOL    HW225845   1.674   2.096   2.835 -1.6027 -0.7226  1.2201
 4738SOL     OW25846   2.179   2.188   4.313  0.2134  0.1717  0.6217
 4738SOL    HW125847   2.220   2.274   4.302 -0.4515  0.1683 -1.7211
 4738SOL    HW225848   2.087   2.214   4.311  0.3935  0.3538 -3.4987
 4739SOL     OW25849   3.614   2.786   4.323 -0.1356 -0.0366  0.1241
 4739SOL    HW125850   3.661   2.814   4.244  1.4508 -0.5821  0.8708
 4739SOL    HW225851   3.526   2.764   4.294 -1.0007  0.4216  2.4052
 4740SOL     OW25852   3.038   1.288   5.046 -0.2699  1.0703  0.3190
 4740SOL    HW125853   3.054   1.218   4.982 -1.9774  0.5225  0.5041
 4740SOL    HW225854   3.001   1.359   4.994 -1.2443  1.0990  1.0612
 4741SOL     OW25855   3.067   1.734  13.268  0.5453  0.4798 -0.1032
 4741SOL    HW125856   3.105   1.671  13.330 -0.1902 -1.0554 -1.2290
 4741SOL    HW225857   3.148   1.778  13.244  2.5670 -1.6169  2.8408
 4742SOL     OW25858   4.667   2.424   8.478  0.5773  0.3499  0.4402
 4742SOL    HW125859   4.655   2.513   8.446 -0.4700  0.0062 -0.1288
 4742SOL    HW225860   4.593   2.419   8.539 -0.6091 -1.2919 -1.1136
 4743SOL     OW25861   2.006   0.829   3.191 -0.6177  0.6815  0.0584
 4743SOL    HW125862   2.033   0.848   3.281 -1.2155  2.3698 -0.1198
 4743SOL    HW225863   2.042   0.904   3.144  0.2073  1.3753  1.8132
 4744SOL     OW25864   1.434   4.290   7.905  0.5008 -0.2341 -0.9079
 4744SOL    HW125865   1.423   4.222   7.840 -0.3506 -0.0845 -0.9194
 4744SOL    HW225866   1.406   4.242   7.983  0.6163  0.4673 -0.4262
 4745SOL     OW25867   1.478   4.643   6.079 -0.3386 -0.1686  0.2715
 4745SOL    HW125868   1.441   4.625   5.992 -0.9523 -0.2708  0.5496
 4745SOL    HW225869   1.547   4.577   6.078 -0.2736 -0.1054  0.8121
 4746SOL     OW25870   3.654   2.631   2.442  0.4067 -0.3771  0.6901
 4746SOL    HW125871   3.642   2.705   2.501  0.0259 -0.9177  1.2833
 4746SOL    HW225872   3.630   2.559   2.501  0.3867  2.5648  4.2275
 4747SOL     OW25873   1.258   1.794   2.889  0.3286 -0.4932 -0.2605
 4747SOL    HW125874   1.185   1.853   2.870  0.9595  0.0630 -0.9280
 4747SOL    HW225875   1.324   1.845   2.843  2.5985 -1.5600  1.8388
 4748SOL     OW25876   0.529   1.671   4.423 -0.0962 -0.4744 -0.5367
 4748SOL    HW125877   0.497   1.754   4.387  1.0457 -0.4550 -1.5018
 4748SOL    HW225878   0.491   1.609   4.360 -0.3799 -1.1541  0.3065
 4749SOL     OW25879   2.746   3.800   7.834 -0.6486  0.2308 -0.0817
 4749SOL    HW125880   2.689   3.874   7.855 -1.5406 -0.7201  0.8577
 4749SOL    HW225881   2.795   3.829   7.757  1.4401 -1.1767  0.7095
 4750SOL     OW25882   3.778   4.092   5.585 -0.1291 -0.6704 -0.5518
 4750SOL    HW125883   3.759   4.185   5.573  0.7021 -0.5665 -1.0858
 4750SOL    HW225884   3.856   4.083   5.530  1.1265 -1.2511  1.3105
 4751SOL     OW25885   0.712   0.388   2.929 -0.1464 -0.1186  0.6214
 4751SOL    HW125886   0.788   0.441   2.906 -1.5747  1.6269 -0.0658
 4751SOL    HW225887   0.757   0.329   2.990  3.4220  0.6516 -1.2817
 4752SOL     OW25888   1.511   1.915  13.766  0.0176  0.2444 -0.0424
 4752SOL    HW125889   1.430   1.863  13.764 -0.5284  1.0746  0.3902
 4752SOL    HW225890   1.567   1.841  13.745  1.8307  0.8263  2.7509
 4753SOL     OW25891   2.115   2.310  13.218 -0.4439  0.0390  0.0196
 4753SOL    HW125892   2.129   2.386  13.274 -1.5265 -0.6296  1.1976
 4753SOL    HW225893   2.115   2.239  13.283 -2.8083  0.8073  0.8445
 4754SOL     OW25894   0.147   4.483   6.006  0.1717  0.9978  0.0109
 4754SOL    HW125895   0.117   4.399   5.972  2.4227 -0.0088  0.4931
 4754SOL    HW225896   0.086   4.495   6.079  0.6963  2.3879  0.2367
 4755SOL     OW25897   1.037   0.067   7.153  0.5250 -0.1666  0.0287
 4755SOL    HW125898   1.130   0.073   7.135  0.4285  1.0702 -0.0115
 4755SOL    HW225899   1.033   0.085   7.247 -0.7519 -1.7494  0.2754
 4756SOL     OW25900   1.557   3.394  10.202 -0.5314 -0.2470 -0.4288
 4756SOL    HW125901   1.643   3.358  10.224  0.9141  2.4041 -1.7248
 4756SOL    HW225902   1.510   3.336  10.262  1.6761  0.4357  1.9557
 4757SOL     OW25903   1.817   3.606  16.762 -0.5513  0.1499 -0.1997
 4757SOL    HW125904   1.794   3.693  16.729  0.7349  0.0192 -1.4333
 4757SOL    HW225905   1.732   3.589  16.803  0.1585  0.5696  1.4477
 4758SOL     OW25906   3.309   4.342   7.991  0.4351  0.4563 -0.6463
 4758SOL    HW125907   3.217   4.316   7.995  0.1806  1.2952 -1.0527
 4758SOL    HW225908   3.302   4.437   7.979  2.9561  1.0014  2.0918
 4759SOL     OW25909   4.434   0.277   6.163  0.4352  0.0378  0.0526
 4759SOL    HW125910   4.382   0.350   6.195  1.8537  0.3025  1.6960
 4759SOL    HW225911   4.521   0.303   6.192 -0.0206 -0.8457  2.2100
 4760SOL     OW25912   3.465   0.126   7.079 -0.1206 -0.2465  0.1705
 4760SOL    HW125913   3.530   0.107   7.011 -0.9972 -0.2195 -0.6827
 4760SOL    HW225914   3.414   0.045   7.077  0.7360 -0.7612 -0.8264
 4761SOL     OW25915   1.614   2.655   6.893  0.2487  0.1409  0.2032
 4761SOL    HW125916   1.708   2.642   6.903  0.4289  2.1484  1.0922
 4761SOL    HW225917   1.583   2.565   6.886 -0.6883  0.3548  1.5925
 4762SOL     OW25918   0.946   3.574   3.471  0.2555  0.1006 -0.0578
 4762SOL    HW125919   0.996   3.651   3.445  1.4053  0.0755  2.0660
 4762SOL    HW225920   1.008   3.501   3.468  3.6524  2.9875 -0.2328
 4763SOL     OW25921   3.331   2.830  17.576 -0.4766  0.0451 -0.0575
 4763SOL    HW125922   3.383   2.892  17.627 -2.1221  2.2042 -1.0025
 4763SOL    HW225923   3.348   2.744  17.615 -0.1082 -0.7939 -2.0245
 4764SOL     OW25924   1.488   1.850   2.694  0.0391 -0.2574 -0.2965
 4764SOL    HW125925   1.434   1.861   2.616 -0.3626  1.4669  0.2358
 4764SOL    HW225926   1.549   1.922   2.678 -0.9616  0.9118  1.1356
 4765SOL     OW25927   3.918   0.361   6.173  0.2590  0.2891  0.1019
 4765SOL    HW125928   3.847   0.301   6.153  1.4594 -0.3942 -2.0520
 4765SOL    HW225929   3.979   0.309   6.226  1.3065  1.3130 -0.0872
 4766SOL     OW25930   1.832   2.654   0.434  0.8304  0.3848  0.0958
 4766SOL    HW125931   1.891   2.723   0.404  1.8933 -0.1014  1.0782
 4766SOL    HW225932   1.870   2.641   0.521 -0.1188  2.0043  0.7398
 4767SOL     OW25933   3.837   3.853   0.464  0.0907 -1.0306 -0.1963
 4767SOL    HW125934   3.783   3.793   0.516  1.2009 -0.5464  1.5265
 4767SOL    HW225935   3.922   3.841   0.507  0.0308 -0.8345 -0.0289
 4768SOL     OW25936   4.107   4.562   6.605 -0.4000 -0.0975  0.0772
 4768SOL    HW125937   4.050   4.639   6.604 -0.6176 -0.2258  1.8682
 4768SOL    HW225938   4.054   4.507   6.547  1.6403 -2.3077  0.2988
 4769SOL     OW25939   3.012   1.238   6.079  0.3657  0.7867 -0.5366
 4769SOL    HW125940   3.035   1.330   6.094 -0.7645  1.2626 -1.7308
 4769SOL    HW225941   3.087   1.193   6.118 -0.5726 -0.4608 -0.1772
 4770SOL     OW25942   4.616   1.131  16.186 -0.2734 -0.0916 -0.3074
 4770SOL    HW125943   4.649   1.211  16.144 -0.2872  0.7055  1.2162
 4770SOL    HW225944   4.522   1.148  16.181 -0.0369  1.1289 -0.5704
 4771SOL     OW25945   3.139   0.537   6.091 -0.6630 -0.1026 -0.6963
 4771SOL    HW125946   3.193   0.460   6.103  1.4009  1.5315  0.4762
 4771SOL    HW225947   3.134   0.536   5.995  0.0576 -3.1495 -0.6979
 4772SOL     OW25948   1.900   2.310   1.805  0.2310 -0.4046  0.4174
 4772SOL    HW125949   1.913   2.330   1.897  0.8310 -2.7047  0.8304
 4772SOL    HW225950   1.805   2.305   1.799  0.2416  0.9166 -0.9581
 4773SOL     OW25951   1.593   3.060  14.519 -0.0541 -0.3899 -0.4688
 4773SOL    HW125952   1.623   3.025  14.435 -2.3671 -1.6786 -0.7686
 4773SOL    HW225953   1.650   3.136  14.532  0.9199 -0.6859 -2.9474
 4774SOL     OW25954   2.221   1.255  10.650 -0.2119 -0.3317 -0.1901
 4774SOL    HW125955   2.172   1.206  10.716 -1.7030  1.8763  0.3421
 4774SOL    HW225956   2.303   1.208  10.642  0.3437  0.5343  0.5199
 4775SOL     OW25957   4.209   1.430  17.157  0.0247  0.5206 -0.1389
 4775SOL    HW125958   4.229   1.496  17.222 -0.6618 -0.2517  0.8461
 4775SOL    HW225959   4.114   1.441  17.150 -0.4566 -2.0448  2.2937
 4776SOL     OW25960   4.368   2.605   7.279 -0.1019 -0.1637 -0.5068
 4776SOL    HW125961   4.301   2.552   7.323  1.2981  0.3542  2.2294
 4776SOL    HW225962   4.305   2.658   7.230  0.5085  0.1677 -0.9201
 4777SOL     OW25963   0.879   0.153   3.015 -0.2841  0.4358  0.3166
 4777SOL    HW125964   0.799   0.137   3.066  0.5616  0.0713  1.5071
 4777SOL    HW225965   0.918   0.070   3.041 -1.8882  0.8351  4.0675
 4778SOL     OW25966   4.464   2.502  17.560 -0.1583  0.2517  0.4700
 4778SOL    HW125967   4.376   2.504  17.522 -0.7217 -0.3767  1.7537
 4778SOL    HW225968   4.519   2.520  17.484 -1.0589  0.2110 -0.1987
 4779SOL     OW25969   4.033   2.044   6.158 -0.0270  0.3279 -0.1791
 4779SOL    HW125970   4.036   2.099   6.080 -0.6101  0.9597  0.2431
 4779SOL    HW225971   3.982   2.091   6.223 -1.3112 -1.3140  0.0098
 4780SOL     OW25972   1.859   1.706   7.649 -0.5001 -0.4896 -0.2717
 4780SOL    HW125973   1.808   1.784   7.631 -2.7889 -1.6529  1.1301
 4780SOL    HW225974   1.895   1.733   7.734 -0.6904 -0.6990 -0.1245
 4781SOL     OW25975   3.664   0.475   5.718  0.5522  0.3283  0.2790
 4781SOL    HW125976   3.750   0.514   5.700  2.1763 -2.4179  2.0758
 4781SOL    HW225977   3.671   0.386   5.682 -1.3465  0.2024  0.2193
 4782SOL     OW25978   2.333   1.886   8.085  0.8326 -0.2944 -0.3889
 4782SOL    HW125979   2.380   1.908   8.165  0.1620 -0.6095  0.0950
 4782SOL    HW225980   2.348   1.967   8.037  1.7439 -0.1548  0.1349
 4783SOL     OW25981   3.649   1.341  15.640  0.1507 -0.1271  0.4309
 4783SOL    HW125982   3.583   1.388  15.588 -0.2373 -1.0412  0.1085
 4783SOL    HW225983   3.645   1.258  15.592 -2.2063 -0.1195  0.6080
 4784SOL     OW25984   4.266   2.917   2.632 -0.4781  0.1612 -0.0208
 4784SOL    HW125985   4.346   2.882   2.673 -1.1141 -0.1444  0.9740
 4784SOL    HW225986   4.210   2.889   2.705 -0.4486  2.7789  1.0093
 4785SOL     OW25987   1.359   1.775   5.820 -0.3306  0.3170  0.0411
 4785SOL    HW125988   1.345   1.768   5.915  0.8771  1.8763  0.3315
 4785SOL    HW225989   1.284   1.824   5.787 -1.3066 -0.6049  0.8502
 4786SOL     OW25990   2.683   2.092  17.071 -0.5213  0.2112 -0.1684
 4786SOL    HW125991   2.726   2.022  17.120  3.3278  1.8519 -1.2666
 4786SOL    HW225992   2.589   2.074  17.070 -0.0768 -2.2873  1.7416
 4787SOL     OW25993   2.459   3.300   2.647 -0.2111  0.6023  0.0826
 4787SOL    HW125994   2.513   3.256   2.581 -2.0892 -0.4233 -0.8054
 4787SOL    HW225995   2.517   3.291   2.722 -0.4256 -2.9378 -0.1632
 4788SOL     OW25996   3.748   4.729   4.076  0.6538 -0.1813  0.8539
 4788SOL    HW125997   3.721   4.661   4.138 -1.6635 -2.5063 -2.7219
 4788SOL    HW225998   3.809   4.693   4.012 -1.5106 -0.4995 -1.0376
 4789SOL     OW25999   2.185   2.127   7.261 -0.0894  0.0866 -0.1843
 4789SOL    HW126000   2.182   2.037   7.294  1.4874  0.3442  0.6703
 4789SOL    HW226001   2.183   2.168   7.347  0.4193 -0.6555  0.1823
 4790SOL     OW26002   2.984   1.063   8.212  0.0392  0.6209  0.4118
 4790SOL    HW126003   2.921   1.135   8.220  0.5357  1.2972 -1.5788
 4790SOL    HW226004   2.932   0.982   8.209  0.1593  0.5577  0.0114
 4791SOL     OW26005   2.388   3.111   3.526  0.1673  0.0783  0.0331
 4791SOL    HW126006   2.321   3.055   3.487 -0.8795  0.3520  1.4330
 4791SOL    HW226007   2.335   3.172   3.576 -1.2940 -1.0302 -0.1479
 4792SOL     OW26008   0.059   3.481   7.538  0.2805 -0.2091  0.0577
 4792SOL    HW126009   4.715   3.432   7.516 -0.7473  1.2932  0.4059
 4792SOL    HW226010   0.076   3.446   7.625  1.0620  1.6763  0.6746
 4793SOL     OW26011   1.681   0.349  11.532  0.1512  0.7907 -0.0081
 4793SOL    HW126012   1.662   0.282  11.598  0.9872 -0.1972 -0.7760
 4793SOL    HW226013   1.758   0.307  11.495 -0.3043 -0.7055  0.7556
 4794SOL     OW26014   4.237   0.955   8.681 -0.1356 -0.2795 -0.3770
 4794SOL    HW126015   4.315   0.926   8.729  1.2070  1.0389 -1.7564
 4794SOL    HW226016   4.164   0.929   8.738 -0.3471  1.0199 -0.0402
 4795SOL     OW26017   3.540   1.088   8.364  0.3781  0.1902 -0.2845
 4795SOL    HW126018   3.585   1.007   8.389 -1.4991 -0.3238  1.4712
 4795SOL    HW226019   3.449   1.057   8.367 -0.6120  2.8385 -3.3304
 4796SOL     OW26020   0.064   2.527  11.102  0.1553  0.4874  0.8940
 4796SOL    HW126021   0.120   2.450  11.101  2.0431  1.8561  1.2775
 4796SOL    HW226022   0.001   2.517  11.173 -0.7837 -0.1432 -0.0229
 4797SOL     OW26023   1.504   1.287   6.236 -0.2146  0.3262  0.0665
 4797SOL    HW126024   1.543   1.374   6.225 -3.9900  2.0835  0.5054
 4797SOL    HW226025   1.449   1.292   6.157 -0.2846  1.2421  0.1792
 4798SOL     OW26026   3.725   0.119   2.570 -0.4791 -0.5095  0.0874
 4798SOL    HW126027   3.636   0.131   2.537 -0.8790 -1.4205  0.8292
 4798SOL    HW226028   3.726   0.023   2.569  1.6176 -0.5160  0.7177
 4799SOL     OW26029   4.053   4.090   5.121 -0.1236  0.2115  0.0593
 4799SOL    HW126030   4.058   4.012   5.177 -0.5778  0.0539 -0.1140
 4799SOL    HW226031   4.038   4.045   5.038  1.4826  3.4393 -1.9635
 4800SOL     OW26032   4.136   3.732   9.809  0.4753 -0.0148 -0.5599
 4800SOL    HW126033   4.166   3.821   9.826 -0.6511  0.1100  0.6912
 4800SOL    HW226034   4.055   3.725   9.859  0.5315  1.2052 -0.3090
 4801SOL     OW26035   3.912   3.544   1.761  0.1784  0.5084  0.1651
 4801SOL    HW126036   3.831   3.529   1.809 -0.1346  0.1427 -0.4840
 4801SOL    HW226037   3.977   3.503   1.818 -0.3677 -0.5974 -0.0051
 4802SOL     OW26038   3.519   3.080   4.404 -0.6038 -0.0202 -0.5472
 4802SOL    HW126039   3.495   2.997   4.361  1.4965 -1.5533  1.2530
 4802SOL    HW226040   3.574   3.115   4.334  1.7645 -2.1877  0.2191
 4803SOL     OW26041   1.216   0.961   3.648  0.1575  0.0117 -0.9146
 4803SOL    HW126042   1.295   1.015   3.645  0.1532  0.0490 -0.2859
 4803SOL    HW226043   1.241   0.894   3.584  0.6148  0.5271 -1.2775
 4804SOL     OW26044   0.133   0.337   0.365 -0.7965 -0.2418 -0.0165
 4804SOL    HW126045   0.139   0.428   0.337 -1.1507  0.1327  1.0967
 4804SOL    HW226046   0.140   0.286   0.285 -0.1351 -2.1404  1.2486
 4805SOL     OW26047   2.451   2.298   5.332 -0.6026 -0.3003 -0.5261
 4805SOL    HW126048   2.388   2.258   5.393 -1.8068  1.2354 -0.7704
 4805SOL    HW226049   2.383   2.338   5.279 -1.3839 -1.4658 -0.4226
 4806SOL     OW26050   2.562   0.085  17.587 -0.2844  0.2100  0.1520
 4806SOL    HW126051   2.471   0.060  17.604 -0.1864  1.1528  2.1071
 4806SOL    HW226052   2.555   0.169  17.634  1.2594 -0.9076  2.4078
 4807SOL     OW26053   2.853   3.695  15.963 -0.1770  0.1525  0.2342
 4807SOL    HW126054   2.784   3.667  15.903  1.0801 -0.1966 -1.0520
 4807SOL    HW226055   2.802   3.763  16.006 -0.3430  0.9786 -1.2766
 4808SOL     OW26056   0.733   1.055  16.337 -0.6287 -0.3439 -0.2030
 4808SOL    HW126057   0.748   1.007  16.418 -0.2028  0.6892  0.3281
 4808SOL    HW226058   0.814   1.101  16.319 -0.6371  0.0427  0.7310
 4809SOL     OW26059   0.884   3.705   4.181 -0.1844  0.3218 -0.1145
 4809SOL    HW126060   0.906   3.798   4.174 -0.4372  0.3702 -0.2595
 4809SOL    HW226061   0.789   3.704   4.179 -0.2056 -2.2420  2.0365
 4810SOL     OW26062   1.537   4.401  11.314  0.1765  0.5344 -0.2049
 4810SOL    HW126063   1.527   4.337  11.384 -0.6360  1.2063  0.2916
 4810SOL    HW226064   1.531   4.346  11.236 -0.4145 -0.6655  0.6849
 4811SOL     OW26065   4.450   3.252   4.233 -0.8061  0.0441 -0.0452
 4811SOL    HW126066   4.360   3.270   4.262 -0.9007  0.7520 -0.7565
 4811SOL    HW226067   4.460   3.162   4.261 -0.6603  0.7766  2.2309
 4812SOL     OW26068   4.525   3.247   2.068 -0.3389  0.6694 -0.1161
 4812SOL    HW126069   4.557   3.253   2.158  2.4657 -0.5850 -1.0263
 4812SOL    HW226070   4.434   3.269   2.092 -0.5947 -0.8274  0.2955
 4813SOL     OW26071   3.241   2.154   7.755  0.2136  0.6100  0.0387
 4813SOL    HW126072   3.253   2.064   7.726 -0.3385 -0.1785  2.2382
 4813SOL    HW226073   3.314   2.155   7.818  2.6443  1.9521 -2.7847
 4814SOL     OW26074   2.636   2.851   5.181 -0.3263 -0.2460  0.4648
 4814SOL    HW126075   2.589   2.786   5.233 -1.0866  1.9661  2.5509
 4814SOL    HW226076   2.729   2.837   5.203  0.3623  1.7130 -1.2111
 4815SOL     OW26077   4.014   0.089   8.340  0.1269 -0.6012 -0.1160
 4815SOL    HW126078   4.014   0.047   8.426 -0.6155  0.5609  0.4538
 4815SOL    HW226079   4.078   0.155   8.369 -1.0490  1.4063 -2.1134
 4816SOL     OW26080   0.265   4.707   5.712 -0.0411 -0.0403  0.2616
 4816SOL    HW126081   0.356   4.733   5.698 -0.4716  2.0103  1.2690
 4816SOL    HW226082   0.282   4.621   5.751 -2.5375  0.1578  1.7917
 4817SOL     OW26083   3.933   3.111   1.801  0.1918 -0.1013  0.0016
 4817SOL    HW126084   3.910   3.128   1.710  1.1088  0.0131 -0.2042
 4817SOL    HW226085   3.893   3.026   1.820  2.0688 -0.4327  2.3655
 4818SOL     OW26086   3.438   4.494   8.921 -0.2259 -0.1359  0.1096
 4818SOL    HW126087   3.503   4.488   8.851 -1.5259 -1.4146 -0.9842
 4818SOL    HW226088   3.358   4.465   8.877 -0.4894 -0.7942  1.0474
 4819SOL     OW26089   3.180   2.578   9.128 -0.3255 -0.3418 -0.3029
 4819SOL    HW126090   3.215   2.528   9.201 -0.9749 -1.0218 -0.4526
 4819SOL    HW226091   3.195   2.664   9.165 -1.2248 -0.2018 -0.2587
 4820SOL     OW26092   1.198   3.572  14.649  0.0749 -0.3796  0.3336
 4820SOL    HW126093   1.191   3.518  14.728 -0.3746 -2.2641 -0.9826
 4820SOL    HW226094   1.135   3.640  14.671 -1.4871 -1.4869 -0.7158
 4821SOL     OW26095   3.511   2.386  16.631 -0.3743  0.1685 -0.0109
 4821SOL    HW126096   3.422   2.394  16.665 -0.7307 -3.1272 -0.1770
 4821SOL    HW226097   3.491   2.361  16.541 -0.3448 -1.7039  0.4954
 4822SOL     OW26098   2.311   0.669   8.434  0.1730 -0.3808 -0.2220
 4822SOL    HW126099   2.347   0.755   8.410 -0.4100 -0.7442 -2.3781
 4822SOL    HW226100   2.345   0.622   8.358  0.4223  1.1738 -1.0775
 4823SOL     OW26101   1.786   0.943  17.524  0.4699 -0.1751  0.7307
 4823SOL    HW126102   1.851   0.982  17.583  0.8614  3.4471 -2.0667
 4823SOL    HW226103   1.840   0.943  17.445 -1.1358  1.5318 -0.3704
 4824SOL     OW26104   4.374   3.863   5.470 -0.3972 -0.1527 -0.2832
 4824SOL    HW126105   4.405   3.779   5.435  0.2005 -0.0137 -0.0780
 4824SOL    HW226106   4.344   3.908   5.391 -0.7663 -2.7652 -1.6286
 4825SOL     OW26107   3.199   4.113  13.015  0.1506  0.0971 -0.3332
 4825SOL    HW126108   3.274   4.083  13.067 -0.3748  2.4310  1.7742
 4825SOL    HW226109   3.186   4.058  12.938  2.2544 -0.4322 -0.3148
 4826SOL     OW26110   3.701   1.459  12.987  0.1595 -0.1391 -0.4654
 4826SOL    HW126111   3.666   1.548  12.988 -0.6444 -0.4664 -0.0500
 4826SOL    HW226112   3.782   1.466  13.037  0.4253  0.2437 -0.9469
 4827SOL     OW26113   3.356   3.535   7.311 -0.1504 -0.1085  0.2896
 4827SOL    HW126114   3.411   3.574   7.379  1.2752 -1.4165 -0.1115
 4827SOL    HW226115   3.419   3.517   7.242  0.8634 -1.1313  1.4601
 4828SOL     OW26116   1.968   3.774   2.170  0.3580 -0.0388  0.1967
 4828SOL    HW126117   2.049   3.743   2.209  1.0619 -0.9148 -1.9700
 4828SOL    HW226118   1.990   3.867   2.163  1.2675 -0.2208  0.6830
 4829SOL     OW26119   1.736   0.795  12.921  0.4346 -0.1852 -0.8121
 4829SOL    HW126120   1.693   0.715  12.952  0.5866 -0.5883 -1.6362
 4829SOL    HW226121   1.710   0.793  12.829  1.8479 -1.0405 -1.1747
 4830SOL     OW26122   3.974   2.674  11.821 -0.0624  0.6913 -0.0012
 4830SOL    HW126123   4.004   2.678  11.730  1.5590 -1.3637  0.4516
 4830SOL    HW226124   3.879   2.674  11.814 -0.1218  0.1482  0.8415
 4831SOL     OW26125   1.908   4.711   6.304 -0.3052  0.0038 -0.2388
 4831SOL    HW126126   1.875   4.690   6.217 -2.3603 -0.8565  0.7378
 4831SOL    HW226127   1.941   0.066   6.302  0.9340 -0.4901 -1.5978
 4832SOL     OW26128   0.499   3.130  10.153 -0.4175  0.3102 -0.4065
 4832SOL    HW126129   0.428   3.080  10.113 -0.4748  1.6010 -1.9138
 4832SOL    HW226130   0.492   3.095  10.242 -2.4653 -2.5475 -1.6775
 4833SOL     OW26131   0.395   4.070   8.114  0.2328  0.3094  0.5659
 4833SOL    HW126132   0.460   4.124   8.158 -0.2279  0.6302  0.8503
 4833SOL    HW226133   0.321   4.129   8.100  0.7872  1.2490  1.6151
 4834SOL     OW26134   0.157   1.475   2.287  0.3886 -0.0557 -0.0452
 4834SOL    HW126135   0.067   1.454   2.260 -0.0074  1.4136  0.1683
 4834SOL    HW226136   0.178   1.412   2.356  0.0964  1.1713  1.1470
 4835SOL     OW26137   4.501   4.277  11.884  0.9502 -0.6579 -0.5425
 4835SOL    HW126138   4.524   4.344  11.820 -0.0206  0.8669  0.7249
 4835SOL    HW226139   4.406   4.271  11.872  0.7750  0.6030  0.2959
 4836SOL     OW26140   1.858   2.126  16.858 -0.3259  0.2004 -0.0262
 4836SOL    HW126141   1.929   2.132  16.922  1.0938 -3.5507 -1.2575
 4836SOL    HW226142   1.782   2.128  16.917 -1.0280 -0.1502 -0.9175
 4837SOL     OW26143   0.951   0.320   3.578 -0.5847 -0.1105 -0.7661
 4837SOL    HW126144   0.932   0.368   3.660  1.0915 -1.2495  0.2851
 4837SOL    HW226145   1.046   0.326   3.568 -0.3259  1.8576  2.4751
 4838SOL     OW26146   3.025   0.109   1.550  0.3933 -0.0224  0.0147
 4838SOL    HW126147   2.960   0.123   1.481 -1.6100 -0.6985  1.7651
 4838SOL    HW226148   3.106   0.145   1.514  0.2058 -1.0081 -1.3870
 4839SOL     OW26149   2.917   1.536   4.437 -0.0584 -0.5289  0.3541
 4839SOL    HW126150   2.877   1.589   4.368 -0.1981  0.9649  1.5680
 4839SOL    HW226151   2.999   1.579   4.463  1.5785 -1.9076 -2.4963
 4840SOL     OW26152   1.427   1.535   2.417  0.0532  0.3675  0.4052
 4840SOL    HW126153   1.497   1.473   2.440  1.5512  1.4647 -1.1726
 4840SOL    HW226154   1.476   1.602   2.369 -0.0983 -0.0330 -0.3022
 4841SOL     OW26155   3.394   1.232   4.800 -0.3457  0.2589 -0.6536
 4841SOL    HW126156   3.443   1.194   4.873  0.2900  2.3424  0.0125
 4841SOL    HW226157   3.357   1.152   4.763  2.7406 -1.0879 -0.9003
 4842SOL     OW26158   1.014   0.906   3.459 -0.1947  0.0911  0.6010
 4842SOL    HW126159   1.093   0.890   3.408 -0.1338  2.0814  0.0575
 4842SOL    HW226160   1.056   0.960   3.526 -1.5801  2.6697 -0.6356
 4843SOL     OW26161   1.567   4.541   7.677 -0.2674 -0.2195  0.2684
 4843SOL    HW126162   1.546   4.449   7.695 -0.2215  0.1315  2.1797
 4843SOL    HW226163   1.620   4.535   7.598 -0.3951  0.0349  0.1620
 4844SOL     OW26164   0.289   4.694  11.011 -0.2603 -0.5718 -0.0134
 4844SOL    HW126165   0.351   4.622  11.004  1.9645  1.5415 -1.6178
 4844SOL    HW226166   0.205   4.661  10.978  1.0050 -2.4530 -1.3268
 4845SOL     OW26167   1.361   1.097   5.169  0.4071 -0.5314  0.0408
 4845SOL    HW126168   1.448   1.065   5.192  1.1857  1.0946 -0.5917
 4845SOL    HW226169   1.379   1.190   5.185  0.2915 -0.5308  0.1693
 4846SOL     OW26170   0.486   4.686   2.732 -0.2618  0.0603  0.8688
 4846SOL    HW126171   0.449   4.698   2.820 -1.8669 -0.4149  0.2489
 4846SOL    HW226172   0.426   4.618   2.701  0.8844  0.2004 -1.6593
 4847SOL     OW26173   3.269   1.711   6.176 -0.2618 -0.2748 -0.5086
 4847SOL    HW126174   3.294   1.803   6.170  0.7256 -0.3983  1.9808
 4847SOL    HW226175   3.336   1.665   6.226  0.2007 -0.8416 -1.6560
 4848SOL     OW26176   0.587   3.766  14.445  0.0474  0.2809 -0.3397
 4848SOL    HW126177   0.626   3.853  14.445 -0.3297  0.4442 -0.8555
 4848SOL    HW226178   0.661   3.705  14.451 -0.2535  0.0231  0.9019
 4849SOL     OW26179   0.643   1.641   1.977  0.1847 -0.1682  0.1629
 4849SOL    HW126180   0.677   1.729   1.990 -2.7989  1.0099 -0.1983
 4849SOL    HW226181   0.571   1.661   1.918 -1.1725  1.4418  2.3524
 4850SOL     OW26182   2.409   4.521  17.328 -0.2806 -0.2190 -0.4605
 4850SOL    HW126183   2.354   4.598  17.345 -0.0680  0.1245 -1.3017
 4850SOL    HW226184   2.474   4.565  17.273 -0.8464  1.7156  0.3789
 4851SOL     OW26185   0.873   4.094   9.629 -0.6495 -0.0915 -0.4673
 4851SOL    HW126186   0.848   4.167   9.573 -1.7834  0.7711  1.1531
 4851SOL    HW226187   0.830   4.121   9.711  0.3458 -0.3025  0.1277
 4852SOL     OW26188   2.624   4.578   2.099  0.5074  0.1308 -0.0626
 4852SOL    HW126189   2.535   4.587   2.133  0.5397 -1.0934  0.3620
 4852SOL    HW226190   2.610   4.544   2.010  0.9658 -1.8835  0.6395
 4853SOL     OW26191   4.256   1.936   3.793 -0.0746  0.3766  0.3281
 4853SOL    HW126192   4.241   1.842   3.776  2.1148 -0.1610  1.3855
 4853SOL    HW226193   4.216   1.974   3.715  1.5046 -1.8581 -1.5963
 4854SOL     OW26194   1.242   0.898   2.369  0.2890 -0.1863  0.5666
 4854SOL    HW126195   1.265   0.957   2.297 -1.2970 -0.3046 -0.0446
 4854SOL    HW226196   1.269   0.818   2.325  1.8012 -0.3222  1.7231
 4855SOL     OW26197   3.237   2.827   5.613  0.2403  0.0654 -0.2239
 4855SOL    HW126198   3.225   2.895   5.546  0.0523  2.3944  2.1938
 4855SOL    HW226199   3.257   2.872   5.695 -0.1345 -0.4221  0.1375
 4856SOL     OW26200   1.606   4.054  12.167 -0.5873  0.3091  0.3648
 4856SOL    HW126201   1.637   4.132  12.214  0.9773  0.7479 -1.4236
 4856SOL    HW226202   1.656   4.069  12.087  2.3309 -0.5662  2.0190
 4857SOL     OW26203   1.157   1.059   5.445 -0.5416 -0.3856  0.1889
 4857SOL    HW126204   1.222   1.015   5.500  0.5630 -1.2429 -1.7961
 4857SOL    HW226205   1.200   1.065   5.360 -0.0624  0.8206  0.5223
 4858SOL     OW26206   0.391   0.225   5.981  0.2017  0.3831 -0.2560
 4858SOL    HW126207   0.428   0.256   6.064  1.0541  0.5608 -0.6991
 4858SOL    HW226208   0.360   0.141   6.014 -0.6207  0.8810  0.2371
 4859SOL     OW26209   0.273   0.841  10.583 -0.0934 -0.6919 -0.2728
 4859SOL    HW126210   0.216   0.775  10.624 -1.3356 -0.7460 -2.0638
 4859SOL    HW226211   0.219   0.860  10.506  2.6448  1.3144 -1.6795
 4860SOL     OW26212   1.118   4.037  17.044 -0.0687 -0.8278 -0.3414
 4860SOL    HW126213   1.061   4.096  16.995  0.5617  0.0107 -0.0528
 4860SOL    HW226214   1.203   4.074  17.020 -0.6668 -1.6499 -3.8260
 4861SOL     OW26215   2.628   2.695  16.785  0.0414 -0.0154 -0.0336
 4861SOL    HW126216   2.602   2.617  16.835 -3.0587  0.3179 -1.1247
 4861SOL    HW226217   2.637   2.655  16.699 -1.7980 -1.2544  0.3455
 4862SOL     OW26218   2.342   3.882   6.627 -0.2087 -0.1463 -0.3596
 4862SOL    HW126219   2.259   3.883   6.580  0.3575 -1.2756 -1.3634
 4862SOL    HW226220   2.398   3.895   6.551  1.9567  1.7175  1.5188
 4863SOL     OW26221   0.829   0.320  16.848  0.0973  0.3437 -0.4420
 4863SOL    HW126222   0.796   0.380  16.782  1.4074 -1.2951 -2.5575
 4863SOL    HW226223   0.818   0.239  16.799 -2.1207 -0.0597  0.6919
 4864SOL     OW26224   0.831   1.120   8.464 -0.0415 -0.0187 -0.5926
 4864SOL    HW126225   0.793   1.151   8.547  0.8213 -0.0465 -0.1813
 4864SOL    HW226226   0.863   1.033   8.488  0.0621  1.0355  3.0940
 4865SOL     OW26227   3.552   2.325  17.693  0.4484 -0.3176 -0.7373
 4865SOL    HW126228   3.476   2.305   0.009 -0.3265  0.3221 -1.5785
 4865SOL    HW226229   3.587   2.239  17.671 -0.8929 -1.4155  1.3943
 4866SOL     OW26230   1.835   2.422  13.463  0.3734  0.0465 -0.0732
 4866SOL    HW126231   1.846   2.400  13.555 -0.9668 -1.0717 -0.1801
 4866SOL    HW226232   1.750   2.378  13.459 -0.3066  1.5162 -2.6216
 4867SOL     OW26233   3.871   2.254   2.866 -0.1993  0.2452 -0.3917
 4867SOL    HW126234   3.963   2.270   2.884  0.1093 -0.7549 -1.1020
 4867SOL    HW226235   3.873   2.162   2.890  1.4091  0.6795  1.1075
 4868SOL     OW26236   0.041   0.363   4.787 -0.4714  0.7329 -0.1415
 4868SOL    HW126237   0.094   0.372   4.708 -0.2944 -1.1716 -0.2345
 4868SOL    HW226238   0.043   0.454   4.815 -0.0488  0.7029 -0.0717
 4869SOL     OW26239   2.291   1.660   2.938  0.0409 -0.1230 -0.6673
 4869SOL    HW126240   2.384   1.653   2.959  0.1266 -2.6227 -1.9230
 4869SOL    HW226241   2.285   1.753   2.916 -1.1930 -0.5445 -2.0608
 4870SOL     OW26242   4.631   2.603   5.705  0.0293 -0.3521 -0.5690
 4870SOL    HW126243   4.640   2.529   5.646  0.6613  0.1404 -1.0918
 4870SOL    HW226244   4.559   2.646   5.660  1.4512  0.7456 -1.8046
 4871SOL     OW26245   1.552   0.642   4.623  0.6135 -0.0538 -0.0873
 4871SOL    HW126246   1.643   0.667   4.640 -0.1656  0.9252  2.5268
 4871SOL    HW226247   1.506   0.704   4.679 -2.1109  0.1671 -2.5539
 4872SOL     OW26248   4.473   0.237  11.162 -0.1946  0.7188  0.3968
 4872SOL    HW126249   4.439   0.308  11.108 -0.9564  0.0790  0.0392
 4872SOL    HW226250   4.549   0.210  11.111  0.7750  2.2617  1.0175
 4873SOL     OW26251   1.385   2.064   7.419 -0.1598  0.0436  0.5629
 4873SOL    HW126252   1.430   2.007   7.481 -0.3812 -0.5847  0.1482
 4873SOL    HW226253   1.405   2.018   7.337 -1.9505  0.7990 -0.3065
 4874SOL     OW26254   2.960   0.967   5.649  0.6000 -0.1926  0.1624
 4874SOL    HW126255   2.979   1.004   5.563  0.3976 -1.2763 -0.3473
 4874SOL    HW226256   2.982   1.035   5.712 -1.5707 -1.5343  2.3714
 4875SOL     OW26257   2.934   2.856   3.236 -0.0621  0.0616  0.5136
 4875SOL    HW126258   2.846   2.836   3.203  0.0653  2.2373 -1.0864
 4875SOL    HW226259   2.897   2.842   3.324  2.1012 -1.2897  1.1985
 4876SOL     OW26260   4.335   0.481  11.502  0.5677  0.6096 -0.1077
 4876SOL    HW126261   4.247   0.518  11.510  1.1681  1.5777  1.8597
 4876SOL    HW226262   4.369   0.519  11.421  0.2640 -0.0607 -0.5539
 4877SOL     OW26263   4.602   3.909   4.364  0.1139  0.4588  1.2652
 4877SOL    HW126264   4.571   3.949   4.446  0.0386  0.4009  1.2647
 4877SOL    HW226265   4.514   3.899   4.327  0.3086  0.9084  0.6742
 4878SOL     OW26266   4.387   3.754   7.276 -0.5254 -0.6167 -0.6145
 4878SOL    HW126267   4.406   3.790   7.189 -0.2639 -1.0686 -0.7434
 4878SOL    HW226268   4.355   3.667   7.254  0.4846 -1.2918  0.6036
 4879SOL     OW26269   4.584   4.060   2.654  0.1180 -0.1573 -0.3527
 4879SOL    HW126270   4.625   4.058   2.568  1.9620 -1.8454  0.5455
 4879SOL    HW226271   4.604   4.148   2.688  1.6383 -0.7269  0.2173
 4880SOL     OW26272   1.315   0.670  14.235 -0.4520 -0.4070  0.5844
 4880SOL    HW126273   1.391   0.666  14.178 -0.4875  3.0320  0.2573
 4880SOL    HW226274   1.344   0.608  14.301  2.1486  1.3392  1.0817
 4881SOL     OW26275   0.777   1.902   7.686  0.4166  0.9301  0.4909
 4881SOL    HW126276   0.761   1.902   7.781  0.8266 -0.8359  0.5560
 4881SOL    HW226277   0.746   1.990   7.667  0.6701  1.0408  0.5905
 4882SOL     OW26278   3.719   0.493   4.951 -0.4220 -0.2814 -0.1272
 4882SOL    HW126279   3.767   0.413   4.930 -0.2108  0.2720 -1.7647
 4882SOL    HW226280   3.653   0.495   4.881  0.1254 -0.2916 -0.6404
 4883SOL     OW26281   3.033   4.429   4.732 -0.6232 -0.3697  0.7660
 4883SOL    HW126282   2.967   4.376   4.777 -1.7105  0.0093 -0.3844
 4883SOL    HW226283   3.016   4.419   4.638  0.2794 -0.3217  0.5976
 4884SOL     OW26284   2.584   2.297   9.154  0.3486 -0.1629  0.0396
 4884SOL    HW126285   2.552   2.270   9.240 -0.3191 -1.0332 -0.4782
 4884SOL    HW226286   2.493   2.293   9.122  0.7637 -1.4813 -0.9793
 4885SOL     OW26287   0.371   1.567   2.632  0.2459 -0.5615 -0.4739
 4885SOL    HW126288   0.421   1.601   2.559 -2.1123 -1.1688 -2.3807
 4885SOL    HW226289   0.285   1.606   2.615  0.3670  1.1325  2.7475
 4886SOL     OW26290   3.414   0.571   9.249  0.0248  0.3396 -0.6466
 4886SOL    HW126291   3.478   0.567   9.178 -0.6982 -3.5582 -1.0758
 4886SOL    HW226292   3.340   0.523   9.212  0.6567 -0.9496 -0.2529
 4887SOL     OW26293   0.658   3.004  10.926  0.8774  0.3373 -0.3541
 4887SOL    HW126294   0.735   3.048  10.963  1.3951 -1.0183  0.1824
 4887SOL    HW226295   0.622   2.972  11.009  3.3662  1.0675  1.0456
 4888SOL     OW26296   1.576   4.193   1.354  0.0084  0.0668  0.1024
 4888SOL    HW126297   1.628   4.123   1.393  3.4405  2.0160 -0.9163
 4888SOL    HW226298   1.489   4.156   1.369  0.2990 -1.3597 -1.7409
 4889SOL     OW26299   2.435   3.021  16.237 -0.0864 -0.3280 -0.1438
 4889SOL    HW126300   2.506   3.084  16.231  1.8912 -2.7765 -2.4895
 4889SOL    HW226301   2.443   3.000  16.330 -1.2599 -0.2789 -0.0326
 4890SOL     OW26302   2.671   0.218  14.600  0.1364  0.1508  0.3418
 4890SOL    HW126303   2.644   0.157  14.532  1.4986 -0.4091  0.3058
 4890SOL    HW226304   2.592   0.272  14.599  0.4299  0.5389 -1.8811
 4891SOL     OW26305   3.878   4.170  10.338  0.3055 -0.0850 -0.3540
 4891SOL    HW126306   3.841   4.116  10.407  2.9534 -1.9798 -0.3793
 4891SOL    HW226307   3.820   4.245  10.331 -0.8417 -1.1277 -1.9527
 4892SOL     OW26308   2.807   0.725   7.954 -0.2486  0.3552 -0.2249
 4892SOL    HW126309   2.868   0.714   8.027 -0.8992 -1.8488  0.0015
 4892SOL    HW226310   2.800   0.641   7.909 -1.7256  0.1209  0.4384
 4893SOL     OW26311   3.237   2.738   5.260 -1.2263 -0.3062 -0.0436
 4893SOL    HW126312   3.181   2.675   5.215 -0.9570  0.0650 -0.9048
 4893SOL    HW226313   3.285   2.774   5.185 -0.6862  0.6244  0.7489
 4894SOL     OW26314   2.872   3.087   2.389  0.3714  0.4029  0.9323
 4894SOL    HW126315   2.937   3.062   2.455  0.8608  2.5280  1.2785
 4894SOL    HW226316   2.872   3.006   2.339 -0.5845  1.0515 -0.1397
 4895SOL     OW26317   2.655   4.039   5.384  0.4137  0.3280  0.0103
 4895SOL    HW126318   2.648   3.977   5.456  4.2586  0.6282  0.6863
 4895SOL    HW226319   2.642   3.971   5.319 -1.6656  0.4718  0.2812
 4896SOL     OW26320   3.398   0.267   5.665 -0.3032  0.0673 -0.0926
 4896SOL    HW126321   3.489   0.273   5.637 -0.3889  1.0604 -0.1516
 4896SOL    HW226322   3.367   0.356   5.648 -1.6744 -0.2966  0.5753
 4897SOL     OW26323   4.432   2.306   1.959 -0.2159 -0.6627  0.1544
 4897SOL    HW126324   4.452   2.269   1.874 -0.5049  0.7820 -0.5476
 4897SOL    HW226325   4.481   2.245   2.014 -0.8843 -1.3941 -0.0643
 4898SOL     OW26326   0.204   3.464   5.461  0.5579 -0.4105  0.3568
 4898SOL    HW126327   0.273   3.477   5.396  0.0122  1.6143  0.1924
 4898SOL    HW226328   0.243   3.398   5.518  1.2594  0.4297  0.8361
 4899SOL     OW26329   3.500   3.207  13.471 -0.0418 -0.7936 -0.6284
 4899SOL    HW126330   3.578   3.232  13.521  0.7258 -1.5381 -1.4611
 4899SOL    HW226331   3.497   3.268  13.398  3.1560 -0.8827 -0.8447
 4900SOL     OW26332   4.104   2.562  11.548  0.3005 -0.1078  0.5605
 4900SOL    HW126333   4.169   2.630  11.570  0.9128 -0.1309 -1.1698
 4900SOL    HW226334   4.125   2.553  11.455  0.8583 -2.2101  0.8947
 4901SOL     OW26335   1.908   3.974  11.467 -0.4060 -0.1578  0.1668
 4901SOL    HW126336   1.921   4.018  11.383  0.9239 -0.1512  0.3653
 4901SOL    HW226337   1.823   3.934  11.450  0.6775 -2.0220 -0.8416
 4902SOL     OW26338   1.381   2.057   4.408  0.6093  0.3840 -0.3276
 4902SOL    HW126339   1.325   2.006   4.466 -0.1578 -0.5013 -1.8681
 4902SOL    HW226340   1.386   1.998   4.333  0.8443 -1.3253  1.0433
 4903SOL     OW26341   3.334   1.530   8.315 -0.7328 -1.1569  0.7513
 4903SOL    HW126342   3.287   1.462   8.364  0.1971 -1.7311  0.8467
 4903SOL    HW226343   3.413   1.479   8.296 -2.5113 -3.6864  0.1742
 4904SOL     OW26344   0.937   2.897  11.954 -0.0063  0.7991  0.4800
 4904SOL    HW126345   0.930   2.826  11.891 -0.1899 -0.5670  2.0235
 4904SOL    HW226346   1.020   2.929  11.921 -0.1264 -0.9508 -1.5191
 4905SOL     OW26347   3.301   3.295   2.654  0.0543 -0.0720  0.7303
 4905SOL    HW126348   3.267   3.291   2.564  1.1041 -1.6705  0.3937
 4905SOL    HW226349   3.349   3.378   2.650  0.1549 -0.1487  0.2532
 4906SOL     OW26350   0.022   3.247   5.278  0.0444  0.4707  0.3669
 4906SOL    HW126351   0.054   3.225   5.190 -0.0922  1.1657  0.1416
 4906SOL    HW226352   0.105   3.255   5.325  0.3471 -0.1702 -0.0589
 4907SOL     OW26353   1.549   3.126   8.517  0.4889 -0.4980 -0.1843
 4907SOL    HW126354   1.513   3.214   8.511  0.6129 -0.3258  1.4815
 4907SOL    HW226355   1.536   3.105   8.610 -2.8503  0.3985 -0.4360
 4908SOL     OW26356   0.824   0.247   7.907  0.4474 -0.3794  0.0108
 4908SOL    HW126357   0.817   0.180   7.839 -0.7639 -0.8815  0.6346
 4908SOL    HW226358   0.807   0.327   7.857 -0.2662 -0.5689 -0.0470
 4909SOL     OW26359   0.219   1.972   0.373 -0.2150  0.3384 -0.2235
 4909SOL    HW126360   0.271   1.957   0.452 -0.0606 -1.2728 -0.6214
 4909SOL    HW226361   0.281   1.952   0.302 -2.2373  0.7732 -2.1311
 4910SOL     OW26362   0.924   1.730   4.107  0.0935 -0.3980 -0.0124
 4910SOL    HW126363   0.909   1.648   4.059 -1.1885  0.1122 -0.5040
 4910SOL    HW226364   0.971   1.780   4.041 -0.9405 -0.5868 -0.9109
 4911SOL     OW26365   3.734   3.818  10.381  0.3723 -0.2233  0.9061
 4911SOL    HW126366   3.819   3.774  10.388  1.3945  1.3163 -1.6764
 4911SOL    HW226367   3.752   3.910  10.400  0.0183  0.1942 -0.7510
 4912SOL     OW26368   1.975   3.541   4.289  0.3972  0.6111  0.2432
 4912SOL    HW126369   1.974   3.480   4.363 -2.8412  0.7710  0.3279
 4912SOL    HW226370   1.958   3.629   4.325 -1.4493 -0.0933  1.0801
 4913SOL     OW26371   0.370   1.773   3.529  0.3165 -0.4189  0.4195
 4913SOL    HW126372   0.394   1.854   3.484 -1.1179  0.1228  0.6319
 4913SOL    HW226373   0.442   1.754   3.588 -0.9107 -1.6126  1.5215
 4914SOL     OW26374   4.159   0.174   5.812  0.0327 -0.3381  0.2710
 4914SOL    HW126375   4.125   0.092   5.850  0.9537 -0.7509  0.2031
 4914SOL    HW226376   4.250   0.146   5.816  0.6017  1.5703  0.2227
 4915SOL     OW26377   1.800   0.740   2.824 -0.3920 -0.0465  0.2510
 4915SOL    HW126378   1.722   0.795   2.827  0.5516  1.1981  1.5247
 4915SOL    HW226379   1.860   0.780   2.761  0.1255 -1.4759 -0.1880
 4916SOL     OW26380   0.530   3.637  11.206  0.2922 -0.2498  0.1026
 4916SOL    HW126381   0.597   3.585  11.161  1.5228  1.0043  0.4728
 4916SOL    HW226382   0.534   3.720  11.159  0.0589  0.2056  0.8915
 4917SOL     OW26383   2.720   0.297  15.950  0.2624  0.8611 -0.5328
 4917SOL    HW126384   2.703   0.203  15.952 -0.5156  0.9654 -1.5771
 4917SOL    HW226385   2.692   0.310  15.859  1.0336  2.2580 -0.5607
 4918SOL     OW26386   2.669   3.183   6.881  0.0049  0.2621  0.3488
 4918SOL    HW126387   2.725   3.259   6.895 -1.2624  1.4386 -0.9733
 4918SOL    HW226388   2.582   3.222   6.866 -0.4072 -0.3769  1.0642
 4919SOL     OW26389   1.113   1.831  14.806  0.3828 -0.1158 -0.3941
 4919SOL    HW126390   1.097   1.862  14.717 -1.3448  1.5839  0.4999
 4919SOL    HW226391   1.180   1.894  14.834  1.6471 -2.4726  1.9070
 4920SOL     OW26392   3.474   2.881   9.346  0.1786 -0.0350 -0.5794
 4920SOL    HW126393   3.506   2.794   9.324  0.0922  0.1763 -1.5583
 4920SOL    HW226394   3.554   2.911   9.388  1.1149 -0.6594 -1.9087
 4921SOL     OW26395   1.328   3.427   4.145 -0.0309 -0.3241  0.1791
 4921SOL    HW126396   1.399   3.482   4.111 -0.6209  0.5067  0.2703
 4921SOL    HW226397   1.282   3.487   4.204 -0.1618  1.3762 -1.6483
 4922SOL     OW26398   0.303   2.947  10.961  0.1066  0.9124  0.1415
 4922SOL    HW126399   0.303   2.854  10.985 -0.2866  1.2885  1.6118
 4922SOL    HW226400   0.312   2.948  10.866 -1.3311 -0.0210  0.0036
 4923SOL     OW26401   3.764   3.731   1.481 -0.4758  0.3669  0.9772
 4923SOL    HW126402   3.724   3.722   1.567  0.6470 -1.3761  1.3145
 4923SOL    HW226403   3.845   3.682   1.493  0.4494  1.2906 -1.4267
 4924SOL     OW26404   3.321   1.126   6.455 -0.4104  0.2420  0.9166
 4924SOL    HW126405   3.370   1.203   6.482  2.2933 -1.5236  1.0567
 4924SOL    HW226406   3.303   1.150   6.364 -0.5970 -2.3553  0.2624
 4925SOL     OW26407   1.883   3.128   6.200 -0.5581  0.3458 -0.2682
 4925SOL    HW126408   1.790   3.107   6.194 -0.6377  0.4045  0.7505
 4925SOL    HW226409   1.920   3.070   6.267 -0.4519  0.5250 -0.1726
 4926SOL     OW26410   3.444   1.291   3.398  0.0005 -0.1761 -0.6891
 4926SOL    HW126411   3.472   1.279   3.489 -0.0616  1.0427 -0.5009
 4926SOL    HW226412   3.368   1.234   3.398  1.3508 -1.9772  0.1930
 4927SOL     OW26413   4.661   1.063   2.318  0.8041 -0.5338  0.2364
 4927SOL    HW126414   4.721   1.103   2.255 -2.5866  1.4573 -1.6972
 4927SOL    HW226415   4.723   0.999   2.352  1.2139 -0.5971 -0.6320
 4928SOL     OW26416   2.053   1.442   5.888  0.2761 -0.3046  0.2754
 4928SOL    HW126417   2.051   1.501   5.813 -0.3257 -1.0722 -0.3064
 4928SOL    HW226418   1.959   1.424   5.899  0.8059 -3.3273 -0.1694
 4929SOL     OW26419   3.694   2.069   8.052  0.2761  0.2148 -0.1923
 4929SOL    HW126420   3.686   1.976   8.076  2.1296  0.3970  1.1775
 4929SOL    HW226421   3.780   2.071   8.009  1.8960  0.5603  3.0176
 4930SOL     OW26422   3.822   4.304   8.032 -0.3929 -0.3156  0.2920
 4930SOL    HW126423   3.800   4.352   8.111  0.3708  1.8649 -0.8314
 4930SOL    HW226424   3.770   4.354   7.969  0.8901 -1.1824 -1.4643
 4931SOL     OW26425   3.787   0.773   8.163 -0.0202  0.2721 -0.1217
 4931SOL    HW126426   3.804   0.866   8.149  0.1816 -0.2645 -3.3593
 4931SOL    HW226427   3.880   0.753   8.172  0.0028  0.6448  0.4364
 4932SOL     OW26428   2.068   3.237   3.240  0.1261 -0.2067  0.4437
 4932SOL    HW126429   2.160   3.260   3.253  0.8263 -2.3575 -0.6478
 4932SOL    HW226430   2.078   3.184   3.161 -0.6415  0.4324 -0.0884
 4933SOL     OW26431   2.668   2.534   6.821  0.0660  0.1146  0.1808
 4933SOL    HW126432   2.578   2.555   6.847  0.0319  0.2891 -0.0830
 4933SOL    HW226433   2.675   2.441   6.843 -1.6873  0.1795  1.0099
 4934SOL     OW26434   0.109   0.038   8.032  0.0639 -0.1010 -0.3008
 4934SOL    HW126435   0.176   0.070   8.094  0.4437  1.3687 -1.4746
 4934SOL    HW226436   0.114   0.098   7.958  0.0756  0.3763  0.0861
 4935SOL     OW26437   4.414   1.666   4.579 -0.2411  0.1025 -0.3342
 4935SOL    HW126438   4.459   1.611   4.642 -1.9100 -1.2376 -0.2992
 4935SOL    HW226439   4.321   1.649   4.598 -0.7681  1.1500 -1.9412
 4936SOL     OW26440   3.933   1.671   8.451 -0.5227 -0.1938  0.2133
 4936SOL    HW126441   3.845   1.644   8.426 -0.9435  0.6070  0.8408
 4936SOL    HW226442   3.912   1.745   8.507 -4.1803 -0.2027 -1.1291
 4937SOL     OW26443   3.582   2.187   3.838  0.0847  0.1905  0.2482
 4937SOL    HW126444   3.646   2.225   3.779  0.3779 -1.1236 -0.2909
 4937SOL    HW226445   3.652   2.147   3.889  1.4767  1.1072 -0.9367
 4938SOL     OW26446   1.121   2.927   8.167 -0.1594 -0.1815  0.0918
 4938SOL    HW126447   1.094   2.836   8.151 -2.2163  0.5101 -0.4311
 4938SOL    HW226448   1.042   2.981   8.174  0.5546  0.8745  0.0235
 4939SOL     OW26449   2.334   1.225  16.845 -0.4978 -0.1911 -0.1584
 4939SOL    HW126450   2.361   1.223  16.936  0.4667 -0.3032 -0.4494
 4939SOL    HW226451   2.264   1.159  16.851 -0.3995 -0.1356  1.5875
 4940SOL     OW26452   1.829   3.609   6.910  0.3520  0.4658 -0.5642
 4940SOL    HW126453   1.783   3.628   6.992 -0.4195  1.0468 -1.1425
 4940SOL    HW226454   1.796   3.521   6.890  0.6329 -0.1129  1.4418
 4941SOL     OW26455   3.432   1.538   1.259 -0.1438  0.6285 -0.2887
 4941SOL    HW126456   3.389   1.456   1.233 -0.6545  0.7829  0.0732
 4941SOL    HW226457   3.486   1.508   1.331  0.8127  0.6516 -0.9933
 4942SOL     OW26458   3.896   1.591   9.013 -0.2533  0.0543  0.3503
 4942SOL    HW126459   3.813   1.639   9.012  1.2931  2.6699  0.5583
 4942SOL    HW226460   3.941   1.634   9.085  0.8160 -1.8695  0.8492
 4943SOL     OW26461   4.495   4.049  17.100  0.3840  0.2902 -0.3198
 4943SOL    HW126462   4.422   4.090  17.053  0.1080  2.5739  2.0398
 4943SOL    HW226463   4.568   4.107  17.081  1.7778 -1.0713  0.9319
 4944SOL     OW26464   1.316   2.767   2.443  0.1759  0.2148 -0.3585
 4944SOL    HW126465   1.388   2.726   2.396  1.6507 -0.5514  2.5366
 4944SOL    HW226466   1.256   2.774   2.369  1.6728 -2.6543 -1.8460
 4945SOL     OW26467   0.808   3.884   0.698 -0.0282 -0.3229 -0.1805
 4945SOL    HW126468   0.866   3.921   0.632  0.6169 -1.9449 -0.5308
 4945SOL    HW226469   0.781   3.815   0.637  0.2744 -0.1266 -0.5349
 4946SOL     OW26470   2.592   1.480   4.305 -1.0308  0.0901  0.8430
 4946SOL    HW126471   2.663   1.543   4.294 -0.7739 -0.1269  1.2728
 4946SOL    HW226472   2.531   1.529   4.359  0.0290  0.4949  1.6880
 4947SOL     OW26473   1.933   0.241   3.062 -0.1425  0.2539  0.2634
 4947SOL    HW126474   1.934   0.204   2.973  1.7476  2.5611 -0.6792
 4947SOL    HW226475   1.908   0.332   3.046 -1.4544 -0.5322 -2.2663
 4948SOL     OW26476   3.394   0.922   6.709  0.1650  0.5749  0.2269
 4948SOL    HW126477   3.418   0.846   6.761  3.3790  0.7043 -1.0748
 4948SOL    HW226478   3.312   0.890   6.671  0.2502  0.4939  0.1114
 4949SOL     OW26479   0.287   0.566   8.197  0.1523 -0.4352  0.3063
 4949SOL    HW126480   0.362   0.606   8.241 -0.6053  1.5492 -0.2520
 4949SOL    HW226481   0.318   0.475   8.201  2.3217  0.2973  0.4153
 4950SOL     OW26482   0.479   0.554   3.373 -0.8492 -0.4856 -0.2449
 4950SOL    HW126483   0.538   0.576   3.446 -2.0560 -0.3497  0.6885
 4950SOL    HW226484   0.465   0.643   3.343 -1.4722 -0.2238  0.8049
 4951SOL     OW26485   0.353   2.196   0.203 -0.6017  0.1237 -0.3091
 4951SOL    HW126486   0.348   2.208   0.298  1.4971 -0.2701 -0.1618
 4951SOL    HW226487   0.272   2.240   0.179  1.0350  0.7942 -4.5226
 4952SOL     OW26488   3.616   3.475  16.874 -0.0121  0.2421  0.0222
 4952SOL    HW126489   3.520   3.473  16.870 -0.1090 -0.0843  2.9187
 4952SOL    HW226490   3.640   3.568  16.874 -0.0873  0.2590 -1.7705
 4953SOL     OW26491   0.510   0.850  17.380 -0.4727  0.0590  0.7221
 4953SOL    HW126492   0.456   0.911  17.430  0.2847  0.0639  1.5408
 4953SOL    HW226493   0.586   0.908  17.372  0.8370 -1.9564 -1.5339
 4954SOL     OW26494   4.215   2.892   8.858  0.0546 -0.4257  0.2783
 4954SOL    HW126495   4.213   2.858   8.768 -0.3801  1.5868 -0.4893
 4954SOL    HW226496   4.273   2.968   8.853 -0.1896 -0.1509  1.8383
 4955SOL     OW26497   3.086   0.413   2.618  0.0950 -0.1852 -0.5015
 4955SOL    HW126498   3.082   0.321   2.642  1.0973  0.2270  1.1935
 4955SOL    HW226499   3.168   0.436   2.661 -0.8150  1.2923  0.4625
 4956SOL     OW26500   4.371   3.301   9.065  0.0891  0.2748  0.3647
 4956SOL    HW126501   4.275   3.300   9.073 -0.0571  0.5159 -1.2185
 4956SOL    HW226502   4.387   3.309   8.971 -1.0274  1.2885  0.2523
 4957SOL     OW26503   4.527   2.378   1.549  0.1895  0.4324 -0.1013
 4957SOL    HW126504   4.520   2.473   1.553  0.5271  0.3263  3.1619
 4957SOL    HW226505   4.457   2.339   1.602 -2.0619 -1.1631 -4.1950
 4958SOL     OW26506   2.897   2.969   6.842 -0.4787  0.3728 -0.6570
 4958SOL    HW126507   2.866   3.051   6.881  0.3604  1.0178 -1.3569
 4958SOL    HW226508   2.845   2.902   6.886 -0.7038  0.9494 -0.0393
 4959SOL     OW26509   1.686   1.614   7.017 -0.0272 -0.4140 -0.3416
 4959SOL    HW126510   1.774   1.579   7.007  0.6044  0.7846  0.9641
 4959SOL    HW226511   1.695   1.630   7.111 -0.2308 -1.9823 -0.0527
 4960SOL     OW26512   1.665   3.093  16.396 -0.2270 -0.5852  0.4613
 4960SOL    HW126513   1.617   3.015  16.423 -1.4775  1.0265  2.9102
 4960SOL    HW226514   1.588   3.150  16.398 -0.2543 -0.7124  2.3179
 4961SOL     OW26515   0.606   3.912   8.500  0.4941 -0.3211  0.0035
 4961SOL    HW126516   0.589   3.880   8.411 -1.4078 -0.0306  0.2649
 4961SOL    HW226517   0.701   3.926   8.499  0.1811  1.9966  1.2314
 4962SOL     OW26518   0.346   2.673   5.759 -0.2060  0.3259  0.1021
 4962SOL    HW126519   0.257   2.698   5.737 -0.5901 -0.7125  0.4563
 4962SOL    HW226520   0.332   2.644   5.849 -2.3227  1.1106  0.0122
 4963SOL     OW26521   4.026   1.725   9.208 -0.6919 -0.3496 -0.2227
 4963SOL    HW126522   4.044   1.780   9.283 -0.1358 -3.6218  2.0437
 4963SOL    HW226523   4.108   1.676   9.198 -0.1403  0.7208 -0.9676
 4964SOL     OW26524   3.961   1.376  16.835  0.4614 -0.5742  0.4518
 4964SOL    HW126525   4.009   1.444  16.883 -0.1717  1.2352 -1.5204
 4964SOL    HW226526   3.869   1.401  16.832  0.0682 -2.0953 -0.1950
 4965SOL     OW26527   4.271   3.819   8.076  0.2819 -0.7211  0.0658
 4965SOL    HW126528   4.284   3.903   8.121  0.0510 -0.8433  0.3549
 4965SOL    HW226529   4.320   3.837   7.995 -3.1713 -0.1501 -1.8969
 4966SOL     OW26530   0.764   3.724  14.819 -0.6481  0.1020 -0.0154
 4966SOL    HW126531   0.846   3.703  14.864 -1.9727 -2.7390  1.0591
 4966SOL    HW226532   0.803   3.759  14.738 -2.7337 -0.5153 -1.2718
 4967SOL     OW26533   1.587   2.716   3.610 -0.3074 -0.2604  0.1980
 4967SOL    HW126534   1.539   2.636   3.588  0.0318 -0.3445 -0.2277
 4967SOL    HW226535   1.517   2.781   3.618 -1.9771 -2.0380  0.1830
 4968SOL     OW26536   2.748   3.323   3.952 -0.0592 -0.1542 -0.5075
 4968SOL    HW126537   2.790   3.297   4.034  0.8580  0.2639 -0.8463
 4968SOL    HW226538   2.702   3.404   3.975  2.4119  1.9022 -2.8209
 4969SOL     OW26539   2.051   0.401   2.326 -0.2889 -0.5466 -0.2002
 4969SOL    HW126540   2.122   0.341   2.344  1.0981  1.7711  2.0735
 4969SOL    HW226541   2.084   0.464   2.262 -1.0056 -0.3361 -0.3693
 4970SOL     OW26542   0.816   2.141  15.831  0.1287  0.1418  0.2490
 4970SOL    HW126543   0.737   2.092  15.810 -0.1889  0.6326  0.2871
 4970SOL    HW226544   0.808   2.213  15.768 -0.7053  0.0728  0.2789
 4971SOL     OW26545   4.537   4.112   0.498  0.3371 -0.5742  0.2443
 4971SOL    HW126546   4.626   4.091   0.526  0.6869  0.0803 -0.3698
 4971SOL    HW226547   4.483   4.034   0.517  1.5086 -1.3516  0.3768
 4972SOL     OW26548   0.326   0.510   7.479 -0.0188  0.0903  0.0565
 4972SOL    HW126549   0.343   0.604   7.481  1.4737 -0.1473 -1.8167
 4972SOL    HW226550   0.404   0.470   7.519  0.6988  0.4290 -1.0309
 4973SOL     OW26551   2.783   0.955   8.975  0.5130  0.0500 -0.1435
 4973SOL    HW126552   2.739   1.040   8.976  1.5513  0.5993 -1.7941
 4973SOL    HW226553   2.867   0.983   9.011  0.6347 -1.2302  0.5853
 4974SOL     OW26554   0.025   3.349  14.568  0.3331 -0.2391  0.4812
 4974SOL    HW126555   4.713   3.342  14.651  0.5543  1.0591  0.7036
 4974SOL    HW226556   0.076   3.428  14.584  0.6657 -0.3229 -0.1682
 4975SOL     OW26557   0.583   3.847   3.887  0.1364 -0.0361 -0.0065
 4975SOL    HW126558   0.514   3.824   3.949 -1.9925  1.3587 -1.8492
 4975SOL    HW226559   0.538   3.860   3.804  1.2145  0.0373 -0.5774
 4976SOL     OW26560   4.534   0.943  15.501  0.5552 -0.1535 -0.1917
 4976SOL    HW126561   4.474   0.981  15.564  2.3098  2.3474 -0.0361
 4976SOL    HW226562   4.609   0.923  15.558 -1.0285  1.2009  2.3523
 4977SOL     OW26563   0.311   0.978  13.743 -0.1176 -0.3447 -0.0501
 4977SOL    HW126564   0.274   0.897  13.709 -1.1189  0.1544 -0.1433
 4977SOL    HW226565   0.259   0.991  13.823 -2.0865 -0.2088 -1.3493
 4978SOL     OW26566   4.311   2.947   7.120 -0.1736  0.3528  0.8883
 4978SOL    HW126567   4.308   3.042   7.114 -1.1979  0.1344 -1.9669
 4978SOL    HW226568   4.226   2.925   7.157 -0.8366 -0.8870 -1.3354
 4979SOL     OW26569   4.458   4.472   5.375 -0.1819  0.1146  0.0038
 4979SOL    HW126570   4.453   4.518   5.291 -1.9037 -0.9246 -0.4852
 4979SOL    HW226571   4.550   4.485   5.395 -0.0424  0.7729 -1.0930
 4980SOL     OW26572   0.863   2.865   0.007  0.3425 -0.1899 -0.2092
 4980SOL    HW126573   0.855   2.930  17.676  0.0228  0.5667  0.5444
 4980SOL    HW226574   0.929   2.900   0.067 -0.3583 -0.7141  0.8643
 4981SOL     OW26575   0.212   3.063   3.537 -0.2325  0.0322 -0.2159
 4981SOL    HW126576   0.251   3.139   3.493  0.8292 -0.6506 -0.4556
 4981SOL    HW226577   0.133   3.108   3.569  0.2801  2.4609 -2.2969
 4982SOL     OW26578   2.170   2.847   7.028  0.3170  0.2782 -0.5569
 4982SOL    HW126579   2.211   2.762   7.042 -1.1419 -0.5098 -1.0673
 4982SOL    HW226580   2.244   2.893   6.988  1.9349 -1.4495  0.4429
 4983SOL     OW26581   3.613   2.555   8.283 -0.3616 -0.7435  0.4380
 4983SOL    HW126582   3.616   2.460   8.295 -2.1723 -1.1539 -2.4589
 4983SOL    HW226583   3.688   2.572   8.227 -0.6336 -2.6729 -0.4982
 4984SOL     OW26584   0.347   0.960   7.649  0.0294  0.0322 -0.4643
 4984SOL    HW126585   0.281   0.956   7.718  0.8298 -0.1530  0.2886
 4984SOL    HW226586   0.393   1.042   7.665 -1.7908  0.8371  0.5843
 4985SOL     OW26587   4.532   1.335   2.781 -0.1946 -0.3873 -0.2350
 4985SOL    HW126588   4.503   1.269   2.718 -1.5356  2.5183 -2.6581
 4985SOL    HW226589   4.540   1.280   2.859 -2.1487  1.8888  1.5567
 4986SOL     OW26590   0.968   2.253   4.741 -0.1728  0.1222 -0.5923
 4986SOL    HW126591   1.061   2.273   4.747 -0.3833  0.5693  1.1334
 4986SOL    HW226592   0.927   2.305   4.810 -0.1615 -0.9748  0.2420
 4987SOL     OW26593   2.778   2.227  12.882  0.0035 -0.1603 -0.5788
 4987SOL    HW126594   2.807   2.240  12.972 -1.3066 -0.9598 -0.0413
 4987SOL    HW226595   2.683   2.234  12.891  0.0682  0.7413 -0.6228
 4988SOL     OW26596   4.224   4.090   7.242 -0.6813  0.2938  0.5416
 4988SOL    HW126597   4.231   4.029   7.316  1.3937  0.5520  0.5661
 4988SOL    HW226598   4.130   4.101   7.237 -0.6870 -0.3651 -0.7344
 4989SOL     OW26599   2.317   1.910   5.573  0.4442 -0.0747  0.3122
 4989SOL    HW126600   2.373   1.979   5.610  1.8786 -0.2292 -1.5388
 4989SOL    HW226601   2.371   1.877   5.502 -1.6100 -1.2010 -0.7060
 4990SOL     OW26602   0.663   0.212  12.726  0.3924 -0.2536 -0.1630
 4990SOL    HW126603   0.691   0.299  12.699 -2.8393  1.2475  1.2154
 4990SOL    HW226604   0.649   0.185  12.635  0.5404 -1.7395  0.2411
 4991SOL     OW26605   2.317   0.498   9.033  0.3474  0.1034  0.2340
 4991SOL    HW126606   2.406   0.483   9.062 -0.1281  0.6754  1.9906
 4991SOL    HW226607   2.296   0.409   9.005  3.4670 -0.3063 -0.7341
 4992SOL     OW26608   1.135   4.696   2.281 -0.0613  0.5410 -0.0326
 4992SOL    HW126609   1.206   4.665   2.224 -0.6679  2.0365 -1.6150
 4992SOL    HW226610   1.178   0.040   2.313 -0.6733  0.2301  1.5490
 4993SOL     OW26611   0.715   1.203  16.019 -0.0427 -0.1230  0.8182
 4993SOL    HW126612   0.741   1.134  15.958 -2.6055  1.7181 -2.3235
 4993SOL    HW226613   0.785   1.268  16.018 -1.2734  1.2116  1.3481
 4994SOL     OW26614   2.252   3.871   7.503 -0.0488  0.6293 -0.3815
 4994SOL    HW126615   2.266   3.956   7.544  1.4627  0.1866  0.0295
 4994SOL    HW226616   2.291   3.813   7.568 -1.9526  0.8597  0.9606
 4995SOL     OW26617   3.022   2.292   2.282  0.1153  0.0424  0.4186
 4995SOL    HW126618   3.112   2.322   2.294  0.2031  0.1079 -0.3757
 4995SOL    HW226619   2.979   2.352   2.343  3.2806  1.7529  0.9706
 4996SOL     OW26620   1.548   3.009   4.832  0.0454  0.1733 -0.0683
 4996SOL    HW126621   1.516   3.096   4.810  0.9299  0.6017  0.3345
 4996SOL    HW226622   1.494   2.989   4.909  0.5680 -1.7542 -0.2002
 4997SOL     OW26623   2.398   0.676   6.944  0.0064 -0.0113 -0.1752
 4997SOL    HW126624   2.319   0.704   6.989  0.1931  1.2853 -0.6554
 4997SOL    HW226625   2.357   0.634   6.868 -1.5169 -1.5213  1.4686
 4998SOL     OW26626   2.304   2.428   4.139  0.0023 -0.1470  0.0115
 4998SOL    HW126627   2.340   2.476   4.064  0.3477  0.2046  0.4046
 4998SOL    HW226628   2.367   2.355   4.136 -0.4556 -0.4761 -1.9206
 4999SOL     OW26629   3.514   1.491   4.938  0.2931 -0.1526  0.2387
 4999SOL    HW126630   3.450   1.486   5.009 -1.4176 -0.5388 -1.3359
 4999SOL    HW226631   3.471   1.426   4.882 -1.2372 -0.6680  2.0080
 5000SOL     OW26632   3.456   2.735  14.087 -0.1007  0.2620  0.4324
 5000SOL    HW126633   3.473   2.729  13.993  1.8183  0.0931  0.7921
 5000SOL    HW226634   3.361   2.728  14.078  0.0697 -0.2613 -1.0809
 5001SOL     OW26635   2.908   3.454  13.928 -0.4306  0.3934 -0.3162
 5001SOL    HW126636   2.966   3.382  13.952 -3.1882 -1.4233  0.8979
 5001SOL    HW226637   2.829   3.400  13.931  1.9611 -3.1374 -1.6292
 5002SOL     OW26638   2.236   3.133  12.745 -0.0226  0.0612 -0.8972
 5002SOL    HW126639   2.167   3.147  12.810 -1.5562 -1.1595 -2.2657
 5002SOL    HW226640   2.268   3.044  12.761  0.4034  0.5971  1.1443
 5003SOL     OW26641   3.398   2.477   3.008  0.6396  0.0185 -0.2803
 5003SOL    HW126642   3.348   2.400   2.981  2.2970 -0.5460 -1.7268
 5003SOL    HW226643   3.490   2.457   2.993  0.2007 -1.7438 -0.5960
 5004SOL     OW26644   0.254   1.255   2.450  0.3211  0.3633  0.2718
 5004SOL    HW126645   0.186   1.217   2.506 -0.2754  0.1925 -0.5737
 5004SOL    HW226646   0.324   1.238   2.514  0.4873  1.7109  0.4527
 5005SOL     OW26647   2.886   2.932  15.209  0.5537 -0.2473  0.4423
 5005SOL    HW126648   2.968   2.883  15.211 -0.0303 -1.1936  0.9371
 5005SOL    HW226649   2.822   2.863  15.226 -0.9060  1.4098  1.8466
 5006SOL     OW26650   2.783   2.120   8.671  0.0653 -0.8966 -0.2894
 5006SOL    HW126651   2.691   2.144   8.660  0.0730  0.3656  2.3768
 5006SOL    HW226652   2.771   2.051   8.736  2.8007 -0.6830  0.4582
 5007SOL     OW26653   2.807   0.649   3.957  0.1137 -0.1063  0.5020
 5007SOL    HW126654   2.829   0.628   4.048  0.6466 -0.8332  0.1970
 5007SOL    HW226655   2.799   0.742   3.979  1.8290  0.4600 -1.2287
 5008SOL     OW26656   0.261   3.488   2.634  0.0624  0.4110  0.2147
 5008SOL    HW126657   0.318   3.484   2.712  2.9154  4.2750 -1.7025
 5008SOL    HW226658   0.327   3.527   2.577 -0.4348 -0.1358 -0.7292
 5009SOL     OW26659   2.837   0.589  17.709 -0.2270  0.1540 -0.0883
 5009SOL    HW126660   2.922   0.548  17.695 -0.1509  0.3265 -0.1321
 5009SOL    HW226661   2.831   0.552   0.059  2.2108  1.4067  0.5972
 5010SOL     OW26662   2.691   4.636   8.989  0.1327  0.1423 -0.0774
 5010SOL    HW126663   2.781   4.609   9.006 -0.0834 -0.0081  0.8587
 5010SOL    HW226664   2.649   4.561   9.033 -0.0024 -0.5316 -1.3627
 5011SOL     OW26665   4.587   4.445   5.660  0.1061 -0.2179 -0.2808
 5011SOL    HW126666   4.647   4.479   5.594  0.3102  0.2035  0.1202
 5011SOL    HW226667   4.603   4.350   5.657  1.9342  0.0625  0.7526
 5012SOL     OW26668   3.571   2.975  16.999  0.4178 -0.1104  0.4604
 5012SOL    HW126669   3.552   2.974  16.905 -1.1046 -0.8375  0.7814
 5012SOL    HW226670   3.667   2.979  16.995  0.5432  0.0941  3.9411
 5013SOL     OW26671   2.126   0.408   0.320  0.3227 -0.5801  0.1487
 5013SOL    HW126672   2.073   0.464   0.376  0.7673 -0.1137  0.1009
 5013SOL    HW226673   2.203   0.460   0.297 -0.7450  0.8457 -0.1964
 5014SOL     OW26674   3.307   3.878   2.288 -0.3264 -0.4377  0.2260
 5014SOL    HW126675   3.294   3.836   2.373 -2.0237 -0.0200  0.1724
 5014SOL    HW226676   3.288   3.970   2.306 -0.6289 -0.6851  1.1957
 5015SOL     OW26677   2.520   0.053  17.326 -0.6011 -0.4255  0.2944
 5015SOL    HW126678   2.546   0.049  17.418 -0.1842 -0.9563  0.1536
 5015SOL    HW226679   2.602   0.088  17.290 -0.3855 -0.4779  0.7386
 5016SOL     OW26680   1.911   2.469   5.346  0.0601 -0.5176  0.9994
 5016SOL    HW126681   1.926   2.448   5.254  1.5319 -1.6519  1.4984
 5016SOL    HW226682   1.819   2.447   5.360  0.0845 -1.3862 -0.2466
 5017SOL     OW26683   0.147   4.327   4.459 -0.2490 -0.2112  0.1259
 5017SOL    HW126684   0.112   4.258   4.514 -3.2762  0.9255 -0.3658
 5017SOL    HW226685   0.141   4.407   4.513 -1.0509  0.0826 -0.3970
 5018SOL     OW26686   0.172   2.682   7.048 -0.0766  0.0607  0.6652
 5018SOL    HW126687   0.197   2.728   6.968 -1.2212  1.0193  0.8599
 5018SOL    HW226688   0.261   2.668   7.081 -0.2082 -0.5389  0.7619
 5019SOL     OW26689   2.091   2.945   9.689  0.1321 -0.5687 -0.7970
 5019SOL    HW126690   2.051   3.016   9.638 -1.9581  0.7742  2.6733
 5019SOL    HW226691   2.186   2.950   9.679  0.0534  0.0466 -1.2372
 5020SOL     OW26692   1.987   3.603   9.028  0.1784  0.2420  0.3853
 5020SOL    HW126693   2.064   3.655   9.006 -0.0135  0.2093 -0.3604
 5020SOL    HW226694   1.960   3.593   8.936 -0.4808  2.2599  0.3682
 5021SOL     OW26695   4.278   3.612   0.358 -0.1050 -0.6395 -0.2511
 5021SOL    HW126696   4.323   3.530   0.378 -0.1855  0.0564  2.7979
 5021SOL    HW226697   4.353   3.666   0.333 -0.8299  0.5294  0.0838
 5022SOL     OW26698   2.834   0.281   5.170  0.1045  0.2093  0.2115
 5022SOL    HW126699   2.830   0.286   5.266  0.4305  1.4448  0.1657
 5022SOL    HW226700   2.825   0.375   5.154 -0.7744  0.2780  1.0558
 5023SOL     OW26701   1.425   3.800   1.643 -0.1329  0.2012  0.2387
 5023SOL    HW126702   1.380   3.792   1.727  1.0479  0.0774  0.8601
 5023SOL    HW226703   1.353   3.850   1.604 -0.7310 -0.9920 -0.1602
 5024SOL     OW26704   2.090   3.882   7.908 -0.2926 -0.3101  0.1976
 5024SOL    HW126705   2.040   3.903   7.830  1.9831  0.8793 -0.9457
 5024SOL    HW226706   2.125   3.795   7.889  2.9149  0.9420  0.3867
 5025SOL     OW26707   1.662   1.916  11.994 -0.1633  0.2051  0.1822
 5025SOL    HW126708   1.675   1.828  12.030  2.7319  0.2291 -0.8260
 5025SOL    HW226709   1.629   1.957  12.074  1.1439 -0.6616  1.1478
 5026SOL     OW26710   2.112   1.655   7.518  0.0939  0.3524  0.1881
 5026SOL    HW126711   2.020   1.676   7.534  0.5250  0.5721  2.4381
 5026SOL    HW226712   2.134   1.577   7.569 -0.8799  0.8368  1.3406
 5027SOL     OW26713   4.342   4.320  10.409  0.5119  0.2200 -0.0406
 5027SOL    HW126714   4.387   4.297  10.327  0.9088  0.4467  0.1157
 5027SOL    HW226715   4.416   4.344  10.463  2.4124  0.1295 -2.5921
 5028SOL     OW26716   1.708   2.326   5.843 -0.3106 -0.2114 -0.0748
 5028SOL    HW126717   1.659   2.393   5.890 -1.1711  0.1131 -1.4265
 5028SOL    HW226718   1.715   2.370   5.758 -1.0447 -0.3568 -0.2081
 5029SOL     OW26719   3.990   0.350   3.450  0.8305  0.2587  0.3265
 5029SOL    HW126720   4.034   0.314   3.373  1.4898  2.9468 -0.5710
 5029SOL    HW226721   4.068   0.368   3.502  1.4931  0.7956 -0.8553
 5030SOL     OW26722   2.337   1.066   5.124 -0.3914 -0.2489  0.2388
 5030SOL    HW126723   2.274   1.102   5.187 -0.8014 -0.0494 -0.2886
 5030SOL    HW226724   2.295   1.013   5.056  0.9333 -1.5572  0.4533
 5031SOL     OW26725   4.411   2.287   2.286 -0.5361 -0.1055 -0.5344
 5031SOL    HW126726   4.435   2.214   2.342  2.3962 -0.8522 -2.7715
 5031SOL    HW226727   4.483   2.288   2.224 -0.2091  1.9303 -0.1448
 5032SOL     OW26728   1.424   1.349   7.420  0.4970 -0.1759 -1.0041
 5032SOL    HW126729   1.463   1.436   7.415  1.9096 -0.8138 -0.9098
 5032SOL    HW226730   1.382   1.341   7.334 -2.1072  2.0049  0.0380
 5033SOL     OW26731   2.574   3.434   3.355  0.1863 -0.5288 -0.0076
 5033SOL    HW126732   2.549   3.367   3.419  0.4333 -1.4011 -0.8350
 5033SOL    HW226733   2.652   3.472   3.395 -0.3918  0.4978  0.1641
 5034SOL     OW26734   3.178   0.854   9.182  0.5627 -0.5462 -0.2021
 5034SOL    HW126735   3.167   0.844   9.276  2.9378 -0.5782  0.0699
 5034SOL    HW226736   3.264   0.892   9.163  0.4808 -2.4588 -4.4494
 5035SOL     OW26737   0.036   1.874  11.297  0.4147 -0.2277 -0.2528
 5035SOL    HW126738   0.037   1.859  11.203  1.5073  2.5068 -0.6702
 5035SOL    HW226739   0.049   1.969  11.300  3.0331 -0.5679 -0.7714
 5036SOL     OW26740   1.611   2.753   9.449  0.4135 -0.1481  0.0967
 5036SOL    HW126741   1.676   2.686   9.470  0.5533 -0.0703 -0.0869
 5036SOL    HW226742   1.657   2.806   9.383 -2.5297  1.5673 -0.5592
 5037SOL     OW26743   1.875   1.849  15.761  0.1072  0.1174  1.2726
 5037SOL    HW126744   1.828   1.807  15.833  0.5198 -1.0337  0.8622
 5037SOL    HW226745   1.952   1.794  15.753  0.0795  0.1817  0.5919
 5038SOL     OW26746   1.124   0.744   7.827  0.1077 -0.0309 -0.0371
 5038SOL    HW126747   1.035   0.748   7.860  1.2984 -1.6661  3.3927
 5038SOL    HW226748   1.147   0.657   7.859 -1.8492  0.0955  1.6924
 5039SOL     OW26749   4.592   0.974   6.714  0.3806 -0.2536 -0.0192
 5039SOL    HW126750   4.573   0.973   6.808 -0.9908  2.0523 -0.2552
 5039SOL    HW226751   4.557   1.062   6.700  0.4467  0.1012  1.9966
 5040SOL     OW26752   1.738   2.431   6.553  0.1752  0.3738  0.6104
 5040SOL    HW126753   1.762   2.408   6.642 -2.2570 -0.9734  0.8966
 5040SOL    HW226754   1.778   2.357   6.508  1.8014  0.6622  1.5652
 5041SOL     OW26755   3.020   3.778   8.311 -0.3974 -0.2286 -0.4488
 5041SOL    HW126756   3.019   3.803   8.403  1.7156  1.1452 -0.7824
 5041SOL    HW226757   3.051   3.689   8.328 -0.8702 -0.7189 -2.0888
 5042SOL     OW26758   0.361   2.503   9.564 -0.0736 -0.2507  0.3811
 5042SOL    HW126759   0.342   2.579   9.618 -1.0084 -0.7409  0.7434
 5042SOL    HW226760   0.279   2.502   9.515 -0.5627 -1.1451  1.2252
 5043SOL     OW26761   2.826   1.002   6.506  0.5288 -0.3313  1.0323
 5043SOL    HW126762   2.799   0.934   6.567 -0.1206 -0.7532  0.2647
 5043SOL    HW226763   2.868   0.953   6.435 -1.0416  0.2600 -0.3046
 5044SOL     OW26764   0.876   0.589   2.868 -0.2101  0.1871  0.7697
 5044SOL    HW126765   0.894   0.569   2.776 -0.0602  0.7643  0.6719
 5044SOL    HW226766   0.963   0.598   2.905  0.4837  1.1703 -1.1067
 5045SOL     OW26767   4.015   1.276   8.072 -0.1783  0.3317 -0.4761
 5045SOL    HW126768   4.057   1.287   7.987  1.8598  0.2269  0.5280
 5045SOL    HW226769   4.058   1.196   8.104  0.8256  1.1714  0.2687
 5046SOL     OW26770   4.567   3.448   7.360 -0.5827  0.6612 -0.1539
 5046SOL    HW126771   4.627   3.522   7.369 -0.0584  0.1811  0.3142
 5046SOL    HW226772   4.549   3.452   7.266 -3.6161  0.9925  0.4335
 5047SOL     OW26773   3.868   4.096  12.800  0.0879  0.2767 -0.5702
 5047SOL    HW126774   3.835   4.165  12.743 -2.5418  0.5218  1.2871
 5047SOL    HW226775   3.849   4.021  12.744 -1.9280  1.5128 -1.5074
 5048SOL     OW26776   3.149   0.224   7.291  0.6914 -0.1322  0.0240
 5048SOL    HW126777   3.157   0.129   7.305  3.6144  0.1917  0.5324
 5048SOL    HW226778   3.223   0.267   7.334 -1.2081  2.0369  1.1203
 5049SOL     OW26779   1.839   0.191   8.936  0.1184  0.8478 -0.0997
 5049SOL    HW126780   1.933   0.185   8.955  0.3483 -0.5680 -1.6900
 5049SOL    HW226781   1.829   0.286   8.933  2.6524  1.1379  1.2256
 5050SOL     OW26782   3.911   1.223  12.552  0.2466 -0.0207  0.4548
 5050SOL    HW126783   3.945   1.304  12.589 -0.0645  0.6940 -0.7923
 5050SOL    HW226784   3.991   1.183  12.518  0.7578  1.1785  0.2750
 5051SOL     OW26785   3.341   0.306   9.399  0.1291 -0.0920 -0.2298
 5051SOL    HW126786   3.325   0.368   9.471  0.2445 -2.2900  1.6848
 5051SOL    HW226787   3.301   0.356   9.327  2.0235  0.4400 -0.9104
 5052SOL     OW26788   0.655   3.918  17.247  0.2962  0.3051  0.1770
 5052SOL    HW126789   0.717   3.860  17.290 -0.3726  0.2692  1.0982
 5052SOL    HW226790   0.582   3.857  17.252 -0.8583  1.5627 -0.9970
 5053SOL     OW26791   4.595   2.199  11.444 -0.5514 -0.0800 -0.1193
 5053SOL    HW126792   4.689   2.182  11.440 -0.1901  2.1934 -0.9611
 5053SOL    HW226793   4.581   2.151  11.526  3.1832 -1.3297 -0.2219
 5054SOL     OW26794   3.358   3.409   0.015  0.1453  0.7490  0.2544
 5054SOL    HW126795   3.385   3.359  17.676 -1.5827 -0.2021  0.2639
 5054SOL    HW226796   3.271   3.441  17.727 -1.1629 -2.4283  0.7865
 5055SOL     OW26797   3.555   1.334   8.899  0.0377 -0.4222 -0.3429
 5055SOL    HW126798   3.636   1.295   8.869 -1.3402 -2.8791 -0.8343
 5055SOL    HW226799   3.492   1.271   8.935  1.8714 -1.3818  1.1702
 5056SOL     OW26800   2.583   1.749   6.576 -0.1999 -0.1867  0.4195
 5056SOL    HW126801   2.611   1.743   6.485  0.3415  1.0496  0.4990
 5056SOL    HW226802   2.666   1.737   6.622  0.1830  0.4026 -0.1166
 5057SOL     OW26803   1.335   0.615   2.713  0.0332  0.0586 -0.8640
 5057SOL    HW126804   1.345   0.579   2.625  0.3891  1.1379 -1.2594
 5057SOL    HW226805   1.252   0.659   2.696 -0.5996 -1.2680 -1.2019
 5058SOL     OW26806   1.623   0.347   8.031 -0.5199  0.1595  0.1630
 5058SOL    HW126807   1.632   0.274   8.093  1.0764  0.9652  0.9007
 5058SOL    HW226808   1.590   0.315   7.948  2.4411 -1.2546 -0.4738
 5059SOL     OW26809   2.038   1.285   4.462 -0.0658  0.5243 -0.0936
 5059SOL    HW126810   2.115   1.336   4.435 -0.2773  1.9740  2.0545
 5059SOL    HW226811   2.000   1.270   4.376 -0.7411  1.5336  0.0252
 5060SOL     OW26812   3.087   2.465   8.539 -0.5927 -0.4200 -0.5031
 5060SOL    HW126813   3.011   2.425   8.583 -0.1228 -0.3558  0.3561
 5060SOL    HW226814   3.045   2.544   8.504 -1.1912 -0.3340  0.4116
 5061SOL     OW26815   2.625   4.322   7.816  0.5405  0.3620  0.0222
 5061SOL    HW126816   2.674   4.294   7.738 -0.6546 -1.5459 -0.0419
 5061SOL    HW226817   2.657   4.412   7.817 -0.2703  0.6615 -0.7228
 5062SOL     OW26818   1.952   0.743   8.129 -0.1692  0.6626  0.4640
 5062SOL    HW126819   2.005   0.781   8.199  0.0798 -0.3909  0.8339
 5062SOL    HW226820   1.921   0.819   8.079 -2.5383 -0.2634  0.5264
 5063SOL     OW26821   1.212   2.959   2.802  0.5364  0.2117 -0.0681
 5063SOL    HW126822   1.209   2.957   2.898  2.3140 -0.2805 -0.0103
 5063SOL    HW226823   1.287   3.018   2.797  1.1715 -0.5689  0.1410
 5064SOL     OW26824   0.366   0.437   4.979 -0.0550  0.4768 -0.0256
 5064SOL    HW126825   0.309   0.453   4.904 -0.9505  1.1516  0.8162
 5064SOL    HW226826   0.426   0.512   4.982 -0.5225  0.7244  3.2205
 5065SOL     OW26827   2.330   3.585   3.336  0.0952  0.1439 -0.2881
 5065SOL    HW126828   2.305   3.572   3.244 -2.2428 -3.5360  0.8623
 5065SOL    HW226829   2.422   3.566   3.323  0.2267  1.3119 -1.0791
 5066SOL     OW26830   2.422   0.955  15.196  0.4317 -0.6247  0.3773
 5066SOL    HW126831   2.428   1.029  15.136  1.3082 -1.6603 -0.8178
 5066SOL    HW226832   2.329   0.948  15.214  0.3351 -0.8636 -0.2131
 5067SOL     OW26833   2.866   1.063   0.363  0.2865  0.4387  0.7653
 5067SOL    HW126834   2.819   0.981   0.350 -0.6919  1.2279 -0.5983
 5067SOL    HW226835   2.798   1.120   0.399 -0.9965 -0.7995  0.2796
 5068SOL     OW26836   2.096   1.532   5.576 -0.0221 -0.2686 -0.4733
 5068SOL    HW126837   2.002   1.512   5.571 -0.2791  0.7336  0.3262
 5068SOL    HW226838   2.129   1.492   5.495  1.3505 -0.8336  0.3656
 5069SOL     OW26839   0.474   1.392   4.987 -0.5453 -0.3146 -0.2317
 5069SOL    HW126840   0.486   1.322   4.923 -2.3482  0.3428 -1.2870
 5069SOL    HW226841   0.546   1.445   4.955 -1.8780  0.2318 -2.2682
 5070SOL     OW26842   2.777   2.102   4.487  0.0653 -0.0839 -0.0250
 5070SOL    HW126843   2.856   2.067   4.528  0.5480  0.4630 -0.4872
 5070SOL    HW226844   2.726   2.124   4.565  0.7067 -1.3291  0.7373
 5071SOL     OW26845   1.332   1.212   2.715  0.4690 -0.3958  0.6365
 5071SOL    HW126846   1.384   1.267   2.774  0.0637 -2.8616  3.3178
 5071SOL    HW226847   1.273   1.274   2.673  0.1991 -1.5793 -0.7160
 5072SOL     OW26848   4.480   1.421   5.608  0.0961  0.4012  0.1841
 5072SOL    HW126849   4.438   1.448   5.690 -0.2605  0.0562  0.1152
 5072SOL    HW226850   4.571   1.412   5.638 -0.3765 -1.6027  0.9807
 5073SOL     OW26851   1.962   2.744   8.954 -0.1892 -0.1564 -0.3862
 5073SOL    HW126852   2.049   2.711   8.933  0.0481 -0.2545  0.7642
 5073SOL    HW226853   1.946   2.709   9.041 -0.3880 -0.9511 -0.7417
 5074SOL     OW26854   3.170   0.075   7.883  0.1063 -0.3704  0.3833
 5074SOL    HW126855   3.256   0.115   7.897 -0.0123 -1.0642  3.1095
 5074SOL    HW226856   3.165   0.019   7.960  0.0895 -1.4348 -0.3900
 5075SOL     OW26857   0.152   2.516   3.005  0.3419  0.4987  0.1837
 5075SOL    HW126858   0.126   2.479   3.089  0.8168 -0.1070  0.0643
 5075SOL    HW226859   0.241   2.549   3.011  1.6108 -2.5683 -1.7561
 5076SOL     OW26860   3.383   2.360   8.942 -0.3688  0.0859 -0.2272
 5076SOL    HW126861   3.356   2.280   8.897  0.0272 -0.2208  0.0819
 5076SOL    HW226862   3.344   2.425   8.884 -2.6837 -1.6146 -0.6063
 5077SOL     OW26863   1.943   4.123  12.277  0.0486  0.0064 -0.2178
 5077SOL    HW126864   1.931   4.056  12.210  0.9967 -2.0615  1.6462
 5077SOL    HW226865   1.944   4.071  12.358 -0.0155 -0.5880 -0.6049
 5078SOL     OW26866   0.270   0.791   2.918  0.6466  0.3133 -0.5186
 5078SOL    HW126867   0.346   0.849   2.924  0.1890  1.0179 -1.6483
 5078SOL    HW226868   0.297   0.715   2.969 -0.1732  1.1714  1.1898
 5079SOL     OW26869   3.980   2.618   7.889 -0.4273 -0.0612 -0.4833
 5079SOL    HW126870   3.950   2.650   7.804  0.6042  0.6001 -0.5936
 5079SOL    HW226871   3.962   2.524   7.892  3.2074 -0.8308 -2.3519
 5080SOL     OW26872   1.593   1.369   8.665 -0.0906 -0.8314 -0.0028
 5080SOL    HW126873   1.576   1.458   8.696  0.7415 -1.8338  3.3074
 5080SOL    HW226874   1.520   1.356   8.603 -1.0236  0.3087  0.8597
 5081SOL     OW26875   3.117   0.297   9.727  0.2746  0.6681  0.1267
 5081SOL    HW126876   3.203   0.334   9.704  0.2390  2.3281  2.6243
 5081SOL    HW226877   3.121   0.272   9.820  0.4129 -1.8666 -0.5606
 5082SOL     OW26878   2.232   0.519   6.415  0.3607 -0.0419 -0.0156
 5082SOL    HW126879   2.160   0.551   6.360  0.1934  0.7460  0.6605
 5082SOL    HW226880   2.233   0.430   6.381  0.3181  0.6091 -1.7284
 5083SOL     OW26881   3.802   3.631   8.684  0.1246 -0.0716  0.5290
 5083SOL    HW126882   3.796   3.715   8.638 -1.0170 -0.1202  0.5950
 5083SOL    HW226883   3.711   3.603   8.685  0.0040  0.2790 -1.8272
 5084SOL     OW26884   2.231   1.785  15.810 -0.0341 -0.0024  0.7594
 5084SOL    HW126885   2.194   1.768  15.724  0.8292  2.9248 -0.2059
 5084SOL    HW226886   2.267   1.700  15.835 -0.9582  0.0397  2.2616
 5085SOL     OW26887   2.926   3.194  11.553 -0.4263  0.8916 -0.0399
 5085SOL    HW126888   2.833   3.189  11.534 -0.1778 -0.6461 -0.8386
 5085SOL    HW226889   2.969   3.213  11.470  0.4691  1.0950  0.4722
 5086SOL     OW26890   1.384   1.504  13.612 -0.1561  0.2247  0.5878
 5086SOL    HW126891   1.451   1.557  13.654 -0.3634 -1.8197  3.4509
 5086SOL    HW226892   1.398   1.415  13.643 -0.8998 -0.3876 -0.8016
 5087SOL     OW26893   1.257   3.261  15.577 -0.0737  0.5461 -0.4098
 5087SOL    HW126894   1.322   3.192  15.567 -0.6224 -0.2483  1.6473
 5087SOL    HW226895   1.187   3.233  15.517 -0.9732 -0.0143  0.9231
 5088SOL     OW26896   1.328   1.790   1.026  0.0311  0.4106  0.0896
 5088SOL    HW126897   1.361   1.834   1.104 -1.5771  0.7843  0.5692
 5088SOL    HW226898   1.315   1.869   0.974  1.3176 -0.6642 -1.8717
 5089SOL     OW26899   3.359   0.896  12.043  0.0915  0.1646 -0.3071
 5089SOL    HW126900   3.398   0.969  12.091 -0.5095  1.2838 -1.5216
 5089SOL    HW226901   3.350   0.931  11.954  0.9857  0.5797 -0.2320
 5090SOL     OW26902   1.410   2.437   7.144  0.1343  0.0403 -0.1267
 5090SOL    HW126903   1.433   2.393   7.226  0.6684 -0.9609 -0.8188
 5090SOL    HW226904   1.406   2.359   7.089 -2.5364  1.1223 -1.4728
 5091SOL     OW26905   0.230   1.145  16.719 -0.5126  0.2927  0.1517
 5091SOL    HW126906   0.149   1.133  16.769  0.5779 -0.4566  1.6991
 5091SOL    HW226907   0.250   1.235  16.745  3.4959 -1.1417  1.8781
 5092SOL     OW26908   3.977   0.603   7.310  0.3081  0.1200  0.1410
 5092SOL    HW126909   3.962   0.604   7.216 -2.3085  1.5154  0.5836
 5092SOL    HW226910   3.893   0.564   7.330 -1.4005  3.9435  0.4589
 5093SOL     OW26911   2.760   0.633   9.931  0.0996  0.6033 -0.5035
 5093SOL    HW126912   2.759   0.569   9.859  0.7723  1.2932 -1.1215
 5093SOL    HW226913   2.855   0.648   9.926  0.2300  0.0898  0.4197
 5094SOL     OW26914   2.156   0.765   7.093 -0.2318 -0.0546 -0.3576
 5094SOL    HW126915   2.214   0.828   7.135  1.0875 -1.6014  0.1541
 5094SOL    HW226916   2.088   0.761   7.160 -0.2474  1.2258 -0.2974
 5095SOL     OW26917   0.279   4.183   6.716  0.2207 -0.3056 -0.0552
 5095SOL    HW126918   0.227   4.132   6.654 -0.3324 -0.7751  0.7948
 5095SOL    HW226919   0.306   4.115   6.778  0.5136  0.5426  0.7449
 5096SOL     OW26920   0.841   3.631   2.922  0.0721 -0.3600 -0.0743
 5096SOL    HW126921   0.768   3.689   2.944  0.1016  0.3669 -1.9105
 5096SOL    HW226922   0.832   3.602   2.831  1.0453  0.9616 -0.5826
 5097SOL     OW26923   3.920   3.416   3.949  0.2745  0.1487  0.3695
 5097SOL    HW126924   3.920   3.395   3.856 -1.4370  1.7770  0.0073
 5097SOL    HW226925   3.945   3.330   3.985  1.8660 -0.0945 -1.3140
 5098SOL     OW26926   4.640   2.140   4.536  0.2499  0.1916 -0.2354
 5098SOL    HW126927   4.606   2.052   4.522  0.7149 -0.0115 -0.0966
 5098SOL    HW226928   4.727   2.136   4.577  0.1124  4.1815  0.4160
 5099SOL     OW26929   4.062   4.539   8.633  0.3523 -0.2348 -0.1239
 5099SOL    HW126930   4.025   4.627   8.643 -0.1339 -0.4796  0.2024
 5099SOL    HW226931   3.991   4.485   8.598 -0.2197  0.6881 -0.3759
 5100SOL     OW26932   3.098   3.242  16.875  0.0695 -0.2325 -0.5173
 5100SOL    HW126933   3.073   3.265  16.786 -0.3681  0.0383 -0.3247
 5100SOL    HW226934   3.022   3.267  16.928  0.1842  0.9092 -0.8847
 5101SOL     OW26935   3.135   3.243   2.881 -0.0676  0.3784  0.1637
 5101SOL    HW126936   3.193   3.242   2.805 -0.2557  1.0566  0.0082
 5101SOL    HW226937   3.061   3.195   2.843 -0.3110 -0.3583  1.5693
 5102SOL     OW26938   4.680   4.661   7.784  0.0013  0.0249  0.4582
 5102SOL    HW126939   0.020   4.649   7.843 -1.0345  0.3258  1.8147
 5102SOL    HW226940   4.651   0.015   7.807 -1.1593  0.2909 -1.9753
 5103SOL     OW26941   4.456   2.672   3.099 -0.4822  0.1826  0.1465
 5103SOL    HW126942   4.512   2.665   3.177  1.7979  2.4727 -1.2611
 5103SOL    HW226943   4.509   2.734   3.048  0.8879 -0.1293  1.1942
 5104SOL     OW26944   0.672   0.637   6.566  0.1456  0.2165  0.4012
 5104SOL    HW126945   0.706   0.581   6.496 -0.7584  0.0463  0.0938
 5104SOL    HW226946   0.599   0.593   6.608 -0.8550 -0.3970 -1.9491
 5105SOL     OW26947   4.025   1.872   3.974 -0.2541  0.1499 -0.0123
 5105SOL    HW126948   4.041   1.902   4.064 -1.6206 -0.6076  0.4872
 5105SOL    HW226949   4.114   1.890   3.945  0.0053 -1.7775 -0.3766
 5106SOL     OW26950   1.345   4.352   7.166 -0.1316  0.1963  0.1061
 5106SOL    HW126951   1.405   4.322   7.098 -2.0178 -0.3346 -1.3112
 5106SOL    HW226952   1.276   4.381   7.106 -0.7168 -1.1541  0.1325
 5107SOL     OW26953   1.219   2.913  13.287  0.3266  0.4796 -0.0613
 5107SOL    HW126954   1.155   2.982  13.302  0.0037  0.4016 -1.0566
 5107SOL    HW226955   1.167   2.843  13.328  1.8187 -0.5106  0.1497
 5108SOL     OW26956   3.712   1.999  10.164 -0.1300 -0.2641 -0.4149
 5108SOL    HW126957   3.797   1.957  10.152 -1.1523 -2.0863 -1.2636
 5108SOL    HW226958   3.728   2.084  10.123 -0.1560 -0.3740 -0.6486
 5109SOL     OW26959   1.566   3.676   4.311  0.0987  0.1643  0.3614
 5109SOL    HW126960   1.477   3.677   4.346  0.4460  0.9572  1.2110
 5109SOL    HW226961   1.619   3.660   4.389  0.5746  2.8321  0.5878
 5110SOL     OW26962   1.502   1.783   4.601 -0.1256  0.1970  0.1029
 5110SOL    HW126963   1.451   1.723   4.656  0.1408  0.3342  0.4949
 5110SOL    HW226964   1.498   1.869   4.642 -2.9395  0.7886 -1.3777
 5111SOL     OW26965   1.198   2.502   1.073  0.1040 -0.1945 -0.6813
 5111SOL    HW126966   1.234   2.415   1.052 -0.7402 -0.6431 -0.2598
 5111SOL    HW226967   1.125   2.491   1.012  2.0041  1.2659 -3.2105
 5112SOL     OW26968   1.094   0.810  12.577  0.2574 -0.3422 -0.4383
 5112SOL    HW126969   1.084   0.837  12.668 -2.5003  0.9204 -1.1206
 5112SOL    HW226970   1.138   0.889  12.544  0.1566  0.3087  0.9689
 5113SOL     OW26971   1.232   0.219   2.317 -0.1451 -0.4231  0.2582
 5113SOL    HW126972   1.262   0.298   2.274 -0.4713 -0.7206 -0.5121
 5113SOL    HW226973   1.295   0.215   2.389 -1.7656  2.1427  1.8161
 5114SOL     OW26974   4.039   1.302  15.771  0.1564  0.2019  0.2304
 5114SOL    HW126975   4.066   1.232  15.711  2.0615  0.3687  0.8785
 5114SOL    HW226976   4.041   1.371  15.705  0.0669  1.2859  1.3676
 5115SOL     OW26977   4.140   2.827   5.010 -0.0544  0.2714  0.0209
 5115SOL    HW126978   4.174   2.828   5.100 -2.5293 -0.5888  0.9494
 5115SOL    HW226979   4.076   2.898   5.017  1.4276  1.5618  0.6305
 5116SOL     OW26980   2.540   3.032  12.852 -0.3629 -0.0006 -0.2663
 5116SOL    HW126981   2.550   3.123  12.879 -0.3731  0.3546 -1.4655
 5116SOL    HW226982   2.507   3.041  12.763 -0.8677  1.6231  0.0953
 5117SOL     OW26983   0.519   1.788  15.876 -0.1031 -0.3603 -0.3725
 5117SOL    HW126984   0.489   1.802  15.966 -2.0047  1.4203 -1.2758
 5117SOL    HW226985   0.448   1.736  15.838 -0.9884  0.6478 -0.0666
 5118SOL     OW26986   2.711   3.097   8.806 -0.0371 -0.4660 -0.1156
 5118SOL    HW126987   2.801   3.072   8.787 -0.2308 -0.5868 -0.8700
 5118SOL    HW226988   2.664   3.064   8.730 -1.1390 -0.5313  0.5983
 5119SOL     OW26989   0.453   3.128  14.396 -0.2384  0.2296  0.0362
 5119SOL    HW126990   0.401   3.069  14.449 -1.1681  2.2664  1.3744
 5119SOL    HW226991   0.524   3.076  14.358 -0.3342  0.3628 -0.3328
 5120SOL     OW26992   1.036   3.125  13.754 -0.0271  0.2046 -0.2370
 5120SOL    HW126993   1.084   3.041  13.757 -0.7838 -0.2269 -0.2478
 5120SOL    HW226994   1.106   3.189  13.743  0.4464 -0.1709  0.5568
 5121SOL     OW26995   4.328   4.544   0.381  0.0468 -0.3715 -0.5233
 5121SOL    HW126996   4.317   4.600   0.305  3.3198  1.9036  0.7106
 5121SOL    HW226997   4.242   4.523   0.420 -0.0463 -1.3148 -1.2442
 5122SOL     OW26998   0.966   3.064   7.352  0.0815  0.3288  0.6218
 5122SOL    HW126999   1.012   3.067   7.436 -1.5876  3.6971  1.4162
 5122SOL    HW227000   0.891   3.120   7.372  0.4364 -0.5885  4.4620
 5123SOL     OW27001   2.107   0.323   9.626  0.4052  0.2262 -0.1671
 5123SOL    HW127002   2.061   0.381   9.566  0.3372  0.2257 -0.1148
 5123SOL    HW227003   2.193   0.361   9.648  1.2943 -0.1940 -2.9129
 5124SOL     OW27004   4.325   4.630   5.128 -0.6945  0.4262  0.1964
 5124SOL    HW127005   4.269   4.664   5.198  1.5725  2.4979  1.0182
 5124SOL    HW227006   4.310   4.694   5.058 -0.0033 -1.0769 -1.3138
 5125SOL     OW27007   2.436   3.397   4.373 -0.0260 -0.0718 -0.2488
 5125SOL    HW127008   2.356   3.361   4.333 -0.0953  0.3343 -0.4832
 5125SOL    HW227009   2.429   3.367   4.464  1.0407  3.9032  1.1470
 5126SOL     OW27010   4.032   1.687   1.075 -0.7537  0.1524 -0.2691
 5126SOL    HW127011   4.015   1.612   1.132 -2.0588  0.1128 -0.6901
 5126SOL    HW227012   4.127   1.694   1.075 -0.7143 -0.6953  3.3670
 5127SOL     OW27013   3.878   4.535  11.708 -0.3527 -0.3431 -0.7667
 5127SOL    HW127014   3.857   4.573  11.623 -1.4555  0.3263 -0.1941
 5127SOL    HW227015   3.968   4.568  11.710  0.8413 -3.5503 -0.0704
 5128SOL     OW27016   3.900   2.842   9.569 -0.2625 -0.3807 -0.2038
 5128SOL    HW127017   3.901   2.778   9.641  0.7013  0.0763  0.1906
 5128SOL    HW227018   3.950   2.798   9.500  1.0420 -0.1763  0.6111
 5129SOL     OW27019   4.586   1.990   3.456 -0.9371 -0.2854 -0.0019
 5129SOL    HW127020   4.613   1.898   3.454 -0.9378 -0.2989  0.5210
 5129SOL    HW227021   4.659   2.032   3.411 -1.3767  0.0895 -0.3617
 5130SOL     OW27022   4.560   3.094   6.796 -0.6317 -0.9621 -0.4044
 5130SOL    HW127023   4.538   3.010   6.836 -1.8262  0.1120  1.2370
 5130SOL    HW227024   4.613   3.062   6.724 -2.4750 -0.6858 -1.8837
 5131SOL     OW27025   4.582   0.327  16.647  0.1901 -0.2367  0.3809
 5131SOL    HW127026   4.678   0.328  16.654  0.5012 -0.7838 -3.7908
 5131SOL    HW227027   4.572   0.240  16.684 -1.4366 -0.4916 -0.6845
 5132SOL     OW27028   3.269   3.547   7.607  0.3739  0.0252  0.2575
 5132SOL    HW127029   3.297   3.560   7.697 -0.5301  2.4220  0.1871
 5132SOL    HW227030   3.308   3.621   7.561 -1.4001 -0.2042 -1.6417
 5133SOL     OW27031   0.825   4.005  15.829 -0.0081 -0.5847  0.3528
 5133SOL    HW127032   0.902   4.042  15.787  0.0969 -1.0512  0.1316
 5133SOL    HW227033   0.778   3.976  15.751  0.7542  0.6371 -0.5481
 5134SOL     OW27034   2.131   3.902  17.224 -0.0833 -0.5453 -0.0520
 5134SOL    HW127035   2.097   3.813  17.240  0.3511 -0.9459 -1.4027
 5134SOL    HW227036   2.209   3.877  17.176  1.0997 -1.3783  2.3179
 5135SOL     OW27037   3.001   1.587   1.446  0.3065 -0.2066  0.3371
 5135SOL    HW127038   3.002   1.491   1.443 -1.9587 -0.2302 -0.1709
 5135SOL    HW227039   3.088   1.609   1.414  1.1270 -0.8977  2.1139
 5136SOL     OW27040   1.851   2.140   5.165  0.5682 -0.3701 -0.0212
 5136SOL    HW127041   1.775   2.165   5.218  1.3853 -0.7309  1.3185
 5136SOL    HW227042   1.869   2.053   5.201  0.1221 -1.5236 -2.5749
 5137SOL     OW27043   2.018   1.745   2.536 -0.0547 -0.6926  0.3352
 5137SOL    HW127044   1.987   1.836   2.537  3.2319  0.4026  3.0420
 5137SOL    HW227045   1.994   1.725   2.446  0.9478 -0.0387 -0.0840
 5138SOL     OW27046   3.475   1.608   9.301  0.2327 -0.0478  0.3377
 5138SOL    HW127047   3.516   1.564   9.375  1.4065  0.7964  0.1883
 5138SOL    HW227048   3.385   1.578   9.311 -0.1955  1.5420  1.1567
 5139SOL     OW27049   3.598   4.325  10.968 -0.0493  0.1020 -0.2300
 5139SOL    HW127050   3.656   4.349  11.040  0.8988  0.5093 -1.1271
 5139SOL    HW227051   3.551   4.406  10.948  0.1290 -0.4074 -2.6664
 5140SOL     OW27052   1.413   2.236   2.124  0.9545  0.3043  0.1058
 5140SOL    HW127053   1.332   2.287   2.133  0.3011 -0.8770  0.9601
 5140SOL    HW227054   1.448   2.265   2.040 -0.9614 -0.3524 -0.9003
 5141SOL     OW27055   0.004   1.298   6.971  0.4558 -0.1313 -0.2138
 5141SOL    HW127056   0.001   1.208   7.005 -0.7039  0.0339  0.1189
 5141SOL    HW227057   0.030   1.349   7.048 -2.8393  1.7745 -0.3531
 5142SOL     OW27058   3.108   3.494  14.813  0.3421  0.1725 -0.1607
 5142SOL    HW127059   3.170   3.477  14.742 -1.1999 -0.3042 -1.3608
 5142SOL    HW227060   3.132   3.420  14.869  0.1427 -0.1839 -0.5519
 5143SOL     OW27061   4.717   3.203   6.124 -0.0049 -0.3790  0.3280
 5143SOL    HW127062   0.057   3.260   6.105 -0.7878  1.4244  2.7956
 5143SOL    HW227063   0.015   3.163   6.205 -1.7971 -3.0711 -0.2548
 5144SOL     OW27064   0.099   1.009   1.637  0.1850 -0.2181  0.0225
 5144SOL    HW127065   0.107   0.929   1.584 -0.6806  1.7491 -3.0496
 5144SOL    HW227066   0.160   1.070   1.597 -1.7120  0.1778 -2.2592
 5145SOL     OW27067   3.671   4.321   9.824  0.9370 -0.1695  0.1445
 5145SOL    HW127068   3.760   4.353   9.809 -0.0177  1.9237 -0.9122
 5145SOL    HW227069   3.646   4.386   9.889  0.2072  0.1619 -0.4729
 5146SOL     OW27070   1.795   3.434   7.178  0.3567 -0.1609  0.7264
 5146SOL    HW127071   1.878   3.399   7.145 -0.3765  0.9936 -2.3438
 5146SOL    HW227072   1.735   3.359   7.176  0.1817 -0.1026  3.6066
 5147SOL     OW27073   4.607   3.243  14.022 -0.1991 -0.2088 -0.0351
 5147SOL    HW127074   4.638   3.312  14.081  3.7048 -0.4954 -1.7708
 5147SOL    HW227075   4.654   3.164  14.047  0.4939  0.2335  0.0437
 5148SOL     OW27076   2.041   3.292   8.948 -0.5661  0.6735  0.1745
 5148SOL    HW127077   2.056   3.243   8.867 -0.7311 -0.4397  0.8145
 5148SOL    HW227078   2.121   3.343   8.959 -0.4247  0.1857  1.3606
 5149SOL     OW27079   2.870   1.845   0.150 -0.4200 -0.3993  0.8350
 5149SOL    HW127080   2.799   1.872   0.092 -1.3196 -2.9245  0.7607
 5149SOL    HW227081   2.851   1.899   0.226 -2.8233  1.9349 -1.4124
 5150SOL     OW27082   3.992   2.349   7.117 -0.5011 -0.3194 -0.1366
 5150SOL    HW127083   3.916   2.323   7.064 -0.8193 -0.2216  0.2765
 5150SOL    HW227084   4.003   2.279   7.181 -2.6129  1.1300  1.8084
 5151SOL     OW27085   3.733   0.776   7.843  0.0075 -0.2460  0.1740
 5151SOL    HW127086   3.669   0.848   7.842  0.6352  0.2894 -1.3943
 5151SOL    HW227087   3.788   0.812   7.912 -0.0314 -0.3372  0.2521
 5152SOL     OW27088   1.849   4.663   6.043  0.6044 -0.6045  0.1468
 5152SOL    HW127089   1.885   4.588   5.995 -1.5460  0.3374 -2.8865
 5152SOL    HW227090   1.768   4.677   5.995  0.9100  0.8841  0.0602
 5153SOL     OW27091   4.394   0.351   6.951 -0.1153  0.4482  0.4792
 5153SOL    HW127092   4.479   0.392   6.935 -1.0301  2.3226  0.3012
 5153SOL    HW227093   4.427   0.269   6.987 -3.1059 -0.3286  1.4175
 5154SOL     OW27094   3.649   4.692   5.291 -0.5791  0.2265  0.1211
 5154SOL    HW127095   3.733   4.656   5.318 -1.0945 -0.3409  0.9687
 5154SOL    HW227096   3.614   4.622   5.237  1.1326 -0.7481  0.2718
 5155SOL     OW27097   2.790   2.521  11.049 -0.3007  0.2209  0.5637
 5155SOL    HW127098   2.741   2.494  10.972  0.2775 -2.2271  1.0427
 5155SOL    HW227099   2.821   2.609  11.028  1.6500 -0.2284  1.5074
 5156SOL     OW27100   3.484   0.699  13.111 -0.1914 -0.2271 -0.1147
 5156SOL    HW127101   3.408   0.750  13.139 -0.8818 -1.3271  0.0167
 5156SOL    HW227102   3.500   0.727  13.021 -3.0647  0.1576 -0.5121
 5157SOL     OW27103   2.512   1.401   6.862 -0.3273  0.2097  0.1507
 5157SOL    HW127104   2.593   1.353   6.849 -0.2158  1.0892 -2.4227
 5157SOL    HW227105   2.498   1.433   6.772  0.6262  0.1923 -0.0040
 5158SOL     OW27106   0.458   3.448   3.267 -0.3442  0.4126 -0.0451
 5158SOL    HW127107   0.546   3.434   3.303 -0.7227 -1.5441  0.0882
 5158SOL    HW227108   0.478   3.516   3.201 -1.3201  0.0033 -0.7623
 5159SOL     OW27109   1.967   1.619   2.765 -0.0403 -0.2200 -0.7732
 5159SOL    HW127110   1.875   1.594   2.759 -0.5079  1.6161 -1.3773
 5159SOL    HW227111   1.990   1.662   2.682 -0.7680 -0.3055 -1.0111
 5160SOL     OW27112   2.000   3.926   5.034  0.6037  0.0401  0.1577
 5160SOL    HW127113   2.090   3.946   5.058  0.4178  0.9150  0.1439
 5160SOL    HW227114   1.957   4.012   5.028 -0.0790 -0.2954  0.1676
 5161SOL     OW27115   1.986   2.800  11.556 -0.3393 -0.4405  0.1132
 5161SOL    HW127116   1.922   2.773  11.490  0.8011  1.2628 -1.6827
 5161SOL    HW227117   2.016   2.884  11.521  0.5718  0.6528  3.5029
 5162SOL     OW27118   4.491   3.099   5.061 -0.0237 -0.0584  0.5925
 5162SOL    HW127119   4.573   3.140   5.034 -1.1386  1.0128 -1.1119
 5162SOL    HW227120   4.452   3.139   5.138  0.3096 -0.4000  0.9447
 5163SOL     OW27121   1.996   1.538  14.755 -0.1078  0.1714  0.2295
 5163SOL    HW127122   2.048   1.462  14.781 -0.8073 -0.5006 -0.3500
 5163SOL    HW227123   2.045   1.578  14.683 -2.3303 -0.5385 -1.6786
 5164SOL     OW27124   2.079   0.310   7.210  0.7353 -0.2817  0.4444
 5164SOL    HW127125   2.143   0.339   7.275  0.4321  0.4007  0.4340
 5164SOL    HW227126   2.101   0.364   7.134  3.5650 -1.2832  0.5713
 5165SOL     OW27127   3.136   2.013   4.111 -0.0055  0.2266  0.0410
 5165SOL    HW127128   3.156   2.096   4.068 -0.6404  0.7950  0.8229
 5165SOL    HW227129   3.072   2.056   4.169 -0.6063  2.3641 -2.2248
 5166SOL     OW27130   0.964   1.252   7.759 -0.1237 -0.0797  0.3426
 5166SOL    HW127131   0.951   1.195   7.834 -1.7455 -0.1353  0.0182
 5166SOL    HW227132   1.027   1.196   7.715 -3.0063 -1.8262 -1.5596
 5167SOL     OW27133   2.913   1.054   2.627  0.1260  0.5286  0.2606
 5167SOL    HW127134   2.822   1.059   2.654 -0.0228  2.3896 -0.6196
 5167SOL    HW227135   2.944   1.041   2.716  1.3852  2.5674  0.1276
 5168SOL     OW27136   1.098   0.260   4.521  0.5241 -0.1823 -0.2426
 5168SOL    HW127137   1.164   0.276   4.588 -0.0648 -0.2082  0.3438
 5168SOL    HW227138   1.089   0.344   4.475  1.6009  0.3996  0.6144
 5169SOL     OW27139   0.470   3.780  14.752 -0.0524 -0.0414  0.6469
 5169SOL    HW127140   0.563   3.759  14.748  0.3394  2.0390 -1.4669
 5169SOL    HW227141   0.436   3.698  14.786 -0.0597 -1.3273 -2.4344
 5170SOL     OW27142   3.203   2.793   9.588 -0.4678  0.0010 -0.0164
 5170SOL    HW127143   3.138   2.819   9.523  0.8632 -1.2738 -1.8686
 5170SOL    HW227144   3.237   2.878   9.616 -0.5548 -0.3847  1.2477
 5171SOL     OW27145   2.502   4.052   7.376 -0.4046 -0.2586 -0.4066
 5171SOL    HW127146   2.453   4.027   7.298 -0.2389  0.5008 -0.7532
 5171SOL    HW227147   2.469   3.989   7.441 -0.9408  1.2276  0.7547
 5172SOL     OW27148   2.700   0.093   2.198  0.0384  0.1775  0.1311
 5172SOL    HW127149   2.730   0.091   2.289 -0.2122  1.4452  0.2398
 5172SOL    HW227150   2.704   4.734   2.179 -1.1776  0.1360  0.0945
 5173SOL     OW27151   0.586   1.073   7.118  0.1016 -0.1157  0.7268
 5173SOL    HW127152   0.559   1.067   7.027  1.5187  1.1816  0.2132
 5173SOL    HW227153   0.642   1.150   7.108  0.7159 -0.7444 -0.6649
 5174SOL     OW27154   4.289   1.660   1.126  0.0686 -0.4010 -0.3287
 5174SOL    HW127155   4.313   1.752   1.142 -1.4350 -0.5091  2.4216
 5174SOL    HW227156   4.325   1.611   1.199  0.0610  1.2429  0.7774
 5175SOL     OW27157   1.688   2.801   7.647 -0.3257  0.1998  0.0923
 5175SOL    HW127158   1.595   2.799   7.670 -0.5731  3.5804 -0.6317
 5175SOL    HW227159   1.695   2.713   7.610  1.1284  0.0283  0.7708
 5176SOL     OW27160   0.583   3.124  10.642  0.5866  0.3056 -0.3871
 5176SOL    HW127161   0.514   3.061  10.661  0.9445 -0.0020 -0.0958
 5176SOL    HW227162   0.633   3.117  10.724  1.2462  1.1762 -0.7212
 5177SOL     OW27163   1.662   1.356   9.029  0.2381  0.9658 -0.1753
 5177SOL    HW127164   1.655   1.427   8.965 -1.9067  0.3167 -0.6763
 5177SOL    HW227165   1.754   1.354   9.054  0.1885 -2.3008 -0.2270
 5178SOL     OW27166   1.635   3.945   1.627  0.1387  0.1155  0.0688
 5178SOL    HW127167   1.571   3.874   1.625  0.4249 -0.1212 -0.8720
 5178SOL    HW227168   1.674   3.928   1.541  0.0632 -0.4061  0.1361
 5179SOL     OW27169   3.317   3.486  16.864  0.0034 -1.0293  0.1722
 5179SOL    HW127170   3.258   3.469  16.937 -1.4835 -1.1808 -1.0718
 5179SOL    HW227171   3.253   3.520  16.801  1.0235 -0.3720 -0.5180
 5180SOL     OW27172   4.678   4.006   4.989 -0.3943  0.0467  0.0836
 5180SOL    HW127173   4.695   3.913   5.004  2.7118  0.5734 -0.2468
 5180SOL    HW227174   0.030   4.046   4.989 -0.0947 -0.6248 -1.8647
 5181SOL     OW27175   3.823   0.488   3.281 -1.0409 -0.3785 -0.6185
 5181SOL    HW127176   3.877   0.441   3.344 -1.5593  1.0558  0.8982
 5181SOL    HW227177   3.850   0.442   3.202  0.2138 -0.4450 -0.1457
 5182SOL     OW27178   3.362   0.921   8.015 -0.2878  0.0971  0.4473
 5182SOL    HW127179   3.344   0.864   8.090  0.3253 -2.5143 -1.4050
 5182SOL    HW227180   3.282   0.974   8.013 -0.8422 -0.7870 -0.3672
 5183SOL     OW27181   4.437   3.242  11.324  0.6560  0.6279  0.2538
 5183SOL    HW127182   4.424   3.291  11.405  1.3219  0.2440  0.5939
 5183SOL    HW227183   4.434   3.150  11.348 -3.3807  0.6748 -0.1481
 5184SOL     OW27184   3.237   0.817  13.198  0.3018 -0.0753  0.4918
 5184SOL    HW127185   3.200   0.810  13.286  3.2625 -0.2114  1.7311
 5184SOL    HW227186   3.277   0.903  13.201  0.5826 -0.1816 -0.3706
 5185SOL     OW27187   0.506   2.243  11.761  0.2242  0.2755  0.1293
 5185SOL    HW127188   0.440   2.285  11.706  0.9906 -0.2371 -1.1706
 5185SOL    HW227189   0.451   2.231  11.839  0.7873 -2.5375  0.0888
 5186SOL     OW27190   1.408   2.866  14.195  0.1614 -0.3526 -0.4099
 5186SOL    HW127191   1.440   2.953  14.173 -0.1651  0.6197  2.9519
 5186SOL    HW227192   1.341   2.847  14.129 -0.1604 -0.4378 -0.0565
 5187SOL     OW27193   1.327   1.473   7.859  0.2680 -0.1101 -0.1046
 5187SOL    HW127194   1.296   1.455   7.770 -2.9743  1.5558  0.7007
 5187SOL    HW227195   1.400   1.411   7.853  1.2033  0.8159  1.9503
 5188SOL     OW27196   3.848   3.506  10.319  0.0787  0.3542 -0.0791
 5188SOL    HW127197   3.904   3.581  10.337 -1.6975  1.8014 -0.4962
 5188SOL    HW227198   3.822   3.514  10.227 -2.4467  0.8070  0.6465
 5189SOL     OW27199   2.394   3.668   4.386 -0.6617  0.1128 -0.0545
 5189SOL    HW127200   2.438   3.651   4.302 -0.6480  0.1513 -0.0554
 5189SOL    HW227201   2.416   3.597   4.445 -1.3834 -1.0987 -1.2470
 5190SOL     OW27202   1.081   3.642  11.744  0.6004  0.3046 -0.0853
 5190SOL    HW127203   1.056   3.734  11.733 -1.3685 -0.0539  1.4544
 5190SOL    HW227204   1.163   3.657  11.791  1.6448 -1.5724 -1.3000
 5191SOL     OW27205   2.627   3.103   9.347 -0.1758 -0.1889 -0.2603
 5191SOL    HW127206   2.609   3.187   9.388  0.8119 -0.9546  1.7845
 5191SOL    HW227207   2.604   3.049   9.423 -1.4112  2.4466  1.2341
 5192SOL     OW27208   0.755   1.886   1.908  0.1256 -0.0900  0.2637
 5192SOL    HW127209   0.814   1.958   1.930 -1.8826  0.4786  3.8546
 5192SOL    HW227210   0.793   1.843   1.832 -0.4786 -1.4357  0.7374
 5193SOL     OW27211   0.877   1.719   4.380 -0.2875  0.3181 -0.4285
 5193SOL    HW127212   0.790   1.683   4.364 -0.4276 -0.0645  1.2218
 5193SOL    HW227213   0.896   1.733   4.288 -2.5825 -2.5932 -1.3575
 5194SOL     OW27214   3.922   4.240  11.103  0.1337  0.2810  0.0938
 5194SOL    HW127215   3.863   4.169  11.078  0.6825  0.7844 -2.6353
 5194SOL    HW227216   3.908   4.262  11.196  0.1846  1.3313 -0.1471
 5195SOL     OW27217   2.449   1.580   5.252  0.0929 -0.0211  0.3712
 5195SOL    HW127218   2.509   1.534   5.193 -1.2788  0.6278 -1.5388
 5195SOL    HW227219   2.512   1.641   5.292  1.1420 -0.7592 -0.1762
 5196SOL     OW27220   0.406   1.270   7.707  0.1514  0.9940  0.0462
 5196SOL    HW127221   0.333   1.317   7.748 -0.8946 -1.4830  1.0511
 5196SOL    HW227222   0.478   1.295   7.765  1.1363  0.2519 -0.8755
 5197SOL     OW27223   4.358   4.457   4.154  0.2846  0.5518 -0.0587
 5197SOL    HW127224   4.379   4.373   4.195  1.5808  0.8286 -0.1640
 5197SOL    HW227225   4.439   4.507   4.147  1.4280 -1.5650 -1.5687
 5198SOL     OW27226   1.958   3.949   4.584  0.8349  0.6273  0.0889
 5198SOL    HW127227   1.936   3.973   4.494  0.1853 -3.2457 -0.7419
 5198SOL    HW227228   2.051   3.926   4.579  0.5124 -0.4814 -0.7364
 5199SOL     OW27229   1.848   0.166   5.097 -0.4792 -0.0774 -0.2793
 5199SOL    HW127230   1.896   0.093   5.057 -0.0077  0.5084 -0.7809
 5199SOL    HW227231   1.800   0.190   5.018  0.0402  0.1742 -0.5159
 5200SOL     OW27232   4.140   0.543   4.886  0.3068  0.4221 -0.2352
 5200SOL    HW127233   4.191   0.615   4.848 -0.6842  1.7201  0.8846
 5200SOL    HW227234   4.073   0.588   4.936  1.6706  0.5842  1.4228
 5201SOL     OW27235   3.391   1.434  11.704  0.0480  0.3914  0.3180
 5201SOL    HW127236   3.479   1.470  11.687  0.1966 -1.3288 -2.4005
 5201SOL    HW227237   3.374   1.516  11.751 -3.1374  0.2706 -0.6597
 5202SOL     OW27238   3.160   0.591  16.057 -0.1689  0.2632  0.0152
 5202SOL    HW127239   3.092   0.524  16.066 -0.4210  0.4729 -0.3505
 5202SOL    HW227240   3.120   0.653  15.997  2.6554  1.7138 -0.3739
 5203SOL     OW27241   0.904   1.252   6.608 -0.0609 -0.0059  0.2160
 5203SOL    HW127242   0.894   1.319   6.540  0.6496 -0.3874 -0.2569
 5203SOL    HW227243   0.995   1.225   6.607 -0.3315 -1.0067  2.3415
 5204SOL     OW27244   1.848   3.799   8.578 -0.1704 -0.7728 -0.0339
 5204SOL    HW127245   1.842   3.884   8.535 -0.0760 -0.8422 -0.1849
 5204SOL    HW227246   1.818   3.734   8.514  0.1953  0.7723 -1.7737
 5205SOL     OW27247   3.031   1.477   3.253 -0.0216  0.2802 -0.4174
 5205SOL    HW127248   3.046   1.566   3.286 -1.2639 -0.4246  2.0112
 5205SOL    HW227249   3.087   1.473   3.175  1.0499  0.6783  0.3274
 5206SOL     OW27250   1.120   0.629  14.545 -0.8538 -0.0865 -0.2803
 5206SOL    HW127251   1.134   0.597  14.456  0.3442  0.1014 -0.1688
 5206SOL    HW227252   1.061   0.702  14.527  1.6025  1.8666 -0.4198
 5207SOL     OW27253   1.083   4.633  10.826 -0.1371 -0.1403  0.4242
 5207SOL    HW127254   1.039   4.548  10.832 -1.2950  0.4982  1.0192
 5207SOL    HW227255   1.128   4.636  10.910  0.5908  0.5225  0.0161
 5208SOL     OW27256   4.307   1.825   8.279  0.4672 -0.0068  0.2663
 5208SOL    HW127257   4.258   1.743   8.269 -1.2228  1.3479 -2.5834
 5208SOL    HW227258   4.335   1.823   8.371  0.0020 -1.2422  0.3888
 5209SOL     OW27259   3.434   1.526   6.308 -0.0330 -0.1297  0.1161
 5209SOL    HW127260   3.459   1.599   6.365 -0.1139 -0.0119  0.0017
 5209SOL    HW227261   3.412   1.465   6.379  2.2013  0.8791  1.6732
 5210SOL     OW27262   0.095   2.390  16.831  0.2277 -0.6196 -0.0167
 5210SOL    HW127263   0.136   2.364  16.914 -1.3378  0.6445  1.1446
 5210SOL    HW227264   0.120   2.320  16.770 -0.1132 -0.3779 -0.4386
 5211SOL     OW27265   2.620   1.847   5.825  0.1834 -0.1251 -0.1338
 5211SOL    HW127266   2.595   1.912   5.759 -1.4555 -0.1437  0.4831
 5211SOL    HW227267   2.685   1.904   5.865 -0.9114  0.9026  0.1948
 5212SOL     OW27268   3.451   2.834  12.243 -0.4197  0.1245 -0.3729
 5212SOL    HW127269   3.368   2.787  12.249  1.1404 -2.7804 -1.5001
 5212SOL    HW227270   3.503   2.786  12.308 -0.5225  1.8590  0.9817
 5213SOL     OW27271   0.409   2.302   6.426 -0.5158  0.3192  0.2437
 5213SOL    HW127272   0.351   2.373   6.399  0.1071  0.8898  0.3996
 5213SOL    HW227273   0.399   2.292   6.520  0.2492 -0.2805  0.2611
 5214SOL     OW27274   0.441   1.671   7.412  0.5587  0.3008 -0.3168
 5214SOL    HW127275   0.497   1.725   7.355  0.6999  1.5114  0.9628
 5214SOL    HW227276   0.499   1.603   7.446 -1.2581 -1.0085  0.1531
 5215SOL     OW27277   2.637   0.646  15.878 -0.4503  0.5965 -0.3011
 5215SOL    HW127278   2.704   0.712  15.893  0.5570 -0.7709  1.1836
 5215SOL    HW227279   2.690   0.579  15.834  0.4935  2.6927 -2.3618
 5216SOL     OW27280   2.718   0.326   2.704 -0.2252 -0.7459  0.4403
 5216SOL    HW127281   2.773   0.389   2.752 -0.5186  0.2096 -0.4700
 5216SOL    HW227282   2.641   0.381   2.722 -0.9602 -1.8927  0.7789
 5217SOL     OW27283   1.161   2.598  14.038  0.3178 -0.0680  0.0015
 5217SOL    HW127284   1.174   2.520  14.091 -0.4153 -0.5873 -0.5750
 5217SOL    HW227285   1.195   2.579  13.950 -2.5131 -2.3971 -0.5962
 5218SOL     OW27286   2.304   3.588   5.482  0.8371  0.6065 -0.7030
 5218SOL    HW127287   2.257   3.535   5.547 -1.0875  1.4065 -1.4213
 5218SOL    HW227288   2.293   3.674   5.523  1.2740  0.2638  0.1249
 5219SOL     OW27289   2.117   1.055   3.114 -0.4456  0.4502  0.2915
 5219SOL    HW127290   2.134   1.126   3.176  1.1838  0.4132 -0.1255
 5219SOL    HW227291   2.137   1.106   3.036 -3.2850  1.3281  0.1358
 5220SOL     OW27292   0.260   2.373   1.538  0.3883  0.6480 -0.2520
 5220SOL    HW127293   0.313   2.421   1.474  1.3684 -1.2451 -0.8455
 5220SOL    HW227294   0.281   2.284   1.509  1.9158  0.3243  1.8486
 5221SOL     OW27295   2.153   4.134   3.447  0.1375  0.1248 -0.5415
 5221SOL    HW127296   2.107   4.212   3.418  1.6654  1.9623  1.9508
 5221SOL    HW227297   2.218   4.172   3.506  0.3748  0.9802 -1.3674
 5222SOL     OW27298   0.726   4.681  14.729  0.3169 -0.2437 -0.1644
 5222SOL    HW127299   0.819   4.660  14.725  0.2467 -0.2926 -1.3275
 5222SOL    HW227300   0.702   4.606  14.674  1.2745  0.8774 -2.0908
 5223SOL     OW27301   0.438   1.760  13.701 -0.2452  0.8331  0.7416
 5223SOL    HW127302   0.476   1.753  13.614 -2.1248 -0.7178  0.0534
 5223SOL    HW227303   0.518   1.765  13.754  0.7636  2.1461 -0.9088
 5224SOL     OW27304   4.139   1.286   3.953  0.3208 -0.0312 -0.1429
 5224SOL    HW127305   4.199   1.215   3.977 -0.3415 -0.4278  0.3220
 5224SOL    HW227306   4.103   1.250   3.872  1.2729  0.1248 -0.6327
 5225SOL     OW27307   1.284   1.544   8.256 -0.0638 -0.6403  0.0673
 5225SOL    HW127308   1.233   1.482   8.203 -2.6983  0.6015  1.1911
 5225SOL    HW227309   1.324   1.604   8.194 -0.1254 -0.8604 -0.1882
 5226SOL     OW27310   2.316   3.520   5.819 -0.6681 -0.3322 -0.0610
 5226SOL    HW127311   2.342   3.429   5.806  3.4276  1.1033 -2.0410
 5226SOL    HW227312   2.222   3.512   5.806 -0.9547  0.5576  1.4783
 5227SOL     OW27313   2.403   2.620  16.628  0.0019 -0.2396 -0.2089
 5227SOL    HW127314   2.477   2.565  16.602  0.6637  1.0481 -1.0522
 5227SOL    HW227315   2.434   2.710  16.622 -2.0235  0.3186 -2.0629
 5228SOL     OW27316   2.545   3.170   7.189 -0.1315  0.1334 -0.5091
 5228SOL    HW127317   2.606   3.106   7.153  1.4786  2.1398 -1.3373
 5228SOL    HW227318   2.461   3.157   7.145  0.4763 -1.1675 -1.2822
 5229SOL     OW27319   0.197   4.562   3.138 -0.5587  0.3057  0.2576
 5229SOL    HW127320   0.266   4.610   3.092 -0.4532  0.2493  0.3600
 5229SOL    HW227321   0.160   4.527   3.056  2.7867  0.3426 -1.2474
 5230SOL     OW27322   2.690   4.228   2.180  0.4339 -0.0665 -0.1372
 5230SOL    HW127323   2.761   4.291   2.168 -0.0861  0.5890  0.2429
 5230SOL    HW227324   2.740   4.157   2.221 -0.8902 -1.8712 -1.6484
 5231SOL     OW27325   0.952   4.582   6.945  0.1847 -0.1163  0.0411
 5231SOL    HW127326   0.905   4.597   6.863  1.9295  1.5584 -0.6259
 5231SOL    HW227327   0.928   4.667   6.983  0.3406  0.1229 -0.4007
 5232SOL     OW27328   4.555   1.230   3.018 -0.3191 -0.5549  0.4283
 5232SOL    HW127329   4.557   1.274   3.104 -0.5182 -0.5198  0.4154
 5232SOL    HW227330   4.589   1.145   3.045  0.5903  0.1798  1.6068
 5233SOL     OW27331   1.869   2.178  14.831  0.5330 -0.0419 -0.4245
 5233SOL    HW127332   1.819   2.114  14.782 -2.1459  0.6425  1.4186
 5233SOL    HW227333   1.899   2.135  14.911 -1.4512  0.7211  0.7138
 5234SOL     OW27334   2.173   0.434  15.268  0.3358 -0.2542  0.0942
 5234SOL    HW127335   2.205   0.490  15.198  4.0205 -1.9727  0.3851
 5234SOL    HW227336   2.254   0.403  15.309 -0.3246  0.2655  1.7817
 5235SOL     OW27337   3.705   4.688   8.564 -0.1520  0.1436  0.1938
 5235SOL    HW127338   3.625   0.004   8.552  0.3384  0.0715 -3.1173
 5235SOL    HW227339   3.735   4.689   8.473 -0.0505  2.4540  0.2458
 5236SOL     OW27340   1.249   4.613   4.257 -0.5001 -0.3063  0.0952
 5236SOL    HW127341   1.237   4.526   4.218 -0.8956 -0.7342  1.1549
 5236SOL    HW227342   1.162   4.641   4.287  0.4934  1.7970  0.9289
 5237SOL     OW27343   0.539   4.499   3.496 -0.4761  0.8336  0.5803
 5237SOL    HW127344   0.597   4.464   3.429  0.5010  0.9029  1.3938
 5237SOL    HW227345   0.560   4.592   3.486  1.1837  0.4827  0.8779
 5238SOL     OW27346   4.680   3.817  11.042  0.1584  0.0191  0.2714
 5238SOL    HW127347   0.029   3.852  11.008  0.5502  0.6049  1.8412
 5238SOL    HW227348   4.694   3.723  11.050 -2.2911 -0.2054  1.5220
 5239SOL     OW27349   3.783   3.750   9.685  0.2992 -0.2429 -0.3801
 5239SOL    HW127350   3.734   3.709   9.756 -0.1802  1.5318  0.3076
 5239SOL    HW227351   3.830   3.677   9.645 -1.2218 -1.9740  1.0350
 5240SOL     OW27352   2.675   3.478  12.062  0.1780 -0.6953 -0.3828
 5240SOL    HW127353   2.678   3.383  12.071  1.1421 -0.4918  1.5020
 5240SOL    HW227354   2.744   3.498  12.126 -1.2159 -0.3490  1.0009
 5241SOL     OW27355   0.450   2.038   3.461 -0.1547  0.3811 -0.3858
 5241SOL    HW127356   0.517   1.981   3.499  0.1050 -0.0639 -1.5033
 5241SOL    HW227357   0.504   2.068   3.387  0.3447  0.2292 -0.0790
 5242SOL     OW27358   0.573   2.045  15.804  0.5924 -0.1134 -0.4354
 5242SOL    HW127359   0.507   2.067  15.870  1.2104  1.8673 -0.4662
 5242SOL    HW227360   0.558   1.951  15.804 -0.8720  0.1217  0.3560
 5243SOL     OW27361   1.925   4.600   6.902  0.0304 -0.1438 -0.0646
 5243SOL    HW127362   1.880   4.685   6.903  3.4466  1.6425  1.9735
 5243SOL    HW227363   2.016   4.627   6.892 -0.2492  0.3913 -1.2118
 5244SOL     OW27364   4.567   3.857   8.646 -0.3036  0.1984  0.4044
 5244SOL    HW127365   4.623   3.787   8.680  0.9215  1.4125  0.8468
 5244SOL    HW227366   4.617   3.899   8.577 -0.1687 -0.6868 -0.0366
 5245SOL     OW27367   3.305   2.382   8.075  0.3962 -0.2789 -0.0764
 5245SOL    HW127368   3.333   2.335   7.997 -1.1675 -0.4081 -0.5729
 5245SOL    HW227369   3.214   2.356   8.091  0.0225  2.0506  1.5021
 5246SOL     OW27370   3.692   1.873   7.536  0.2052  0.1187  0.0676
 5246SOL    HW127371   3.656   1.928   7.466 -1.1029 -0.1595  0.5321
 5246SOL    HW227372   3.782   1.860   7.506  0.2934  0.9629 -0.0374
 5247SOL     OW27373   2.638   1.027   3.343 -0.3830 -0.1742 -0.1843
 5247SOL    HW127374   2.706   1.075   3.391 -0.0796  1.5034 -2.2608
 5247SOL    HW227375   2.657   0.934   3.353 -2.0328 -0.5439 -0.5264
 5248SOL     OW27376   3.892   0.695   5.628 -0.3458 -0.5823 -0.0682
 5248SOL    HW127377   3.813   0.747   5.645  0.4047  0.7257 -0.6157
 5248SOL    HW227378   3.905   0.717   5.535  1.8124 -0.5054  0.2502
 5249SOL     OW27379   1.092   0.799  16.310 -0.0668  0.0275  0.4755
 5249SOL    HW127380   1.046   0.830  16.233 -1.3142  0.4684  1.4027
 5249SOL    HW227381   1.175   0.790  16.263 -0.1678  0.0986  0.2839
 5250SOL     OW27382   0.888   1.194   7.286  0.0697  0.2753  1.2336
 5250SOL    HW127383   0.844   1.225   7.206  1.8040 -1.6498 -0.4805
 5250SOL    HW227384   0.961   1.140   7.255 -0.1212  0.2748  0.7788
 5251SOL     OW27385   0.776   2.988  12.444  0.4659 -0.0948  0.1402
 5251SOL    HW127386   0.818   2.995  12.358 -0.7052  2.9802 -0.2007
 5251SOL    HW227387   0.691   2.948  12.425 -0.1398  0.7520  1.0834
 5252SOL     OW27388   2.802   3.474   7.556 -0.3462 -0.0388 -0.5045
 5252SOL    HW127389   2.782   3.448   7.466  1.5506  0.5589 -1.0865
 5252SOL    HW227390   2.885   3.431   7.573 -0.2704 -0.7649 -2.6793
 5253SOL     OW27391   1.911   0.318   8.498  0.2100  0.2183 -0.1986
 5253SOL    HW127392   1.832   0.333   8.448 -0.9054  1.9461  2.0753
 5253SOL    HW227393   1.977   0.376   8.460  2.3734 -1.4598  0.9151
 5254SOL     OW27394   3.227   2.971   8.603  0.0443  0.2253  0.8100
 5254SOL    HW127395   3.262   2.886   8.630 -0.6914 -0.3973 -0.1863
 5254SOL    HW227396   3.209   3.008   8.689  0.4555  1.0007  0.5636
 5255SOL     OW27397   0.760   2.310  15.620  0.1224 -0.0598  0.2951
 5255SOL    HW127398   0.843   2.353  15.599  1.4055 -2.1818  1.0857
 5255SOL    HW227399   0.699   2.382  15.600  0.7330  0.5052  0.4664
 5256SOL     OW27400   2.246   4.461  11.779 -0.1910  0.5008 -0.2771
 5256SOL    HW127401   2.288   4.472  11.865 -0.1673  0.5975 -0.3017
 5256SOL    HW227402   2.161   4.442  11.818  0.6666 -1.8931  0.4548
 5257SOL     OW27403   4.581   3.437   3.709  0.0305  0.6453  0.2118
 5257SOL    HW127404   4.674   3.453   3.724 -0.9265  2.8336  3.8951
 5257SOL    HW227405   4.567   3.501   3.639  0.9692  0.0797 -0.4993
 5258SOL     OW27406   1.148   2.484   3.176 -0.2075  0.5829 -0.2396
 5258SOL    HW127407   1.236   2.447   3.189 -0.4124 -0.3060 -1.3342
 5258SOL    HW227408   1.130   2.433   3.096 -2.7169 -1.3803  1.5624
 5259SOL     OW27409   0.425   2.388   0.687 -0.1574 -0.2404 -0.5686
 5259SOL    HW127410   0.333   2.382   0.662 -0.6559  1.4198  0.8809
 5259SOL    HW227411   0.466   2.404   0.602  0.6818  2.7775  0.4134
 5260SOL     OW27412   0.219   0.223  17.425 -0.7624  0.7313  0.3581
 5260SOL    HW127413   0.189   0.147  17.375 -1.3154  0.8711  0.4836
 5260SOL    HW227414   0.299   0.188  17.465  1.5995  2.3186 -2.9694
 5261SOL     OW27415   2.185   3.284  10.159 -0.1566  0.7588  0.3583
 5261SOL    HW127416   2.146   3.222  10.098  0.9250 -0.5595  1.0027
 5261SOL    HW227417   2.104   3.312  10.202  0.0865  0.8717  0.7491
 5262SOL     OW27418   3.387   4.027   1.207 -0.7472  0.2061  0.0149
 5262SOL    HW127419   3.337   3.956   1.247  0.4068 -0.6089  0.0014
 5262SOL    HW227420   3.325   4.066   1.146 -1.2447 -0.4297  0.1144
 5263SOL     OW27421   4.550   1.511   3.466  0.1769 -0.7263  0.0102
 5263SOL    HW127422   4.474   1.504   3.407  0.7495 -0.2101 -0.7886
 5263SOL    HW227423   4.531   1.456   3.542  0.0274 -0.5438  0.1051
 5264SOL     OW27424   4.063   3.731   6.888 -0.0577  0.2420  0.1945
 5264SOL    HW127425   4.020   3.656   6.926 -1.2819  0.4888 -0.7051
 5264SOL    HW227426   4.077   3.794   6.959  1.0281 -2.3645  2.2664
 5265SOL     OW27427   4.621   2.471  12.674  0.3552 -0.8811  0.2445
 5265SOL    HW127428   4.655   2.493  12.587 -0.5070 -0.0060  0.1303
 5265SOL    HW227429   4.671   2.391  12.687  1.3859 -0.4228 -0.8783
 5266SOL     OW27430   2.630   3.682  16.783 -0.1849  0.4743 -0.7408
 5266SOL    HW127431   2.542   3.649  16.804  0.1390  1.0959  1.6195
 5266SOL    HW227432   2.642   3.747  16.852 -1.3551  0.9007 -0.9331
 5267SOL     OW27433   1.981   3.255   4.416 -0.0528  0.1908 -0.3461
 5267SOL    HW127434   1.887   3.270   4.406 -0.0322  0.1661 -0.5651
 5267SOL    HW227435   1.978   3.188   4.485  1.4312 -0.2979 -0.7552
 5268SOL     OW27436   2.770   3.413   4.992  0.1476 -0.1211  0.1402
 5268SOL    HW127437   2.797   3.341   5.050 -1.4083 -0.8564 -0.0589
 5268SOL    HW227438   2.826   3.401   4.916  0.4584 -1.3816  0.5680
 5269SOL     OW27439   4.083   0.274   6.385  0.6605  0.4371  0.8020
 5269SOL    HW127440   4.148   0.337   6.415  0.8503  0.8437 -0.4655
 5269SOL    HW227441   4.059   0.246   6.474  1.3134 -1.1323  0.4890
 5270SOL     OW27442   3.739   0.703  14.040  0.3046 -0.4049 -0.1453
 5270SOL    HW127443   3.826   0.733  14.066  1.1016 -0.9511 -2.1222
 5270SOL    HW227444   3.687   0.778  14.069 -0.0377 -0.4762 -0.5695
 5271SOL     OW27445   0.734   4.022  14.664  0.1424  0.0651 -0.4671
 5271SOL    HW127446   0.727   4.022  14.760 -1.6491 -0.7437 -0.5948
 5271SOL    HW227447   0.647   4.059  14.649  0.1310 -0.0769 -0.7512
 5272SOL     OW27448   0.181   4.519   7.840  0.0996  0.4044  0.5203
 5272SOL    HW127449   0.124   4.450   7.806 -0.6752  1.4208 -0.2444
 5272SOL    HW227450   0.209   4.493   7.928 -0.1165 -1.4627  0.0458
 5273SOL     OW27451   4.350   1.464  16.127 -0.1690 -0.2936 -0.7731
 5273SOL    HW127452   4.257   1.479  16.107 -1.2799 -1.5041  3.5593
 5273SOL    HW227453   4.360   1.539  16.186 -0.3548  1.2804 -2.7446
 5274SOL     OW27454   0.966   4.248   2.406 -0.2914  0.3165  0.0294
 5274SOL    HW127455   0.965   4.344   2.404  1.7767  0.3194 -0.6677
 5274SOL    HW227456   0.872   4.233   2.395 -0.6553  1.4388  1.4892
 5275SOL     OW27457   1.261   2.036   5.243 -0.0796  0.0506 -0.1059
 5275SOL    HW127458   1.222   1.985   5.315  0.7693  0.3642  0.5768
 5275SOL    HW227459   1.325   1.976   5.204 -0.1810 -0.4371  0.4620
 5276SOL     OW27460   3.674   2.160  12.080 -0.3777  0.0466  0.1655
 5276SOL    HW127461   3.625   2.174  12.161 -2.5792  0.5499 -1.2495
 5276SOL    HW227462   3.728   2.085  12.106  0.9386  0.7159 -0.6591
 5277SOL     OW27463   1.399   0.221   2.570 -0.2811 -0.4845  0.5128
 5277SOL    HW127464   1.379   0.138   2.612 -1.8701 -0.1963  0.3092
 5277SOL    HW227465   1.351   0.280   2.628  0.2378  1.9836 -1.5725
 5278SOL     OW27466   1.341   0.361   4.665 -0.1616  0.3476 -0.7157
 5278SOL    HW127467   1.409   0.375   4.730 -1.5786  0.2339  0.7790
 5278SOL    HW227468   1.390   0.404   4.594  1.2731 -1.5999 -0.9057
 5279SOL     OW27469   0.673   4.363  15.567  0.6326  0.2563 -0.4710
 5279SOL    HW127470   0.738   4.340  15.634  1.1479 -0.4662 -1.2239
 5279SOL    HW227471   0.625   4.283  15.546  1.0717 -0.1398  0.0246
 5280SOL     OW27472   0.535   2.837  12.438 -0.0981 -0.6731 -0.0232
 5280SOL    HW127473   0.447   2.803  12.450 -0.0625 -0.3977  1.0772
 5280SOL    HW227474   0.528   2.861  12.346 -0.2438  1.0856  0.4267
 5281SOL     OW27475   4.127   2.136   9.322  0.6842  0.1233 -0.2951
 5281SOL    HW127476   4.097   2.066   9.380  2.1422  0.0817  0.3874
 5281SOL    HW227477   4.216   2.104   9.311 -0.7226 -3.4396 -1.5100
 5282SOL     OW27478   3.301   3.124   3.090 -0.2379  0.0540 -0.2313
 5282SOL    HW127479   3.245   3.190   3.050 -1.7543 -2.1052 -1.7086
 5282SOL    HW227480   3.238   3.089   3.153  2.6530 -2.6764  1.1176
 5283SOL     OW27481   2.938   4.006   9.073 -0.3213 -0.3318 -0.3731
 5283SOL    HW127482   2.845   3.989   9.056 -0.6544 -1.5319  2.6621
 5283SOL    HW227483   2.947   4.081   9.014 -2.9942  0.3212  0.0162
 5284SOL     OW27484   1.868   3.819   6.108  0.4656  0.6189 -0.2517
 5284SOL    HW127485   1.922   3.770   6.046  0.2608 -0.9743  0.8250
 5284SOL    HW227486   1.896   3.784   6.193  2.1127  1.5189 -0.4258
 5285SOL     OW27487   3.311   3.144   0.725 -0.1679 -0.2147  0.1968
 5285SOL    HW127488   3.363   3.179   0.797 -0.3248  0.3661  0.0215
 5285SOL    HW227489   3.284   3.221   0.675 -2.0328 -0.7936  0.3031
 5286SOL     OW27490   2.645   2.413   2.578 -0.0652 -0.1867 -0.5266
 5286SOL    HW127491   2.687   2.460   2.506 -0.6206 -0.5449 -1.0841
 5286SOL    HW227492   2.629   2.328   2.537  0.1070 -1.2588  1.6318
 5287SOL     OW27493   3.899   0.354   4.040 -0.0996  0.3314  0.5922
 5287SOL    HW127494   3.893   0.334   3.947 -0.4873 -0.7162  0.8400
 5287SOL    HW227495   3.992   0.339   4.057  0.1810  0.1934 -1.0634
 5288SOL     OW27496   2.214   0.761   4.078  0.1382  0.3552 -0.3260
 5288SOL    HW127497   2.170   0.720   4.004 -0.8125 -0.4528  0.7056
 5288SOL    HW227498   2.139   0.771   4.136  0.3445 -2.4018  0.3960
 5289SOL     OW27499   2.126   4.361   5.801 -0.2715  0.1925  0.3504
 5289SOL    HW127500   2.208   4.391   5.840 -0.5687 -0.4944  1.5238
 5289SOL    HW227501   2.154   4.290   5.743 -2.8504 -1.1570  0.7341
 5290SOL     OW27502   2.226   4.408   3.710 -0.2792 -0.6579  0.2967
 5290SOL    HW127503   2.235   4.374   3.799  0.9258  0.2568  0.5270
 5290SOL    HW227504   2.287   4.356   3.658  1.1373  0.6088  0.7080
 5291SOL     OW27505   4.686   1.540  16.367 -0.4336 -0.4294  0.3682
 5291SOL    HW127506   0.031   1.589  16.388 -0.9744  0.1659  1.0396
 5291SOL    HW227507   4.693   1.473  16.436 -0.4959  0.0651  0.8536
 5292SOL     OW27508   0.931   1.640  13.768  0.1398  0.2890  0.3226
 5292SOL    HW127509   0.954   1.616  13.678 -4.3286 -0.5391 -0.5655
 5292SOL    HW227510   0.933   1.551  13.805  1.5161  0.3924  0.5225
 5293SOL     OW27511   1.092   0.113   5.378  0.3963 -0.5454  0.5151
 5293SOL    HW127512   1.044   0.049   5.430  0.8416  0.7221  2.4966
 5293SOL    HW227513   1.110   0.070   5.294  0.9863 -0.3483  0.5389
 5294SOL     OW27514   2.960   0.306  14.570  0.1592 -0.0162  0.3524
 5294SOL    HW127515   3.031   0.246  14.593  1.0246  0.5976 -0.7075
 5294SOL    HW227516   2.889   0.242  14.573 -0.5655  0.7812 -0.0022
 5295SOL     OW27517   3.899   0.976   9.130 -0.0626  0.4131 -0.3469
 5295SOL    HW127518   3.950   0.925   9.193 -0.3659  1.0059  0.3740
 5295SOL    HW227519   3.960   1.048   9.113 -0.5493  1.2842  1.6677
 5296SOL     OW27520   4.286   2.550   7.627 -0.2355  0.2022  0.1130
 5296SOL    HW127521   4.258   2.475   7.679 -1.3243  0.4054 -0.1710
 5296SOL    HW227522   4.358   2.506   7.583 -1.5654 -0.3197 -1.5180
 5297SOL     OW27523   1.184   4.341  16.552  0.0206  0.6624 -0.4860
 5297SOL    HW127524   1.214   4.267  16.500  0.8907 -0.4581  1.6225
 5297SOL    HW227525   1.246   4.334  16.624  0.0940 -0.5868 -0.6759
 5298SOL     OW27526   2.294   1.777  13.803  0.2284  0.3625  0.1519
 5298SOL    HW127527   2.347   1.838  13.751 -0.3237  0.8487  0.1528
 5298SOL    HW227528   2.290   1.696  13.752  1.3036  0.9598 -0.8817
 5299SOL     OW27529   3.679   4.076   3.838  0.4337  0.0435 -0.1855
 5299SOL    HW127530   3.674   4.011   3.908 -0.3097 -0.7732 -0.9899
 5299SOL    HW227531   3.592   4.114   3.844  0.3746  0.3316 -2.9579
 5300SOL     OW27532   4.611   0.331   7.740  0.0203 -0.2354 -0.3423
 5300SOL    HW127533   4.615   0.393   7.812  0.4964 -1.3497  0.5930
 5300SOL    HW227534   4.629   0.396   7.671  0.8480 -1.6752 -1.5066
 5301SOL     OW27535   0.482   3.978   6.461  0.0718 -0.1720  0.0109
 5301SOL    HW127536   0.444   4.050   6.411 -0.7151 -1.0770 -0.7064
 5301SOL    HW227537   0.410   3.916   6.474  0.4468 -1.2400 -2.8080
 5302SOL     OW27538   0.613   2.227   1.933 -0.0662  0.0011 -0.2113
 5302SOL    HW127539   0.588   2.239   1.841  2.3630  0.8250 -0.7729
 5302SOL    HW227540   0.555   2.157   1.965  0.1174  0.8863  2.0249
 5303SOL     OW27541   3.330   2.378   9.238  0.0514  0.1296 -0.8071
 5303SOL    HW127542   3.318   2.340   9.151  0.4687 -0.9213 -0.3969
 5303SOL    HW227543   3.384   2.312   9.280 -0.7112 -1.6666 -2.6382
 5304SOL     OW27544   2.272   3.631   7.890  0.2958  0.1471  0.1488
 5304SOL    HW127545   2.309   3.645   7.803 -1.0305 -0.0892 -0.4585
 5304SOL    HW227546   2.211   3.558   7.880  2.5660 -1.8827  1.2771
 5305SOL     OW27547   3.066   2.128   3.701 -0.1972  0.9712  0.0425
 5305SOL    HW127548   3.161   2.117   3.707 -0.1963  1.1121  0.3001
 5305SOL    HW227549   3.059   2.205   3.758  1.6678  0.4622  0.9814
 5306SOL     OW27550   4.183   2.455   7.381  0.2482 -0.3481  0.1594
 5306SOL    HW127551   4.181   2.520   7.451  0.9519 -0.3076  0.1395
 5306SOL    HW227552   4.109   2.396   7.396  1.6317 -1.8832  0.8980
 5307SOL     OW27553   3.640   2.306   4.603  1.0488 -0.0823 -0.5993
 5307SOL    HW127554   3.607   2.221   4.576  0.2138 -0.1057  0.4449
 5307SOL    HW227555   3.558   2.356   4.609  3.1240  3.1955  0.6529
 5308SOL     OW27556   1.582   1.649  13.767 -0.2506 -0.8549  0.9978
 5308SOL    HW127557   1.586   1.599  13.848 -1.1771  0.0019  1.5695
 5308SOL    HW227558   1.647   1.606  13.712 -0.4031  1.3554 -0.9598
 5309SOL     OW27559   0.168   3.651   6.786 -0.0557 -0.2593  0.5723
 5309SOL    HW127560   0.176   3.629   6.878  1.4358 -0.8477  0.3028
 5309SOL    HW227561   0.101   3.720   6.792  0.5800  0.3472  0.6566
 5310SOL     OW27562   2.788   3.138   8.183 -0.1188 -0.6292  0.3609
 5310SOL    HW127563   2.814   3.171   8.269  0.6425  4.1480 -1.6488
 5310SOL    HW227564   2.731   3.066   8.209 -2.0316  0.7005 -0.0774
 5311SOL     OW27565   0.422   0.047   1.862  0.2516 -0.2354 -0.1263
 5311SOL    HW127566   0.513   0.078   1.866  0.3799 -0.2955 -2.4047
 5311SOL    HW227567   0.420   0.065   1.768  1.4627  0.4181 -0.0295
 5312SOL     OW27568   3.897   3.986   6.396  0.4898  0.1114  0.1247
 5312SOL    HW127569   3.885   3.986   6.301 -0.7953  4.5715  0.2470
 5312SOL    HW227570   3.875   4.076   6.421 -0.3939  0.5799 -2.3184
 5313SOL     OW27571   2.472   1.707  14.787 -0.0698  0.2664  0.5428
 5313SOL    HW127572   2.482   1.658  14.706 -0.3664  0.5699  0.3208
 5313SOL    HW227573   2.565   1.707  14.810  0.5468 -0.6021 -1.9259
 5314SOL     OW27574   2.617   4.669   8.494 -0.0367  0.2548 -0.0624
 5314SOL    HW127575   2.620   4.705   8.583  0.8998  0.3350 -0.1222
 5314SOL    HW227576   2.609   4.576   8.518  2.1833  0.3630  1.1159
 5315SOL     OW27577   3.998   3.586  14.093 -0.6181  0.2880 -0.3212
 5315SOL    HW127578   3.940   3.644  14.044  0.5480  1.3518 -0.4569
 5315SOL    HW227579   3.971   3.496  14.076  1.7578 -0.5157  0.0919
 5316SOL     OW27580   0.914   2.730   1.012  0.1274 -0.4269 -0.2984
 5316SOL    HW127581   0.921   2.638   1.038 -0.4143 -0.1217  0.9595
 5316SOL    HW227582   0.954   2.734   0.925  1.0288  2.5656  0.2671
 5317SOL     OW27583   3.419   3.226   5.955 -0.2287 -0.0629 -0.2914
 5317SOL    HW127584   3.462   3.279   5.888  0.1609  2.9992  2.3856
 5317SOL    HW227585   3.330   3.223   5.919  0.1846  2.1540 -1.5011
 5318SOL     OW27586   3.431   1.827   4.808  0.1659  0.1778 -0.1429
 5318SOL    HW127587   3.336   1.833   4.823  0.3268 -0.8887  1.2992
 5318SOL    HW227588   3.431   1.752   4.749  0.8575  0.5929 -0.6679
 5319SOL     OW27589   0.233   3.137  11.128  0.5003  0.2880  0.0584
 5319SOL    HW127590   0.260   3.069  11.067  1.7853  0.8927 -0.0493
 5319SOL    HW227591   0.234   3.087  11.210 -0.1882 -0.6471 -0.5078
 5320SOL     OW27592   1.107   4.020   8.541  0.2934  0.1322 -0.6180
 5320SOL    HW127593   1.060   4.091   8.585 -2.5322 -1.5292 -1.0271
 5320SOL    HW227594   1.184   4.071   8.513 -0.0477  0.4631 -0.9475
 5321SOL     OW27595   2.128   3.090  16.382 -0.0389 -0.5001 -0.2691
 5321SOL    HW127596   2.158   3.177  16.355  0.8409 -0.3680  1.1568
 5321SOL    HW227597   2.080   3.058  16.306 -2.9683 -0.7311  1.6583
 5322SOL     OW27598   0.215   1.988   6.710 -0.6616  0.6291  0.3887
 5322SOL    HW127599   0.171   2.073   6.721  0.4681  1.1981  0.4881
 5322SOL    HW227600   0.281   1.991   6.779 -1.0964  0.1145  0.8273
 5323SOL     OW27601   1.156   2.285   0.739  0.4754  0.2778  0.4426
 5323SOL    HW127602   1.216   2.321   0.673 -1.0002  1.4540 -0.2440
 5323SOL    HW227603   1.215   2.300   0.812  0.0889  1.3236  0.5365
 5324SOL     OW27604   0.602   2.462  13.490  0.5082 -0.3684  0.7159
 5324SOL    HW127605   0.514   2.472  13.453  1.4050  0.8021 -1.1260
 5324SOL    HW227606   0.655   2.520  13.435 -1.4355  0.4371 -0.3186
 5325SOL     OW27607   1.249   0.895   6.566 -0.4483 -0.0969  0.3359
 5325SOL    HW127608   1.342   0.912   6.551 -0.2935  1.6196  3.2103
 5325SOL    HW227609   1.251   0.815   6.513 -2.0021 -0.8507  1.3992
 5326SOL     OW27610   0.425   2.955   5.128  0.0210 -0.0580 -0.8472
 5326SOL    HW127611   0.418   2.880   5.068  0.0537  0.6029 -1.6805
 5326SOL    HW227612   0.338   2.942   5.166  1.1923 -3.3245  0.7377
 5327SOL     OW27613   0.043   4.702   4.039  0.3995  0.2423  0.3477
 5327SOL    HW127614   0.101   4.649   3.984  1.2446  0.3150  1.1732
 5327SOL    HW227615   0.052   4.664   4.126 -1.3127 -1.6084 -0.3092
 5328SOL     OW27616   1.630   1.902   6.527 -0.0924  0.3037  0.0614
 5328SOL    HW127617   1.647   1.905   6.621  0.5788  0.3854 -0.0601
 5328SOL    HW227618   1.718   1.914   6.492  0.0890 -0.3353  0.2989
 5329SOL     OW27619   4.408   4.141   6.378 -0.2641  0.1920 -0.0613
 5329SOL    HW127620   4.417   4.214   6.316 -1.8478 -0.1017 -0.6479
 5329SOL    HW227621   4.498   4.126   6.404 -0.3408 -0.8294 -0.4048
 5330SOL     OW27622   0.566   3.858   8.201 -0.4900  0.3710  0.1761
 5330SOL    HW127623   0.549   3.764   8.191 -1.4161  0.3418  2.0150
 5330SOL    HW227624   0.498   3.901   8.149  2.1767 -1.3983 -4.7383
 5331SOL     OW27625   1.821   4.436   3.120  0.0312  0.3279  0.2233
 5331SOL    HW127626   1.741   4.470   3.160  1.6135  1.1667  2.6646
 5331SOL    HW227627   1.851   4.509   3.066  1.0054  0.5259  1.0386
 5332SOL     OW27628   1.475   1.501   6.888  0.2040 -0.2087 -0.1895
 5332SOL    HW127629   1.548   1.549   6.928  1.6197 -3.1599  0.8113
 5332SOL    HW227630   1.500   1.410   6.906  1.4367 -0.0037 -0.8483
 5333SOL     OW27631   1.874   3.843   9.127  0.8147 -0.1503  0.1859
 5333SOL    HW127632   1.808   3.812   9.066  1.0470 -0.2724 -0.0022
 5333SOL    HW227633   1.941   3.879   9.068 -1.8247  0.5295 -2.3965
 5334SOL     OW27634   0.429   2.997   5.529 -0.4782  0.4531  0.3386
 5334SOL    HW127635   0.418   3.073   5.472  3.4998  0.0951 -0.9131
 5334SOL    HW227636   0.447   3.046   5.610 -0.4191  0.2373  0.4560
 5335SOL     OW27637   0.654   0.507  16.969  0.5259  0.2540  0.3527
 5335SOL    HW127638   0.562   0.522  16.948  1.0323 -1.5004 -3.0332
 5335SOL    HW227639   0.669   0.420  16.931 -1.3737 -0.7774  1.9157
 5336SOL     OW27640   0.845   4.197   3.136  0.1398 -0.1065  0.4301
 5336SOL    HW127641   0.901   4.166   3.207  0.8391  1.1127  0.4141
 5336SOL    HW227642   0.908   4.199   3.063 -0.4011 -1.6217 -0.0628
 5337SOL     OW27643   2.436   3.620   2.844  0.3572  0.4260 -0.1394
 5337SOL    HW127644   2.402   3.699   2.802 -0.1536  1.1043  1.5463
 5337SOL    HW227645   2.457   3.575   2.762  0.6519  0.8688 -0.3039
 5338SOL     OW27646   1.243   4.096  12.075 -0.6712  0.5390 -0.2822
 5338SOL    HW127647   1.206   4.058  11.995  0.2692 -0.7425 -0.0858
 5338SOL    HW227648   1.179   4.166  12.094 -2.6047 -1.2709 -0.1228
 5339SOL     OW27649   0.958   3.680   5.701 -0.1846  0.2683 -0.2653
 5339SOL    HW127650   0.891   3.693   5.768 -1.9590 -1.7170 -1.6605
 5339SOL    HW227651   1.032   3.716   5.750  0.5340 -1.8076  0.1757
 5340SOL     OW27652   3.556   1.556  16.677 -0.6933  0.0472 -0.0096
 5340SOL    HW127653   3.587   1.630  16.728 -0.6158  1.7455 -2.5119
 5340SOL    HW227654   3.607   1.485  16.716  0.8366  0.6088 -0.9819
 5341SOL     OW27655   0.797   0.347   3.803  0.1491 -0.3320  0.4185
 5341SOL    HW127656   0.729   0.373   3.865 -0.4224  0.0134 -0.3552
 5341SOL    HW227657   0.876   0.340   3.857 -1.2706 -1.2024  2.4367
 5342SOL     OW27658   1.480   3.627   4.616  0.3240 -0.3775  0.5043
 5342SOL    HW127659   1.558   3.586   4.652  1.3261  0.1985 -1.0296
 5342SOL    HW227660   1.411   3.561   4.619 -0.6236  0.6341  1.2868
 5343SOL     OW27661   1.830   4.344   1.790 -0.6017  0.2698  0.0990
 5343SOL    HW127662   1.800   4.347   1.700 -0.7104  1.8920  0.1746
 5343SOL    HW227663   1.853   4.435   1.810  1.3958 -0.5144  1.3941
 5344SOL     OW27664   4.073   0.383  12.873 -0.6129 -0.3364  0.1994
 5344SOL    HW127665   4.076   0.427  12.958 -0.4738  1.5920 -0.8120
 5344SOL    HW227666   4.066   0.293  12.905  1.3867 -0.4430  0.3495
 5345SOL     OW27667   3.075   2.001   5.856 -0.1475  0.7348  0.0605
 5345SOL    HW127668   3.009   2.069   5.865 -2.0612 -0.6616 -3.3519
 5345SOL    HW227669   3.030   1.916   5.860  2.1916 -0.4864  0.4373
 5346SOL     OW27670   3.414   4.248   2.717 -0.7957 -0.1890 -0.1534
 5346SOL    HW127671   3.490   4.292   2.754 -0.5929 -1.7834  1.3370
 5346SOL    HW227672   3.380   4.203   2.796 -2.8900  1.0419 -0.3504
 5347SOL     OW27673   4.077   4.092   6.854  0.6384  0.1087 -0.1268
 5347SOL    HW127674   4.106   4.183   6.849 -1.5809  0.7294 -1.6504
 5347SOL    HW227675   3.987   4.099   6.824 -0.2414 -1.7293  2.0850
 5348SOL     OW27676   0.505   0.402   8.518 -0.5954  0.3709 -0.0364
 5348SOL    HW127677   0.503   0.489   8.558 -1.3790 -0.5714  1.9730
 5348SOL    HW227678   0.498   0.431   8.427 -1.6770  1.3527  0.3587
 5349SOL     OW27679   1.902   0.624   6.994 -0.3280 -0.5872  0.6119
 5349SOL    HW127680   1.953   0.694   7.034 -0.0457 -1.8794  2.5104
 5349SOL    HW227681   1.872   0.576   7.071  0.2928  0.8264  1.7463
 5350SOL     OW27682   1.960   0.738   7.585  0.1661 -0.0924  0.0805
 5350SOL    HW127683   1.980   0.822   7.626  0.6616  1.0107 -2.4335
 5350SOL    HW227684   1.960   0.681   7.661 -1.1074  3.7490  2.9833
 5351SOL     OW27685   3.331   2.809   4.981 -0.0496  0.1892 -0.5726
 5351SOL    HW127686   3.424   2.793   4.997 -0.6121 -2.2412  0.1523
 5351SOL    HW227687   3.308   2.745   4.914 -0.8764  0.4741 -0.5606
 5352SOL     OW27688   0.583   1.948   2.227 -0.8037  0.2891  0.0284
 5352SOL    HW127689   0.537   2.012   2.172  1.1496  1.6053 -0.0663
 5352SOL    HW227690   0.654   2.004   2.259 -0.1355 -0.4684 -0.1348
 5353SOL     OW27691   2.290   3.640  12.739 -0.4041  0.3489 -0.1686
 5353SOL    HW127692   2.353   3.600  12.679 -0.9424 -0.4356 -0.2086
 5353SOL    HW227693   2.311   3.594  12.820 -1.2158 -1.8612 -1.2144
 5354SOL     OW27694   3.095   1.767   9.614 -0.0989  0.3041 -0.4791
 5354SOL    HW127695   3.053   1.843   9.655 -2.3828 -1.6737  0.8215
 5354SOL    HW227696   3.104   1.797   9.523  3.5283  1.6078  0.3086
 5355SOL     OW27697   3.292   0.730   9.792 -0.3900 -0.1023  0.1853
 5355SOL    HW127698   3.357   0.769   9.851  1.0957  0.0161 -1.4985
 5355SOL    HW227699   3.341   0.755   9.713  0.7276 -0.1394  0.8674
 5356SOL     OW27700   2.769   1.813  17.196 -0.5217  0.1754 -0.3333
 5356SOL    HW127701   2.858   1.779  17.195 -0.6238 -0.0791 -1.1008
 5356SOL    HW227702   2.774   1.859  17.280 -3.8484  2.1276 -1.1689
 5357SOL     OW27703   0.947   3.533   5.213 -0.3716 -0.5032 -0.1944
 5357SOL    HW127704   0.988   3.616   5.236 -0.1279 -0.8932  0.7995
 5357SOL    HW227705   0.865   3.529   5.263 -0.1348 -0.3304  0.2090
 5358SOL     OW27706   2.394   0.653   3.271 -0.5057  0.1239  0.0027
 5358SOL    HW127707   2.481   0.615   3.286 -0.2802  0.7462  0.2871
 5358SOL    HW227708   2.398   0.683   3.180 -0.4549 -0.7135 -0.2713
 5359SOL     OW27709   2.542   1.363   2.701  0.1980 -0.0988 -0.0675
 5359SOL    HW127710   2.505   1.309   2.771  0.9271 -0.3831  0.0907
 5359SOL    HW227711   2.464   1.409   2.669 -0.4952  0.5480  2.6019
 5360SOL     OW27712   0.300   3.264   5.624 -0.1558 -0.0610  0.4469
 5360SOL    HW127713   0.236   3.195   5.605  0.6536 -1.1253  1.6381
 5360SOL    HW227714   0.300   3.267   5.720 -1.6025 -1.6903  0.5081
 5361SOL     OW27715   1.518   1.303   7.854  0.5849  0.4757 -0.7158
 5361SOL    HW127716   1.580   1.276   7.922  0.2854  2.0959  0.2118
 5361SOL    HW227717   1.575   1.292   7.778 -1.1927 -3.6243 -1.4204
 5362SOL     OW27718   4.605   1.196   8.332 -0.7003 -0.2862 -0.7664
 5362SOL    HW127719   4.559   1.277   8.309 -0.4743  0.4636  1.4189
 5362SOL    HW227720   4.690   1.222   8.297  0.1042 -1.7192  0.1378
 5363SOL     OW27721   4.569   1.216  15.653  0.1881 -0.0655  0.0027
 5363SOL    HW127722   4.534   1.248  15.736 -2.3191 -0.6259 -0.8267
 5363SOL    HW227723   4.611   1.134  15.678  0.8886 -0.2835 -1.8675
 5364SOL     OW27724   0.214   1.666  11.946  0.1792  0.0714  0.2757
 5364SOL    HW127725   0.297   1.707  11.920 -0.6291  1.9380  0.6163
 5364SOL    HW227726   0.246   1.602  12.010 -0.7867 -0.3055  0.3870
 5365SOL     OW27727   1.704   2.979  14.295 -0.5121  0.2912 -0.4500
 5365SOL    HW127728   1.667   2.926  14.225 -0.1620  1.9067 -1.8681
 5365SOL    HW227729   1.786   2.932  14.313  0.5457  0.7073 -4.2012
 5366SOL     OW27730   4.343   0.350   8.700 -0.2904  0.1425  0.0548
 5366SOL    HW127731   4.402   0.299   8.755 -0.0597  0.5421  0.1779
 5366SOL    HW227732   4.407   0.385   8.638 -0.9174  0.0974 -0.6140
 5367SOL     OW27733   2.772   2.389  12.618  0.0142  0.2404  0.6094
 5367SOL    HW127734   2.811   2.455  12.676 -1.9850  2.4866 -0.6371
 5367SOL    HW227735   2.704   2.428  12.563  0.7616  0.4339 -0.1925
 5368SOL     OW27736   1.442   0.294   5.400 -0.0808 -0.1270 -0.2819
 5368SOL    HW127737   1.442   0.364   5.466 -0.1271  0.6012 -1.0510
 5368SOL    HW227738   1.506   0.238   5.445 -0.7575  2.4490  3.9110
 5369SOL     OW27739   0.695   0.813   2.507  0.4345  0.0622 -0.2291
 5369SOL    HW127740   0.677   0.871   2.581  0.3917 -1.1570  0.7175
 5369SOL    HW227741   0.750   0.866   2.451  0.5516  0.2641  0.0776
 5370SOL     OW27742   3.867   4.277   2.286 -0.8471 -0.0358  0.1692
 5370SOL    HW127743   3.951   4.232   2.297 -0.5792  0.7263  1.2581
 5370SOL    HW227744   3.867   4.307   2.195 -2.4033 -0.8592 -0.1053
 5371SOL     OW27745   3.296   0.257  13.097 -0.8036 -0.0489 -0.3335
 5371SOL    HW127746   3.371   0.316  13.105 -0.1210 -1.0036  0.3531
 5371SOL    HW227747   3.231   0.324  13.114 -0.9142  0.0035 -0.9583
 5372SOL     OW27748   1.948   2.764   1.508 -0.2616 -0.3722  0.1818
 5372SOL    HW127749   1.966   2.834   1.571  1.8734 -0.3810 -0.3951
 5372SOL    HW227750   1.944   2.685   1.562 -2.6361 -0.1324  0.3600
 5373SOL     OW27751   0.863   2.574  14.420  0.1988 -0.3998 -0.2972
 5373SOL    HW127752   0.857   2.510  14.349 -0.6404  0.1753 -0.7419
 5373SOL    HW227753   0.829   2.649  14.370  1.5502 -0.2837 -1.0587
 5374SOL     OW27754   1.731   1.650  14.212  0.1265  0.3804 -0.3147
 5374SOL    HW127755   1.668   1.654  14.284 -1.4869  0.5960 -1.7471
 5374SOL    HW227756   1.787   1.726  14.227 -0.8914  0.8771  0.9668
 5375SOL     OW27757   3.313   2.786   6.249  0.6911 -0.1565  0.0622
 5375SOL    HW127758   3.220   2.806   6.240  0.2847 -1.4555  1.4208
 5375SOL    HW227759   3.347   2.855   6.191 -0.1863 -0.5285 -0.8884
 5376SOL     OW27760   0.951   3.925   3.527  0.0349  0.1377 -0.4792
 5376SOL    HW127761   1.018   3.861   3.504 -1.1972 -1.0411 -0.7835
 5376SOL    HW227762   1.001   4.007   3.530  0.2292 -0.0299  1.0911
 5377SOL     OW27763   3.729   2.199   1.104  1.0720 -0.3530 -0.2116
 5377SOL    HW127764   3.647   2.204   1.056  0.9246 -0.4825  0.0245
 5377SOL    HW227765   3.792   2.207   1.033  1.0788 -1.7941 -0.3713
 5378SOL     OW27766   3.981   1.486  12.855  0.2011 -0.1204 -0.3963
 5378SOL    HW127767   4.011   1.452  12.770  0.2818  3.0738 -1.6598
 5378SOL    HW227768   4.052   1.461  12.913 -2.0713  0.3765  2.5812
 5379SOL     OW27769   2.653   2.307   3.176  0.9132 -0.0210 -0.7142
 5379SOL    HW127770   2.631   2.387   3.128  0.6971  0.3971  0.0911
 5379SOL    HW227771   2.732   2.333   3.222 -0.1108 -1.1364  1.6654
 5380SOL     OW27772   2.703   3.438   1.615 -0.2075  0.0479 -0.1691
 5380SOL    HW127773   2.746   3.374   1.558 -1.9649 -1.6466  0.4185
 5380SOL    HW227774   2.714   3.406   1.704 -0.1503 -1.5283 -0.7304
 5381SOL     OW27775   0.249   2.468  16.235  0.4334  0.8969 -0.2780
 5381SOL    HW127776   0.291   2.521  16.167 -0.8406 -0.0706 -1.8078
 5381SOL    HW227777   0.271   2.518  16.314  1.3178 -0.0244  0.0545
 5382SOL     OW27778   1.309   1.378  13.380  0.2827  0.0283 -0.2503
 5382SOL    HW127779   1.271   1.302  13.423  0.1675  1.8994  2.9436
 5382SOL    HW227780   1.337   1.428  13.456 -3.6931 -1.6500  2.2563
 5383SOL     OW27781   2.412   0.622  12.331 -0.4768  0.2467 -0.0587
 5383SOL    HW127782   2.395   0.530  12.308 -0.2058  0.6866 -1.9591
 5383SOL    HW227783   2.327   0.650  12.365 -0.4569 -0.9510  1.0062
 5384SOL     OW27784   3.065   3.120   9.154  0.0415 -0.5700 -0.2825
 5384SOL    HW127785   3.153   3.114   9.191  0.5181  3.9442 -0.6424
 5384SOL    HW227786   3.023   3.044   9.193  2.2262 -1.1080  1.0003
 5385SOL     OW27787   4.346   0.316  17.517 -0.1973  0.0429  0.1526
 5385SOL    HW127788   4.316   0.404  17.494  2.1541  1.0527  0.9299
 5385SOL    HW227789   4.353   0.277  17.430 -1.5368  1.0796 -0.4082
 5386SOL     OW27790   3.099   0.044   7.027 -0.1884 -0.0168 -0.5412
 5386SOL    HW127791   3.185   0.001   7.032  0.7969  1.6679 -3.4472
 5386SOL    HW227792   3.062   4.700   6.988 -1.4067  0.9735 -1.3641
 5387SOL     OW27793   1.135   0.676   5.604  0.3655  0.0251 -0.2613
 5387SOL    HW127794   1.112   0.591   5.565 -0.0787 -0.8775  1.9745
 5387SOL    HW227795   1.048   0.703   5.631 -0.0862 -1.2299 -0.4429
 5388SOL     OW27796   0.422   4.623   2.113  0.3325 -0.4202 -0.6534
 5388SOL    HW127797   0.514   4.603   2.129 -0.4116 -4.3432 -1.3055
 5388SOL    HW227798   0.429   4.670   2.030  2.3029  2.0136  0.8782
 5389SOL     OW27799   0.439   3.449   5.312 -0.2124  0.0218  0.0752
 5389SOL    HW127800   0.480   3.523   5.267 -1.5434  1.1199  0.6661
 5389SOL    HW227801   0.464   3.451   5.404  1.1735 -0.0020 -0.2922
 5390SOL     OW27802   1.091   3.974   8.069 -0.6156 -0.4025  0.2324
 5390SOL    HW127803   1.151   4.049   8.066  0.9217 -1.5814  1.5769
 5390SOL    HW227804   1.009   4.023   8.079 -0.0519  0.1124  2.4947
 5391SOL     OW27805   2.539   4.597   0.762  0.3228  0.1180 -0.0041
 5391SOL    HW127806   2.573   4.675   0.719  0.8286 -0.0888  0.0102
 5391SOL    HW227807   2.447   4.619   0.777  0.4888  0.2703  0.8265
 5392SOL     OW27808   0.466   0.213   7.505  0.6103  0.1440  0.3375
 5392SOL    HW127809   0.376   0.192   7.480  1.4804 -1.9679 -0.9711
 5392SOL    HW227810   0.504   0.131   7.474 -1.6914 -1.0949  0.7986
 5393SOL     OW27811   0.928   1.211   1.950 -0.0936 -0.0923 -0.7771
 5393SOL    HW127812   0.846   1.250   1.921 -0.7194 -0.0051  1.0698
 5393SOL    HW227813   0.941   1.136   1.892 -0.6221 -0.4641 -0.4182
 5394SOL     OW27814   0.723   0.131   4.899  0.2485 -0.0009 -0.7027
 5394SOL    HW127815   0.693   0.213   4.860  3.2199  1.5968  0.3634
 5394SOL    HW227816   0.696   0.135   4.991 -0.4622  2.7072 -1.0347
 5395SOL     OW27817   3.129   3.754   0.791 -0.2587 -0.2849 -0.2315
 5395SOL    HW127818   3.164   3.834   0.752 -0.1902 -0.3520 -0.3102
 5395SOL    HW227819   3.161   3.773   0.879  1.6607 -1.6362 -0.6122
 5396SOL     OW27820   1.442   4.518   2.517 -0.5470 -0.2705  0.1276
 5396SOL    HW127821   1.515   4.565   2.476  0.2444 -0.5297  1.2521
 5396SOL    HW227822   1.410   4.452   2.456  0.8511  1.0239 -2.0005
 5397SOL     OW27823   2.595   4.714   5.330 -0.1271 -0.2729  0.2740
 5397SOL    HW127824   2.619   4.732   5.240  0.1710  0.8253  0.5650
 5397SOL    HW227825   2.509   0.022   5.325 -0.3910 -0.5876  1.9289
 5398SOL     OW27826   2.049   2.854  17.137  0.2958 -0.1458  0.5658
 5398SOL    HW127827   2.049   2.944  17.169 -0.0245 -0.8652  2.5682
 5398SOL    HW227828   1.965   2.824  17.174 -0.1764  0.3026 -0.1334
 5399SOL     OW27829   0.003   2.919   8.259  0.1634  0.5708  0.2550
 5399SOL    HW127830   4.691   3.001   8.244 -2.4532 -1.1060 -0.7409
 5399SOL    HW227831   0.086   2.956   8.289 -0.1646 -0.5138  2.5199
 5400SOL     OW27832   0.237   2.657   1.208  1.1342  0.0478 -0.0814
 5400SOL    HW127833   0.215   2.564   1.220  1.2377  0.1735  1.0804
 5400SOL    HW227834   0.173   2.702   1.263  0.8437  0.5104 -0.7920
 5401SOL     OW27835   2.719   0.362   8.944 -0.0886  0.4640  0.7782
 5401SOL    HW127836   2.720   0.402   8.857  1.6526 -2.6787 -0.6465
 5401SOL    HW227837   2.628   0.368   8.974 -0.8465 -1.8447 -1.0378
 5402SOL     OW27838   4.129   0.445   2.972  0.6066  0.0554  0.3032
 5402SOL    HW127839   4.174   0.426   2.890  1.7900  0.2107  0.9209
 5402SOL    HW227840   4.139   0.540   2.979  0.3717  0.0051  1.4040
 5403SOL     OW27841   1.206   4.123   1.788  0.2327  0.1908  0.0033
 5403SOL    HW127842   1.196   4.049   1.848 -2.1591  0.0371 -0.5631
 5403SOL    HW227843   1.300   4.139   1.782  0.0396  0.7078 -1.5919
 5404SOL     OW27844   4.284   4.472  12.097  0.4122  0.7554 -0.1812
 5404SOL    HW127845   4.299   4.528  12.021  0.2422 -2.0145 -2.2372
 5404SOL    HW227846   4.189   4.460  12.101  0.7509 -1.4205  1.2403
 5405SOL     OW27847   0.656   1.463   6.662 -0.0766 -0.1787 -0.0759
 5405SOL    HW127848   0.655   1.453   6.757 -1.5142  1.6716  0.0867
 5405SOL    HW227849   0.692   1.378   6.634  2.3503  0.7830  0.0676
 5406SOL     OW27850   3.260   2.434   2.276  0.7338 -0.0465 -0.0611
 5406SOL    HW127851   3.241   2.456   2.185 -0.6362  0.9782  0.4632
 5406SOL    HW227852   3.354   2.420   2.275  0.5656 -1.1742  0.1621
 5407SOL     OW27853   0.392   2.266  10.684 -0.1158 -0.2358 -0.1390
 5407SOL    HW127854   0.433   2.246  10.600 -1.1693  0.9084 -0.9296
 5407SOL    HW227855   0.464   2.263  10.747  2.0198  2.6929 -2.4298
 5408SOL     OW27856   3.943   2.827   3.043 -0.0830 -0.4794  0.3988
 5408SOL    HW127857   4.006   2.778   3.096  0.3399  2.3354  2.5212
 5408SOL    HW227858   3.954   2.910   3.090 -0.6478  0.9293 -1.9782
 5409SOL     OW27859   2.150   1.780   6.669 -0.0186 -0.1868  0.3328
 5409SOL    HW127860   2.180   1.695   6.636  2.3949  0.1627  1.5987
 5409SOL    HW227861   2.231   1.827   6.650  0.8653 -0.7206  2.7662
 5410SOL     OW27862   3.882   0.190   7.013  0.3562  0.7696  0.4620
 5410SOL    HW127863   3.927   0.211   7.095 -2.9135 -0.8616  2.6610
 5410SOL    HW227864   3.946   0.215   6.947 -1.3950  0.1178 -1.4822
 5411SOL     OW27865   3.279   3.336   8.276  0.0408 -0.2642 -0.0296
 5411SOL    HW127866   3.269   3.403   8.344  0.2057 -1.2727  0.9897
 5411SOL    HW227867   3.358   3.359   8.229  0.1301 -0.2865  0.1097
 5412SOL     OW27868   3.232   2.226   5.664 -0.1684  0.1906  0.0948
 5412SOL    HW127869   3.168   2.289   5.630  0.6032  1.0706  0.2819
 5412SOL    HW227870   3.311   2.247   5.616  1.1123 -0.8165  1.7659
 5413SOL     OW27871   0.484   1.922  10.321  0.1624 -0.0851  0.6297
 5413SOL    HW127872   0.506   1.832  10.298  1.4039  1.0092 -2.5236
 5413SOL    HW227873   0.501   1.918  10.415 -1.1259  1.4963  0.9276
 5414SOL     OW27874   4.679   4.536   8.621 -0.0047  0.3729 -0.0595
 5414SOL    HW127875   4.689   4.618   8.668  1.6228  0.3855 -0.4317
 5414SOL    HW227876   4.666   4.477   8.695  2.0682 -1.9785 -1.5558
 5415SOL     OW27877   2.047   2.059   7.750 -0.0700  1.1729 -0.9077
 5415SOL    HW127878   2.098   1.978   7.752 -0.9278  0.6868  0.9624
 5415SOL    HW227879   2.002   2.046   7.833 -1.6254 -0.3231 -1.9888
 5416SOL     OW27880   1.553   1.227   3.335 -0.5976 -0.4705 -0.3422
 5416SOL    HW127881   1.561   1.319   3.310  0.2871 -0.9159 -1.6748
 5416SOL    HW227882   1.643   1.206   3.311 -0.1939  0.6599  0.2169
 5417SOL     OW27883   2.660   0.134  16.808  0.3161 -0.6185 -0.4092
 5417SOL    HW127884   2.630   0.219  16.841 -1.5043 -0.9541 -1.2316
 5417SOL    HW227885   2.595   0.088  16.861  0.7984  0.7209  1.3696
 5418SOL     OW27886   0.979   4.441   3.909 -0.0116 -0.1561 -0.0058
 5418SOL    HW127887   0.932   4.363   3.879 -0.1371  0.8177 -2.2789
 5418SOL    HW227888   1.056   4.407   3.956 -0.1197 -1.4277 -0.7575
 5419SOL     OW27889   4.316   4.365   2.007 -0.4716 -0.0676 -0.3170
 5419SOL    HW127890   4.358   4.422   2.072 -0.2150 -0.7072  0.0814
 5419SOL    HW227891   4.391   4.350   1.949 -0.3262  0.0463 -0.1616
 5420SOL     OW27892   3.982   2.100  10.692  0.1845  0.2647  0.3475
 5420SOL    HW127893   3.914   2.137  10.748 -1.3161  0.7259 -1.7468
 5420SOL    HW227894   4.005   2.180  10.644 -1.7908  0.5218 -0.1875
 5421SOL     OW27895   3.158   3.756   7.840 -0.0536 -0.1443 -0.8968
 5421SOL    HW127896   3.242   3.722   7.872 -1.4156 -2.7249 -0.0390
 5421SOL    HW227897   3.103   3.680   7.822  2.0046 -1.5976 -1.1394
 5422SOL     OW27898   3.090   1.557   8.535 -0.2264  0.1459 -0.1249
 5422SOL    HW127899   3.016   1.569   8.475  0.2480 -0.6567 -0.8753
 5422SOL    HW227900   3.105   1.463   8.519  0.0892  0.4230 -1.4419
 5423SOL     OW27901   3.425   1.173   2.798 -0.3936 -0.3844 -0.2278
 5423SOL    HW127902   3.397   1.192   2.708 -1.1435  1.3805  0.3708
 5423SOL    HW227903   3.501   1.119   2.777 -0.1598 -1.0189  2.2576
 5424SOL     OW27904   4.340   2.780   7.740  0.0105 -0.2657  0.2736
 5424SOL    HW127905   4.349   2.699   7.689  0.2246  0.3085 -0.5846
 5424SOL    HW227906   4.433   2.794   7.755 -0.1404 -0.5108  1.4468
 5425SOL     OW27907   1.642   2.771   9.112  0.4006  0.1496  0.1849
 5425SOL    HW127908   1.698   2.802   9.183 -2.0226  1.6636  1.4278
 5425SOL    HW227909   1.643   2.676   9.127  4.2325  0.2768  0.6682
 5426SOL     OW27910   2.007   1.804  16.644  0.0241 -0.7988 -0.0039
 5426SOL    HW127911   2.029   1.821  16.552  1.2062 -0.0771  0.4077
 5426SOL    HW227912   2.068   1.864  16.686  0.3236 -1.6546  0.7885
 5427SOL     OW27913   0.621   1.640   9.547 -0.2006  0.5523 -0.0149
 5427SOL    HW127914   0.652   1.557   9.584 -1.5639 -0.1647 -0.4733
 5427SOL    HW227915   0.560   1.599   9.486  1.3427 -1.9208  0.0644
 5428SOL     OW27916   3.041   0.078   5.846 -0.9057  0.1610  0.1594
 5428SOL    HW127917   2.966   0.127   5.879 -1.6225 -0.0629 -1.1018
 5428SOL    HW227918   3.081   0.035   5.922 -0.1832  1.6826  0.6277
 5429SOL     OW27919   4.315   3.175   8.537  0.1792  0.0510  0.4123
 5429SOL    HW127920   4.409   3.190   8.550  0.0682  0.8609  0.2536
 5429SOL    HW227921   4.275   3.198   8.621  1.1310 -0.7601  1.0921
 5430SOL     OW27922   4.156   2.434   0.592 -0.3550 -0.0591  0.0894
 5430SOL    HW127923   4.094   2.482   0.538  0.3400  1.2614  0.4712
 5430SOL    HW227924   4.107   2.352   0.602 -0.4994  0.0939  0.6180
 5431SOL     OW27925   3.349   1.275   2.219  0.0254  0.1884  0.1445
 5431SOL    HW127926   3.404   1.206   2.182 -1.9927 -2.1663  1.5595
 5431SOL    HW227927   3.405   1.352   2.208 -0.5509  0.4403 -0.9959
 5432SOL     OW27928   4.137   3.716   9.499 -0.0974  0.3045  0.3916
 5432SOL    HW127929   4.216   3.765   9.519  0.1781 -0.1025  0.3144
 5432SOL    HW227930   4.096   3.711   9.585 -1.8811  2.0414 -0.3526
 5433SOL     OW27931   0.165   3.640   0.083 -0.4367 -0.1575 -0.2050
 5433SOL    HW127932   0.125   3.702   0.023  1.8447  2.1893  0.7087
 5433SOL    HW227933   0.222   3.597   0.019  1.1005  1.0981  0.3042
 5434SOL     OW27934   4.037   0.672   4.368 -0.1202  0.2226  0.3973
 5434SOL    HW127935   4.087   0.722   4.303  0.0840 -0.8665 -0.2892
 5434SOL    HW227936   3.953   0.665   4.322  0.7757 -3.7846 -0.7133
 5435SOL     OW27937   4.564   3.268   2.356 -0.4002  0.0823 -0.2086
 5435SOL    HW127938   4.526   3.355   2.341  0.3731  0.5022  0.2791
 5435SOL    HW227939   4.484   3.215   2.365 -0.0138 -0.2645  1.1645
 5436SOL     OW27940   0.657   3.615   1.611  0.1100  0.3526 -0.6987
 5436SOL    HW127941   0.577   3.566   1.591  0.5544 -1.1231  1.1268
 5436SOL    HW227942   0.634   3.668   1.687  0.2819 -0.3378 -0.1619
 5437SOL     OW27943   1.920   0.078   3.558 -0.4220  0.1885 -0.5180
 5437SOL    HW127944   1.941   0.062   3.466 -0.0812 -1.3971 -0.1689
 5437SOL    HW227945   1.983   0.018   3.598 -0.2376  1.2660  0.7922
 5438SOL     OW27946   2.977   1.356   2.008  0.8542 -0.2612  0.2669
 5438SOL    HW127947   3.036   1.304   2.062  0.3799 -0.9455  0.1237
 5438SOL    HW227948   3.010   1.444   2.025  1.9803 -0.6831  0.2913
 5439SOL     OW27949   2.733   4.666   4.135 -0.3037 -0.2609  0.2285
 5439SOL    HW127950   2.700   0.009   4.090  0.3549 -0.6525 -0.9442
 5439SOL    HW227951   2.699   4.594   4.081 -1.1722 -0.8840  1.5937
 5440SOL     OW27952   3.244   3.059  16.363  0.4481  0.0691  0.3017
 5440SOL    HW127953   3.291   3.134  16.327 -2.1740  1.5547 -0.0494
 5440SOL    HW227954   3.273   2.994  16.298 -1.1748 -1.8762  1.5284
 5441SOL     OW27955   2.327   3.274   3.287  0.3034 -0.0532  0.0393
 5441SOL    HW127956   2.375   3.204   3.242  0.8426  1.1235 -1.1936
 5441SOL    HW227957   2.388   3.345   3.267  4.0327 -2.7656  1.7684
 5442SOL     OW27958   0.892   0.648   5.198 -0.1586  0.1015  1.3144
 5442SOL    HW127959   0.967   0.686   5.244  0.1898  0.2877  0.6001
 5442SOL    HW227960   0.850   0.732   5.179  1.2996  0.4708 -0.3624
 5443SOL     OW27961   0.201   4.085   4.979 -0.5403  0.8197 -0.7497
 5443SOL    HW127962   0.265   4.156   4.981 -0.0762  0.3932 -0.4791
 5443SOL    HW227963   0.218   4.052   4.890  2.7545 -1.5371  0.7450
 5444SOL     OW27964   0.937   4.117  16.811  0.3064 -0.1242  1.0535
 5444SOL    HW127965   0.930   4.124  16.716 -1.2350 -0.2967  1.1457
 5444SOL    HW227966   0.879   4.041  16.821 -0.0479 -0.0436 -0.3222
 5445SOL     OW27967   0.577   0.255   1.318 -0.1149 -0.7661  0.0215
 5445SOL    HW127968   0.630   0.182   1.350  0.6872 -0.0076  0.4268
 5445SOL    HW227969   0.530   0.289   1.393 -0.6711  1.0976 -1.1748
 5446SOL     OW27970   2.124   4.277  13.475  0.3577  0.3052 -0.5554
 5446SOL    HW127971   2.152   4.208  13.414 -0.5118  0.9266 -1.6472
 5446SOL    HW227972   2.095   4.342  13.411  0.4579  0.7363 -0.1629
 5447SOL     OW27973   1.605   3.719   3.743 -0.0276 -0.4522 -0.1116
 5447SOL    HW127974   1.521   3.739   3.784  0.3693  1.2032 -0.1056
 5447SOL    HW227975   1.606   3.624   3.752  0.8696 -0.7779 -3.6754
 5448SOL     OW27976   1.370   2.481   4.125 -0.3260  0.4782  0.2650
 5448SOL    HW127977   1.323   2.544   4.071 -2.0494 -2.1729 -1.2776
 5448SOL    HW227978   1.443   2.539   4.147  0.0912 -0.5413  1.5467
 5449SOL     OW27979   2.418   3.548   2.585  0.6630  0.3042 -0.0667
 5449SOL    HW127980   2.445   3.553   2.493  0.2762 -0.4433 -0.2215
 5449SOL    HW227981   2.418   3.458   2.616  0.1562 -0.2774 -1.7489
 5450SOL     OW27982   0.018   3.876  11.325  0.1394  0.7525  0.4395
 5450SOL    HW127983   0.046   3.967  11.322 -1.7191  1.2159 -2.9621
 5450SOL    HW227984   0.052   3.849  11.240 -0.9998  0.1745  0.1656
 5451SOL     OW27985   0.399   3.154   8.515 -0.1681  0.4842  0.3178
 5451SOL    HW127986   0.475   3.166   8.571  1.4693 -1.2207 -1.5659
 5451SOL    HW227987   0.411   3.238   8.471  3.3225  0.0424  0.4384
 5452SOL     OW27988   0.878   3.278   8.638 -0.2776  0.5620 -0.5430
 5452SOL    HW127989   0.945   3.295   8.572  0.3343 -1.5053 -0.4552
 5452SOL    HW227990   0.928   3.265   8.718 -1.9083 -2.2901  0.0477
 5453SOL     OW27991   3.423   0.417  12.403  0.0598 -0.7009  0.2834
 5453SOL    HW127992   3.417   0.493  12.345 -1.2227 -0.6486  0.4914
 5453SOL    HW227993   3.342   0.416  12.453  0.4275  0.0631  0.8907
 5454SOL     OW27994   4.514   0.051   8.512 -0.0167 -0.0144 -0.2647
 5454SOL    HW127995   4.586   0.028   8.571  0.2214 -1.6749 -1.2080
 5454SOL    HW227996   4.527   0.146   8.507 -0.1884 -0.0597 -1.4726
 5455SOL     OW27997   0.755   1.284   1.688 -0.1887 -0.3656  0.6843
 5455SOL    HW127998   0.742   1.349   1.619 -2.1552 -0.0831  1.3209
 5455SOL    HW227999   0.746   1.204   1.636  1.3374  1.8904 -2.9956
 5456SOL     OW28000   1.552   0.601   7.999 -0.1432  0.0606  0.8940
 5456SOL    HW128001   1.545   0.508   8.020  1.0944  0.3929  2.7985
 5456SOL    HW228002   1.615   0.598   7.927 -3.4829 -0.3912 -1.9607
 5457SOL     OW28003   1.691   1.829   3.605 -0.5667  0.4002 -0.7695
 5457SOL    HW128004   1.736   1.846   3.523 -0.3595 -0.3741 -0.8139
 5457SOL    HW228005   1.704   1.734   3.611  1.1447  0.6788  0.0324
 5458SOL     OW28006   1.883   4.225  16.724  0.1265 -0.6153 -0.8542
 5458SOL    HW128007   1.847   4.225  16.812 -1.8249 -0.9178 -1.6352
 5458SOL    HW228008   1.807   4.255  16.673  0.2469 -0.7379 -1.1042
 5459SOL     OW28009   3.073   1.078  11.249  0.0592  0.3714 -0.5132
 5459SOL    HW128010   3.119   1.110  11.171 -0.3293 -2.5720 -1.9481
 5459SOL    HW228011   3.093   1.156  11.300 -2.8432  1.2799 -0.7742
 5460SOL     OW28012   3.171   4.244   4.110 -0.2807  0.1813 -0.2713
 5460SOL    HW128013   3.224   4.296   4.170 -0.9801  1.9132 -1.1574
 5460SOL    HW228014   3.193   4.153   4.129 -0.0777 -0.0777 -1.7280
 5461SOL     OW28015   3.709   3.778   3.790  0.2949 -0.4946 -0.2244
 5461SOL    HW128016   3.712   3.857   3.736  1.8199 -1.3545 -1.4187
 5461SOL    HW228017   3.741   3.710   3.731 -1.4447  0.9354 -2.8165
 5462SOL     OW28018   3.383   1.381   6.571 -0.4596  0.7842  0.0795
 5462SOL    HW128019   3.399   1.318   6.641  1.5458  1.4990  0.2646
 5462SOL    HW228020   3.416   1.460   6.612  1.8503  0.6080 -1.4682
 5463SOL     OW28021   1.173   0.210  13.104 -0.2191 -0.4236  0.2294
 5463SOL    HW128022   1.192   0.249  13.019  0.7673 -1.3292  0.0400
 5463SOL    HW228023   1.080   0.227  13.117 -0.4032 -1.4805  0.3005
 5464SOL     OW28024   4.419   3.961  12.648  0.0693  0.3784 -0.3151
 5464SOL    HW128025   4.354   4.029  12.669 -0.0129  0.3417 -0.4483
 5464SOL    HW228026   4.474   4.002  12.581 -2.6487  2.3720 -1.3534
 5465SOL     OW28027   0.232   1.787  15.009  0.6869 -0.2367  0.0083
 5465SOL    HW128028   0.270   1.874  15.000  1.0072 -0.5933 -2.1434
 5465SOL    HW228029   0.235   1.746  14.922 -1.0452 -0.2883 -0.0299
 5466SOL     OW28030   3.942   0.451   1.573 -0.2011 -0.3185  0.4011
 5466SOL    HW128031   3.870   0.489   1.623 -0.0771  1.1700 -0.5343
 5466SOL    HW228032   3.962   0.377   1.630 -1.3396 -0.7631  0.2316
 5467SOL     OW28033   1.313   2.950   4.038  0.1435 -0.0426 -0.6153
 5467SOL    HW128034   1.283   3.020   4.096  0.4352 -1.1248  0.8285
 5467SOL    HW228035   1.402   2.982   4.025  0.1647  0.9094  1.8343
 5468SOL     OW28036   1.455   2.452   9.763 -0.2319  0.3451 -0.5740
 5468SOL    HW128037   1.394   2.398   9.712  1.0955 -0.2916 -1.4926
 5468SOL    HW228038   1.400   2.481   9.837 -2.2099 -1.7451 -1.2167
 5469SOL     OW28039   1.702   3.864   4.135  0.2550 -0.0259 -0.1646
 5469SOL    HW128040   1.776   3.803   4.123  1.2725  1.1738 -0.0239
 5469SOL    HW228041   1.655   3.823   4.207  0.4846 -1.7592 -0.9829
 5470SOL     OW28042   1.055   2.762  15.086 -0.8508  0.1393 -0.1479
 5470SOL    HW128043   1.119   2.777  15.017 -0.4162 -1.1995 -0.0454
 5470SOL    HW228044   0.973   2.801  15.059 -1.4702 -2.2051 -1.7009
 5471SOL     OW28045   3.208   3.853   3.665 -0.4131  0.0350 -0.5293
 5471SOL    HW128046   3.161   3.909   3.603 -1.4394 -2.0152 -1.5938
 5471SOL    HW228047   3.127   3.813   3.694 -0.0225 -0.8032 -0.6007
 5472SOL     OW28048   0.882   3.336   2.740  0.9732  0.0633 -0.4284
 5472SOL    HW128049   0.795   3.315   2.772 -0.7334  3.3965 -2.9130
 5472SOL    HW228050   0.858   3.416   2.695  3.2220  2.0049  1.7933
 5473SOL     OW28051   3.491   3.077   2.736  0.0863  0.8902  0.2765
 5473SOL    HW128052   3.503   3.162   2.778  1.0386  0.2378  1.3152
 5473SOL    HW228053   3.424   3.113   2.677 -1.1800 -1.2035  0.4154
 5474SOL     OW28054   4.409   1.234   8.026 -0.1060  0.1482 -0.6777
 5474SOL    HW128055   4.377   1.257   7.939  0.0892 -0.4833 -0.9129
 5474SOL    HW228056   4.389   1.318   8.070 -1.0963  0.2049 -1.2317
 5475SOL     OW28057   0.627   4.330   3.750  0.1448 -0.5299 -0.0618
 5475SOL    HW128058   0.635   4.292   3.663 -2.8853  1.7114 -1.3053
 5475SOL    HW228059   0.713   4.306   3.784  0.6721  0.2709 -0.8490
 5476SOL     OW28060   3.460   1.513   7.287 -0.5989 -0.3178 -0.1759
 5476SOL    HW128061   3.512   1.455   7.344 -0.3026 -0.5575 -0.6960
 5476SOL    HW228062   3.428   1.451   7.222  0.9653  0.3423 -1.5839
 5477SOL     OW28063   0.761   2.155   2.276 -0.0404  0.2314 -0.0769
 5477SOL    HW128064   0.813   2.206   2.337 -1.2957 -0.0390  1.2161
 5477SOL    HW228065   0.807   2.150   2.192  0.4781 -0.9951  0.2831
 5478SOL     OW28066   1.601   0.240   3.457  0.7819  0.2002  0.3425
 5478SOL    HW128067   1.657   0.228   3.534  2.8061  1.6652 -0.9071
 5478SOL    HW228068   1.652   0.237   3.376 -0.9568 -0.5152 -0.7158
 5479SOL     OW28069   2.271   3.365   8.153  0.6610  0.7840  0.3938
 5479SOL    HW128070   2.217   3.423   8.208  0.4504  0.2470  0.7601
 5479SOL    HW228071   2.215   3.288   8.155  0.1346  1.1508 -0.1635
 5480SOL     OW28072   3.853   4.665   9.081 -0.4039  0.6048  0.6870
 5480SOL    HW128073   3.861   4.574   9.055  3.1181  1.0451  0.2385
 5480SOL    HW228074   3.899   4.654   9.165  1.0718 -2.0851 -0.4799
 5481SOL     OW28075   1.449   3.604  12.411 -0.5509 -0.0192  0.7925
 5481SOL    HW128076   1.367   3.632  12.370  0.6451  0.2036 -1.4669
 5481SOL    HW228077   1.440   3.513  12.386 -1.2067 -0.3468  2.2616
 5482SOL     OW28078   2.150   0.735  14.703 -0.5571  0.2424 -0.4354
 5482SOL    HW128079   2.098   0.781  14.769  1.4729 -1.4592  2.3044
 5482SOL    HW228080   2.167   0.804  14.639  1.3922 -1.8293 -2.1382
 5483SOL     OW28081   1.695   3.030   3.627  0.2428 -0.3184 -0.6118
 5483SOL    HW128082   1.740   2.948   3.644  1.1478  0.1215 -0.8395
 5483SOL    HW228083   1.603   3.005   3.617  0.2326 -0.5215  0.0072
 5484SOL     OW28084   0.853   3.726  11.582  0.0643  0.2477  0.3206
 5484SOL    HW128085   0.907   3.650  11.599  0.9474  0.7288 -0.3547
 5484SOL    HW228086   0.910   3.793  11.621  0.9728  0.3673 -1.2173
 5485SOL     OW28087   3.732   2.794   3.703  0.0427  0.0375 -0.6480
 5485SOL    HW128088   3.746   2.779   3.610  1.7479 -2.5964  0.0072
 5485SOL    HW228089   3.676   2.871   3.694  0.7352  0.5525 -0.5269
 5486SOL     OW28090   4.284   2.878   1.390 -0.0220 -0.3518 -0.2928
 5486SOL    HW128091   4.216   2.888   1.323  1.9646 -1.1175 -2.4108
 5486SOL    HW228092   4.360   2.897   1.335  1.7123 -0.1110  2.1848
 5487SOL     OW28093   3.409   0.381   7.227 -0.1554  0.2665  0.7874
 5487SOL    HW128094   3.499   0.410   7.241  0.1602 -1.6709  2.8269
 5487SOL    HW228095   3.427   0.310   7.165 -0.7970  1.1654 -0.4143
 5488SOL     OW28096   3.945   1.942  13.173  0.2881 -0.3536 -0.1918
 5488SOL    HW128097   3.913   1.874  13.114  0.9293 -1.3330  0.6042
 5488SOL    HW228098   3.980   1.892  13.246 -1.0483  1.3349  1.6133
 5489SOL     OW28099   4.733   3.811   3.585 -0.5537  0.0984 -0.2926
 5489SOL    HW128100   0.082   3.859   3.590 -1.1538  1.2654 -1.3070
 5489SOL    HW228101   4.671   3.882   3.567 -1.3813 -0.8784 -1.2629
 5490SOL     OW28102   3.727   2.459   5.936 -0.1143 -0.0568  0.2945
 5490SOL    HW128103   3.698   2.551   5.934  1.4716  0.3542 -3.1878
 5490SOL    HW228104   3.665   2.424   5.872  1.0014 -3.3040  0.9962
 5491SOL     OW28105   3.495   3.861  16.694  0.3422  0.5542 -0.4621
 5491SOL    HW128106   3.568   3.804  16.717  0.2478  0.0693 -1.3653
 5491SOL    HW228107   3.435   3.852  16.769  1.8901  2.6016  1.0009
 5492SOL     OW28108   2.973   0.385   9.474  0.2578 -0.3002 -0.8206
 5492SOL    HW128109   3.044   0.358   9.532  0.8254  1.5186 -0.6683
 5492SOL    HW228110   2.954   0.474   9.503 -2.0230 -0.0102 -3.1511
 5493SOL     OW28111   2.679   2.258   4.702  0.0782 -0.4649 -0.5024
 5493SOL    HW128112   2.678   2.190   4.769 -0.6340 -1.1711 -1.2289
 5493SOL    HW228113   2.660   2.345   4.737  2.5509 -0.4459  0.8271
 5494SOL     OW28114   2.755   3.991  16.727 -0.2833 -0.0551 -0.6535
 5494SOL    HW128115   2.718   3.940  16.655 -1.7228 -1.0781  0.8040
 5494SOL    HW228116   2.705   3.956  16.801  0.1271 -0.1014 -0.3991
 5495SOL     OW28117   1.443   3.818   6.930  0.4338 -0.1964 -0.3236
 5495SOL    HW128118   1.376   3.781   6.872 -0.3956  2.3930 -1.0138
 5495SOL    HW228119   1.504   3.848   6.863 -0.7628 -0.2401 -1.4325
 5496SOL     OW28120   3.064   4.462  11.323  0.3288  0.0576  0.0608
 5496SOL    HW128121   3.025   4.376  11.339 -0.8227  0.8017  1.2528
 5496SOL    HW228122   2.995   4.519  11.357  0.6644 -0.1655  1.1095
 5497SOL     OW28123   2.211   2.406  15.041 -0.0715 -0.2709  0.1765
 5497SOL    HW128124   2.231   2.339  14.976 -3.0164  0.6341 -1.6556
 5497SOL    HW228125   2.157   2.353  15.099 -0.4904 -1.5263 -1.3732
 5498SOL     OW28126   2.126   1.179   3.381 -0.0359  0.2479 -0.2532
 5498SOL    HW128127   2.083   1.105   3.423  1.1726 -0.4757 -0.2922
 5498SOL    HW228128   2.216   1.146   3.381 -0.1569 -0.0741 -1.5725
 5499SOL     OW28129   3.879   1.836   3.147  0.5450  0.3061  0.2059
 5499SOL    HW128130   3.809   1.770   3.144  1.5684 -0.7536 -0.8521
 5499SOL    HW228131   3.849   1.891   3.219  0.2948  0.3083  0.1016
 5500SOL     OW28132   1.711   2.146   4.911  0.2020  0.1156  0.4909
 5500SOL    HW128133   1.689   2.217   4.851  1.5027 -0.8019 -1.0645
 5500SOL    HW228134   1.754   2.193   4.983 -0.0218  2.1315 -0.6878
 5501SOL     OW28135   4.623   0.299   5.810  0.3669  0.1838 -0.1619
 5501SOL    HW128136   4.651   0.362   5.876 -1.5939  2.8230 -1.8607
 5501SOL    HW228137   4.707   0.253   5.803 -0.8006 -1.9254 -0.2963
 5502SOL     OW28138   4.005   2.695   3.769 -0.0724 -0.5263 -0.0688
 5502SOL    HW128139   3.944   2.760   3.736  1.8278  1.9104  1.2099
 5502SOL    HW228140   4.051   2.677   3.687  1.6638  0.4049  0.6791
 5503SOL     OW28141   2.276   1.157  12.331 -0.1541 -0.2792 -0.1065
 5503SOL    HW128142   2.357   1.108  12.318  0.0511  0.2375 -0.7559
 5503SOL    HW228143   2.307   1.246  12.345 -2.7618  0.6018  0.2324
 5504SOL     OW28144   0.483   0.773   0.635 -0.1437 -0.1152  0.4501
 5504SOL    HW128145   0.523   0.772   0.722 -0.4806 -0.0382  0.6094
 5504SOL    HW228146   0.452   0.864   0.629 -0.6327 -0.2345  1.0773
 5505SOL     OW28147   1.560   4.234  11.116  0.2376  0.2653  0.2808
 5505SOL    HW128148   1.512   4.205  11.038  0.5874  1.1722 -0.2841
 5505SOL    HW228149   1.624   4.163  11.114  0.1063  0.1790 -0.9923
 5506SOL     OW28150   1.518   0.043   7.452  0.9777  0.7780 -0.3803
 5506SOL    HW128151   1.464   0.110   7.494  0.2872  1.0612 -1.7035
 5506SOL    HW228152   1.472   4.697   7.478  1.2598  0.6399 -0.3159
 5507SOL     OW28153   2.541   2.733  12.315  0.3053  0.1402 -0.3601
 5507SOL    HW128154   2.503   2.754  12.401 -0.6656 -0.5847 -0.6135
 5507SOL    HW228155   2.561   2.643  12.341  0.9019  0.4808  0.3832
 5508SOL     OW28156   3.527   3.559  10.125 -0.2503 -0.6680 -0.0529
 5508SOL    HW128157   3.537   3.548  10.220  0.8487 -1.0757 -0.2246
 5508SOL    HW228158   3.444   3.607  10.124  0.4749  0.6802  2.6832
 5509SOL     OW28159   1.302   3.791  17.284  0.4759 -0.0194  0.3889
 5509SOL    HW128160   1.225   3.818  17.334 -0.0586 -1.2686  0.2316
 5509SOL    HW228161   1.310   3.866  17.225  0.5048  0.9493  1.6207
 5510SOL     OW28162   3.059   0.129   2.694  0.3131  0.2699 -0.2604
 5510SOL    HW128163   3.119   0.074   2.744  0.5484  0.3344 -0.4657
 5510SOL    HW228164   3.078   0.102   2.604 -0.4271 -1.3103  0.0609
 5511SOL     OW28165   1.581   0.947   6.256 -0.0532  0.2999 -0.8252
 5511SOL    HW128166   1.651   0.888   6.229 -0.3562  0.4765 -2.0072
 5511SOL    HW228167   1.625   1.030   6.238  0.6610  0.4939  1.7613
 5512SOL     OW28168   2.163   1.863  12.258  0.2109  0.0456  0.0765
 5512SOL    HW128169   2.232   1.826  12.312  0.3348 -3.4548 -2.5469
 5512SOL    HW228170   2.084   1.841  12.307 -0.9586  1.2444 -1.2527
 5513SOL     OW28171   1.025   1.104  12.510 -0.5316 -0.4377 -0.1668
 5513SOL    HW128172   0.981   1.055  12.441  1.0470  1.5546 -2.5706
 5513SOL    HW228173   1.082   1.151  12.449  0.7548 -0.0459  1.3302
 5514SOL     OW28174   0.478   3.524  17.349  0.3888 -0.0473 -0.1856
 5514SOL    HW128175   0.489   3.500  17.257 -1.2942  0.1039 -0.4239
 5514SOL    HW228176   0.392   3.485  17.367  0.6304  0.6147  2.5102
 5515SOL     OW28177   0.892   1.373   7.516 -0.2803 -0.1775  0.2371
 5515SOL    HW128178   0.924   1.314   7.584 -2.0685 -2.0810 -0.5552
 5515SOL    HW228179   0.896   1.321   7.436 -1.1713 -0.6526  0.5007
 5516SOL     OW28180   3.626   4.025   8.234  0.3416  0.0640 -0.1538
 5516SOL    HW128181   3.574   4.104   8.248 -0.8733 -0.4860 -1.5798
 5516SOL    HW228182   3.665   4.058   8.153  1.8243 -3.1685 -0.7514
 5517SOL     OW28183   3.881   2.410  11.627 -0.0845  0.5369 -0.2626
 5517SOL    HW128184   3.847   2.416  11.717  0.8603 -0.5678  0.1719
 5517SOL    HW228185   3.966   2.452  11.640 -0.9837  1.5590  2.5858
 5518SOL     OW28186   0.729   2.199   4.623 -0.3310 -0.2324  0.1954
 5518SOL    HW128187   0.742   2.107   4.600  0.5427 -0.6878  2.5515
 5518SOL    HW228188   0.819   2.213   4.652 -0.3453 -1.0964  0.6332
 5519SOL     OW28189   0.563   2.920  17.414  0.1636  0.6191  0.8416
 5519SOL    HW128190   0.521   2.853  17.469  1.6628 -0.2631  0.9228
 5519SOL    HW228191   0.528   2.898  17.328 -1.6734 -0.0817  1.7615
 5520SOL     OW28192   2.110   1.875   8.638  0.1681  0.3243  0.1732
 5520SOL    HW128193   2.023   1.881   8.597  1.4354 -0.9620 -2.6671
 5520SOL    HW228194   2.150   1.943   8.584  0.4665 -0.1637 -0.2200
 5521SOL     OW28195   1.751   1.134   1.364  0.6093  0.3773  0.2656
 5521SOL    HW128196   1.795   1.122   1.280  2.2067 -0.7031  1.2608
 5521SOL    HW228197   1.693   1.206   1.337 -2.2846 -1.2950  2.0671
 5522SOL     OW28198   1.622   0.008  12.525  0.2197  0.0551  0.0497
 5522SOL    HW128199   1.574   0.080  12.567 -2.4781 -1.6829  0.0075
 5522SOL    HW228200   1.617   4.680  12.597 -2.6850 -1.3461 -1.3482
 5523SOL     OW28201   3.091   0.449  16.396 -0.7420 -0.5650  0.3821
 5523SOL    HW128202   3.094   0.395  16.475 -2.5655  0.1190  0.9125
 5523SOL    HW228203   3.000   0.480  16.397 -1.1303 -1.7885  2.5832
 5524SOL     OW28204   1.011   2.815   7.285 -0.0507  0.1211  0.4560
 5524SOL    HW128205   0.983   2.906   7.296  0.2739  0.6319 -3.0225
 5524SOL    HW228206   1.080   2.804   7.350 -2.5316 -0.7035  2.9464
 5525SOL     OW28207   2.033   0.971   5.634  0.1956 -0.2255  0.7631
 5525SOL    HW128208   2.065   1.048   5.587  0.3085  1.4528  3.6111
 5525SOL    HW228209   1.960   0.940   5.580  0.9952  0.1803 -0.5675
 5526SOL     OW28210   0.165   2.584   3.475 -0.1351  0.1239  0.8113
 5526SOL    HW128211   0.202   2.648   3.536  1.1648  0.9920 -0.8856
 5526SOL    HW228212   0.246   2.536   3.462  1.1435  2.1653  1.1703
 5527SOL     OW28213   4.028   2.489   8.423  0.7963  0.0545  0.6159
 5527SOL    HW128214   4.006   2.567   8.371  3.0559 -0.0264 -0.4540
 5527SOL    HW228215   3.970   2.427   8.379  0.8563  0.4085  0.0262
 5528SOL     OW28216   1.681   2.931   6.886  0.3081 -0.3745  0.5664
 5528SOL    HW128217   1.774   2.933   6.907  0.9826 -1.8083 -2.2435
 5528SOL    HW228218   1.670   2.838   6.906 -3.0601 -0.1877 -0.3668
 5529SOL     OW28219   4.538   2.021   6.290 -0.5406 -0.0706  0.6485
 5529SOL    HW128220   4.564   2.039   6.200  0.3380  1.9588  1.3033
 5529SOL    HW228221   4.505   1.931   6.286  1.4787 -0.7417 -0.7582
 5530SOL     OW28222   2.005   1.782   7.124 -0.7485 -0.2136  0.3365
 5530SOL    HW128223   2.058   1.802   7.202 -0.6211 -0.6451  0.3592
 5530SOL    HW228224   2.049   1.702   7.097 -0.3331  0.7486 -1.8412
 5531SOL     OW28225   3.899   3.230  16.583  0.4009 -0.3439  0.1113
 5531SOL    HW128226   3.810   3.245  16.614 -0.0260  1.0643 -1.7945
 5531SOL    HW228227   3.938   3.317  16.568 -1.6096  0.7916  1.4884
 5532SOL     OW28228   0.177   4.399   1.873 -0.4577 -0.6935 -0.3416
 5532SOL    HW128229   0.136   4.405   1.959  0.5807  1.0212  0.0341
 5532SOL    HW228230   0.135   4.475   1.833 -0.1467  0.3126  1.2835
 5533SOL     OW28231   0.439   3.841   3.640 -0.3336  0.1414  0.4270
 5533SOL    HW128232   0.419   3.793   3.559  0.7385 -0.0906  0.2965
 5533SOL    HW228233   0.364   3.899   3.647  0.3646  1.2419 -1.1773
 5534SOL     OW28234   4.034   3.520   6.472 -0.2713 -0.7571  0.2062
 5534SOL    HW128235   4.051   3.607   6.435  3.9303 -0.7281  2.1888
 5534SOL    HW228236   4.124   3.489   6.477 -0.4859 -1.3868  0.1061
 5535SOL     OW28237   0.198   1.678  12.447  0.5530  0.6662  0.1516
 5535SOL    HW128238   0.180   1.674  12.541  0.0936 -0.9093 -0.0110
 5535SOL    HW228239   0.184   1.587  12.422  1.7297  0.3050  0.8174
 5536SOL     OW28240   0.087   1.310   8.640 -0.1285  0.5229  0.3585
 5536SOL    HW128241   0.142   1.379   8.679  0.0016 -1.1271  3.0849
 5536SOL    HW228242   0.077   1.359   8.559  0.3273 -1.2115 -0.7347
 5537SOL     OW28243   3.638   2.217   6.754  0.4790 -0.2328  0.0214
 5537SOL    HW128244   3.547   2.190   6.755  0.3016  0.3013 -1.1662
 5537SOL    HW228245   3.664   2.246   6.666  0.1353  0.4578  0.1468
 5538SOL     OW28246   0.942   1.946  16.793  0.2854 -0.1794 -0.3153
 5538SOL    HW128247   1.006   1.962  16.724  2.0558 -1.6791  0.9763
 5538SOL    HW228248   0.907   2.033  16.809 -0.0141 -0.3657  0.0307
 5539SOL     OW28249   1.364   4.146  16.946 -0.7853 -0.8505 -0.1765
 5539SOL    HW128250   1.442   4.103  16.980 -0.2237  1.7205  1.7606
 5539SOL    HW228251   1.395   4.210  16.883  1.0378 -0.5266  1.0492
 5540SOL     OW28252   1.201   2.730   7.460 -0.0175 -0.4422  0.2154
 5540SOL    HW128253   1.270   2.790   7.430 -1.4056  1.6892  1.2756
 5540SOL    HW228254   1.257   2.676   7.515  1.1094  0.4646 -0.0454
 5541SOL     OW28255   1.816   0.404   5.230 -0.2379 -0.0378  0.3350
 5541SOL    HW128256   1.787   0.377   5.317 -0.2753 -1.7239 -0.2115
 5541SOL    HW228257   1.838   0.322   5.186 -1.6546 -0.9343  1.3191
 5542SOL     OW28258   2.637   3.541   7.049 -0.1434  0.2429  0.2594
 5542SOL    HW128259   2.667   3.457   7.082  0.0286  0.6058  1.0296
 5542SOL    HW228260   2.552   3.558   7.089  0.0860 -1.0565  1.3119
 5543SOL     OW28261   1.712   0.736  10.068  0.7507  0.3174  0.2134
 5543SOL    HW128262   1.749   0.650  10.048 -0.6463 -0.0308 -0.8458
 5543SOL    HW228263   1.697   0.732  10.162 -1.3808 -1.7982 -0.2339
 5544SOL     OW28264   2.945   4.729   6.183 -0.0270  0.0332  0.4443
 5544SOL    HW128265   2.892   4.678   6.122 -1.4960  2.3894 -0.2531
 5544SOL    HW228266   3.028   4.734   6.136 -0.6842  0.6544 -0.6510
 5545SOL     OW28267   0.729   4.384  17.451  0.5354 -0.2586  0.1714
 5545SOL    HW128268   0.680   4.312  17.410 -1.4113 -0.5417  3.0485
 5545SOL    HW228269   0.694   4.378  17.540  2.0590  2.5146  0.9532
 5546SOL     OW28270   3.258   1.077   8.310  0.4463 -0.1908 -0.0018
 5546SOL    HW128271   3.248   0.983   8.326  0.6752 -0.0729  0.8196
 5546SOL    HW228272   3.168   1.098   8.286 -0.1158 -0.7940  1.5846
 5547SOL     OW28273   2.947   4.347   3.994 -0.1698 -0.1124  0.2279
 5547SOL    HW128274   3.019   4.294   4.031 -0.2929 -2.0990 -2.3799
 5547SOL    HW228275   2.935   4.399   4.073 -2.6141 -0.8271  0.3049
 5548SOL     OW28276   1.268   3.879  16.813  0.3380 -0.1467 -0.2601
 5548SOL    HW128277   1.195   3.897  16.754 -2.0910 -0.3731  2.6524
 5548SOL    HW228278   1.262   3.952  16.874  3.9759 -0.7459  0.8164
 5549SOL     OW28279   3.209   3.655   4.624  0.3842  0.3893  0.2632
 5549SOL    HW128280   3.188   3.585   4.686  3.1772 -0.7299 -0.0286
 5549SOL    HW228281   3.305   3.653   4.627  0.3931 -1.2496 -0.7140
 5550SOL     OW28282   3.612   2.277   8.212  0.1043  0.1990 -0.5796
 5550SOL    HW128283   3.530   2.239   8.245  1.1999 -0.8851  0.8885
 5550SOL    HW228284   3.658   2.204   8.171 -0.7034 -0.6364 -0.0081
 5551SOL     OW28285   0.981   3.533   6.826 -0.1858 -0.0954  0.3877
 5551SOL    HW128286   0.990   3.456   6.770 -0.7619  0.2565 -0.1948
 5551SOL    HW228287   0.922   3.578   6.765  1.3256 -1.8030 -2.3042
 5552SOL     OW28288   3.773   1.650   0.694 -0.3640  0.1777 -0.2610
 5552SOL    HW128289   3.866   1.660   0.678  0.5017 -3.1559  2.6226
 5552SOL    HW228290   3.748   1.730   0.741  2.5465  1.2011 -0.4823
 5553SOL     OW28291   4.615   3.708   4.063 -0.5481  0.3271  0.1669
 5553SOL    HW128292   4.656   3.622   4.074 -1.0134  0.0102 -0.5993
 5553SOL    HW228293   4.555   3.689   4.135 -0.4275 -1.1770 -0.1286
 5554SOL     OW28294   1.693   3.385  10.891  0.4313  0.0689 -0.3952
 5554SOL    HW128295   1.616   3.440  10.878  0.9493  0.0563 -3.5486
 5554SOL    HW228296   1.722   3.357  10.804  1.0904  1.0778 -0.4926
 5555SOL     OW28297   0.567   3.310   9.439 -0.0143 -0.2349  0.7777
 5555SOL    HW128298   0.620   3.371   9.490  0.2136  0.2646 -0.0502
 5555SOL    HW228299   0.589   3.227   9.482 -1.0720 -0.4740  0.8510
 5556SOL     OW28300   0.162   3.276   2.399  0.1112  0.5469 -0.0984
 5556SOL    HW128301   0.145   3.371   2.402 -1.1606  0.3129  0.3093
 5556SOL    HW228302   0.157   3.262   2.494  1.6121 -0.1905 -0.1287
 5557SOL     OW28303   4.325   1.674   6.929  0.2918 -0.3459 -0.0493
 5557SOL    HW128304   4.352   1.703   6.841 -0.8110 -1.2239 -0.6761
 5557SOL    HW228305   4.231   1.676   6.912  0.2537  0.1232  0.2315
 5558SOL     OW28306   1.900   1.696   3.346  0.3225  0.1660  0.0797
 5558SOL    HW128307   1.955   1.725   3.274  0.5899  1.2289  0.7086
 5558SOL    HW228308   1.833   1.764   3.350 -0.3161 -0.4062 -0.8399
 5559SOL     OW28309   1.461   3.017   9.044 -0.3467 -0.3693 -0.1555
 5559SOL    HW128310   1.459   3.013   8.948  1.6934 -0.8183 -0.1721
 5559SOL    HW228311   1.503   2.934   9.063  0.1567  0.0850  0.7190
 5560SOL     OW28312   1.590   4.654   4.736 -0.5087  0.5921 -0.2311
 5560SOL    HW128313   1.516   4.658   4.675 -0.4354 -1.5673 -0.4751
 5560SOL    HW228314   1.559   4.605   4.813  1.3382  0.3700  0.3691
 5561SOL     OW28315   4.022   2.636  14.484  0.0990 -0.3647  0.4612
 5561SOL    HW128316   4.052   2.672  14.400  1.6328  0.3387  1.3190
 5561SOL    HW228317   4.031   2.547  14.449 -0.6022 -0.5321  0.7007
 5562SOL     OW28318   4.098   0.015   9.643 -0.0520 -0.3795 -0.7466
 5562SOL    HW128319   4.031   0.017   9.711  1.3478  0.6642  0.5842
 5562SOL    HW228320   4.040   0.018   9.567  0.2479 -3.9688 -1.1131
 5563SOL     OW28321   4.592   2.381   3.033 -0.0257 -0.0023 -0.4852
 5563SOL    HW128322   4.564   2.419   2.949 -1.1866 -1.1389 -0.5994
 5563SOL    HW228323   4.655   2.448   3.061 -2.3978  1.3528  1.5797
 5564SOL     OW28324   0.061   1.946  11.975  0.1070  0.1206  0.8308
 5564SOL    HW128325   0.133   2.003  11.948  0.1493 -0.1051  0.4697
 5564SOL    HW228326   0.107   1.863  11.973 -0.2439 -0.0956  1.8018
 5565SOL     OW28327   3.234   2.642  15.984  0.2651 -0.8447 -0.6108
 5565SOL    HW128328   3.177   2.711  15.950  2.0210  0.9872  0.2134
 5565SOL    HW228329   3.293   2.689  16.042 -2.1529 -1.3349  2.2561
 5566SOL     OW28330   4.496   3.476   7.093  0.2019  0.2568 -0.2846
 5566SOL    HW128331   4.447   3.528   7.029  1.0724  0.7519 -0.5508
 5566SOL    HW228332   4.538   3.416   7.031 -0.7367 -2.8923  2.1463
 5567SOL     OW28333   3.955   4.331   7.395 -0.0984  0.1279  0.2955
 5567SOL    HW128334   3.872   4.375   7.409  0.1241  0.6343  0.0377
 5567SOL    HW228335   4.000   4.408   7.360 -0.7071 -0.5653 -1.9938
 5568SOL     OW28336   1.281   3.681   4.284  0.1785  0.8173 -0.2420
 5568SOL    HW128337   1.201   3.676   4.338  0.4757  0.8494  0.1982
 5568SOL    HW228338   1.265   3.764   4.238 -0.2839  0.3824 -0.8658
 5569SOL     OW28339   4.465   2.857   6.897 -0.0832 -0.0720  0.3056
 5569SOL    HW128340   4.407   2.870   6.972 -1.7262 -1.9760 -0.6360
 5569SOL    HW228341   4.530   2.825   6.959  1.0327 -0.6973 -1.2009
 5570SOL     OW28342   0.320   2.468   8.088  0.7001  0.2034  0.2358
 5570SOL    HW128343   0.248   2.526   8.112 -0.3628 -0.2903 -1.7219
 5570SOL    HW228344   0.290   2.422   8.010 -0.6629  2.4827 -0.6047
 5571SOL     OW28345   2.565   0.994   6.396 -0.2899 -0.2354  0.4605
 5571SOL    HW128346   2.598   1.083   6.391  1.3306 -0.8939 -0.4709
 5571SOL    HW228347   2.644   0.943   6.415  0.3529  0.4449 -0.4320
 5572SOL     OW28348   0.588   1.475   6.943 -0.3105  0.2718  1.0547
 5572SOL    HW128349   0.618   1.444   7.029 -0.2409 -0.0164  0.9269
 5572SOL    HW228350   0.499   1.440   6.948 -0.6967  0.9990 -1.0090
 5573SOL     OW28351   3.870   1.459   6.062 -0.1532  0.1938  0.6027
 5573SOL    HW128352   3.814   1.402   6.115 -1.5278  0.8730 -0.0922
 5573SOL    HW228353   3.834   1.436   5.976  0.5995  0.1577  0.2965
 5574SOL     OW28354   4.021   4.110   1.713 -0.0618  0.1710 -0.2627
 5574SOL    HW128355   3.992   4.050   1.645  0.7048  0.6496 -1.0076
 5574SOL    HW228356   4.100   4.068   1.747  0.2387 -0.1956 -1.4179
 5575SOL     OW28357   3.862   1.677   3.872  0.6532 -0.2524  0.3807
 5575SOL    HW128358   3.934   1.728   3.910  1.7566 -0.7116 -1.0929
 5575SOL    HW228359   3.904   1.591   3.866  0.3021 -0.5236  1.6954
 5576SOL     OW28360   2.504   4.623   3.247 -0.6614  0.0108 -0.1453
 5576SOL    HW128361   2.571   4.616   3.179 -0.0783 -1.3027  0.5588
 5576SOL    HW228362   2.464   4.706   3.224 -1.4122 -0.2904  0.0934
 5577SOL     OW28363   0.697   4.089   0.831 -0.2222  0.0507 -0.0764
 5577SOL    HW128364   0.687   4.054   0.919  2.7913  1.5882  0.8666
 5577SOL    HW228365   0.729   4.012   0.784 -1.2713 -0.9207  0.8258
 5578SOL     OW28366   1.772   3.278  14.539  0.2534 -0.1976 -0.2251
 5578SOL    HW128367   1.788   3.335  14.614  0.1281  2.0181 -1.8825
 5578SOL    HW228368   1.838   3.209  14.546  0.1000 -0.4721 -1.3813
 5579SOL     OW28369   1.188   0.090   3.622 -0.1463  0.5231 -0.1785
 5579SOL    HW128370   1.195   0.021   3.556  3.1194  0.9218 -0.2802
 5579SOL    HW228371   1.148   0.041   3.693  0.0737  1.3439  0.5073
 5580SOL     OW28372   3.911   3.383  16.019 -0.2223 -0.5498  0.4036
 5580SOL    HW128373   3.821   3.353  16.008 -1.7146  3.5942  1.1928
 5580SOL    HW228374   3.961   3.313  15.978  1.2302  0.6039  0.2049
 5581SOL     OW28375   3.592   2.285   5.349 -0.0607 -0.4605 -0.1834
 5581SOL    HW128376   3.648   2.209   5.338 -0.0702 -0.4240 -0.5067
 5581SOL    HW228377   3.565   2.292   5.257  0.9601 -0.1266 -0.4618
 5582SOL     OW28378   2.278   1.618  14.966  0.4165 -0.0632 -0.2933
 5582SOL    HW128379   2.241   1.541  14.923 -1.9181  1.5405 -1.0866
 5582SOL    HW228380   2.330   1.649  14.892  0.5346  0.1089 -0.1384
 5583SOL     OW28381   1.136   1.935  13.341  0.1658 -0.6061  0.0085
 5583SOL    HW128382   1.055   1.902  13.380 -0.6739 -0.5700 -1.6903
 5583SOL    HW228383   1.197   1.939  13.414 -0.4219  0.5046  0.4348
 5584SOL     OW28384   1.313   0.753   8.719  0.3453 -0.1680 -0.7456
 5584SOL    HW128385   1.374   0.680   8.718  1.7498  0.9826 -0.0597
 5584SOL    HW228386   1.381   0.820   8.718  1.1128 -0.9373  0.1375
 5585SOL     OW28387   4.560   3.996   1.947  0.5720 -0.6893  0.1556
 5585SOL    HW128388   4.576   4.084   1.913  0.9161 -1.2385 -1.1244
 5585SOL    HW228389   4.476   4.006   1.993  1.6699  1.3021  1.7280
 5586SOL     OW28390   2.577   3.598   5.751 -1.0297 -0.1079 -0.1153
 5586SOL    HW128391   2.539   3.680   5.721 -0.4852  0.0652 -0.3441
 5586SOL    HW228392   2.499   3.572   5.800  0.6516 -2.1042  1.5302
 5587SOL     OW28393   3.895   1.468   3.669  0.1305 -0.0168 -0.1560
 5587SOL    HW128394   3.887   1.563   3.662  1.9392  0.2808  1.8962
 5587SOL    HW228395   3.972   1.459   3.612  0.6707  2.0252  0.2564
 5588SOL     OW28396   0.036   3.158  11.626 -0.1163 -0.6998  0.3393
 5588SOL    HW128397   0.008   3.067  11.636  0.2663 -0.8889 -0.2717
 5588SOL    HW228398   0.014   3.168  11.533  1.0163 -0.5717  0.0896
 5589SOL     OW28399   0.682   3.444   0.217  0.3712 -0.1432 -0.8727
 5589SOL    HW128400   0.589   3.428   0.232  0.5070 -1.5082 -1.4729
 5589SOL    HW228401   0.709   3.466   0.306  0.1845  0.0478 -0.8647
 5590SOL     OW28402   4.284   3.439   6.497  0.0447  0.2867  0.3747
 5590SOL    HW128403   4.308   3.386   6.421 -0.1263  0.7252  0.0211
 5590SOL    HW228404   4.325   3.403   6.576  0.8806 -1.1462 -0.7067
 5591SOL     OW28405   2.591   4.438   8.611 -0.3102 -0.1675 -0.2319
 5591SOL    HW128406   2.547   4.357   8.584  1.0337 -0.7503 -0.7439
 5591SOL    HW228407   2.573   4.439   8.704 -1.0508 -1.4413 -0.3562
 5592SOL     OW28408   2.808   0.783  12.996  0.1429  0.3494  0.2411
 5592SOL    HW128409   2.900   0.810  13.000  0.4462 -0.7389  0.4745
 5592SOL    HW228410   2.809   0.704  12.943  1.1115  0.9035 -0.5654
 5593SOL     OW28411   3.974   2.097   4.455  0.0218 -0.1897  0.0676
 5593SOL    HW128412   4.029   2.168   4.487  0.8653 -0.7186 -0.2029
 5593SOL    HW228413   3.888   2.139   4.447 -1.0038 -1.7013  3.1351
 5594SOL     OW28414   0.681   1.335   7.806 -0.2573 -0.0675  0.0703
 5594SOL    HW128415   0.762   1.316   7.760  0.9485 -1.1012  2.5966
 5594SOL    HW228416   0.715   1.404   7.863 -3.6654  0.6891  1.2056
 5595SOL     OW28417   0.844   1.970   6.290  0.0186 -0.7008  0.2768
 5595SOL    HW128418   0.792   2.048   6.308  1.8134  0.9353 -1.5425
 5595SOL    HW228419   0.790   1.925   6.224  1.0268 -1.5974  0.0634
 5596SOL     OW28420   1.334   0.043   7.196  0.0854  0.1720  0.1097
 5596SOL    HW128421   1.348   4.695   7.149 -0.2583 -0.1963  0.6567
 5596SOL    HW228422   1.336   0.006   7.284  0.6716 -1.0719 -0.4199
 5597SOL     OW28423   3.796   4.494  16.234  0.1391 -0.2605  0.5818
 5597SOL    HW128424   3.816   4.414  16.283  0.5447 -1.2793 -1.2621
 5597SOL    HW228425   3.703   4.508  16.253  0.3947  0.0943  1.5709
 5598SOL     OW28426   2.291   3.083   5.620 -0.0256 -0.2300  0.0903
 5598SOL    HW128427   2.307   3.152   5.683 -1.4084  0.2652 -0.1125
 5598SOL    HW228428   2.371   3.090   5.568 -0.5707 -0.7483 -0.8321
 5599SOL     OW28429   3.305   1.366   5.092  0.1834  0.3163 -0.2374
 5599SOL    HW128430   3.329   1.275   5.072  1.4272  0.1871  1.8597
 5599SOL    HW228431   3.213   1.368   5.065  0.2220 -0.0682 -0.4039
 5600SOL     OW28432   3.402   2.959   7.770  0.0143  0.7816  0.2288
 5600SOL    HW128433   3.394   3.054   7.775 -2.0031  0.7039 -1.4176
 5600SOL    HW228434   3.423   2.937   7.861 -1.3883  0.4088  0.4563
 5601SOL     OW28435   4.023   0.629   6.833 -0.2550 -0.0513  0.3657
 5601SOL    HW128436   4.001   0.677   6.753  1.8469  1.2950  0.6097
 5601SOL    HW228437   4.115   0.614   6.813 -0.7053  0.7165 -2.3442
 5602SOL     OW28438   1.044   1.866   5.053  0.6637  0.0388  0.0796
 5602SOL    HW128439   1.121   1.826   5.094 -0.8726 -2.8047  0.1578
 5602SOL    HW228440   0.982   1.793   5.052 -0.6116  1.1665 -2.1435
 5603SOL     OW28441   2.981   1.130   6.926 -0.8530  0.1639 -0.0247
 5603SOL    HW128442   2.914   1.062   6.922  0.8119 -1.4584 -0.2673
 5603SOL    HW228443   3.036   1.132   6.848 -1.5357  1.3910 -0.4728
 5604SOL     OW28444   0.930   4.524   3.271 -0.0442 -0.2862  0.2536
 5604SOL    HW128445   0.981   4.554   3.195 -0.6335 -2.4415 -0.9823
 5604SOL    HW228446   0.981   4.444   3.283 -1.1815 -0.9514  0.6372
 5605SOL     OW28447   4.658   4.294   8.153  0.0753  0.0535 -0.3561
 5605SOL    HW128448   4.564   4.311   8.143  0.2134  1.3814  0.5811
 5605SOL    HW228449   4.690   4.377   8.188 -0.7412  0.3893 -0.4079
 5606SOL     OW28450   0.650   2.606   3.722 -0.3619 -0.4043  0.1450
 5606SOL    HW128451   0.650   2.627   3.815 -2.1657 -2.0013  0.5178
 5606SOL    HW228452   0.669   2.693   3.687 -1.9060  0.0842  0.5250
 5607SOL     OW28453   2.036   2.413   9.719 -0.1766  0.1442  0.0188
 5607SOL    HW128454   1.952   2.369   9.708 -1.1573  1.9995  0.1017
 5607SOL    HW228455   2.086   2.353   9.775 -1.5914  1.0270  2.2469
 5608SOL     OW28456   1.013   4.376   5.129 -0.4689 -0.2469  0.3007
 5608SOL    HW128457   0.995   4.306   5.191  0.7264  0.2623  1.2258
 5608SOL    HW228458   0.973   4.450   5.174 -1.3605 -0.9821  0.7100
 5609SOL     OW28459   1.570   0.092   8.926  0.2919  0.0431  0.0529
 5609SOL    HW128460   1.524   0.174   8.907 -0.0916 -0.0474  0.5779
 5609SOL    HW228461   1.658   0.130   8.919  0.9448 -1.1922  1.5376
 5610SOL     OW28462   0.909   1.079  15.622  0.1015 -0.0602 -0.1146
 5610SOL    HW128463   0.990   1.061  15.670  0.5634 -0.4324 -1.0383
 5610SOL    HW228464   0.949   1.110  15.541 -1.9698  0.0666 -1.0868
 5611SOL     OW28465   0.089   3.115   2.069  0.0079  0.5724 -0.1931
 5611SOL    HW128466   0.171   3.162   2.086 -0.9723  2.7502 -1.3590
 5611SOL    HW228467   0.060   3.065   2.144 -2.8869 -0.1804 -1.8131
 5612SOL     OW28468   3.126   4.318   3.580  0.2580  0.0695  0.3194
 5612SOL    HW128469   3.115   4.360   3.495  1.5568 -0.7535 -0.2621
 5612SOL    HW228470   3.076   4.376   3.637  1.6504 -0.6872  2.2920
 5613SOL     OW28471   1.035   3.209   1.271  0.4607 -0.4110  0.6438
 5613SOL    HW128472   1.015   3.174   1.357  1.7640  2.2162  1.9982
 5613SOL    HW228473   0.949   3.250   1.258 -0.2416 -2.8793 -2.7635
 5614SOL     OW28474   4.536   2.684   1.581 -0.7633  0.0549  0.1033
 5614SOL    HW128475   4.497   2.762   1.622 -0.4768 -0.6507  1.7390
 5614SOL    HW228476   4.460   2.650   1.533  0.4695 -1.3514 -0.8318
 5615SOL     OW28477   2.697   3.486  17.180 -0.2702  0.7658  0.2241
 5615SOL    HW128478   2.614   3.532  17.195 -0.6457  0.2655 -0.3495
 5615SOL    HW228479   2.762   3.536  17.230  1.2393  0.4229 -1.4156
 5616SOL     OW28480   3.724   0.625  13.190 -0.0357  0.4914  0.3189
 5616SOL    HW128481   3.638   0.649  13.157  0.6162  1.8923 -0.3469
 5616SOL    HW228482   3.697   0.640  13.280 -0.0004  1.9841  0.0787
 5617SOL     OW28483   3.872   1.480   7.542 -0.0563  0.0380  0.1375
 5617SOL    HW128484   3.831   1.565   7.525  2.2752  1.3482  1.0207
 5617SOL    HW228485   3.879   1.476   7.638  2.2449 -0.7417 -0.0501
 5618SOL     OW28486   3.311   2.865  11.849  0.1729  0.0282  0.5345
 5618SOL    HW128487   3.252   2.940  11.843  0.7281  0.2373 -2.7420
 5618SOL    HW228488   3.253   2.789  11.856  0.6504 -0.3504  0.3701
 5619SOL     OW28489   3.692   0.058   3.242  0.3075  0.1553 -0.0699
 5619SOL    HW128490   3.601   0.086   3.247 -0.3797 -1.8344 -1.4771
 5619SOL    HW228491   3.731   0.079   3.327 -0.4234  0.8692  0.0847
 5620SOL     OW28492   3.222   4.427   0.021  0.2854  0.4259  0.0330
 5620SOL    HW128493   3.283   4.358   0.050 -0.4019 -0.4298 -0.5607
 5620SOL    HW228494   3.221   4.480   0.101  2.6759 -0.9045  0.9665
 5621SOL     OW28495   2.138   2.683   5.680 -1.0372 -0.2982 -0.0239
 5621SOL    HW128496   2.106   2.600   5.715 -0.5559 -1.1588 -1.5938
 5621SOL    HW228497   2.101   2.677   5.592 -2.1657  2.2454  0.2840
 5622SOL     OW28498   4.173   1.016  14.328  0.1005 -0.0852  0.0432
 5622SOL    HW128499   4.259   1.005  14.368  0.9370  0.7682 -1.5115
 5622SOL    HW228500   4.197   1.083  14.264 -0.2687  0.9106  0.9405
 5623SOL     OW28501   3.921   3.520   7.001  0.3186 -0.2383  0.5197
 5623SOL    HW128502   3.837   3.566   7.011 -0.4583 -1.3510 -0.8070
 5623SOL    HW228503   3.907   3.468   6.921  2.0183 -0.2730  0.2401
 5624SOL     OW28504   0.513   2.206   0.856  0.3342  0.1682 -0.2799
 5624SOL    HW128505   0.472   2.276   0.806  3.1160  1.0191 -1.4017
 5624SOL    HW228506   0.434   2.156   0.874  0.4380 -0.3320 -1.1651
 5625SOL     OW28507   0.808   3.651   5.452 -0.0619  0.5783 -0.2716
 5625SOL    HW128508   0.810   3.570   5.502  0.4395  1.1143  0.5726
 5625SOL    HW228509   0.879   3.689   5.504  1.2693 -0.0946 -1.5691
 5626SOL     OW28510   3.209   0.770   2.869 -0.4075 -0.1001 -0.2205
 5626SOL    HW128511   3.293   0.760   2.914 -0.0406  0.1051 -0.8638
 5626SOL    HW228512   3.149   0.770   2.944  0.6442 -2.5216  0.6306
 5627SOL     OW28513   3.068   3.956  13.857  0.5035 -0.2162 -0.1864
 5627SOL    HW128514   3.084   4.004  13.938  1.6078 -1.3940  0.3014
 5627SOL    HW228515   3.046   3.871  13.895  2.0005 -0.5986 -0.1610
 5628SOL     OW28516   4.075   4.466   5.672  0.2028 -0.6395 -0.8834
 5628SOL    HW128517   4.003   4.520   5.638 -0.9435 -1.2554  0.5363
 5628SOL    HW228518   4.145   4.494   5.613  0.3335 -2.4008 -1.5712
 5629SOL     OW28519   4.486   4.686   0.555  0.5709 -0.3772 -0.7467
 5629SOL    HW128520   4.459   4.613   0.500  0.4999  0.1858 -1.4527
 5629SOL    HW228521   4.424   4.676   0.627  0.9854 -0.9509 -0.4710
 5630SOL     OW28522   1.431   2.588   0.794  0.0994 -0.1794 -0.4367
 5630SOL    HW128523   1.507   2.563   0.847 -0.9590 -0.7477  0.8100
 5630SOL    HW228524   1.463   2.564   0.708 -1.0289 -1.3013 -0.5374
 5631SOL     OW28525   1.191   3.172   4.897  1.0027 -0.2272 -0.1609
 5631SOL    HW128526   1.151   3.101   4.948 -0.6205  1.0299  0.2992
 5631SOL    HW228527   1.122   3.227   4.860  1.5757 -0.6129 -1.8344
 5632SOL     OW28528   0.582   0.260   2.568  0.2768  0.1210 -0.2431
 5632SOL    HW128529   0.661   0.313   2.554 -0.9081  1.8173 -0.4424
 5632SOL    HW228530   0.632   0.181   2.591 -0.4597 -0.7081 -1.4633
 5633SOL     OW28531   3.407   1.918   6.568 -0.1155  0.0414  0.6281
 5633SOL    HW128532   3.336   1.968   6.528  0.6514  0.5297 -0.1166
 5633SOL    HW228533   3.447   1.868   6.497 -0.7544  0.0992  0.2269
 5634SOL     OW28534   0.188   1.159   4.161  0.4365  0.2426  0.2737
 5634SOL    HW128535   0.144   1.083   4.199  0.0088  1.0710  1.4113
 5634SOL    HW228536   0.281   1.155   4.184  1.2417  1.3561 -2.7290
 5635SOL     OW28537   0.962   0.133   1.660 -0.0506 -0.8217 -0.3215
 5635SOL    HW128538   0.897   0.067   1.685 -1.3811  0.1507 -1.2108
 5635SOL    HW228539   0.997   0.100   1.578 -0.7581 -0.0722 -0.9190
 5636SOL     OW28540   1.771   1.517   5.360  0.0809  0.0258  0.7908
 5636SOL    HW128541   1.850   1.535   5.309 -1.1042 -1.6522 -1.6671
 5636SOL    HW228542   1.809   1.529   5.447  0.1536  0.1101  0.7473
 5637SOL     OW28543   2.788   0.918   6.927 -0.2525 -0.0112 -0.1369
 5637SOL    HW128544   2.788   0.895   7.020  2.1159 -0.7730 -0.3309
 5637SOL    HW228545   2.696   0.939   6.911  0.1434  0.7442 -1.4379
 5638SOL     OW28546   1.017   3.976  10.331 -0.4875 -0.7853 -0.4424
 5638SOL    HW128547   1.044   4.068  10.333 -1.7247 -0.3619 -3.8913
 5638SOL    HW228548   1.105   3.945  10.349 -0.9632 -0.8500  1.8603
 5639SOL     OW28549   4.493   4.614   2.430 -0.6431 -0.6024 -0.3761
 5639SOL    HW128550   4.538   4.698   2.425  0.7831 -1.2931  0.8202
 5639SOL    HW228551   4.421   4.640   2.488 -2.6169 -2.2756 -2.0709
 5640SOL     OW28552   2.999   2.995  16.908  0.0816  0.2597 -0.3936
 5640SOL    HW128553   3.047   2.964  16.984  0.6266  1.8942 -0.0844
 5640SOL    HW228554   3.048   3.074  16.887 -0.0702 -0.0733 -2.0210
 5641SOL     OW28555   4.013   3.323  17.415 -0.1761  0.2915  0.1979
 5641SOL    HW128556   4.081   3.260  17.392 -0.8248 -0.8568  1.4658
 5641SOL    HW228557   3.932   3.290  17.375 -1.2720  1.7957  1.1907
 5642SOL     OW28558   0.473   1.204   2.581 -0.1501 -0.3318  0.2772
 5642SOL    HW128559   0.499   1.269   2.647 -1.0792  0.0042  0.3135
 5642SOL    HW228560   0.555   1.159   2.560  1.2215  2.0960  0.4111
 5643SOL     OW28561   1.519   1.569   8.045 -0.3181  0.1155 -0.4260
 5643SOL    HW128562   1.447   1.540   7.988  1.2591 -2.0402 -1.3182
 5643SOL    HW228563   1.558   1.640   7.994  0.3735  2.4000  3.2802
 5644SOL     OW28564   4.372   1.257   9.153 -0.0224  0.3636  0.4654
 5644SOL    HW128565   4.409   1.332   9.106  0.4255  0.4875  1.0046
 5644SOL    HW228566   4.425   1.186   9.117 -0.6101 -0.0090  0.3356
 5645SOL     OW28567   2.329   1.336   8.191 -0.2039 -0.2472  0.6402
 5645SOL    HW128568   2.368   1.340   8.103 -1.7768  2.1829  0.0404
 5645SOL    HW228569   2.359   1.420   8.226 -0.8270  1.0453 -1.9128
 5646SOL     OW28570   3.254   3.413   5.241  0.1282 -0.3410 -0.2568
 5646SOL    HW128571   3.237   3.487   5.183 -0.2794  0.3568  0.7459
 5646SOL    HW228572   3.303   3.350   5.188  0.2643 -1.1783  0.8751
 5647SOL     OW28573   3.073   4.053   3.514  0.1534  0.6029 -0.0217
 5647SOL    HW128574   3.079   4.141   3.552  0.6613 -0.7229  2.9489
 5647SOL    HW228575   3.037   4.082   3.430 -1.0569 -0.2306  0.2220
 5648SOL     OW28576   1.755   2.351   9.686  0.8253 -0.2974 -0.2962
 5648SOL    HW128577   1.692   2.421   9.703  0.1646 -0.8242 -0.5521
 5648SOL    HW228578   1.718   2.277   9.734  1.9570  0.1939  1.3238
 5649SOL     OW28579   1.908   3.618   8.752 -0.3558  0.4731  0.2959
 5649SOL    HW128580   1.900   3.697   8.699  1.0106 -0.1789 -0.8730
 5649SOL    HW228581   1.896   3.547   8.689 -1.7292  1.3712 -0.4670
 5650SOL     OW28582   3.796   4.490   3.645  0.2310  0.3738  0.6345
 5650SOL    HW128583   3.794   4.398   3.668  1.1650  0.0325 -0.6722
 5650SOL    HW228584   3.821   4.489   3.553  2.7071  1.2932  1.2943
 5651SOL     OW28585   3.250   0.545   6.583  0.0058  0.0730 -0.8454
 5651SOL    HW128586   3.212   0.486   6.648  1.3912 -0.0318 -0.1271
 5651SOL    HW228587   3.265   0.481   6.514 -0.3179 -2.1682  1.1555
 5652SOL     OW28588   1.704   2.568   4.612 -0.0808  0.1202 -0.1841
 5652SOL    HW128589   1.779   2.620   4.582 -0.9956  1.3405 -0.3831
 5652SOL    HW228590   1.648   2.583   4.536 -1.0044  0.1371  0.5025
 5653SOL     OW28591   1.089   0.210   6.344 -0.0575 -0.3673 -0.2063
 5653SOL    HW128592   0.999   0.219   6.376 -0.3416  2.1920 -1.6901
 5653SOL    HW228593   1.072   0.137   6.285 -0.4263 -1.2303  0.9503
 5654SOL     OW28594   3.440   0.621   2.126  0.0361  0.7280  0.1248
 5654SOL    HW128595   3.434   0.684   2.199 -0.7678 -0.3983  1.0294
 5654SOL    HW228596   3.504   0.557   2.157  1.2392  1.5642 -0.6181
 5655SOL     OW28597   4.580   0.590   4.038  0.0144  0.5811 -0.0423
 5655SOL    HW128598   4.594   0.503   4.000  1.4990  1.8552 -2.4173
 5655SOL    HW228599   4.669   0.623   4.028 -0.4574  2.0850  0.7929
 5656SOL     OW28600   1.340   2.631  11.339  0.6187  0.0659  0.0337
 5656SOL    HW128601   1.291   2.553  11.363  0.7647 -0.2165 -0.5873
 5656SOL    HW228602   1.429   2.602  11.317  0.9105  1.7200 -0.9721
 5657SOL     OW28603   0.641   2.257  17.481  0.7866 -0.6491 -0.4810
 5657SOL    HW128604   0.675   2.329  17.535  0.8161 -2.5906  2.1026
 5657SOL    HW228605   0.659   2.191  17.548 -1.2036  1.0483  1.7274
 5658SOL     OW28606   1.552   4.489   4.955  0.1683  0.2463 -1.2582
 5658SOL    HW128607   1.614   4.450   5.016 -3.0366 -1.1277  1.1558
 5658SOL    HW228608   1.472   4.464   5.001 -0.2584  2.8568 -0.6046
 5659SOL     OW28609   2.538   0.411  11.073  0.3034 -0.3407 -0.0961
 5659SOL    HW128610   2.498   0.361  11.144 -0.4179 -0.6121 -0.6873
 5659SOL    HW228611   2.484   0.397  10.995  0.4341 -0.5117 -0.1548
 5660SOL     OW28612   4.683   2.656   2.876 -0.4054 -0.4772 -0.3294
 5660SOL    HW128613   0.033   2.624   2.907  0.0368  0.9199 -0.0893
 5660SOL    HW228614   4.699   2.739   2.831 -0.2353 -0.8827 -1.0262
 5661SOL     OW28615   1.508   4.449   7.361  0.0695 -0.3066  0.1049
 5661SOL    HW128616   1.471   4.417   7.279  1.4670  1.3582 -1.1791
 5661SOL    HW228617   1.558   4.524   7.330 -1.2105 -0.1241 -1.5281
 5662SOL     OW28618   2.748   0.559   9.317 -0.0511 -0.1459 -0.2725
 5662SOL    HW128619   2.767   0.650   9.295  0.3649 -0.7427 -2.3740
 5662SOL    HW228620   2.820   0.514   9.274 -0.6479 -1.0863 -0.3029
 5663SOL     OW28621   4.075   0.292   1.777 -0.3608 -0.5076 -0.2900
 5663SOL    HW128622   4.158   0.340   1.772  0.7195 -2.4435 -0.5760
 5663SOL    HW228623   4.109   0.203   1.780 -1.4218 -0.9375 -0.8985
 5664SOL     OW28624   3.117   0.816   0.149  0.1093 -0.0634 -0.1916
 5664SOL    HW128625   3.110   0.905   0.114  0.0000  1.0711  2.7334
 5664SOL    HW228626   3.092   0.828   0.241 -2.7645  1.3865 -1.1624
 5665SOL     OW28627   4.114   2.308  13.079 -0.2441  0.1043 -0.7380
 5665SOL    HW128628   4.164   2.388  13.093 -0.3585 -0.3100  1.9679
 5665SOL    HW228629   4.054   2.305  13.154  0.3914 -0.8763 -0.2728
 5666SOL     OW28630   1.495   3.342   9.017 -0.1267  0.3088 -0.0181
 5666SOL    HW128631   1.468   3.306   9.101  0.5144  1.0352  0.5008
 5666SOL    HW228632   1.590   3.344   9.031 -0.0505  0.6438 -0.5540
 5667SOL     OW28633   3.386   3.414  14.924  0.2638 -0.9408 -0.6681
 5667SOL    HW128634   3.444   3.427  14.848  0.4866  2.6988  0.1459
 5667SOL    HW228635   3.389   3.500  14.966 -0.9893 -0.4528 -1.5774
 5668SOL     OW28636   0.829   4.543   3.631  0.6790 -0.3089  0.4371
 5668SOL    HW128637   0.847   4.636   3.637 -3.1404  0.4312  0.4235
 5668SOL    HW228638   0.745   4.535   3.677  0.3035  0.1829 -0.1629
 5669SOL     OW28639   4.466   3.183   0.105 -0.8074 -0.5952  0.5592
 5669SOL    HW128640   4.441   3.094   0.081 -3.4544  0.9872 -2.7586
 5669SOL    HW228641   4.404   3.232   0.050  0.8511  0.6426 -0.2333
 5670SOL     OW28642   2.320   4.425   5.476  0.7852 -0.0752  0.1681
 5670SOL    HW128643   2.307   4.384   5.561  0.6115  0.7729  0.5531
 5670SOL    HW228644   2.285   4.513   5.494  0.4363 -0.2709  0.4308
 5671SOL     OW28645   3.981   0.859   9.378  0.6164  0.0245 -0.1266
 5671SOL    HW128646   3.980   0.882   9.471  2.0543 -1.4832  0.2656
 5671SOL    HW228647   3.994   0.766   9.396 -1.1894 -0.1524  0.3183
 5672SOL     OW28648   0.845   3.047  15.455 -0.6343  0.1797 -0.2144
 5672SOL    HW128649   0.811   3.077  15.371  1.0824  0.1107 -0.9341
 5672SOL    HW228650   0.796   2.965  15.462 -0.2019  0.0455  1.2535
 5673SOL     OW28651   4.532   0.984  10.501  0.1786 -0.2502 -0.4565
 5673SOL    HW128652   4.574   1.070  10.511  1.4137 -0.9993  0.7800
 5673SOL    HW228653   4.601   0.922  10.524  0.0106  0.0569  0.8790
 5674SOL     OW28654   3.759   4.716   6.388 -0.2529  0.2794 -0.2764
 5674SOL    HW128655   3.673   0.021   6.398 -0.5467 -0.0542 -1.4644
 5674SOL    HW228656   3.783   0.011   6.300 -1.8083 -0.3099 -0.8893
 5675SOL     OW28657   3.223   0.066   4.858  0.1342 -0.2527 -0.2884
 5675SOL    HW128658   3.155   0.131   4.875  0.3657  0.3755 -1.7858
 5675SOL    HW228659   3.198   0.037   4.771  1.2687  2.1860 -1.4271
 5676SOL     OW28660   3.658   0.470  14.522 -0.0251 -0.3457  0.1166
 5676SOL    HW128661   3.601   0.393  14.532  0.2783 -0.7944 -1.6730
 5676SOL    HW228662   3.649   0.481  14.427 -2.3556  0.2936  0.3972
 5677SOL     OW28663   4.553   0.313   8.471  0.0415 -0.1515  0.2952
 5677SOL    HW128664   4.505   0.341   8.393 -0.4672 -0.1925  0.5949
 5677SOL    HW228665   4.630   0.371   8.471 -0.6662  0.7959 -0.7314
 5678SOL     OW28666   4.379   3.547   3.845  0.2411 -0.2263 -0.3040
 5678SOL    HW128667   4.429   3.479   3.800 -0.1503 -0.1795 -0.8063
 5678SOL    HW228668   4.317   3.503   3.903  1.8708  0.8539  2.3045
 5679SOL     OW28669   4.255   3.477  12.087  0.3523  0.1428 -0.3020
 5679SOL    HW128670   4.336   3.524  12.065 -0.1279  1.1651  0.1212
 5679SOL    HW228671   4.185   3.532  12.051  0.2752  1.1513  1.3867
 5680SOL     OW28672   2.027   1.459   4.888  0.1071  0.6400  0.1761
 5680SOL    HW128673   1.988   1.471   4.802 -0.7928  1.7527  0.7392
 5680SOL    HW228674   2.080   1.382   4.868  0.5822  0.4075  2.3428
 5681SOL     OW28675   2.149   4.359   7.041 -0.0391  0.3879 -0.3155
 5681SOL    HW128676   2.214   4.402   7.097 -0.4398 -0.7902  1.0423
 5681SOL    HW228677   2.203   4.367   6.962  1.6861 -1.1805  0.6898
 5682SOL     OW28678   4.390   0.290  14.656 -1.1270 -0.6444  0.0016
 5682SOL    HW128679   4.299   0.301  14.631 -1.1729  0.5716  0.7020
 5682SOL    HW228680   4.404   0.199  14.682  1.4532  0.3221  2.0100
 5683SOL     OW28681   1.394   0.763   8.129 -0.1010 -0.4304 -0.0725
 5683SOL    HW128682   1.452   0.695   8.095  1.0544  1.0915 -1.1576
 5683SOL    HW228683   1.399   0.818   8.050 -0.9273  1.3710  1.1179
 5684SOL     OW28684   4.557   3.143   1.572 -0.2615 -0.0055 -0.3704
 5684SOL    HW128685   4.499   3.111   1.641 -2.9568  1.9643 -1.7177
 5684SOL    HW228686   4.520   3.222   1.531  0.1589  0.3504 -0.0731
 5685SOL     OW28687   3.776   2.399  11.894  0.0926 -0.1995 -0.4308
 5685SOL    HW128688   3.857   2.372  11.938 -0.6036 -1.5625  0.0094
 5685SOL    HW228689   3.732   2.447  11.964 -1.3166 -1.0871 -0.7146
 5686SOL     OW28690   4.605   1.919   2.095  0.1792  0.3974 -0.2608
 5686SOL    HW128691   4.598   1.863   2.172 -0.9478 -1.5255 -1.7597
 5686SOL    HW228692   4.528   1.896   2.044 -0.5718 -0.1597  1.1262
 5687SOL     OW28693   1.431   0.428   0.532  0.2841  0.3890  0.1510
 5687SOL    HW128694   1.494   0.378   0.479 -0.9811  0.8216 -1.7594
 5687SOL    HW228695   1.354   0.376   0.509 -1.4338  3.3038 -0.5983
 5688SOL     OW28696   2.742   1.643   1.600  0.4073 -0.5796  1.2383
 5688SOL    HW128697   2.829   1.611   1.578  0.8840  0.8187  1.0703
 5688SOL    HW228698   2.720   1.573   1.662  0.5929 -2.8936 -1.3094
 5689SOL     OW28699   4.001   1.894   3.475  0.1405  0.3666 -0.2580
 5689SOL    HW128700   3.968   1.900   3.564  1.0391  0.7939  0.0412
 5689SOL    HW228701   4.075   1.954   3.475 -0.6676  1.3431  1.4715
 5690SOL     OW28702   3.576   3.009   3.396 -0.0166  0.3915 -0.2173
 5690SOL    HW128703   3.569   2.997   3.491  0.5581 -1.2728 -0.3878
 5690SOL    HW228704   3.509   2.950   3.362 -0.5624  0.2801  1.0283
 5691SOL     OW28705   4.529   1.188   5.134  0.0618  0.6988 -0.5342
 5691SOL    HW128706   4.531   1.122   5.064 -3.5808  0.3217 -0.3211
 5691SOL    HW228707   4.435   1.205   5.141 -0.0402  0.2153 -0.7586
 5692SOL     OW28708   0.228   4.498  11.503  0.1283 -0.3187  0.5039
 5692SOL    HW128709   0.202   4.570  11.561 -0.4612  1.0956 -1.5089
 5692SOL    HW228710   0.204   4.424  11.558  2.3690 -0.8691  0.7575
 5693SOL     OW28711   1.458   2.341   8.383  0.4444  0.1991  0.8456
 5693SOL    HW128712   1.532   2.280   8.387 -0.0966 -0.4420  1.0588
 5693SOL    HW228713   1.482   2.395   8.459 -1.5006  0.2913  1.3785
 5694SOL     OW28714   2.542   2.575  15.980 -0.2724 -0.0368 -0.3270
 5694SOL    HW128715   2.515   2.641  15.916 -1.0760 -0.0449  0.0047
 5694SOL    HW228716   2.460   2.527  15.987 -0.7509  0.8193 -0.0475
 5695SOL     OW28717   3.871   3.640   3.628 -0.3870 -0.5557  0.6870
 5695SOL    HW128718   3.963   3.623   3.649  0.4925  0.9511 -1.9554
 5695SOL    HW228719   3.835   3.551   3.620  0.4586 -0.8899  0.5627
 5696SOL     OW28720   0.856   0.275  14.720 -0.1286 -0.2508 -0.0144
 5696SOL    HW128721   0.940   0.293  14.678  1.3362 -3.2037  1.6176
 5696SOL    HW228722   0.827   0.200  14.668 -1.5291  1.0127 -1.0665
 5697SOL     OW28723   4.385   1.782   9.317 -0.0964 -0.2360  0.3242
 5697SOL    HW128724   4.347   1.698   9.291  0.8006 -1.2044  2.0779
 5697SOL    HW228725   4.342   1.799   9.401 -2.1853  0.9829 -0.9726
 5698SOL     OW28726   3.436   0.928   9.108  0.1876  0.4071  0.6870
 5698SOL    HW128727   3.441   1.023   9.093  0.6934  0.3293  0.3784
 5698SOL    HW228728   3.518   0.909   9.154  1.3576 -0.6052 -1.8537
 5699SOL     OW28729   4.430   1.741   6.676  0.2284  0.0156 -0.0471
 5699SOL    HW128730   4.519   1.722   6.707 -0.1797 -2.0061 -0.1270
 5699SOL    HW228731   4.439   1.832   6.650 -0.0035 -0.4923 -1.8565
 5700SOL     OW28732   1.426   1.692   3.467  0.2158 -0.0609 -0.0952
 5700SOL    HW128733   1.421   1.686   3.562  1.9483 -1.0252 -0.0702
 5700SOL    HW228734   1.333   1.709   3.448 -0.4696 -2.5127  1.0475
 5701SOL     OW28735   1.925   1.993  11.634  0.1219 -0.3029 -0.4507
 5701SOL    HW128736   1.895   2.019  11.721  3.4051 -0.2971  0.6502
 5701SOL    HW228737   1.912   1.899  11.635 -2.2007  0.0282  0.6416
 5702SOL     OW28738   4.350   3.917   0.502  0.0773 -0.1309 -0.6304
 5702SOL    HW128739   4.316   3.963   0.579  1.3001 -0.7479  0.2742
 5702SOL    HW228740   4.266   3.891   0.463 -0.3355 -0.1393  0.2570
 5703SOL     OW28741   2.444   3.720  14.636  0.0025 -0.2717 -0.3145
 5703SOL    HW128742   2.521   3.668  14.661 -0.4053  0.4220  2.4210
 5703SOL    HW228743   2.395   3.646  14.599  1.2023 -0.0975 -2.2117
 5704SOL     OW28744   0.656   2.702  14.825 -0.3386  0.2998 -0.4572
 5704SOL    HW128745   0.604   2.746  14.758 -0.4827  1.4655  0.4209
 5704SOL    HW228746   0.711   2.639  14.779  1.0680  0.0186  1.5768
 5705SOL     OW28747   4.131   2.004   7.164 -0.0969 -0.4572 -0.1238
 5705SOL    HW128748   4.226   1.998   7.176 -0.2861 -1.9131  0.6679
 5705SOL    HW228749   4.111   1.910   7.168 -0.8928 -0.4295 -3.7704
 5706SOL     OW28750   3.879   0.643   4.749 -0.3651 -0.2127 -0.0861
 5706SOL    HW128751   3.922   0.560   4.771  0.5444  1.3663  4.0552
 5706SOL    HW228752   3.790   0.616   4.724  0.1963 -1.6661 -0.5423
 5707SOL     OW28753   3.200   2.800  13.853  0.3345 -0.1163 -0.4350
 5707SOL    HW128754   3.119   2.849  13.839  0.1656 -0.3962 -0.4259
 5707SOL    HW228755   3.178   2.716  13.893  0.3342  0.6733  1.2317
 5708SOL     OW28756   0.214   2.017   8.073 -0.2253  0.3333  0.1247
 5708SOL    HW128757   0.149   2.077   8.110 -0.5786  0.3164 -0.4725
 5708SOL    HW228758   0.273   2.077   8.026 -0.3062 -0.0869 -0.5163
 5709SOL     OW28759   4.339   1.614  17.332  0.6490  0.0070 -0.1651
 5709SOL    HW128760   4.254   1.654  17.314 -0.1657 -1.2394  0.8612
 5709SOL    HW228761   4.371   1.679  17.395 -1.2046  0.3117  0.4539
 5710SOL     OW28762   2.816   2.661   2.212  0.6619  0.1084 -0.4831
 5710SOL    HW128763   2.724   2.680   2.232  0.7306  0.0344 -0.1010
 5710SOL    HW228764   2.842   2.751   2.190  1.6765 -0.3060 -0.9664
 5711SOL     OW28765   2.693   3.593   3.952  0.1212 -0.1915  0.1746
 5711SOL    HW128766   2.765   3.620   4.008 -1.7661  0.8928  2.0835
 5711SOL    HW228767   2.626   3.656   3.980  0.5972  0.8391 -1.0008
 5712SOL     OW28768   0.190   3.983   3.654 -0.1992 -0.1391  0.2185
 5712SOL    HW128769   0.208   3.989   3.561  0.2133 -1.6367  0.1925
 5712SOL    HW228770   0.182   4.073   3.683  0.8173 -0.0426  0.1727
 5713SOL     OW28771   0.893   1.614   7.205 -0.0534  0.2453 -0.1691
 5713SOL    HW128772   0.942   1.587   7.283 -2.7090 -1.5089  0.9160
 5713SOL    HW228773   0.921   1.551   7.139 -0.4563 -0.0723 -0.0409
 5714SOL     OW28774   3.103   1.690  17.284  0.8353  0.0906  0.2018
 5714SOL    HW128775   3.151   1.746  17.345 -0.8684  1.6576  0.0808
 5714SOL    HW228776   3.089   1.753  17.214 -0.3348  0.3350  0.6591
 5715SOL     OW28777   2.166   4.270   8.493 -0.0705 -0.3246  0.0577
 5715SOL    HW128778   2.196   4.209   8.561 -0.7789 -2.6141 -1.6958
 5715SOL    HW228779   2.219   4.248   8.417 -1.4267 -1.5847 -0.5224
 5716SOL     OW28780   0.761   2.015   6.891 -0.2450 -0.3020 -0.6127
 5716SOL    HW128781   0.690   1.991   6.832 -1.5492 -1.6739  1.5457
 5716SOL    HW228782   0.763   1.929   6.931  0.2754  0.2579  0.5729
 5717SOL     OW28783   0.992   2.779   4.281 -0.1207 -0.1780 -0.2268
 5717SOL    HW128784   1.010   2.697   4.235 -0.1110  0.6817 -1.7545
 5717SOL    HW228785   1.076   2.823   4.291 -0.2924 -0.0583  0.6939
 5718SOL     OW28786   0.738   0.487   6.320 -0.0489 -0.4969 -0.0289
 5718SOL    HW128787   0.791   0.565   6.336 -0.6066  0.2166 -1.7020
 5718SOL    HW228788   0.710   0.511   6.232  0.2863  1.3899  0.3693
 5719SOL     OW28789   3.289   0.544  10.028  0.4929  0.3011 -0.3827
 5719SOL    HW128790   3.223   0.481  10.057 -0.9593  1.4865 -1.0673
 5719SOL    HW228791   3.234   0.605   9.979 -0.0375 -0.0472 -0.2195
 5720SOL     OW28792   3.253   0.669   4.307  0.1595  0.2959 -0.1369
 5720SOL    HW128793   3.299   0.697   4.228  0.3956 -0.5401 -0.2936
 5720SOL    HW228794   3.302   0.709   4.379 -1.2798  0.0145  0.9940
 5721SOL     OW28795   2.945   0.413   4.823  0.5875 -0.0682  0.7927
 5721SOL    HW128796   2.858   0.396   4.786 -0.2462  0.3977  2.5465
 5721SOL    HW228797   2.968   0.340   4.881 -0.4830  0.5133  1.9537
 5722SOL     OW28798   0.669   0.101   3.195 -0.2446  0.1910 -0.6331
 5722SOL    HW128799   0.631   0.184   3.223  0.4174  0.3392 -0.1994
 5722SOL    HW228800   0.624   0.049   3.262 -1.4960  2.9630  0.6730
 5723SOL     OW28801   0.159   2.830   7.674  0.0660  0.3065 -0.2664
 5723SOL    HW128802   0.152   2.921   7.703 -1.1987  0.0631  0.1930
 5723SOL    HW228803   0.087   2.835   7.611 -0.0795  0.8751 -0.0546
 5724SOL     OW28804   3.616   2.360  11.558 -0.3545 -0.3223 -0.3387
 5724SOL    HW128805   3.711   2.367  11.558 -0.2054 -2.2070 -1.5291
 5724SOL    HW228806   3.591   2.317  11.640  0.2609  1.4659  0.7867
 5725SOL     OW28807   4.611   2.358   7.321 -0.2206 -0.1895 -0.1669
 5725SOL    HW128808   4.562   2.338   7.400 -0.0073 -1.4253 -0.3459
 5725SOL    HW228809   4.560   2.429   7.283 -2.4933 -1.4762  0.4806
 5726SOL     OW28810   2.879   4.551   6.613  0.0805 -0.6171  0.0694
 5726SOL    HW128811   2.831   4.540   6.531 -1.1665  1.0888  0.5613
 5726SOL    HW228812   2.833   4.483   6.662 -1.3654  1.6896  1.8927
 5727SOL     OW28813   1.062   3.084  14.188  0.2099 -0.3002 -0.6953
 5727SOL    HW128814   0.976   3.123  14.178  0.5764  0.7794  0.3707
 5727SOL    HW228815   1.042   2.991  14.178 -2.6001  0.0212  1.7886
 5728SOL     OW28816   0.190   3.158   4.008  0.2997 -0.2220  0.0092
 5728SOL    HW128817   0.225   3.121   4.089 -0.3521 -3.0691 -1.0016
 5728SOL    HW228818   0.265   3.143   3.951  0.4687 -2.9783  0.9661
 5729SOL     OW28819   2.420   0.217   5.478  0.2196  0.0876 -0.6932
 5729SOL    HW128820   2.485   0.270   5.432  0.4829 -0.3977 -0.8880
 5729SOL    HW228821   2.401   0.161   5.402 -2.4030 -0.2030  0.1855
 5730SOL     OW28822   1.745   4.112  11.931  0.2812  0.0283  0.4736
 5730SOL    HW128823   1.668   4.088  11.880 -0.4293  0.3738  1.3830
 5730SOL    HW228824   1.808   4.104  11.859 -2.2555  0.9419 -1.8421
 5731SOL     OW28825   1.331   0.000   9.116  1.0352 -0.2624 -0.4609
 5731SOL    HW128826   1.343   0.087   9.078  2.2143 -1.2716 -2.4035
 5731SOL    HW228827   1.263   4.718   9.051  0.3009  0.2614  0.1675
 5732SOL     OW28828   1.307   4.545   6.855 -0.0679  0.5271  0.4837
 5732SOL    HW128829   1.325   4.604   6.782 -0.3288  1.0028  0.8041
 5732SOL    HW228830   1.376   4.572   6.915  1.6316 -2.2506 -0.2430
 5733SOL     OW28831   0.178   1.197   9.520 -0.2844  0.0746  0.0970
 5733SOL    HW128832   0.104   1.237   9.567  0.5364  0.8971  0.6971
 5733SOL    HW228833   0.133   1.170   9.440 -0.9663 -0.1076  0.5414
 5734SOL     OW28834   4.483   2.745   0.089 -0.9951  0.1679 -0.2684
 5734SOL    HW128835   4.448   2.833   0.102 -0.7729  0.1467  0.4490
 5734SOL    HW228836   4.578   2.749   0.075 -0.8763  1.5294  0.9910
 5735SOL     OW28837   0.889   2.506  10.250 -0.8114 -0.3069  0.0432
 5735SOL    HW128838   0.971   2.552  10.267  0.3826 -2.9771  1.4075
 5735SOL    HW228839   0.915   2.416  10.270 -2.2874 -1.1123 -1.6789
 5736SOL     OW28840   4.326   4.317   7.836 -0.0399 -0.1323 -0.3855
 5736SOL    HW128841   4.377   4.386   7.794 -2.7433  1.4130 -1.1106
 5736SOL    HW228842   4.336   4.248   7.770 -0.4050  0.6597 -1.2661
 5737SOL     OW28843   0.799   0.881  16.528 -0.1371  0.0117  0.7317
 5737SOL    HW128844   0.865   0.815  16.550 -1.4095 -0.9753  1.5816
 5737SOL    HW228845   0.737   0.870  16.600 -1.4512  0.1750 -0.3927
 5738SOL     OW28846   0.170   0.089   7.494  0.1253 -0.0825  0.1614
 5738SOL    HW128847   0.171   0.133   7.409  2.5021 -2.1054 -0.8667
 5738SOL    HW228848   0.107   0.018   7.483 -0.5475  0.3745  1.0556
 5739SOL     OW28849   4.359   3.230   7.166 -0.4106  0.6435 -0.7153
 5739SOL    HW128850   4.383   3.312   7.124 -1.8163  0.0754 -2.6488
 5739SOL    HW228851   4.306   3.252   7.243  0.4572 -0.9316  0.3229
 5740SOL     OW28852   1.456   1.256   6.502  0.3834 -0.0757 -0.0104
 5740SOL    HW128853   1.438   1.348   6.522 -0.3113 -0.2149  0.0098
 5740SOL    HW228854   1.467   1.277   6.410 -1.4035 -1.2215 -0.4779
 5741SOL     OW28855   0.531   4.616  15.528 -0.1634  0.1959 -0.1956
 5741SOL    HW128856   0.499   4.609  15.438 -0.3387  2.7682 -0.3404
 5741SOL    HW228857   0.566   4.530  15.549 -0.1803 -0.0004 -0.9643
 5742SOL     OW28858   2.429   1.436   1.579  0.1479 -0.3660 -0.2156
 5742SOL    HW128859   2.460   1.345   1.574 -2.6753 -1.2631 -1.2634
 5742SOL    HW228860   2.395   1.439   1.669 -0.6051  0.2728 -0.5212
 5743SOL     OW28861   1.486   0.810  14.888 -0.4048 -0.0199  0.4318
 5743SOL    HW128862   1.495   0.901  14.861  0.4885 -0.6923 -1.5221
 5743SOL    HW228863   1.417   0.781  14.829 -1.3500  1.2782  0.8956
 5744SOL     OW28864   1.085   1.265   6.001 -0.4567  0.6065  0.3353
 5744SOL    HW128865   1.045   1.292   5.918  0.4893  0.5151 -0.1533
 5744SOL    HW228866   1.081   1.170   5.998  1.5189  0.5647 -1.5402
 5745SOL     OW28867   3.249   3.544  14.035  0.6348 -0.4005  0.2702
 5745SOL    HW128868   3.288   3.458  14.053 -0.4232 -0.4983  2.1566
 5745SOL    HW228869   3.271   3.556  13.943  1.9541 -0.7238  0.5491
 5746SOL     OW28870   4.426   2.290   7.507 -0.2216  0.1553  0.3960
 5746SOL    HW128871   4.352   2.298   7.568 -2.5700 -0.6676 -2.3476
 5746SOL    HW228872   4.453   2.201   7.529  1.1369 -0.4614 -3.7515
 5747SOL     OW28873   1.851   3.024   7.539 -0.6619 -0.0419  0.2073
 5747SOL    HW128874   1.945   3.026   7.520 -1.0823 -0.3475 -1.9300
 5747SOL    HW228875   1.842   2.959   7.609 -0.6738 -1.2454 -0.9097
 5748SOL     OW28876   1.050   3.578  16.702 -0.4826  0.2430  0.2612
 5748SOL    HW128877   1.005   3.589  16.786  1.1464  0.5259  1.1147
 5748SOL    HW228878   1.057   3.668  16.670  0.3578  0.0315 -0.1553
 5749SOL     OW28879   0.165   4.082   3.159  0.3512 -0.3016 -0.6595
 5749SOL    HW128880   0.188   4.162   3.205 -2.5685  1.8648 -2.9520
 5749SOL    HW228881   0.084   4.101   3.110  1.0956 -0.5062 -1.9713
 5750SOL     OW28882   3.031   1.498   3.625 -0.2104 -0.2784  0.1986
 5750SOL    HW128883   3.033   1.588   3.660 -0.4159 -0.7481  1.4341
 5750SOL    HW228884   3.011   1.447   3.704 -1.7453  1.2215  0.7818
 5751SOL     OW28885   1.614   0.885   4.861 -0.6065  0.2727 -0.1482
 5751SOL    HW128886   1.524   0.905   4.835 -1.2589 -0.5957  1.4640
 5751SOL    HW228887   1.638   0.968   4.902 -0.4128  0.5601 -0.8313
 5752SOL     OW28888   1.660   2.428   5.512  0.2711 -0.6009 -0.2393
 5752SOL    HW128889   1.638   2.488   5.441  0.5403  0.3608  0.4892
 5752SOL    HW228890   1.676   2.496   5.577 -2.9340  0.7087 -0.8323
 5753SOL     OW28891   1.821   3.370  16.604  0.0935  0.2547 -0.5483
 5753SOL    HW128892   1.844   3.434  16.671 -3.9026  1.9623 -0.8246
 5753SOL    HW228893   1.731   3.351  16.627 -0.5727  3.0814 -0.8300
 5754SOL     OW28894   3.432   0.201   0.996 -1.2923 -0.2934  0.2521
 5754SOL    HW128895   3.399   0.265   0.933 -0.7709  0.7956  1.0953
 5754SOL    HW228896   3.441   0.124   0.939 -1.6993  0.5508 -0.9560
 5755SOL     OW28897   4.410   0.799   5.202  0.3897 -0.0936  0.4029
 5755SOL    HW128898   4.445   0.835   5.120  1.0376 -0.1911  0.6361
 5755SOL    HW228899   4.317   0.820   5.203  0.1931 -1.0178  0.7147
 5756SOL     OW28900   0.931   3.508  17.180 -0.2670  0.1130  0.0571
 5756SOL    HW128901   0.898   3.455  17.253  1.2400 -0.2378  0.4889
 5756SOL    HW228902   1.020   3.476  17.196 -0.0842  0.7995  0.3968
 5757SOL     OW28903   1.680   2.884   2.116 -0.0934  0.2292  0.6471
 5757SOL    HW128904   1.724   2.953   2.067  0.8000 -1.5390 -1.0200
 5757SOL    HW228905   1.594   2.926   2.126 -1.4989 -1.7359 -3.2803
 5758SOL     OW28906   1.798   3.831   4.793 -0.2309  0.3956 -0.2939
 5758SOL    HW128907   1.858   3.848   4.721  0.7540  2.4573  1.0234
 5758SOL    HW228908   1.822   3.741   4.816 -0.1438  0.2658 -0.9106
 5759SOL     OW28909   4.612   3.274  12.119 -0.0191 -0.3091  0.4528
 5759SOL    HW128910   4.665   3.242  12.047 -0.1651 -1.7760  0.9857
 5759SOL    HW228911   4.532   3.293  12.070 -0.4183 -0.6594  0.9614
 5760SOL     OW28912   3.598   1.467   1.471 -0.4046 -0.7920 -0.4753
 5760SOL    HW128913   3.571   1.466   1.563  0.4612  2.7505 -0.1688
 5760SOL    HW228914   3.654   1.545   1.475 -2.0302  0.2992  1.3785
 5761SOL     OW28915   3.324   3.009  11.606 -0.0521 -0.3716  0.2573
 5761SOL    HW128916   3.355   2.954  11.678  0.7669 -1.0019 -0.5757
 5761SOL    HW228917   3.241   3.043  11.638 -0.7991 -0.9167 -1.1169
 5762SOL     OW28918   4.007   3.089   5.680 -0.2673  0.1478 -0.1152
 5762SOL    HW128919   4.097   3.073   5.654  0.3469  2.0611  0.8406
 5762SOL    HW228920   4.020   3.133   5.764 -2.0621  0.5604 -0.0499
 5763SOL     OW28921   4.473   0.830  16.204 -0.5359 -0.1568 -0.7796
 5763SOL    HW128922   4.452   0.922  16.192  1.5740  0.6317  1.4936
 5763SOL    HW228923   4.463   0.840  16.299  1.7444  1.4344 -0.6955
 5764SOL     OW28924   1.872   0.706   4.540 -0.2528 -0.0774  0.4654
 5764SOL    HW128925   1.818   0.777   4.506 -0.0499  0.2574  0.8515
 5764SOL    HW228926   1.901   0.737   4.625  0.6377 -1.0029  0.4960
 5765SOL     OW28927   2.603   4.653   3.547 -0.2032  0.1593  0.0499
 5765SOL    HW128928   2.670   4.646   3.479  1.4422 -1.3444  1.8112
 5765SOL    HW228929   2.540   4.590   3.511 -0.9256  1.8167 -1.5839
 5766SOL     OW28930   0.557   2.660  10.422 -0.2889 -0.0127  0.4193
 5766SOL    HW128931   0.618   2.622  10.357 -0.0222  1.4636 -0.1912
 5766SOL    HW228932   0.477   2.665  10.370  0.7149 -0.1915 -1.1577
 5767SOL     OW28933   3.121   0.279   4.572 -0.3379  0.2104 -0.6986
 5767SOL    HW128934   3.215   0.294   4.572 -0.0842 -1.3553  0.5000
 5767SOL    HW228935   3.111   0.195   4.617  2.4559  0.5125  0.4656
 5768SOL     OW28936   0.790   3.789   8.845 -0.0351 -0.6566  0.1748
 5768SOL    HW128937   0.706   3.782   8.799 -0.7109  1.1268  1.1239
 5768SOL    HW228938   0.850   3.743   8.786  0.5186 -0.7137  0.7885
 5769SOL     OW28939   3.161   0.401  12.160 -0.1150  0.4212  0.1808
 5769SOL    HW128940   3.094   0.425  12.223  0.5093 -0.9772  1.3805
 5769SOL    HW228941   3.233   0.462  12.179 -0.2131  0.4686  0.4017
 5770SOL     OW28942   0.284   2.450   6.686  0.1707  0.1265  0.2683
 5770SOL    HW128943   0.311   2.517   6.624 -1.4565 -0.1896 -0.8006
 5770SOL    HW228944   0.301   2.495   6.769 -0.2058  0.3567  0.2182
 5771SOL     OW28945   3.874   2.925   8.780 -0.0747 -0.1748  0.2231
 5771SOL    HW128946   3.812   2.929   8.852 -1.4239  0.5735 -1.0047
 5771SOL    HW228947   3.944   2.869   8.814  2.4151  2.5686 -0.3764
 5772SOL     OW28948   3.803   4.571  10.534  0.7389  0.7439 -0.2674
 5772SOL    HW128949   3.842   4.560  10.447  1.7621 -0.5811  0.3551
 5772SOL    HW228950   3.872   4.564  10.599 -0.3526  1.3923  0.9530
 5773SOL     OW28951   0.975   2.241   9.991 -0.4713  0.1400  0.0976
 5773SOL    HW128952   0.945   2.160   9.950  1.6908 -0.1397 -0.9253
 5773SOL    HW228953   0.917   2.306   9.951 -2.6640 -1.9676 -0.1188
 5774SOL     OW28954   3.451   4.243  14.409 -0.3105 -0.1549  0.3089
 5774SOL    HW128955   3.466   4.303  14.335 -4.7162 -0.7732 -1.0686
 5774SOL    HW228956   3.538   4.254  14.447 -0.2528  0.8461 -0.0860
 5775SOL     OW28957   0.542   4.321   6.744  0.1083  0.1522  0.3068
 5775SOL    HW128958   0.460   4.284   6.711  0.1472  0.3530 -0.0080
 5775SOL    HW228959   0.603   4.248   6.748  0.8028  0.6737 -0.9101
 5776SOL     OW28960   1.683   4.389  16.583 -0.0410 -0.2032 -0.3468
 5776SOL    HW128961   1.661   4.360  16.495  1.2675 -1.4387 -0.2624
 5776SOL    HW228962   1.768   4.430  16.562 -0.5916  0.6780 -0.8798
 5777SOL     OW28963   1.783   1.056   3.507 -0.6227  0.1983  0.3223
 5777SOL    HW128964   1.732   1.030   3.431 -0.8684 -0.0117  0.5587
 5777SOL    HW228965   1.718   1.070   3.576 -0.1071 -0.4681  0.9540
 5778SOL     OW28966   0.147   4.191   6.172 -0.4544  0.1674  0.2330
 5778SOL    HW128967   0.097   4.221   6.096  1.6441  0.3259 -1.0742
 5778SOL    HW228968   0.096   4.227   6.244 -0.2063  0.7402  0.1240
 5779SOL     OW28969   0.821   1.170   4.167 -0.0121 -0.1312 -0.1684
 5779SOL    HW128970   0.876   1.243   4.197 -0.5461 -0.0619  0.6505
 5779SOL    HW228971   0.735   1.204   4.191  0.0709  1.9408 -2.7392
 5780SOL     OW28972   0.611   2.741   1.542 -0.0202  0.2149 -0.0859
 5780SOL    HW128973   0.575   2.728   1.455 -0.1531  0.1218 -0.0177
 5780SOL    HW228974   0.534   2.777   1.585 -0.1729 -1.6602  1.2060
 5781SOL     OW28975   0.836   0.968  17.113  0.1449  0.0390 -0.4807
 5781SOL    HW128976   0.745   0.942  17.104 -0.5165  2.1521  0.2614
 5781SOL    HW228977   0.840   0.986  17.207 -0.3864  1.8849 -0.8114
 5782SOL     OW28978   0.616   0.514   5.853 -0.0695 -0.1021  0.4014
 5782SOL    HW128979   0.585   0.602   5.873  3.5105  1.5902 -1.5251
 5782SOL    HW228980   0.537   0.485   5.807  0.9007  1.0286 -1.9852
 5783SOL     OW28981   2.230   4.680   5.549  0.0987 -0.2893  0.2944
 5783SOL    HW128982   2.179   4.729   5.485  1.6931  0.1693 -0.6195
 5783SOL    HW228983   2.196   4.719   5.630 -1.1051  1.6127 -1.1239
 5784SOL     OW28984   1.520   2.596   2.395  0.2224 -0.2874  0.4179
 5784SOL    HW128985   1.536   2.570   2.304 -0.1634  0.3719  0.1549
 5784SOL    HW228986   1.603   2.605   2.440  0.5956  0.7209 -0.4742
 5785SOL     OW28987   3.967   2.046   2.532  0.4148  0.8759  0.0625
 5785SOL    HW128988   3.904   2.059   2.461  0.3542  0.6633  0.0775
 5785SOL    HW228989   3.958   2.132   2.574 -1.2753 -0.3368  2.1708
 5786SOL     OW28990   0.086   4.539  16.300  0.0647 -0.6381 -0.2016
 5786SOL    HW128991   0.111   4.529  16.392  1.6348  3.5168 -0.1636
 5786SOL    HW228992   4.734   4.500  16.292 -1.8899  3.3146  1.4104
 5787SOL     OW28993   2.707   1.412   8.021  0.1673  0.1473 -0.4020
 5787SOL    HW128994   2.774   1.380   8.082  0.0760  1.9631  0.6428
 5787SOL    HW228995   2.753   1.454   7.949  1.5690 -0.7121 -0.0224
 5788SOL     OW28996   1.997   0.575  11.429  0.5087  0.4057 -0.0124
 5788SOL    HW128997   2.078   0.624  11.437  0.4391  0.5313 -0.0832
 5788SOL    HW228998   2.041   0.490  11.418 -0.7949 -0.3685  0.6775
 5789SOL     OW28999   1.955   0.939   7.845 -1.0022 -0.2862  0.1063
 5789SOL    HW129000   1.995   1.016   7.806 -2.3316  1.0401  1.3686
 5789SOL    HW229001   1.914   0.974   7.924 -0.1192  1.0495 -0.0391
 5790SOL     OW29002   2.382   1.601   2.328 -0.4573  0.0189 -0.1769
 5790SOL    HW129003   2.299   1.563   2.300 -0.4757 -0.0726  0.0027
 5790SOL    HW229004   2.347   1.635   2.411  0.5454  0.6099 -0.0063
 5791SOL     OW29005   1.892   2.997   2.883  0.9934  0.3964 -0.3556
 5791SOL    HW129006   1.888   3.056   2.958 -1.0157 -1.3246  0.9081
 5791SOL    HW229007   1.803   2.961   2.876  0.4569  1.1140  3.0444
 5792SOL     OW29008   3.682   1.098   9.014 -0.1617  0.3219  0.2867
 5792SOL    HW129009   3.645   1.157   9.080 -1.3905 -0.0901 -0.0311
 5792SOL    HW229010   3.762   1.069   9.057 -1.0525 -2.4212  0.0892
 5793SOL     OW29011   0.067   1.350  16.541  0.2555  0.0345 -0.3070
 5793SOL    HW129012   0.104   1.399  16.615 -0.4757  0.6658 -0.3696
 5793SOL    HW229013   0.043   1.268  16.584  0.0043  0.7923  0.9902
 5794SOL     OW29014   2.793   3.642   1.911  0.0909  0.0689 -0.1335
 5794SOL    HW129015   2.710   3.683   1.888  0.2784 -0.8188 -2.3538
 5794SOL    HW229016   2.763   3.577   1.975  0.4100  0.5930  0.5552
 5795SOL     OW29017   2.406   1.099  17.118 -0.1783 -0.0761  0.1423
 5795SOL    HW129018   2.475   1.063  17.173 -0.1646  0.4455  0.4651
 5795SOL    HW229019   2.433   1.191  17.122 -1.5028  0.2432  1.7897
 5796SOL     OW29020   3.342   0.139  14.036  0.1632  0.3678 -0.2069
 5796SOL    HW129021   3.330   0.195  13.960 -0.2801 -0.8356 -1.0334
 5796SOL    HW229022   3.437   0.140  14.041  0.2892  0.4689 -2.8125
 5797SOL     OW29023   3.064   2.030   5.566 -0.2082  0.4932  0.1561
 5797SOL    HW129024   3.028   1.974   5.635 -0.0778 -1.0287 -1.0071
 5797SOL    HW229025   3.128   2.084   5.612 -0.7649  1.4648 -0.1915
 5798SOL     OW29026   3.568   0.223   5.130 -0.3508  0.1604 -0.5505
 5798SOL    HW129027   3.626   0.198   5.058 -0.8160  0.8096 -1.1512
 5798SOL    HW229028   3.512   0.147   5.117  1.7256 -1.4117 -0.2654
 5799SOL     OW29029   4.571   1.724   8.343 -1.4387  0.1999  0.4827
 5799SOL    HW129030   4.618   1.806   8.326 -1.5416  0.2001  0.1937
 5799SOL    HW229031   4.552   1.736   8.436 -1.0988  0.9136  0.4574
 5800SOL     OW29032   2.899   0.181  10.337 -0.3935  0.1518  0.0691
 5800SOL    HW129033   2.822   0.201  10.284 -0.1133 -1.6347 -1.0160
 5800SOL    HW229034   2.892   0.085  10.334 -0.5528  0.1039  2.1094
 5801SOL     OW29035   2.200   2.523  12.359 -0.2873  0.2072 -0.2076
 5801SOL    HW129036   2.199   2.619  12.367  1.8716  0.2657 -0.5482
 5801SOL    HW229037   2.247   2.493  12.436 -1.0254 -0.4327 -0.0137
 5802SOL     OW29038   3.382   1.493  17.532  0.0187  0.9524 -0.1538
 5802SOL    HW129039   3.312   1.432  17.557  0.1930  0.5752 -0.5882
 5802SOL    HW229040   3.347   1.573  17.493  0.0289  0.8602 -0.3501
 5803SOL     OW29041   0.475   3.104   0.933  0.4898  0.3703 -0.4496
 5803SOL    HW129042   0.537   3.037   0.963 -2.8691 -1.8964  1.3404
 5803SOL    HW229043   0.408   3.097   1.001  1.8914 -0.8733  0.8083
 5804SOL     OW29044   2.569   4.086  14.130 -0.5555  0.4418 -0.2030
 5804SOL    HW129045   2.650   4.087  14.079  0.1125 -1.1096  0.8352
 5804SOL    HW229046   2.510   4.029  14.080 -0.7146 -1.9558  2.7417
 5805SOL     OW29047   1.516   4.065   4.436  0.5003 -0.5213  0.4643
 5805SOL    HW129048   1.596   4.054   4.384  0.8152  0.9064  0.6511
 5805SOL    HW229049   1.546   4.015   4.512  1.7772 -2.2399 -1.1478
 5806SOL     OW29050   1.174   1.781   3.717 -0.4400 -0.3181 -0.3284
 5806SOL    HW129051   1.159   1.801   3.625  0.4212 -0.5032 -0.5061
 5806SOL    HW229052   1.262   1.743   3.719 -1.1578 -1.8669  2.0750
 5807SOL     OW29053   1.181   3.762   8.478 -0.2253 -0.2523  0.1425
 5807SOL    HW129054   1.151   3.847   8.510 -0.1898 -0.0750 -0.2877
 5807SOL    HW229055   1.137   3.767   8.393  0.2911 -3.8122 -0.3384
 5808SOL     OW29056   2.165   4.332   6.151  0.1431  0.3729  0.0507
 5808SOL    HW129057   2.093   4.389   6.176 -1.3606 -1.0729 -0.9341
 5808SOL    HW229058   2.189   4.369   6.066  1.5167  2.4511  1.3541
 5809SOL     OW29059   3.696   3.579  11.457  0.3057 -0.3610  0.3132
 5809SOL    HW129060   3.662   3.652  11.407 -0.0458 -0.4527  0.4183
 5809SOL    HW229061   3.770   3.554  11.401  1.1433  1.0630  0.7986
 5810SOL     OW29062   3.818   3.507  15.488  0.2997 -0.3005 -0.2246
 5810SOL    HW129063   3.741   3.480  15.438  0.7434 -1.2949 -0.3707
 5810SOL    HW229064   3.879   3.434  15.484 -1.8952 -2.2218  0.7656
 5811SOL     OW29065   2.773   2.898   2.767 -0.5737 -0.2509 -0.1181
 5811SOL    HW129066   2.806   2.982   2.735 -1.7232  0.0227 -0.5770
 5811SOL    HW229067   2.678   2.904   2.762 -0.5708  0.7657  0.8917
 5812SOL     OW29068   2.688   2.373  17.122 -0.1821  0.2497  0.1389
 5812SOL    HW129069   2.615   2.400  17.066 -0.1567 -0.2647 -0.1435
 5812SOL    HW229070   2.691   2.279  17.104  1.4303 -0.0366  1.9569
 5813SOL     OW29071   3.604   2.301   9.093  0.5244 -0.4393 -0.6887
 5813SOL    HW129072   3.522   2.337   9.058  0.0506 -2.6525 -1.8342
 5813SOL    HW229073   3.594   2.206   9.099 -0.4159 -0.2494  0.6173
 5814SOL     OW29074   3.084   0.729   7.267 -0.3098 -0.5596 -0.4355
 5814SOL    HW129075   3.155   0.671   7.294  0.0238 -0.1249 -0.3617
 5814SOL    HW229076   3.119   0.797   7.325  0.2805 -1.0282 -0.2446
 5815SOL     OW29077   1.519   0.831  13.758 -0.3329 -0.1147 -0.4908
 5815SOL    HW129078   1.528   0.868  13.670 -0.8222 -0.7551 -0.8034
 5815SOL    HW229079   1.526   0.912  13.810 -0.8075  0.1418 -0.8283
 5816SOL     OW29080   4.603   4.138  15.102  0.1351 -0.1758  0.2759
 5816SOL    HW129081   4.650   4.087  15.036  0.0108  1.5031 -1.1166
 5816SOL    HW229082   4.633   4.099  15.184  1.1420 -2.5161 -1.1890
 5817SOL     OW29083   3.917   1.902   2.210  0.4068 -0.0480 -0.0985
 5817SOL    HW129084   3.986   1.965   2.230  0.8085 -0.7403  0.7100
 5817SOL    HW229085   3.966   1.841   2.156 -0.4904  0.1596 -1.1499
 5818SOL     OW29086   1.598   3.949   2.574  0.0670 -0.1417  0.6064
 5818SOL    HW129087   1.504   3.953   2.591 -0.5173  0.9665 -2.9948
 5818SOL    HW229088   1.601   3.992   2.489 -1.4448 -0.1528  0.5462
 5819SOL     OW29089   4.535   0.982  13.048 -0.7791  0.6390  0.6056
 5819SOL    HW129090   4.587   0.968  12.969  0.7809  2.0915  1.3613
 5819SOL    HW229091   4.446   0.990  13.014 -0.2726 -1.4999 -1.2714
 5820SOL     OW29092   3.054   3.426   8.674  0.3241 -0.1250 -0.0864
 5820SOL    HW129093   3.040   3.513   8.637  0.1268 -0.3369 -0.5068
 5820SOL    HW229094   3.127   3.439   8.734 -1.4675  2.7824  1.4695
 5821SOL     OW29095   3.506   2.438  12.712 -0.2344 -0.0019 -0.0057
 5821SOL    HW129096   3.599   2.419  12.701 -0.1573  0.8302 -0.8496
 5821SOL    HW229097   3.472   2.353  12.738  2.0233 -1.1845 -0.8882
 5822SOL     OW29098   4.303   1.732   9.565  0.1109  0.2166 -0.4898
 5822SOL    HW129099   4.235   1.664   9.558  0.2792  0.1714 -1.6972
 5822SOL    HW229100   4.365   1.715   9.636 -1.1763 -1.0214  0.3571
 5823SOL     OW29101   0.836   1.191  10.823  0.1079 -0.3234 -0.1712
 5823SOL    HW129102   0.765   1.245  10.859 -0.9555 -2.8872  1.5572
 5823SOL    HW229103   0.794   1.114  10.784 -1.2073 -0.6827  1.9754
 5824SOL     OW29104   1.182   0.161   3.247  0.1451  0.5817  0.1677
 5824SOL    HW129105   1.237   0.146   3.324  0.0760  3.4623  0.7788
 5824SOL    HW229106   1.093   0.137   3.275 -0.6618  1.9096 -1.2567
 5825SOL     OW29107   2.803   3.935   7.585  0.3016 -0.1426  0.4459
 5825SOL    HW129108   2.800   4.027   7.612  1.2595  0.0345 -0.0431
 5825SOL    HW229109   2.811   3.945   7.490  0.6324  1.0899  0.6050
 5826SOL     OW29110   1.705   2.637   2.648  0.1347 -0.1436  0.0401
 5826SOL    HW129111   1.660   2.720   2.637 -1.0432 -0.7542  0.2416
 5826SOL    HW229112   1.777   2.666   2.704  1.7699 -3.6365 -0.2213
 5827SOL     OW29113   0.865   1.761   6.978 -0.2421 -0.4143 -0.3294
 5827SOL    HW129114   0.941   1.811   7.008  0.9916 -3.0379  0.9662
 5827SOL    HW229115   0.856   1.720   7.064 -2.0268  2.3942  0.8182
 5828SOL     OW29116   3.224   2.537  10.431  1.3225  0.4471  0.1855
 5828SOL    HW129117   3.139   2.492  10.432  1.4955  0.0576 -1.6345
 5828SOL    HW229118   3.217   2.586  10.349  0.0376 -0.6906 -0.3964
 5829SOL     OW29119   2.462   0.432   2.507 -0.3785  0.1262 -0.7235
 5829SOL    HW129120   2.501   0.433   2.594  0.3508 -2.0435 -1.0214
 5829SOL    HW229121   2.397   0.502   2.514 -2.1602 -1.5697 -0.6178
 5830SOL     OW29122   1.586   2.798  17.400 -0.7917 -0.3978 -0.3171
 5830SOL    HW129123   1.496   2.819  17.375 -0.2752  1.0130 -0.9752
 5830SOL    HW229124   1.586   2.804  17.495  0.2113  0.3525 -0.3675
 5831SOL     OW29125   4.294   0.105   9.211  0.0958 -0.0231 -0.1038
 5831SOL    HW129126   4.248   0.062   9.140 -0.3048  1.8605 -0.9847
 5831SOL    HW229127   4.230   0.115   9.282 -0.8489 -1.2049 -0.8017
 5832SOL     OW29128   2.367   1.174  15.015 -0.7409 -0.5389 -0.0076
 5832SOL    HW129129   2.275   1.169  15.040 -1.3062 -1.6330 -2.2781
 5832SOL    HW229130   2.375   1.118  14.938 -2.7431  0.2491 -0.7845
 5833SOL     OW29131   0.003   0.365   5.205 -0.2167 -0.2156 -0.1191
 5833SOL    HW129132   0.040   0.351   5.292  0.4467  0.0239 -0.3699
 5833SOL    HW229133   0.064   0.314   5.153 -0.3415 -1.1351  0.6315
 5834SOL     OW29134   0.227   4.188   2.257 -0.1454  0.3807  0.0941
 5834SOL    HW129135   0.314   4.207   2.290 -0.4311  1.7853  0.0616
 5834SOL    HW229136   0.235   4.213   2.165  0.3249  2.4161  0.6855
 5835SOL     OW29137   3.100   0.168   8.188 -0.4412  0.1715 -0.1721
 5835SOL    HW129138   3.128   0.078   8.175 -0.0075  0.4114 -0.9823
 5835SOL    HW229139   3.177   0.202   8.234  0.6251  1.7739 -3.1077
 5836SOL     OW29140   1.005   3.340   4.743  0.0814 -0.1271 -0.7340
 5836SOL    HW129141   0.944   3.366   4.812  0.9016  2.0080 -0.8063
 5836SOL    HW229142   0.954   3.363   4.666  0.6114  0.3847 -0.9309
 5837SOL     OW29143   2.427   3.330  12.228  0.4463  0.9495  0.7747
 5837SOL    HW129144   2.353   3.376  12.189  0.4660 -1.0999 -1.6687
 5837SOL    HW229145   2.473   3.291  12.154  0.7191  1.3708  0.7255
 5838SOL     OW29146   3.381   1.777   9.047  0.0915  0.0916  0.5175
 5838SOL    HW129147   3.418   1.690   9.061 -1.7875 -0.6351  0.8827
 5838SOL    HW229148   3.287   1.763   9.058  0.0316 -0.1097 -0.2785
 5839SOL     OW29149   2.073   1.916   6.874  0.8160  0.3371 -0.3599
 5839SOL    HW129150   2.124   1.854   6.822 -0.4587 -1.5569  0.6235
 5839SOL    HW229151   2.064   1.858   6.950 -0.3146  1.0669  0.0753
 5840SOL     OW29152   4.253   2.850   6.493 -0.1547 -0.4441 -0.2326
 5840SOL    HW129153   4.254   2.870   6.587 -0.8934 -2.2469  0.1603
 5840SOL    HW229154   4.172   2.800   6.479  0.5753 -1.6448 -0.1868
 5841SOL     OW29155   1.086   4.028   5.986 -0.5939  0.4548 -0.1033
 5841SOL    HW129156   1.145   4.081   6.040 -0.4615 -0.3610  0.5655
 5841SOL    HW229157   1.010   4.064   6.033 -1.3448 -1.2285 -0.0251
 5842SOL     OW29158   1.087   1.884   5.918  0.4852 -0.1413  0.5281
 5842SOL    HW129159   1.007   1.877   5.865  0.2634 -1.4237  1.0206
 5842SOL    HW229160   1.116   1.975   5.916 -0.1627  0.0792  1.6477
 5843SOL     OW29161   3.488   3.433   2.296 -0.4872  0.2305  0.5444
 5843SOL    HW129162   3.571   3.476   2.275 -1.3739  1.1777 -1.0486
 5843SOL    HW229163   3.494   3.361   2.232  1.9280 -1.1308  2.3054
 5844SOL     OW29164   3.461   0.108  12.498  0.2228  0.2761 -0.4688
 5844SOL    HW129165   3.413   0.191  12.497  1.6646  1.1058 -1.3429
 5844SOL    HW229166   3.545   0.137  12.534  1.0309 -1.6565 -0.8002
 5845SOL     OW29167   1.243   3.730   2.148  0.6282  0.4266 -0.0362
 5845SOL    HW129168   1.158   3.695   2.173  1.5686 -0.3923  2.0213
 5845SOL    HW229169   1.298   3.718   2.226 -2.4829  0.7415  2.2245
 5846SOL     OW29170   2.775   4.562  13.221  0.7941  0.1890  0.3633
 5846SOL    HW129171   2.870   4.566  13.214  0.5424  2.6728 -1.4684
 5846SOL    HW229172   2.740   4.641  13.180  2.2632  0.0301 -1.2003
 5847SOL     OW29173   2.875   2.684   2.652 -0.1381 -0.9398 -0.0064
 5847SOL    HW129174   2.817   2.756   2.680  3.0130  0.6343  2.4409
 5847SOL    HW229175   2.956   2.714   2.693 -0.2182 -0.1378 -0.4476
 5848SOL     OW29176   3.467   3.556   4.278  0.6410  0.8383 -0.1792
 5848SOL    HW129177   3.453   3.481   4.334 -1.7513  1.4514  0.0221
 5848SOL    HW229178   3.379   3.591   4.290 -0.6295 -3.4308  2.5313
 5849SOL     OW29179   2.356   2.924   7.322  0.5162  0.0183 -0.6169
 5849SOL    HW129180   2.443   2.941   7.359  0.5351  1.8557 -1.5330
 5849SOL    HW229181   2.369   2.907   7.229 -1.1994  0.5408 -0.9480
 5850SOL     OW29182   2.540   2.569   9.293 -0.1882 -0.2486  0.1161
 5850SOL    HW129183   2.633   2.565   9.267  0.1444 -1.9082  1.5893
 5850SOL    HW229184   2.531   2.486   9.338 -2.9343  0.0265  0.0376
 5851SOL     OW29185   1.896   3.391   8.587 -0.1591 -0.1334  0.1234
 5851SOL    HW129186   1.887   3.371   8.494 -1.3334  0.0265  0.2036
 5851SOL    HW229187   1.908   3.301   8.618  0.3679  0.3200  1.2389
 5852SOL     OW29188   0.509   2.721  10.681  0.0062  0.3719 -0.2145
 5852SOL    HW129189   0.592   2.767  10.693  0.0113  0.5284 -0.9010
 5852SOL    HW229190   0.510   2.705  10.587 -1.6192 -1.0725  0.0117
 5853SOL     OW29191   1.924   1.158   6.048  0.0402 -0.2527 -0.4298
 5853SOL    HW129192   1.944   1.092   5.982 -0.2762 -1.2538  0.4627
 5853SOL    HW229193   2.014   1.187   6.061 -0.1727  0.5026 -0.6616
 5854SOL     OW29194   0.135   1.197   8.293  0.2674 -0.1348  0.2724
 5854SOL    HW129195   0.205   1.142   8.258 -0.7742 -0.5093 -1.2169
 5854SOL    HW229196   0.142   1.177   8.386  0.0194  0.5843  0.4477
 5855SOL     OW29197   3.087   0.945   6.336  0.2860 -0.3818  0.3389
 5855SOL    HW129198   3.119   0.920   6.422 -3.4142 -1.0356  1.5340
 5855SOL    HW229199   3.128   0.877   6.283  1.1075 -0.1186  0.6386
 5856SOL     OW29200   3.772   4.529   3.165  0.6710  0.0112  0.1670
 5856SOL    HW129201   3.699   4.523   3.227  0.9671 -1.4787  0.3784
 5856SOL    HW229202   3.761   4.622   3.146 -0.3857 -0.3113 -0.8235
 5857SOL     OW29203   2.411   3.051   0.686  0.0190 -0.2202 -0.2952
 5857SOL    HW129204   2.481   3.105   0.722 -0.5430  0.3620 -0.0706
 5857SOL    HW229205   2.433   2.962   0.713 -1.6333 -0.0228  1.7606
 5858SOL     OW29206   0.228   3.645   4.505  0.0345  0.4750 -0.1050
 5858SOL    HW129207   0.205   3.571   4.450  0.4227  1.2235 -1.2992
 5858SOL    HW229208   0.207   3.713   4.440 -1.0338  0.8629  0.6472
 5859SOL     OW29209   1.881   2.261   3.989 -0.2953 -0.5775 -0.5535
 5859SOL    HW129210   1.959   2.278   3.936 -0.6194 -0.8191 -1.1109
 5859SOL    HW229211   1.853   2.177   3.953  0.0406 -0.8300 -0.2180
 5860SOL     OW29212   2.162   4.532  15.783  0.6703  0.6119 -0.0945
 5860SOL    HW129213   2.072   4.530  15.751 -0.0550  0.4687  1.9857
 5860SOL    HW229214   2.210   4.501  15.706  0.4889 -0.3894  0.1970
 5861SOL     OW29215   0.316   3.389   0.450 -0.1296  0.1843  0.7238
 5861SOL    HW129216   0.322   3.372   0.544 -1.3444 -0.5963  0.6610
 5861SOL    HW229217   0.224   3.366   0.433 -0.1146  0.1139  0.7404
 5862SOL     OW29218   0.110   4.111   2.821 -0.1071  0.2285 -0.7643
 5862SOL    HW129219   0.063   4.028   2.816 -0.8942  0.6024  0.2352
 5862SOL    HW229220   0.079   4.142   2.906  1.7991  1.2189 -0.4067
 5863SOL     OW29221   4.253   1.345   7.431 -0.3481 -0.2545 -0.0101
 5863SOL    HW129222   4.317   1.366   7.362 -0.2423  0.5286  0.3234
 5863SOL    HW229223   4.189   1.416   7.423  0.1644  0.0826 -1.2087
 5864SOL     OW29224   1.097   4.377   8.475 -0.0325 -0.1659  0.0281
 5864SOL    HW129225   1.022   4.351   8.527 -0.2404 -2.2738 -1.2975
 5864SOL    HW229226   1.155   4.312   8.515  0.6045  0.4811  0.1476
 5865SOL     OW29227   4.046   2.520   4.795 -0.1636 -0.1785  0.2465
 5865SOL    HW129228   4.090   2.435   4.801 -0.1669 -0.2034 -0.0549
 5865SOL    HW229229   4.118   2.583   4.792  0.3805 -0.8008  0.1606
 5866SOL     OW29230   4.221   2.640   9.845 -0.3479 -0.0606  0.5350
 5866SOL    HW129231   4.258   2.716   9.801  1.8030 -3.1453 -2.9777
 5866SOL    HW229232   4.199   2.672   9.933 -1.5027 -1.7576  0.8853
 5867SOL     OW29233   2.374   0.028   3.933  0.5130 -0.4763  0.0545
 5867SOL    HW129234   2.287   0.068   3.928  1.6863  1.8865 -1.6265
 5867SOL    HW229235   2.405   0.045   3.844  0.7495 -1.8327 -0.1280
 5868SOL     OW29236   0.503   2.274   8.141  0.7840  0.0149 -0.3074
 5868SOL    HW129237   0.503   2.367   8.121 -1.7249 -0.3413 -1.9574
 5868SOL    HW229238   0.417   2.267   8.183  0.8901  3.6528  0.4711
 5869SOL     OW29239   0.394   2.820   8.848 -0.1191 -0.4061 -0.2227
 5869SOL    HW129240   0.366   2.857   8.764 -2.3948  1.3167  1.2882
 5869SOL    HW229241   0.373   2.729   8.826 -1.3144 -0.3146  0.5159
 5870SOL     OW29242   0.441   3.998   1.054 -0.3810 -0.3378 -0.0226
 5870SOL    HW129243   0.432   4.042   0.969 -2.8467 -1.9389 -0.5867
 5870SOL    HW229244   0.372   4.042   1.104  0.1068  0.7774 -0.3305
 5871SOL     OW29245   3.159   3.594   2.066  0.0020 -0.8311  0.1921
 5871SOL    HW129246   3.157   3.588   2.161  1.3969  2.7586  0.4719
 5871SOL    HW229247   3.119   3.679   2.048  0.3920 -0.8057 -0.5725
 5872SOL     OW29248   0.296   3.225   2.874  0.7405 -0.3665 -0.1548
 5872SOL    HW129249   0.348   3.160   2.920 -1.0507 -0.5277  1.6356
 5872SOL    HW229250   0.316   3.314   2.900 -0.0371  0.5136 -2.5802
 5873SOL     OW29251   0.577   3.103   7.443  0.2198  0.1154 -0.1067
 5873SOL    HW129252   0.566   3.097   7.537 -1.2794  0.6504 -0.2508
 5873SOL    HW229253   0.638   3.032   7.424  0.8605  0.8877 -0.9311
 5874SOL     OW29254   1.579   0.457   3.697 -0.5702  0.1170  0.1662
 5874SOL    HW129255   1.606   0.459   3.605 -1.0673  1.4369  0.0610
 5874SOL    HW229256   1.611   0.371   3.727  1.2419  1.3678  1.7817
 5875SOL     OW29257   2.641   2.156   8.221  0.7350  0.6064  0.2683
 5875SOL    HW129258   2.713   2.131   8.278  2.3046  2.7480 -0.8026
 5875SOL    HW229259   2.677   2.122   8.139  0.4904  0.5701  0.1741
 5876SOL     OW29260   1.658   3.696   7.090 -0.3619 -0.0168  0.4472
 5876SOL    HW129261   1.564   3.705   7.075 -0.7856 -1.0380  2.5588
 5876SOL    HW229262   1.668   3.602   7.104  2.9997  0.3829  0.6943
 5877SOL     OW29263   1.390   2.061   6.527  0.0687  0.4269 -0.3995
 5877SOL    HW129264   1.463   2.000   6.517  0.8218  1.4454 -1.1583
 5877SOL    HW229265   1.421   2.145   6.493  0.7392 -0.0588 -0.9687
 5878SOL     OW29266   1.684   1.233   7.216 -0.2536  0.3223  0.0962
 5878SOL    HW129267   1.718   1.144   7.228  0.4860  0.5276 -0.4976
 5878SOL    HW229268   1.642   1.236   7.130 -0.7565 -0.3536  0.3227
 5879SOL     OW29269   3.231   3.186  16.088 -0.4596 -0.0503  0.2699
 5879SOL    HW129270   3.289   3.153  16.019 -0.6280 -0.8111  0.5006
 5879SOL    HW229271   3.153   3.135  16.067  0.3067 -0.8755 -0.5613
 5880SOL     OW29272   4.643   4.317   2.718  0.1794  0.0881 -0.2247
 5880SOL    HW129273   4.595   4.368   2.782 -0.1695  0.6525 -0.9314
 5880SOL    HW229274   4.733   4.322   2.749 -0.7176  0.6833  2.2355
 5881SOL     OW29275   1.570   0.917   5.692 -0.4737 -0.3718 -0.4968
 5881SOL    HW129276   1.478   0.917   5.663 -0.3048  1.8035 -0.9875
 5881SOL    HW229277   1.566   1.009   5.715 -0.9374 -0.3795 -0.5430
 5882SOL     OW29278   2.363   2.111   7.880  0.1124 -0.4173 -0.0847
 5882SOL    HW129279   2.377   2.192   7.832  0.8828 -0.3161  0.3059
 5882SOL    HW229280   2.316   2.064   7.811  0.6528  0.1537 -0.8389
 5883SOL     OW29281   4.716   0.625   2.391  0.2124  0.2228 -0.6550
 5883SOL    HW129282   4.621   0.631   2.404  0.1179 -0.8568 -0.8447
 5883SOL    HW229283   4.719   0.612   2.296 -0.3507  0.2601 -0.6793
 5884SOL     OW29284   0.817   1.193   6.999 -0.1343 -0.0256 -0.5023
 5884SOL    HW129285   0.860   1.269   6.958 -3.0682  0.2523 -3.0517
 5884SOL    HW229286   0.764   1.168   6.923  0.3947  0.8768 -1.1675
 5885SOL     OW29287   3.203   4.002   6.375  0.2079 -0.1364  0.1864
 5885SOL    HW129288   3.286   4.040   6.347 -0.7449  1.9420  0.2381
 5885SOL    HW229289   3.201   3.941   6.302 -0.3676 -0.7853  0.7382
 5886SOL     OW29290   3.553   3.292   3.785 -0.4758 -0.3913 -0.2814
 5886SOL    HW129291   3.567   3.260   3.874 -1.0460  0.6815  0.1989
 5886SOL    HW229292   3.631   3.250   3.747  1.2288  1.1824  1.4621
 5887SOL     OW29293   1.739   2.108  16.556 -0.1085  0.2609  0.2384
 5887SOL    HW129294   1.832   2.093  16.572  0.1595  1.3062 -0.3283
 5887SOL    HW229295   1.738   2.196  16.517 -2.0983 -0.9587 -2.4779
 5888SOL     OW29296   2.397   1.025   9.532  0.4296 -0.4427  0.3981
 5888SOL    HW129297   2.443   1.079   9.468 -0.1787  0.0053  0.3369
 5888SOL    HW229298   2.319   0.994   9.485  0.7193 -1.2291  0.4443
 5889SOL     OW29299   1.310   0.009  10.726  0.8737 -0.3187 -0.3873
 5889SOL    HW129300   1.293   0.102  10.737 -1.5547 -0.7750 -0.3198
 5889SOL    HW229301   1.226   4.704  10.746  1.7497 -0.9118  2.0773
 5890SOL     OW29302   0.521   3.169   5.309 -0.2952  0.0558  0.0744
 5890SOL    HW129303   0.475   3.116   5.244 -1.2751 -1.1556  1.7236
 5890SOL    HW229304   0.493   3.260   5.299 -1.4467 -0.3514 -0.3904
 5891SOL     OW29305   1.892   0.054   0.863  0.4418 -0.2146 -0.1915
 5891SOL    HW129306   1.922   0.082   0.949  1.5676  0.5956 -0.8495
 5891SOL    HW229307   1.797   0.047   0.875  0.4841 -0.5108 -0.0239
 5892SOL     OW29308   4.218   3.537   8.413  0.3748  0.1769  0.7589
 5892SOL    HW129309   4.139   3.512   8.462  0.6109 -1.7889  0.1476
 5892SOL    HW229310   4.236   3.629   8.430  1.2309  0.4844 -1.8345
 5893SOL     OW29311   0.676   0.770   6.949 -0.4232  0.2699  1.1756
 5893SOL    HW129312   0.583   0.780   6.968 -0.6694  2.6129 -1.3467
 5893SOL    HW229313   0.684   0.829   6.874  0.3935 -1.3481 -0.0065
 5894SOL     OW29314   0.659   0.357   1.063  0.4376  0.5674 -0.5073
 5894SOL    HW129315   0.754   0.360   1.073  0.3362  2.4351 -0.0260
 5894SOL    HW229316   0.619   0.326   1.145 -2.2330 -0.0248 -2.0345
 5895SOL     OW29317   3.475   4.239   8.203 -0.1433  0.0101 -0.2231
 5895SOL    HW129318   3.411   4.270   8.138  1.2930  2.0018 -0.6861
 5895SOL    HW229319   3.436   4.281   8.280  0.4460 -1.0765  0.6653
 5896SOL     OW29320   2.454   0.064   7.324  0.4291 -0.0948  0.3950
 5896SOL    HW129321   2.516   0.090   7.393 -1.5850 -0.8340  2.5021
 5896SOL    HW229322   2.444   0.146   7.276 -3.7809  0.2304  1.8527
 5897SOL     OW29323   1.094   4.665  17.257  0.0129  0.0252 -0.6433
 5897SOL    HW129324   1.090   4.572  17.236 -2.1694  0.0175 -0.1637
 5897SOL    HW229325   1.187   4.680  17.239  0.1105  0.7124  0.4381
 5898SOL     OW29326   2.775   3.769   7.078 -0.3179 -0.2193 -0.1593
 5898SOL    HW129327   2.722   3.696   7.045  2.2258 -2.2666  0.3353
 5898SOL    HW229328   2.863   3.732   7.086 -0.5378 -0.3120  1.7593
 5899SOL     OW29329   1.123   2.191  14.858 -0.6690 -0.0138 -0.2044
 5899SOL    HW129330   1.197   2.178  14.799 -0.5081  0.8498 -0.1939
 5899SOL    HW229331   1.123   2.287  14.860  0.7154  0.0212 -1.8634
 5900SOL     OW29332   3.579   2.058   3.154  0.3646  0.5283  0.0037
 5900SOL    HW129333   3.674   2.054   3.169  0.3565 -1.5537 -0.5145
 5900SOL    HW229334   3.561   2.011   3.073  0.8002 -0.4771  0.4946
 5901SOL     OW29335   4.113   4.366   6.009 -0.3972 -0.7633 -0.3928
 5901SOL    HW129336   4.142   4.441   6.060 -0.4874 -0.4106 -0.8565
 5901SOL    HW229337   4.191   4.359   5.953 -1.0613  2.1674 -1.6877
 5902SOL     OW29338   0.102   4.421   6.727 -0.1881  0.2476 -0.0296
 5902SOL    HW129339   0.039   4.357   6.693  0.2556 -0.1868 -0.0286
 5902SOL    HW229340   0.168   4.361   6.761 -0.3248  0.8358  1.2846
 5903SOL     OW29341   4.604   0.484   3.292 -0.1964 -0.3808 -0.7882
 5903SOL    HW129342   4.672   0.548   3.314  1.0807 -1.6171 -1.1022
 5903SOL    HW229343   4.651   0.436   3.224  0.5977 -0.2180 -0.3578
 5904SOL     OW29344   0.549   1.346   1.895  0.1116 -0.1390 -0.5441
 5904SOL    HW129345   0.575   1.255   1.906  0.0567 -0.2117 -0.9994
 5904SOL    HW229346   0.614   1.365   1.827  2.0335 -0.4883  1.1847
 5905SOL     OW29347   3.162   3.771   2.534  0.0554  0.3489  0.0487
 5905SOL    HW129348   3.102   3.700   2.557 -1.5172  1.1251 -1.6662
 5905SOL    HW229349   3.199   3.794   2.619 -1.4877  0.4296  0.7092
 5906SOL     OW29350   3.009   0.650  10.450  0.2814 -0.0804 -0.4436
 5906SOL    HW129351   3.003   0.569  10.501 -0.6254  0.0512 -0.3469
 5906SOL    HW229352   3.097   0.653  10.412  0.4330  0.5470 -0.0314
 5907SOL     OW29353   2.437   0.575   6.579  0.0879  0.0436 -0.2997
 5907SOL    HW129354   2.376   0.561   6.507 -0.5026  0.4738  0.1221
 5907SOL    HW229355   2.472   0.486   6.582  0.7928  0.3576  0.7720
 5908SOL     OW29356   4.248   1.541   9.252  0.0131  0.0753  0.0535
 5908SOL    HW129357   4.245   1.484   9.329 -1.2308 -0.1460 -0.1619
 5908SOL    HW229358   4.314   1.500   9.196  1.6792  1.0063  1.3234
 5909SOL     OW29359   4.386   4.488   6.507  1.0857 -0.4444  0.2738
 5909SOL    HW129360   4.353   4.575   6.529  0.5975 -0.5334 -0.1270
 5909SOL    HW229361   4.304   4.442   6.489  1.3318 -0.1128 -1.7299
 5910SOL     OW29362   4.270   2.075   8.606 -0.0670  0.0556  0.2554
 5910SOL    HW129363   4.331   2.106   8.673  1.5737 -1.4515 -0.5594
 5910SOL    HW229364   4.193   2.070   8.663  0.2522 -2.3931  0.4613
 5911SOL     OW29365   0.440   2.709   4.716  0.0883  0.0432  0.7112
 5911SOL    HW129366   0.485   2.783   4.675  0.5902 -0.8771 -0.4390
 5911SOL    HW229367   0.473   2.719   4.805 -2.4302 -0.5788  1.7005
 5912SOL     OW29368   0.953   1.955   4.706 -0.6636 -0.4398  0.4584
 5912SOL    HW129369   0.968   2.050   4.701  0.0751 -0.7025 -2.3204
 5912SOL    HW229370   0.988   1.932   4.791  1.9137  0.8053 -0.2732
 5913SOL     OW29371   1.039   1.257   5.729 -0.8752  0.0901 -0.3386
 5913SOL    HW129372   1.015   1.165   5.715 -2.6470  0.5771 -0.5959
 5913SOL    HW229373   1.121   1.264   5.680 -0.8417  1.1496 -0.1240
 5914SOL     OW29374   0.602   0.584   2.397 -0.2696 -0.3616  0.7841
 5914SOL    HW129375   0.680   0.531   2.414  0.2431 -0.8513 -3.2136
 5914SOL    HW229376   0.629   0.664   2.443 -0.6542 -0.7103  1.6304
 5915SOL     OW29377   2.323   1.018   6.500 -0.3891 -0.4569 -0.5701
 5915SOL    HW129378   2.364   1.053   6.579 -0.4238 -0.1389 -0.6926
 5915SOL    HW229379   2.401   0.991   6.452  0.6694 -0.5634  1.1976
 5916SOL     OW29380   0.902   0.101   3.995 -0.4510  0.5170 -0.6311
 5916SOL    HW129381   0.871   0.049   4.069 -1.8145  0.2573 -1.3975
 5916SOL    HW229382   0.952   0.166   4.045 -1.1713  1.0850 -0.6408
 5917SOL     OW29383   2.856   4.392   1.898  0.1863  0.4474 -0.2700
 5917SOL    HW129384   2.764   4.368   1.882 -0.0033  1.8829 -1.2429
 5917SOL    HW229385   2.858   4.482   1.865  0.7126  0.4216 -0.3138
 5918SOL     OW29386   2.770   4.111  12.678 -0.1750 -0.6978  0.2423
 5918SOL    HW129387   2.809   4.189  12.641 -2.7931 -0.1277 -1.3255
 5918SOL    HW229388   2.748   4.141  12.766  0.2686  1.3086 -0.3274
 5919SOL     OW29389   3.303   3.278  14.148 -0.4544 -0.0645  0.0393
 5919SOL    HW129390   3.343   3.322  14.223  1.3736  1.1786 -1.6880
 5919SOL    HW229391   3.331   3.187  14.156 -0.2030 -0.2231 -2.6960
 5920SOL     OW29392   1.384   1.063   7.139  0.9759  0.0702  0.3734
 5920SOL    HW129393   1.322   1.010   7.189  1.4449  0.2817  1.1745
 5920SOL    HW229394   1.444   0.991   7.118  1.1117  0.2232  0.2394
 5921SOL     OW29395   1.023   1.042   0.739 -0.2542  0.2154  0.0349
 5921SOL    HW129396   0.933   1.075   0.745  0.0993  1.3248 -0.8716
 5921SOL    HW229397   1.073   1.113   0.778 -1.1250  0.4616  0.6867
 5922SOL     OW29398   1.581   3.112   9.390  0.3258  0.1444  1.0460
 5922SOL    HW129399   1.508   3.152   9.343  1.0258 -0.5424 -0.6284
 5922SOL    HW229400   1.586   3.187   9.449  1.5064 -0.0833  1.2345
 5923SOL     OW29401   1.355   3.802  11.631 -0.4864  0.1343 -0.4270
 5923SOL    HW129402   1.450   3.796  11.621 -0.4498 -1.3704  0.8321
 5923SOL    HW229403   1.347   3.802  11.726  3.8657 -0.3023 -0.0734
 5924SOL     OW29404   1.094   0.407  14.722 -0.1805  0.0353 -0.3557
 5924SOL    HW129405   1.085   0.471  14.793  2.5543 -0.2965  0.3009
 5924SOL    HW229406   1.098   0.469  14.649 -0.6153  1.2212  0.6234
 5925SOL     OW29407   2.120   3.012   7.457 -0.1495 -0.1471 -0.7770
 5925SOL    HW129408   2.093   2.924   7.484 -1.9822  0.1038 -1.7729
 5925SOL    HW229409   2.215   2.998   7.457 -0.3518 -1.4536 -0.3555
 5926SOL     OW29410   1.772   4.488   4.501 -0.1288  0.1142  0.1863
 5926SOL    HW129411   1.719   4.561   4.467 -0.1075  0.7479  1.5048
 5926SOL    HW229412   1.860   4.523   4.487 -0.6008  1.1751 -0.1777
 5927SOL     OW29413   1.979   0.190   1.917 -0.1271  0.2235 -0.3330
 5927SOL    HW129414   2.055   0.248   1.918  0.5016 -0.5720 -1.1976
 5927SOL    HW229415   1.916   0.245   1.873 -2.2407  1.5581  4.4009
 5928SOL     OW29416   2.242   0.566   2.799  0.1892 -0.1080 -0.1689
 5928SOL    HW129417   2.174   0.594   2.738  0.4354  2.7999  0.8505
 5928SOL    HW229418   2.238   0.473   2.778  0.1394 -0.1154 -0.1262
 5929SOL     OW29419   1.457   0.790   2.221 -0.1433 -0.4852  0.4681
 5929SOL    HW129420   1.413   0.869   2.188  0.0541 -0.5119  0.1386
 5929SOL    HW229421   1.528   0.778   2.157  0.4064 -0.0874  1.0100
 5930SOL     OW29422   2.070   1.665   3.603  0.0670  0.1738 -0.6377
 5930SOL    HW129423   2.076   1.575   3.635 -2.1763  0.7680  1.5333
 5930SOL    HW229424   2.036   1.648   3.516 -3.1838 -0.9391  0.8230
 5931SOL     OW29425   4.453   1.083  15.282 -0.1846 -0.3130 -0.2829
 5931SOL    HW129426   4.492   1.034  15.354 -1.2272  0.0061  0.4962
 5931SOL    HW229427   4.380   1.028  15.254 -1.3243  0.6623  0.7745
 5932SOL     OW29428   2.485   2.199   8.770  0.5102 -0.3162  0.1474
 5932SOL    HW129429   2.393   2.197   8.797  0.5169 -0.0923  0.1893
 5932SOL    HW229430   2.521   2.126   8.821  0.7002  1.1292  2.0601
 5933SOL     OW29431   2.453   1.601   5.551 -0.4311  0.6250 -0.3465
 5933SOL    HW129432   2.399   1.531   5.588  1.0049  1.2409  2.8458
 5933SOL    HW229433   2.406   1.617   5.469 -0.7602  0.1956 -0.2411
 5934SOL     OW29434   3.477   2.581   6.817 -0.5374  0.1159 -0.0633
 5934SOL    HW129435   3.573   2.579   6.807 -0.6696 -1.9592 -0.9012
 5934SOL    HW229436   3.443   2.506   6.768  0.1649 -0.2305 -0.0265
 5935SOL     OW29437   1.321   3.518   7.323  0.2416 -0.8611  0.0300
 5935SOL    HW129438   1.334   3.491   7.232  3.5895  0.1307  0.2163
 5935SOL    HW229439   1.227   3.513   7.339  0.0101 -0.2148 -1.1555
 5936SOL     OW29440   4.079   3.657   7.833  0.5758 -0.3615 -0.1588
 5936SOL    HW129441   4.074   3.604   7.913  1.8543 -0.4930 -0.1603
 5936SOL    HW229442   4.172   3.678   7.845 -0.1934  2.5263  0.5659
 5937SOL     OW29443   3.060   2.891   6.341  0.8710  0.0762 -0.3306
 5937SOL    HW129444   3.020   2.846   6.415 -1.2769  0.7566 -1.0543
 5937SOL    HW229445   3.039   2.983   6.360 -2.7866 -1.0478  1.0147
 5938SOL     OW29446   1.176   2.653   3.485  0.0341 -0.2772 -0.2602
 5938SOL    HW129447   1.214   2.568   3.508  1.0386 -0.2629 -1.8315
 5938SOL    HW229448   1.242   2.687   3.425  0.1912 -1.8137 -0.9503
 5939SOL     OW29449   4.725   2.953   0.506 -0.0107 -0.3383 -0.3363
 5939SOL    HW129450   4.655   2.984   0.563  1.0052 -1.5343  1.5296
 5939SOL    HW229451   0.046   2.895   0.557  1.4189 -0.2826 -1.8140
 5940SOL     OW29452   3.281   4.057   2.029 -0.5340 -0.3994  0.1292
 5940SOL    HW129453   3.188   4.070   2.012 -0.1527  0.9192 -0.8623
 5940SOL    HW229454   3.279   4.092   2.118 -2.4019 -1.5983  0.5633
 5941SOL     OW29455   4.175   2.243   6.482  0.3284 -0.4638 -0.1327
 5941SOL    HW129456   4.243   2.217   6.544  1.6678  0.0106 -1.4078
 5941SOL    HW229457   4.220   2.219   6.401 -1.1131  0.0487 -1.0970
 5942SOL     OW29458   0.707   1.239  12.170  0.4699 -0.1709  0.0718
 5942SOL    HW129459   0.723   1.229  12.076  0.8413 -0.8966  0.2178
 5942SOL    HW229460   0.620   1.206  12.191  1.0441 -0.1345  2.4984
 5943SOL     OW29461   3.072   3.647  16.341  0.3764 -0.1448  0.0568
 5943SOL    HW129462   3.030   3.568  16.376 -0.2083 -0.1312 -0.6157
 5943SOL    HW229463   3.140   3.605  16.288  1.6517 -0.2851  1.7940
 5944SOL     OW29464   1.613   2.820   0.683 -0.1058 -0.5206 -0.3730
 5944SOL    HW129465   1.636   2.795   0.772 -0.7445 -1.8137 -0.5583
 5944SOL    HW229466   1.667   2.897   0.665  1.1890 -1.3759 -0.1757
 5945SOL     OW29467   0.117   1.313   1.858 -0.0027  0.2482 -0.3794
 5945SOL    HW129468   0.208   1.340   1.846 -0.2708  0.7639 -1.2217
 5945SOL    HW229469   0.118   1.243   1.793  0.4787 -1.5382  1.5268
 5946SOL     OW29470   3.207   4.584   9.161  0.1419  0.6680 -0.2750
 5946SOL    HW129471   3.250   4.620   9.238  1.4404  2.3544 -1.7741
 5946SOL    HW229472   3.195   4.664   9.109  0.3424  0.3822 -0.7636
 5947SOL     OW29473   0.495   3.769   1.861  0.1856  0.9234  0.5099
 5947SOL    HW129474   0.490   3.686   1.909  0.3262  0.4585 -0.2656
 5947SOL    HW229475   0.433   3.835   1.892 -2.2558 -1.4734  0.7271
 5948SOL     OW29476   0.063   0.878   3.266 -0.3795  0.1503 -0.2526
 5948SOL    HW129477   4.706   0.901   3.253 -0.4372 -0.9993 -1.9934
 5948SOL    HW229478   0.107   0.962   3.274  1.1827 -0.8095  1.3250
 5949SOL     OW29479   1.324   4.455   4.654 -0.6627 -0.2178 -0.1598
 5949SOL    HW129480   1.364   4.538   4.630 -1.7862  0.0380 -1.1181
 5949SOL    HW229481   1.403   4.400   4.658  0.1318  0.8183 -1.6146
 5950SOL     OW29482   3.658   2.739  16.785  0.5946 -0.0922  0.0002
 5950SOL    HW129483   3.630   2.830  16.771  0.2398 -0.3188 -0.7191
 5950SOL    HW229484   3.750   2.762  16.772  0.0921  0.7227 -2.0249
 5951SOL     OW29485   3.643   0.634  13.434  0.1973  0.4369 -0.1234
 5951SOL    HW129486   3.601   0.694  13.495  1.0584 -1.6837  2.5559
 5951SOL    HW229487   3.656   0.549  13.476  1.7122  1.0775  0.6891
 5952SOL     OW29488   3.079   1.622   2.090 -0.3792  0.1362 -0.0370
 5952SOL    HW129489   3.090   1.715   2.070  0.5885 -0.2987 -1.5242
 5952SOL    HW229490   3.036   1.630   2.175 -0.1226 -1.6778  0.2597
 5953SOL     OW29491   2.058   3.809   2.512  0.0127  0.8842 -0.2278
 5953SOL    HW129492   2.083   3.718   2.500  0.5329  1.0494 -0.4232
 5953SOL    HW229493   1.969   3.805   2.548  0.7209 -0.9198  1.3205
 5954SOL     OW29494   2.239   3.509  17.019  0.4348 -0.0800  0.1593
 5954SOL    HW129495   2.162   3.455  17.000  0.0962  1.3560 -2.5700
 5954SOL    HW229496   2.310   3.457  16.981  3.2277  3.9018  0.0354
 5955SOL     OW29497   0.425   2.964   6.479 -0.4472 -0.6680 -0.3195
 5955SOL    HW129498   0.369   3.022   6.531 -2.3168 -1.3630 -1.5365
 5955SOL    HW229499   0.430   2.887   6.536 -1.5143 -1.4431 -1.2660
 5956SOL     OW29500   2.608   2.485  16.539  0.6506 -0.1486  0.6472
 5956SOL    HW129501   2.565   2.457  16.458  2.4678 -2.9619  0.6572
 5956SOL    HW229502   2.677   2.420  16.553 -0.2024 -0.7433  2.0529
 5957SOL     OW29503   2.030   4.229   9.446  0.5817 -0.3232  0.3854
 5957SOL    HW129504   2.110   4.217   9.396  0.3571  0.1140 -0.0837
 5957SOL    HW229505   1.982   4.161   9.400  0.3487  0.2504 -0.2248
 5958SOL     OW29506   0.248   2.978  14.548 -0.5348 -0.1909 -0.4605
 5958SOL    HW129507   0.204   2.949  14.628  0.7656 -1.5119 -0.2263
 5958SOL    HW229508   0.246   2.906  14.486  0.4845 -0.0227 -0.6903
 5959SOL     OW29509   2.396   2.720   7.967  0.2282 -0.7331  0.5121
 5959SOL    HW129510   2.441   2.661   7.906 -1.8362 -0.0616 -1.6870
 5959SOL    HW229511   2.451   2.799   7.964  0.6502 -1.0631 -0.5541
 5960SOL     OW29512   2.673   0.618   8.413 -0.1603 -0.2737 -0.2182
 5960SOL    HW129513   2.590   0.608   8.367 -0.5145 -1.2765  0.6286
 5960SOL    HW229514   2.660   0.544   8.473 -3.8520  1.2484  0.8446
 5961SOL     OW29515   4.566   3.482   6.344 -0.0753 -0.3782 -0.4453
 5961SOL    HW129516   4.523   3.399   6.326  1.1877 -1.4860  1.5783
 5961SOL    HW229517   4.497   3.529   6.389  1.4758  1.1198  0.3632
 5962SOL     OW29518   2.732   0.521  15.407 -0.2600  0.0740  0.0314
 5962SOL    HW129519   2.690   0.607  15.403  0.0823  0.2468  0.1506
 5962SOL    HW229520   2.823   0.543  15.387  0.1122 -1.9216 -0.4486
 5963SOL     OW29521   2.429   0.789  12.737 -0.5057 -0.1002 -0.1471
 5963SOL    HW129522   2.500   0.834  12.693 -0.3436  0.2897  0.5153
 5963SOL    HW229523   2.355   0.849  12.740  0.2404  0.6689  2.5473
 5964SOL     OW29524   1.780   2.613   5.642 -0.2857  0.3344  0.4113
 5964SOL    HW129525   1.869   2.642   5.620 -0.3010 -0.5445 -0.7342
 5964SOL    HW229526   1.749   2.677   5.706  1.7868  1.0661  0.6819
 5965SOL     OW29527   1.789   0.554   1.644 -0.6161  0.4093  0.2113
 5965SOL    HW129528   1.879   0.535   1.619 -0.7829 -0.5464  0.3023
 5965SOL    HW229529   1.775   0.474   1.695  1.3485  0.6165  1.0461
 5966SOL     OW29530   3.883   3.682   5.070 -0.0142  0.1369 -0.4699
 5966SOL    HW129531   3.801   3.658   5.113 -0.4573  1.3289 -0.6503
 5966SOL    HW229532   3.923   3.596   5.081 -1.9177 -0.5642  0.7914
 5967SOL     OW29533   1.194   4.428   5.388  0.3286 -0.0733 -0.8991
 5967SOL    HW129534   1.239   4.453   5.308 -1.3833  0.2624 -1.7684
 5967SOL    HW229535   1.253   4.371   5.437  0.9545 -1.5116 -3.3447
 5968SOL     OW29536   1.655   0.448  10.278  0.0988 -0.2838 -0.2254
 5968SOL    HW129537   1.584   0.408  10.228  0.0503 -1.5055  0.8322
 5968SOL    HW229538   1.617   0.530  10.309  1.6369  0.0987  0.6555
 5969SOL     OW29539   0.857   1.698   5.071  0.4995 -0.4443  0.1801
 5969SOL    HW129540   0.799   1.675   4.998  1.2839 -0.2759 -0.4872
 5969SOL    HW229541   0.815   1.641   5.136 -4.4900  3.7922  0.6924
 5970SOL     OW29542   4.195   2.127   8.202  0.2104 -0.7116 -0.2053
 5970SOL    HW129543   4.214   2.062   8.270  0.7606 -0.0388  0.2760
 5970SOL    HW229544   4.110   2.162   8.229  0.2846 -0.2636 -0.5598
 5971SOL     OW29545   3.625   3.667   5.227  0.6030  0.2330  0.3161
 5971SOL    HW129546   3.551   3.717   5.260  0.3155  1.2728 -1.8759
 5971SOL    HW229547   3.619   3.601   5.295  0.3232 -0.3301 -0.2573
 5972SOL     OW29548   0.272   2.507   1.780  0.3699 -0.5054 -0.0832
 5972SOL    HW129549   0.251   2.443   1.712 -2.1570  0.5593 -0.3082
 5972SOL    HW229550   0.260   2.452   1.857 -1.3630  0.5876  0.4349
 5973SOL     OW29551   4.061   4.197   6.231 -0.0034 -0.5911 -0.1179
 5973SOL    HW129552   4.095   4.262   6.169 -2.3534 -1.4033 -2.2832
 5973SOL    HW229553   3.994   4.149   6.182  1.4308  0.0930 -2.7495
 5974SOL     OW29554   3.150   0.361   4.005 -0.0281 -0.5692 -0.0149
 5974SOL    HW129555   3.117   0.433   3.951  0.2452  0.4329  1.1438
 5974SOL    HW229556   3.207   0.323   3.938 -1.0077 -0.5588 -0.8477
 5975SOL     OW29557   0.347   3.520  16.072 -0.0367  0.5423  0.3042
 5975SOL    HW129558   0.428   3.473  16.053  0.0885  0.6604  0.5491
 5975SOL    HW229559   0.317   3.460  16.140 -0.2540  0.6403  0.2943
 5976SOL     OW29560   2.657   0.028   8.753 -0.4268  0.0918  0.5337
 5976SOL    HW129561   2.669   4.734   8.843  0.4980  0.5384  0.5537
 5976SOL    HW229562   2.566   0.001   8.743 -0.2620 -0.2553 -0.0383
 5977SOL     OW29563   1.307   2.073   6.019 -0.2674  0.3606 -1.0970
 5977SOL    HW129564   1.216   2.102   6.026 -0.8002 -2.5311  3.6072
 5977SOL    HW229565   1.353   2.132   6.078  2.1233  0.1458 -2.7138
 5978SOL     OW29566   0.039   2.223   3.676  0.0409 -0.7767 -0.2432
 5978SOL    HW129567   4.716   2.298   3.689  0.6416 -0.4302  0.4483
 5978SOL    HW229568   4.727   2.152   3.721 -1.8708  0.5411 -0.1854
 5979SOL     OW29569   0.160   2.801   0.987 -0.1820  0.3610 -0.3345
 5979SOL    HW129570   0.176   2.797   1.081  0.7353  0.4702 -0.4864
 5979SOL    HW229571   0.136   2.709   0.978 -0.2823  0.5086 -1.6640
 5980SOL     OW29572   0.065   2.332   2.302  0.6785 -0.0493 -0.1229
 5980SOL    HW129573   0.058   2.267   2.372 -1.7256  0.1939 -0.1460
 5980SOL    HW229574   0.015   2.300   2.227  1.4525  0.5821 -0.9136
 5981SOL     OW29575   0.518   1.203  11.005 -0.0037  0.0534  0.1358
 5981SOL    HW129576   0.475   1.128  11.046  0.4365  0.7745  1.9223
 5981SOL    HW229577   0.602   1.206  11.051  0.8631  1.4453 -1.5078
 5982SOL     OW29578   1.081   4.333   6.636 -0.4903  0.1757  0.0090
 5982SOL    HW129579   1.153   4.295   6.687 -2.1472 -1.6708  0.9744
 5982SOL    HW229580   1.131   4.353   6.557 -1.4965 -2.2135 -1.2234
 5983SOL     OW29581   3.374   1.182  11.611  0.2760 -0.4936  0.6645
 5983SOL    HW129582   3.379   1.268  11.651  0.7185  0.1763 -0.8406
 5983SOL    HW229583   3.464   1.151  11.598 -0.1302 -1.5096  0.1995
 5984SOL     OW29584   2.715   4.209   4.318 -0.5161 -0.7398  0.0685
 5984SOL    HW129585   2.768   4.131   4.334 -1.0751 -1.3796 -1.2102
 5984SOL    HW229586   2.635   4.169   4.284 -0.1732 -0.9734 -0.4600
 5985SOL     OW29587   3.229   3.346  17.397 -0.2817 -0.0033 -0.4969
 5985SOL    HW129588   3.156   3.294  17.433  0.6414 -0.9972 -0.0473
 5985SOL    HW229589   3.286   3.366  17.471  0.1478  2.1814 -1.4294
 5986SOL     OW29590   2.929   1.615   0.618 -0.3379  0.2611  0.7261
 5986SOL    HW129591   2.844   1.653   0.643 -0.4322  0.2424  0.4377
 5986SOL    HW229592   2.928   1.525   0.651  1.7621  0.1195  0.4002
 5987SOL     OW29593   3.865   2.289   2.285 -0.2370  0.4113  0.0044
 5987SOL    HW129594   3.934   2.332   2.336 -0.4945  1.6258 -0.6604
 5987SOL    HW229595   3.813   2.366   2.261  0.0571  0.6966  0.2768
 5988SOL     OW29596   3.292   2.191  16.552  0.4849 -0.4056 -0.2107
 5988SOL    HW129597   3.220   2.191  16.615  0.1288  1.0582 -0.6288
 5988SOL    HW229598   3.283   2.276  16.510 -0.2232  0.5791  1.9195
 5989SOL     OW29599   0.838   2.966  17.503  0.2252  0.2605  0.1170
 5989SOL    HW129600   0.748   2.957  17.470  0.9016 -0.8069 -1.4456
 5989SOL    HW229601   0.863   2.875  17.485 -1.9974  0.1627 -2.3785
 5990SOL     OW29602   2.246   3.526  12.116 -0.7141  0.2210  0.3287
 5990SOL    HW129603   2.170   3.471  12.094 -0.2146  1.4081 -4.2174
 5990SOL    HW229604   2.216   3.581  12.189  0.4539 -0.2354  1.1514
 5991SOL     OW29605   3.165   1.854   7.328 -0.2633 -0.4787 -0.4050
 5991SOL    HW129606   3.120   1.884   7.249  0.4264  0.5120 -0.4272
 5991SOL    HW229607   3.231   1.924   7.334 -1.0740  0.1156  1.4371
 5992SOL     OW29608   4.187   3.327   3.517  0.1309  0.8877  0.3460
 5992SOL    HW129609   4.123   3.318   3.446 -2.5019  1.7852  2.6169
 5992SOL    HW229610   4.212   3.417   3.497  0.8853  1.2621  3.0706
 5993SOL     OW29611   2.106   3.743   4.801 -0.3114  0.0053 -0.1522
 5993SOL    HW129612   2.066   3.810   4.857 -0.9318  1.2933 -2.1142
 5993SOL    HW229613   2.198   3.768   4.807 -0.7257  1.6631 -0.4337
 5994SOL     OW29614   0.683   2.780  13.363 -0.9765 -0.1212 -0.5402
 5994SOL    HW129615   0.778   2.790  13.368 -0.8286 -1.5226 -0.5750
 5994SOL    HW229616   0.654   2.861  13.405  0.9549  0.5806 -0.5562
 5995SOL     OW29617   4.526   1.068   9.027 -0.1685  0.4520 -0.1746
 5995SOL    HW129618   4.579   1.022   8.962  0.1017 -1.1818  1.1862
 5995SOL    HW229619   4.482   1.138   8.980 -1.1911 -0.2861 -0.3192
 5996SOL     OW29620   3.381   0.201   9.933  0.1910  0.4774 -0.4241
 5996SOL    HW129621   3.409   0.144  10.005 -0.1481  1.6965  0.6737
 5996SOL    HW229622   3.289   0.182   9.950  0.2779  0.9428  0.6322
 5997SOL     OW29623   2.128   2.353   3.942 -0.0936  0.1491 -0.0376
 5997SOL    HW129624   2.171   2.389   4.020 -1.3939  1.9962 -0.1699
 5997SOL    HW229625   2.164   2.265   3.933  2.6738  1.1273  1.2874
 5998SOL     OW29626   2.103   1.758   1.824  0.5713  0.0407 -0.5866
 5998SOL    HW129627   2.180   1.705   1.847 -0.6970 -0.9402  1.3162
 5998SOL    HW229628   2.097   1.818   1.898 -3.1655 -0.3646 -0.5987
 5999SOL     OW29629   0.183   2.309  14.544  0.0346 -0.6350  0.2122
 5999SOL    HW129630   0.269   2.329  14.580  0.0432  1.5403 -1.0349
 5999SOL    HW229631   0.132   2.360  14.607 -0.1866 -0.6986  0.0856
 6000SOL     OW29632   3.925   2.315   2.593 -0.1608 -0.0791 -0.1648
 6000SOL    HW129633   3.904   2.359   2.675 -1.0177 -2.1909  0.7420
 6000SOL    HW229634   3.837   2.287   2.568 -0.6144  1.7828 -0.6350
 6001SOL     OW29635   2.166   2.661  16.269  0.1188 -0.4512 -0.5201
 6001SOL    HW129636   2.071   2.663  16.282  0.2688  0.6199  0.3639
 6001SOL    HW229637   2.190   2.723  16.337  1.2661 -0.2678 -1.0939
 6002SOL     OW29638   3.271   2.535   8.757 -0.3554 -0.2298 -0.3646
 6002SOL    HW129639   3.191   2.557   8.803  0.4095  0.1265  0.7945
 6002SOL    HW229640   3.228   2.473   8.699  1.3518  0.3161 -2.2279
 6003SOL     OW29641   2.460   4.022  14.914  0.6286 -0.0341 -0.2216
 6003SOL    HW129642   2.554   4.036  14.929  0.9450 -2.4424  0.1116
 6003SOL    HW229643   2.428   4.097  14.863 -2.8909 -1.8442 -0.6665
 6004SOL     OW29644   2.065   2.848   4.776 -0.1202 -0.0848  0.3732
 6004SOL    HW129645   2.065   2.759   4.741  1.1263 -0.9265  2.5406
 6004SOL    HW229646   2.104   2.822   4.859 -0.4684 -1.0457  0.2394
 6005SOL     OW29647   0.454   4.049   5.752  0.4846  0.3512  0.1341
 6005SOL    HW129648   0.408   4.087   5.828 -0.3486  2.2465 -1.3137
 6005SOL    HW229649   0.416   3.961   5.750 -0.5334  0.7551  1.6471
 6006SOL     OW29650   3.642   3.559  15.718  0.1643 -0.4480  0.2261
 6006SOL    HW129651   3.697   3.626  15.761  3.2589 -1.0648 -2.7764
 6006SOL    HW229652   3.705   3.522  15.657  0.0638  1.9652 -1.3678
 6007SOL     OW29653   3.244   0.524   7.432  0.4093  0.3814  1.0881
 6007SOL    HW129654   3.271   0.483   7.350  2.0802  1.2889  1.1862
 6007SOL    HW229655   3.324   0.529   7.484  0.1612 -0.5236  1.5594
 6008SOL     OW29656   0.730   1.138   2.621  0.3517 -0.6012  0.5047
 6008SOL    HW129657   0.773   1.176   2.544  1.9486  2.4125  2.9047
 6008SOL    HW229658   0.800   1.138   2.686 -1.4328  2.4696  2.4039
 6009SOL     OW29659   1.742   3.579   7.409 -0.0194  0.7580 -0.4194
 6009SOL    HW129660   1.820   3.542   7.449  0.2402  0.1377 -1.4854
 6009SOL    HW229661   1.761   3.550   7.319  0.5692  0.2465 -0.1292
 6010SOL     OW29662   3.538   4.480   3.308 -0.0236 -0.3075 -0.0887
 6010SOL    HW129663   3.509   4.408   3.364  1.5397 -1.4820 -0.8246
 6010SOL    HW229664   3.499   4.557   3.351  1.6998  1.1749 -1.1576
 6011SOL     OW29665   3.116   3.679   4.093  0.6142  0.2005 -0.7475
 6011SOL    HW129666   3.062   3.601   4.080 -2.2102  2.2206 -1.0592
 6011SOL    HW229667   3.131   3.670   4.187  0.8645 -0.5796 -0.8585
 6012SOL     OW29668   0.410   0.592   6.701  0.3961  0.4368  0.0088
 6012SOL    HW129669   0.388   0.684   6.712  0.1392  0.3543  0.1979
 6012SOL    HW229670   0.328   0.547   6.681  1.7231 -0.6010 -3.1031
 6013SOL     OW29671   2.246   2.007   4.152 -0.0973  0.0773  0.2046
 6013SOL    HW129672   2.332   2.049   4.148 -0.2755  0.4398  0.1805
 6013SOL    HW229673   2.210   2.066   4.218  0.3605 -0.5704  1.0343
 6014SOL     OW29674   1.009   4.002   5.205 -0.0039  0.3920  0.7680
 6014SOL    HW129675   1.044   3.979   5.291  2.5195  0.9618 -0.0999
 6014SOL    HW229676   1.079   3.957   5.158  0.6216  0.4623  1.6360
 6015SOL     OW29677   0.838   2.331   4.282  0.0934 -0.3380 -0.4253
 6015SOL    HW129678   0.866   2.265   4.345 -0.6638  2.1213  2.4814
 6015SOL    HW229679   0.923   2.358   4.246  0.0553 -0.5315 -0.6633
 6016SOL     OW29680   3.320   2.249   0.073  0.0033  0.2289 -0.1276
 6016SOL    HW129681   3.254   2.226   0.008 -0.4329 -3.2461  1.5368
 6016SOL    HW229682   3.267   2.252   0.152  1.1734 -0.2851  0.6679
 6017SOL     OW29683   1.750   3.258   7.952 -0.4373  1.0476  0.1636
 6017SOL    HW129684   1.703   3.255   7.869  1.4914  0.8212 -0.9281
 6017SOL    HW229685   1.680   3.236   8.013  0.2675  0.4956  0.7666
 6018SOL     OW29686   1.008   3.865   2.959 -0.3153 -0.2466  0.1686
 6018SOL    HW129687   0.990   3.872   3.053 -0.5132  0.1700  0.0950
 6018SOL    HW229688   0.950   3.792   2.937 -1.8958  0.3858  2.2890
 6019SOL     OW29689   3.345   1.873   7.037  0.8688  0.0442 -0.2840
 6019SOL    HW129690   3.381   1.844   7.121 -0.3067 -0.0297  0.1864
 6019SOL    HW229691   3.331   1.789   6.993  1.4873  0.6299 -1.5945
 6020SOL     OW29692   3.182   3.907   6.115  0.0161 -0.1823 -0.2342
 6020SOL    HW129693   3.270   3.906   6.077  0.6351  1.4535  1.1506
 6020SOL    HW229694   3.124   3.925   6.042 -0.6180  0.1433  0.3488
 6021SOL     OW29695   3.278   4.152   2.280 -0.4190  0.4651 -0.3975
 6021SOL    HW129696   3.349   4.151   2.345 -0.9075 -0.5654  0.1220
 6021SOL    HW229697   3.290   4.237   2.238 -0.1841 -0.4725 -2.2248
 6022SOL     OW29698   1.668   0.516   2.675 -1.1813  0.2180  0.6668
 6022SOL    HW129699   1.739   0.569   2.710 -1.1370  1.1642 -0.8779
 6022SOL    HW229700   1.642   0.558   2.593 -2.6011  0.1778  1.0874
 6023SOL     OW29701   0.638   0.609   3.592  0.0192  0.1015  0.6350
 6023SOL    HW129702   0.732   0.598   3.605 -0.1253 -0.0256  1.5941
 6023SOL    HW229703   0.613   0.653   3.673  0.8571  1.2329  0.2738
 6024SOL     OW29704   0.254   2.787   3.638 -0.1353 -1.0549 -0.1381
 6024SOL    HW129705   0.212   2.873   3.638 -0.2977 -1.1360  0.4654
 6024SOL    HW229706   0.334   2.814   3.683 -0.3532 -0.2618 -0.2355
 6025SOL     OW29707   0.985   2.381   6.188  0.1159  0.1604 -0.2109
 6025SOL    HW129708   0.985   2.427   6.103  2.7520 -1.0217 -0.8469
 6025SOL    HW229709   1.058   2.427   6.229 -0.6437  0.0193  1.2762
 6026SOL     OW29710   0.942   4.183  14.593  0.0745  0.3804  0.8266
 6026SOL    HW129711   1.021   4.153  14.637  0.5081 -1.6373 -1.3514
 6026SOL    HW229712   0.875   4.121  14.623  1.8207 -0.4011  3.1060
 6027SOL     OW29713   3.407   1.657   0.869  0.2357  0.0199 -0.4341
 6027SOL    HW129714   3.481   1.714   0.850  0.9480 -0.3618  1.2478
 6027SOL    HW229715   3.457   1.601   0.928  0.2445  0.2912 -0.1871
 6028SOL     OW29716   1.193   3.407  15.231 -0.1720 -0.5487 -0.1244
 6028SOL    HW129717   1.147   3.442  15.306  0.3844 -1.8156  0.8117
 6028SOL    HW229718   1.163   3.317  15.242 -1.2512 -0.2499 -0.6040
 6029SOL     OW29719   1.112   3.753   3.355  0.4235 -0.6062  0.2801
 6029SOL    HW129720   1.138   3.685   3.293 -0.1595  0.0806 -0.7152
 6029SOL    HW229721   1.197   3.789   3.381  0.2648 -1.2867  1.7277
 6030SOL     OW29722   1.912   3.757  14.892 -0.3980  0.2875  0.4724
 6030SOL    HW129723   1.832   3.787  14.935 -1.8460 -0.8314 -1.4277
 6030SOL    HW229724   1.983   3.795  14.943 -1.4120 -0.7945  2.6866
 6031SOL     OW29725   0.542   2.737   5.592  0.0130  0.2870 -0.0708
 6031SOL    HW129726   0.518   2.829   5.585  1.0007  0.5705  0.2234
 6031SOL    HW229727   0.490   2.712   5.668  1.3483  0.3250  0.8573
 6032SOL     OW29728   1.389   0.188   8.262 -0.1350 -0.5458  0.8505
 6032SOL    HW129729   1.462   0.172   8.202 -0.6725  1.0584 -0.2259
 6032SOL    HW229730   1.417   0.148   8.345 -0.3119  0.3460  1.3318
 6033SOL     OW29731   2.130   2.513   0.515 -0.5117 -0.2740 -0.0839
 6033SOL    HW129732   2.219   2.478   0.509 -0.6157 -0.4935 -0.3472
 6033SOL    HW229733   2.131   2.558   0.430  3.5257  0.4798  0.3292
 6034SOL     OW29734   2.269   0.569  12.699  0.1124  0.7843  0.0011
 6034SOL    HW129735   2.246   0.537  12.612  0.1373 -0.9393  0.6330
 6034SOL    HW229736   2.301   0.659  12.691  1.7387  0.4583  2.7481
 6035SOL     OW29737   3.579   0.384   3.642 -0.1445 -0.0552  0.5127
 6035SOL    HW129738   3.599   0.475   3.665  1.6590 -0.5797  1.0160
 6035SOL    HW229739   3.638   0.342   3.705  0.9237  0.3865 -0.1797
 6036SOL     OW29740   0.961   4.581   5.440 -0.0243 -0.6677  0.4598
 6036SOL    HW129741   0.916   4.582   5.355  1.8874  0.6474 -0.5326
 6036SOL    HW229742   1.051   4.555   5.422  0.0349 -2.0427  2.7140
 6037SOL     OW29743   2.348   2.543  17.367  0.2572 -0.1527 -0.3413
 6037SOL    HW129744   2.254   2.523  17.365  0.5184 -1.2443 -1.7855
 6037SOL    HW229745   2.354   2.622  17.313  1.9516 -0.9132 -1.2799
 6038SOL     OW29746   2.211   0.853   4.485 -0.2396  0.1125  0.2638
 6038SOL    HW129747   2.148   0.895   4.544 -2.2064  0.6692 -2.2526
 6038SOL    HW229748   2.145   0.818   4.426 -0.4997  0.5174  0.3153
 6039SOL     OW29749   2.363   2.578  12.600 -0.2052  0.0249  0.7980
 6039SOL    HW129750   2.384   2.557  12.691 -1.8647  1.0421  1.4186
 6039SOL    HW229751   2.373   2.673  12.599  2.2137 -0.2298  0.9915
 6040SOL     OW29752   1.183   4.464   1.888 -0.1504 -0.7235 -0.0576
 6040SOL    HW129753   1.244   4.459   1.815 -2.3707  2.3610 -2.1337
 6040SOL    HW229754   1.128   4.528   1.843  0.0538  0.8802  1.9856
 6041SOL     OW29755   0.070   2.879   2.759  0.1628  0.1875 -0.0705
 6041SOL    HW129756   0.165   2.887   2.755  0.0458  0.9082 -1.2958
 6041SOL    HW229757   0.050   2.879   2.666  0.9044 -1.6407 -0.2315
 6042SOL     OW29758   0.501   3.694  11.473 -0.0589  0.3396  0.0285
 6042SOL    HW129759   0.415   3.734  11.484 -1.1473 -1.7472 -0.8495
 6042SOL    HW229760   0.506   3.682  11.379  2.7028 -1.7972  0.4460
 6043SOL     OW29761   2.318   1.065  14.317 -0.1093  0.1626 -0.8705
 6043SOL    HW129762   2.232   1.045  14.279  0.0346  0.5905 -1.4251
 6043SOL    HW229763   2.370   1.012  14.256 -2.1193 -1.0972 -1.5201
 6044SOL     OW29764   2.856   0.788   5.267 -0.0828  0.0324 -0.7295
 6044SOL    HW129765   2.777   0.833   5.237 -1.4647 -1.5931  0.4845
 6044SOL    HW229766   2.892   0.748   5.188 -1.0970  0.4316 -1.3961
 6045SOL     OW29767   3.597   2.012  16.663  0.2229  0.5291 -0.0450
 6045SOL    HW129768   3.665   1.957  16.701 -0.0338  0.2654  0.0334
 6045SOL    HW229769   3.586   2.086  16.723 -0.0812  0.7767 -0.4047
 6046SOL     OW29770   3.234   1.019   4.561 -0.0393  0.8244  0.1132
 6046SOL    HW129771   3.225   1.057   4.474 -0.2916  0.0835 -0.1831
 6046SOL    HW229772   3.157   0.964   4.548 -0.5761  1.7590 -0.6240
 6047SOL     OW29773   2.979   2.869   2.222  0.3897 -0.1059 -0.3918
 6047SOL    HW129774   3.046   2.915   2.171 -0.8992  1.7609 -0.4053
 6047SOL    HW229775   3.036   2.798   2.251  2.5629  2.0420  0.6247
 6048SOL     OW29776   0.057   3.825  16.938 -0.2585  1.0141  0.4236
 6048SOL    HW129777   0.135   3.770  16.936 -1.0546 -0.0602 -1.2066
 6048SOL    HW229778   0.041   3.822  16.844 -0.3324 -0.7737  0.5033
 6049SOL     OW29779   3.087   3.875   4.728  0.6922  0.0869 -0.2701
 6049SOL    HW129780   3.149   3.809   4.698 -0.0849 -0.3463 -0.9191
 6049SOL    HW229781   3.042   3.813   4.785  0.5048 -1.0953 -1.6932
 6050SOL     OW29782   3.191   4.096   7.090 -0.6264  0.2094  0.7633
 6050SOL    HW129783   3.123   4.125   7.150 -1.3448 -0.1583  0.1238
 6050SOL    HW229784   3.194   4.001   7.102  0.0953 -0.1312 -2.0372
 6051SOL     OW29785   4.513   2.176   9.440 -0.4139  0.0200 -0.4150
 6051SOL    HW129786   4.495   2.264   9.407  2.6339  0.1553 -1.6769
 6051SOL    HW229787   4.463   2.122   9.379 -1.6113  0.4453  0.1918
 6052SOL     OW29788   3.087   1.319   7.223 -0.2157 -0.4161 -0.1291
 6052SOL    HW129789   3.000   1.299   7.188 -0.2440 -1.5942  0.6198
 6052SOL    HW229790   3.105   1.398   7.173 -0.0001 -1.0390 -1.0394
 6053SOL     OW29791   3.019   0.211  16.185 -0.3580  0.0707  0.6967
 6053SOL    HW129792   3.016   0.128  16.233  0.3237 -0.1091  0.4248
 6053SOL    HW229793   3.076   0.259  16.244 -0.0669  0.9730 -0.3217
 6054SOL     OW29794   3.430   2.952  15.075 -0.8029 -0.1816 -0.6817
 6054SOL    HW129795   3.338   2.928  15.076 -1.4813  2.6310  2.4458
 6054SOL    HW229796   3.418   3.022  15.140  1.9677 -1.7227  1.5276
 6055SOL     OW29797   2.617   3.505  17.638 -0.0134  0.0438 -0.0877
 6055SOL    HW129798   2.569   3.439  17.687 -0.3227 -0.3386 -0.8969
 6055SOL    HW229799   2.566   3.501  17.557 -0.8904 -1.5344  0.5506
 6056SOL     OW29800   3.096   3.261  13.984  0.1277 -0.4134  0.3568
 6056SOL    HW129801   3.153   3.273  14.060 -0.9221  0.5739  0.9791
 6056SOL    HW229802   3.153   3.279  13.909 -0.2093  0.3178  0.2775
 6057SOL     OW29803   0.629   4.668  17.629 -0.0052  0.4249 -0.3013
 6057SOL    HW129804   0.610   4.700  17.718 -2.1640  1.9781 -1.3227
 6057SOL    HW229805   0.660   4.578  17.635 -0.1207  0.5773  2.5675
 6058SOL     OW29806   4.364   4.351   5.072  0.3277 -0.2181 -0.2866
 6058SOL    HW129807   4.422   4.332   4.998 -0.4878  3.0661 -1.7771
 6058SOL    HW229808   4.351   4.446   5.074 -0.1836 -0.2573 -1.8402
 6059SOL     OW29809   3.348   2.417   4.616 -0.1522 -0.6339  0.5198
 6059SOL    HW129810   3.288   2.384   4.549 -1.0439 -0.8272  1.4095
 6059SOL    HW229811   3.315   2.353   4.680  0.4586 -1.9442 -0.4960
 6060SOL     OW29812   2.319   3.964   2.255  0.5292  0.5319  0.5507
 6060SOL    HW129813   2.231   3.997   2.239  1.5192  2.3204 -1.2664
 6060SOL    HW229814   2.371   4.009   2.188 -1.1250  0.5069 -0.7382
 6061SOL     OW29815   3.576   3.421   1.282  0.2204 -0.0091 -0.1852
 6061SOL    HW129816   3.672   3.414   1.290  0.4551  1.8418 -1.5154
 6061SOL    HW229817   3.561   3.514   1.268  1.3120  0.1027 -0.6373
 6062SOL     OW29818   1.689   2.569   7.487 -0.0334  0.1424 -0.5983
 6062SOL    HW129819   1.738   2.550   7.407  1.9768  2.5063  0.0530
 6062SOL    HW229820   1.607   2.607   7.455 -0.9538 -0.6355  0.8511
 6063SOL     OW29821   2.791   1.206   1.863  0.4596  0.2477 -0.7180
 6063SOL    HW129822   2.722   1.194   1.929 -2.1362  0.2553 -3.4535
 6063SOL    HW229823   2.860   1.252   1.910  0.8170  1.4514 -2.4638
 6064SOL     OW29824   0.638   2.929   8.764  0.2296 -0.0376 -0.3243
 6064SOL    HW129825   0.614   3.019   8.741  1.1987 -0.1442 -1.7170
 6064SOL    HW229826   0.563   2.900   8.816  0.0722  0.0028 -0.5298
 6065SOL     OW29827   2.641   3.652   6.786 -0.3509 -0.6438  0.0822
 6065SOL    HW129828   2.638   3.742   6.817 -2.5822  0.7223 -4.0543
 6065SOL    HW229829   2.633   3.607   6.871  0.8153  0.6273  0.8505
 6066SOL     OW29830   2.312   4.076   6.025 -0.2053  0.0777 -0.3348
 6066SOL    HW129831   2.381   4.022   6.065  0.8361  2.2807  0.8749
 6066SOL    HW229832   2.357   4.124   5.956  0.0126 -1.1605 -1.0601
 6067SOL     OW29833   3.194   0.716   8.548 -0.6869 -0.5361  0.1556
 6067SOL    HW129834   3.152   0.633   8.528  0.0886 -1.1404  1.0115
 6067SOL    HW229835   3.227   0.706   8.638  0.3106  0.5843 -0.0797
 6068SOL     OW29836   3.320   0.874   5.904 -0.1798  0.0398 -0.3978
 6068SOL    HW129837   3.326   0.830   5.819 -2.9249 -0.5080 -0.2768
 6068SOL    HW229838   3.264   0.817   5.957 -2.0552  0.2335 -2.1856
 6069SOL     OW29839   0.128   2.389   6.134 -0.4468  0.2182  0.9342
 6069SOL    HW129840   0.051   2.369   6.187 -0.2882  1.5597  1.6748
 6069SOL    HW229841   0.076   2.434   6.067  1.2800 -0.9446 -1.1855
 6070SOL     OW29842   4.357   3.193   5.306  0.0359 -0.3801 -0.2306
 6070SOL    HW129843   4.340   3.287   5.300  0.5124 -0.2211  1.0405
 6070SOL    HW229844   4.271   3.153   5.314  0.5811 -0.9305  2.7290
 6071SOL     OW29845   0.840   2.442   1.940 -0.0769  0.1709 -0.3388
 6071SOL    HW129846   0.819   2.518   1.886  0.7653  0.4511 -0.2679
 6071SOL    HW229847   0.870   2.377   1.876  1.7403  0.6388  0.0373
 6072SOL     OW29848   3.363   1.976   4.369  0.2765 -0.1754 -0.1205
 6072SOL    HW129849   3.372   1.984   4.274  1.1458 -2.3489 -0.2129
 6072SOL    HW229850   3.298   1.907   4.377  0.6784 -0.4982  0.3935
 6073SOL     OW29851   3.736   1.086   7.734 -0.4182  0.6424 -0.0153
 6073SOL    HW129852   3.723   1.181   7.729  0.2910  0.7472  0.1173
 6073SOL    HW229853   3.796   1.079   7.660 -1.3798 -1.9926 -0.5723
 6074SOL     OW29854   4.679   4.281   1.648  0.4803 -0.0394 -0.1562
 6074SOL    HW129855   0.033   4.249   1.666  1.0763  0.7322 -1.7809
 6074SOL    HW229856   4.704   4.342   1.579  5.0657 -1.8625 -0.1449
 6075SOL     OW29857   0.894   1.417   2.129  0.1714 -0.0914  0.0177
 6075SOL    HW129858   0.974   1.410   2.182 -0.0030 -2.2351  0.0312
 6075SOL    HW229859   0.905   1.356   2.056 -0.7073 -1.3474  0.9403
 6076SOL     OW29860   4.425   1.384   4.154 -0.4457 -0.0939 -0.0536
 6076SOL    HW129861   4.454   1.464   4.198  0.6686 -0.6301  0.2036
 6076SOL    HW229862   4.409   1.334   4.234 -2.4794 -0.9061 -0.9876
 6077SOL     OW29863   2.836   0.848   8.261  0.2441  0.3058 -0.4074
 6077SOL    HW129864   2.792   0.765   8.280 -0.1319  0.0287 -2.5032
 6077SOL    HW229865   2.862   0.864   8.352  0.3199  0.2839 -0.4258
 6078SOL     OW29866   4.236   0.317   3.574  0.4135 -0.0652 -0.4668
 6078SOL    HW129867   4.293   0.345   3.502 -0.8044 -2.1151 -2.2436
 6078SOL    HW229868   4.285   0.340   3.653 -3.4470  2.0843  1.2796
 6079SOL     OW29869   4.591   1.451  11.297 -0.6857  0.0767  0.1598
 6079SOL    HW129870   4.519   1.451  11.361 -1.4061  0.7273 -0.6480
 6079SOL    HW229871   4.655   1.512  11.332  1.6628 -1.1244 -2.0538
 6080SOL     OW29872   3.718   0.228  10.584  0.4338  0.1056  0.2168
 6080SOL    HW129873   3.777   0.198  10.516 -0.3434 -1.6717  0.3208
 6080SOL    HW229874   3.644   0.259  10.532  0.9434 -0.9792 -1.1415
 6081SOL     OW29875   2.876   3.021   9.555  0.0738 -0.1072  0.0978
 6081SOL    HW129876   2.797   3.056   9.514  0.8276 -0.1132 -1.3900
 6081SOL    HW229877   2.933   3.098   9.550  1.3563 -1.1276 -0.9228
 6082SOL     OW29878   3.580   3.620   3.962 -0.4527 -0.4126  0.0828
 6082SOL    HW129879   3.484   3.628   3.965 -0.3688 -0.2516  2.4421
 6082SOL    HW229880   3.601   3.690   3.901  0.6197  1.7529  2.9272
 6083SOL     OW29881   1.986   3.308   4.008 -0.3088 -0.1211 -0.9749
 6083SOL    HW129882   1.891   3.302   4.021 -0.6325  2.4155 -2.0414
 6083SOL    HW229883   2.007   3.249   3.936  1.3751 -0.4772 -0.1939
 6084SOL     OW29884   3.868   3.588   2.860 -0.7641  0.3634 -0.0144
 6084SOL    HW129885   3.877   3.493   2.853  2.7456  0.7729 -1.3775
 6084SOL    HW229886   3.847   3.607   2.951  1.4917  2.8878  0.0135
 6085SOL     OW29887   2.089   3.730  16.788  0.2800 -0.4242  0.4747
 6085SOL    HW129888   2.000   3.696  16.776 -0.5684  2.7346 -2.1209
 6085SOL    HW229889   2.084   3.825  16.782 -1.7907 -0.5096  0.8948
 6086SOL     OW29890   2.576   1.419   3.121 -0.4054  0.2848 -0.3813
 6086SOL    HW129891   2.613   1.456   3.201 -0.1521  1.3812 -1.0162
 6086SOL    HW229892   2.485   1.420   3.151 -0.3193 -0.0034 -0.1101
 6087SOL     OW29893   2.008   3.403  11.992  0.3283  0.1593 -0.0425
 6087SOL    HW129894   1.953   3.481  12.000 -0.2243 -0.2876  0.5476
 6087SOL    HW229895   2.069   3.415  11.920 -0.8960  1.3838 -0.8731
 6088SOL     OW29896   0.868   2.650   8.186  0.0295 -0.7870  0.2282
 6088SOL    HW129897   0.807   2.720   8.164 -0.0766 -0.7786  0.5477
 6088SOL    HW229898   0.872   2.606   8.101 -0.0795  0.0152 -0.1881
 6089SOL     OW29899   1.566   3.911  13.389  0.2612 -1.0153  0.2266
 6089SOL    HW129900   1.546   3.846  13.321 -0.1623  0.9467 -1.5079
 6089SOL    HW229901   1.503   3.884  13.455 -0.3861  1.0193  0.4304
 6090SOL     OW29902   2.329   3.924   6.918  0.5484  0.0025 -0.2539
 6090SOL    HW129903   2.334   3.899   6.825 -0.3066  1.1363 -0.6089
 6090SOL    HW229904   2.259   3.871   6.955 -1.4702  2.3219 -0.7514
 6091SOL     OW29905   4.006   3.272  15.787  0.0524 -0.2043 -0.2076
 6091SOL    HW129906   4.020   3.280  15.693  0.1963 -2.9111 -0.3998
 6091SOL    HW229907   4.027   3.179  15.792  0.8805  0.0217  0.5888
 6092SOL     OW29908   1.898   4.298   8.501  0.0281 -0.1979 -0.4698
 6092SOL    HW129909   1.877   4.355   8.428 -0.3234  3.0923  2.1728
 6092SOL    HW229910   1.993   4.295   8.492  0.1326 -0.4027  0.7183
 6093SOL     OW29911   0.436   1.318   1.284 -0.0936 -0.2171  0.4384
 6093SOL    HW129912   0.393   1.392   1.329 -2.2150 -0.4735 -1.1513
 6093SOL    HW229913   0.524   1.351   1.268 -0.8091  0.8775 -1.3049
 6094SOL     OW29914   2.355   0.386  10.868  0.2790 -0.8017 -0.0975
 6094SOL    HW129915   2.296   0.318  10.837  2.6324 -2.8109 -0.2385
 6094SOL    HW229916   2.358   0.438  10.788 -4.5474 -2.2265 -1.1731
 6095SOL     OW29917   2.085   4.629   3.624 -0.0896 -0.0416 -0.1237
 6095SOL    HW129918   2.143   4.678   3.566 -1.3414  1.6639  0.0731
 6095SOL    HW229919   2.129   4.544   3.630 -0.3824 -0.1980 -0.1687
 6096SOL     OW29920   1.901   2.440  14.733  0.1916  0.2303  0.2066
 6096SOL    HW129921   1.893   2.348  14.759  1.7547  0.0361  0.0027
 6096SOL    HW229922   1.921   2.492  14.810  1.4608 -0.0595  0.0670
 6097SOL     OW29923   1.718   1.171   8.268 -0.4088  0.6950  0.1136
 6097SOL    HW129924   1.753   1.179   8.357 -0.1618 -0.8092  0.1511
 6097SOL    HW229925   1.653   1.241   8.269 -0.5418  0.6142 -1.9758
 6098SOL     OW29926   0.462   4.291   0.262 -0.5998 -0.0591 -0.0135
 6098SOL    HW129927   0.537   4.256   0.214  0.7091 -0.9544  2.7360
 6098SOL    HW229928   0.501   4.324   0.343  0.0281 -0.3021 -0.2242
 6099SOL     OW29929   1.659   0.444   7.614 -0.7994 -0.4164  0.1122
 6099SOL    HW129930   1.611   0.377   7.663 -0.2369 -0.0520  1.1596
 6099SOL    HW229931   1.723   0.473   7.680 -0.4433 -2.6634  0.7706
 6100SOL     OW29932   0.072   0.901   8.974  0.0527  0.4145  0.2832
 6100SOL    HW129933   0.135   0.972   8.957 -1.0399  2.0281  2.9383
 6100SOL    HW229934   0.062   0.877   8.882 -0.1220 -2.3153  1.0140
 6101SOL     OW29935   4.016   1.468  15.535 -0.1378  0.7358 -0.2231
 6101SOL    HW129936   3.955   1.531  15.572 -0.6526  0.1541 -0.0843
 6101SOL    HW229937   3.966   1.426  15.465 -0.1808 -1.7330  1.2527
 6102SOL     OW29938   2.362   3.523  10.209 -0.3018 -0.3417 -0.4435
 6102SOL    HW129939   2.324   3.524  10.297  0.0038 -0.4150 -0.3085
 6102SOL    HW229940   2.328   3.442  10.171  0.3292  0.2567 -2.3011
 6103SOL     OW29941   0.849   3.040   0.365  0.5362 -0.0917  0.5134
 6103SOL    HW129942   0.759   3.009   0.352  0.4309  0.9498 -1.2757
 6103SOL    HW229943   0.857   3.066   0.457 -1.1788  2.4539 -0.0719
 6104SOL     OW29944   1.354   0.513   2.446 -0.6838 -0.1613 -0.0098
 6104SOL    HW129945   1.443   0.549   2.451 -0.6352 -0.2070 -0.5557
 6104SOL    HW229946   1.348   0.493   2.353  0.7983  0.9157 -0.3440
 6105SOL     OW29947   4.575   0.846   5.390 -0.4668 -0.1767 -0.1037
 6105SOL    HW129948   4.606   0.757   5.372  0.1209 -0.3767  1.8526
 6105SOL    HW229949   4.500   0.838   5.332  0.5295 -0.9149 -1.2904
 6106SOL     OW29950   3.185   3.536   2.330 -0.2333 -0.6789  0.5627
 6106SOL    HW129951   3.271   3.499   2.306 -0.6660 -1.3664  0.0598
 6106SOL    HW229952   3.213   3.572   2.414 -0.4405  1.2636 -0.2152
 6107SOL     OW29953   3.307   2.936   8.052 -0.0847 -0.8508  0.3425
 6107SOL    HW129954   3.237   2.976   8.103 -0.7394 -1.3080 -0.2032
 6107SOL    HW229955   3.277   2.846   8.037 -0.5048 -0.9729  1.9797
 6108SOL     OW29956   4.099   2.668   9.432 -0.5383  0.0972 -0.1382
 6108SOL    HW129957   4.101   2.577   9.463  0.6694 -0.0146 -0.5342
 6108SOL    HW229958   4.177   2.664   9.377  0.5470 -0.8235  1.4964
 6109SOL     OW29959   2.601   0.204   8.404 -0.0039 -0.0710  0.4025
 6109SOL    HW129960   2.676   0.186   8.348  0.4022  1.3308  0.4860
 6109SOL    HW229961   2.580   0.113   8.425  3.1581 -1.1951 -1.2773
 6110SOL     OW29962   2.379   0.346  17.446 -0.0433 -0.6067  0.2867
 6110SOL    HW129963   2.384   0.334  17.351 -2.1741  0.5732  0.0119
 6110SOL    HW229964   2.468   0.358  17.478  0.6044 -2.2694 -0.9172
 6111SOL     OW29965   3.023   2.218   8.144 -0.4115 -0.0241 -0.1421
 6111SOL    HW129966   3.028   2.305   8.184  1.0203  0.0590 -0.4944
 6111SOL    HW229967   3.087   2.172   8.199 -0.7439 -1.2058 -0.7401
 6112SOL     OW29968   2.539   2.728   7.522 -0.6057  0.0506  0.4427
 6112SOL    HW129969   2.462   2.747   7.575 -0.4004  2.1406 -0.0262
 6112SOL    HW229970   2.573   2.817   7.513  2.9679 -1.5145 -1.6808
 6113SOL     OW29971   3.648   1.806   2.237  0.1679 -0.0376  0.2545
 6113SOL    HW129972   3.613   1.869   2.174 -2.3310 -1.3014  0.3785
 6113SOL    HW229973   3.742   1.812   2.221 -0.0252  0.5134 -0.6771
 6114SOL     OW29974   3.587   3.507   7.107 -0.2188 -0.0421 -0.1352
 6114SOL    HW129975   3.595   3.514   7.012 -1.3379  0.2443 -0.2164
 6114SOL    HW229976   3.659   3.564   7.133  0.9128 -1.1151 -0.9416
 6115SOL     OW29977   4.016   3.728  10.408  0.5455  0.4306 -0.0195
 6115SOL    HW129978   4.031   3.677  10.487 -1.1400 -0.9183 -0.5812
 6115SOL    HW229979   4.073   3.802  10.431  1.2063 -0.4003  0.9647
 6116SOL     OW29980   1.299   2.430   6.259  0.0262 -0.0254  0.8632
 6116SOL    HW129981   1.349   2.388   6.329  0.3376 -1.7605 -0.4103
 6116SOL    HW229982   1.323   2.521   6.279  1.1438  0.7890 -4.3156
 6117SOL     OW29983   0.805   1.552  11.542  0.2179  0.2840  0.2170
 6117SOL    HW129984   0.837   1.642  11.534 -0.5689  0.6819  1.5658
 6117SOL    HW229985   0.833   1.526  11.630  1.6922  0.7394 -0.1211
 6118SOL     OW29986   0.958   2.691   6.675 -0.1070  0.1343  0.2666
 6118SOL    HW129987   0.969   2.675   6.581  0.2342 -0.8535  0.4736
 6118SOL    HW229988   1.014   2.622   6.711 -2.0971 -1.3760  0.5373
 6119SOL     OW29989   2.801   1.598   8.732  0.6150 -0.1941  0.0686
 6119SOL    HW129990   2.872   1.549   8.773  0.6212 -2.2683 -2.3513
 6119SOL    HW229991   2.844   1.675   8.696 -1.8008  1.1397  0.0536
 6120SOL     OW29992   4.458   0.422  10.975  0.0876 -0.2575 -0.2532
 6120SOL    HW129993   4.506   0.450  10.897  1.9712  0.9313  1.3316
 6120SOL    HW229994   4.377   0.472  10.963  0.2922 -0.0086 -0.6119
 6121SOL     OW29995   1.387   2.850   4.584  0.0676 -0.1062 -0.0133
 6121SOL    HW129996   1.457   2.914   4.572  0.3689 -0.4762 -0.2457
 6121SOL    HW229997   1.338   2.886   4.658 -0.5404 -1.1272  0.0932
 6122SOL     OW29998   4.387   3.587   7.859  1.0578 -0.1649 -0.1499
 6122SOL    HW129999   4.447   3.654   7.828  0.0566  1.2894  1.0531
 6122SOL    HW230000   4.442   3.519   7.897  0.9158  0.5160  1.2871
 6123SOL     OW30001   0.247   2.386   2.032  0.0073 -0.3997  0.3292
 6123SOL    HW130002   0.201   2.467   2.055 -0.4562 -0.0534 -1.8086
 6123SOL    HW230003   0.315   2.382   2.099  0.7254 -3.7873 -0.5989
 6124SOL     OW30004   0.693   4.194   0.148  0.1584 -0.4571 -0.0270
 6124SOL    HW130005   0.716   4.116   0.199  2.1715  0.0680 -0.1357
 6124SOL    HW230006   0.752   4.256   0.191  1.3805 -2.9609  1.9342
 6125SOL     OW30007   0.814   1.923  10.748 -0.0272 -0.0910 -0.3021
 6125SOL    HW130008   0.821   1.933  10.843 -0.7083 -1.7117 -0.0836
 6125SOL    HW230009   0.903   1.898  10.726 -0.2427 -1.6522  0.5815
 6126SOL     OW30010   1.770   2.748  11.346 -0.3780  0.6990 -0.7877
 6126SOL    HW130011   1.711   2.789  11.409 -0.9043  2.2270 -2.2536
 6126SOL    HW230012   1.708   2.724  11.277 -0.1490  1.6072 -1.3199
 6127SOL     OW30013   3.734   2.507   6.745  0.0548 -0.8266  0.1235
 6127SOL    HW130014   3.750   2.433   6.804 -2.6863 -1.0993  0.5119
 6127SOL    HW230015   3.802   2.484   6.682  0.4199 -0.3348  0.3393
 6128SOL     OW30016   3.925   3.540   5.863  0.3929 -0.5238  0.0061
 6128SOL    HW130017   3.939   3.629   5.831  0.1583  0.6572  3.1964
 6128SOL    HW230018   3.954   3.550   5.954 -2.0333 -2.9636  1.0327
 6129SOL     OW30019   2.075   0.023   7.089  0.4707  0.1946  0.3722
 6129SOL    HW130020   2.034   0.079   7.023  0.1143 -0.3980  0.0945
 6129SOL    HW230021   2.049   0.070   7.169 -0.2526 -0.4712  0.5276
 6130SOL     OW30022   3.512   1.868  10.047  0.1511 -0.0498 -0.1720
 6130SOL    HW130023   3.512   1.920   9.966 -0.2617  0.5543  0.2096
 6130SOL    HW230024   3.586   1.904  10.095  0.2522 -0.4264 -0.0543
 6131SOL     OW30025   4.365   1.419   7.735  0.0428  0.2884 -1.0784
 6131SOL    HW130026   4.421   1.358   7.686  0.0103  0.3991 -1.2536
 6131SOL    HW230027   4.410   1.502   7.745  2.2765 -0.8718 -1.3688
 6132SOL     OW30028   2.313   3.946  15.212 -0.2726 -0.3933  0.5795
 6132SOL    HW130029   2.236   3.899  15.181 -1.4203  1.5395  0.4817
 6132SOL    HW230030   2.369   3.871  15.233  0.5303  0.2444  0.7235
 6133SOL     OW30031   2.613   1.437   8.614 -0.3783 -0.1279  0.4611
 6133SOL    HW130032   2.667   1.488   8.674 -1.2572  0.0737  1.0798
 6133SOL    HW230033   2.551   1.401   8.677  0.4926 -0.2539  1.2411
 6134SOL     OW30034   1.882   2.854   1.082  0.2882 -0.2384 -0.3526
 6134SOL    HW130035   1.850   2.877   1.169  0.1405  1.7990 -0.9482
 6134SOL    HW230036   1.967   2.821   1.111  0.9830  2.5130  0.8098
 6135SOL     OW30037   1.923   4.130   7.805 -0.6104 -0.6963 -0.0653
 6135SOL    HW130038   1.894   4.193   7.739  0.4044 -0.5674 -0.3913
 6135SOL    HW230039   1.949   4.064   7.741  1.0455  2.9024 -3.1450
 6136SOL     OW30040   0.037   0.862   5.652  0.3072 -0.2543  0.0353
 6136SOL    HW130041   4.688   0.848   5.609  0.3935  2.1339 -0.9535
 6136SOL    HW230042   0.040   0.777   5.696  4.1317 -1.0033 -1.6316
 6137SOL     OW30043   0.364   4.522   1.581  0.6921 -0.2586  0.7268
 6137SOL    HW130044   0.318   4.479   1.508 -0.1034  0.3132  0.8997
 6137SOL    HW230045   0.298   4.511   1.648 -0.9435  0.2248 -0.8005
 6138SOL     OW30046   3.180   2.267   0.617 -0.4833 -0.5611  0.3049
 6138SOL    HW130047   3.173   2.339   0.680 -1.1334 -0.7794  0.4838
 6138SOL    HW230048   3.209   2.202   0.681 -1.0604 -0.4417  0.6886
 6139SOL     OW30049   1.281   3.251   2.030 -0.1126 -0.1559  0.2491
 6139SOL    HW130050   1.305   3.249   1.938 -1.1757  2.9218 -0.0887
 6139SOL    HW230051   1.276   3.345   2.050  2.6003 -0.1709  1.0290
 6140SOL     OW30052   3.155   3.126   4.713  0.2837 -0.7197 -0.3338
 6140SOL    HW130053   3.126   3.068   4.784  0.3983  1.3869  1.4355
 6140SOL    HW230054   3.240   3.091   4.687  0.8917  0.9021 -0.5526
 6141SOL     OW30055   0.342   0.286   5.273 -0.2454  0.1785 -0.1751
 6141SOL    HW130056   0.410   0.266   5.208 -1.1540  0.0256 -1.0802
 6141SOL    HW230057   0.332   0.194   5.295 -1.0785  0.2214 -0.3838
 6142SOL     OW30058   3.460   2.158  12.747  0.0089  0.0115 -0.7499
 6142SOL    HW130059   3.389   2.098  12.770  1.1683  0.0929  3.0430
 6142SOL    HW230060   3.535   2.102  12.731  1.4359  1.9126 -0.7132
 6143SOL     OW30061   0.779   2.656   1.790  0.2954  0.2813  0.4239
 6143SOL    HW130062   0.738   2.680   1.708  1.9464 -0.0339 -0.4940
 6143SOL    HW230063   0.707   2.673   1.851 -0.8081  1.4611 -1.2390
 6144SOL     OW30064   1.064   2.778  17.151 -0.2208 -0.4172  0.5540
 6144SOL    HW130065   0.969   2.767  17.143 -0.7640  2.6307  2.7078
 6144SOL    HW230066   1.067   2.864  17.194  0.8838 -0.2075  0.0500
 6145SOL     OW30067   4.246   4.200  17.721  0.2323  0.2306  0.1641
 6145SOL    HW130068   4.187   4.256  17.671  1.8382  0.2155 -1.7538
 6145SOL    HW230069   4.325   4.254  17.722  0.5215 -0.1836 -0.7188
 6146SOL     OW30070   1.637   2.894   2.871 -0.3933 -0.2840 -0.1330
 6146SOL    HW130071   1.605   2.913   2.783 -0.3578  1.2493  0.1871
 6146SOL    HW230072   1.595   2.967   2.916 -0.3160  0.4053 -1.1730
 6147SOL     OW30073   2.428   3.243   1.797  0.3964 -0.1865 -0.0319
 6147SOL    HW130074   2.438   3.242   1.892  0.7671 -1.6121 -0.0953
 6147SOL    HW230075   2.507   3.198   1.770 -0.3116 -1.4744  0.0501
 6148SOL     OW30076   2.886   1.914   8.994  0.1859 -0.1160 -0.2524
 6148SOL    HW130077   2.975   1.909   8.958  0.8298 -1.0777  1.4428
 6148SOL    HW230078   2.877   1.835   9.048 -0.4370 -0.3318 -0.6825
 6149SOL     OW30079   1.970   1.394  13.035  0.3421 -0.6174  0.1733
 6149SOL    HW130080   2.003   1.304  13.029 -1.5867 -1.1983 -1.6923
 6149SOL    HW230081   2.043   1.449  13.064  0.7018 -1.4620  0.8748
 6150SOL     OW30082   1.389   2.693   8.089  0.0761  0.3588 -0.1639
 6150SOL    HW130083   1.424   2.605   8.105  0.9322  0.7464  0.0871
 6150SOL    HW230084   1.308   2.687   8.140  1.0447 -0.4522  1.2437
 6151SOL     OW30085   2.520   3.566   4.670 -0.9781  0.2221  0.3514
 6151SOL    HW130086   2.542   3.545   4.761  2.6968  0.2365 -0.5643
 6151SOL    HW230087   2.466   3.490   4.649 -0.6299 -0.0715  0.5318
 6152SOL     OW30088   3.191   0.819   2.477  0.5462  0.1945 -0.1847
 6152SOL    HW130089   3.123   0.792   2.539 -0.6337  1.6158 -0.8727
 6152SOL    HW230090   3.182   0.772   2.394  1.1941  0.7493 -0.5679
 6153SOL     OW30091   4.725   4.296   5.301 -0.0200  0.3409  0.3782
 6153SOL    HW130092   0.005   4.367   5.364  0.1616 -0.3414  1.1031
 6153SOL    HW230093   0.005   4.345   5.221  0.6393  0.5011  0.5984
 6154SOL     OW30094   2.435   0.887  14.116 -1.2488  0.2968  0.5374
 6154SOL    HW130095   2.530   0.878  14.121 -1.4746 -2.9684 -0.5555
 6154SOL    HW230096   2.418   0.838  14.035  1.5426 -0.9023  0.7033
 6155SOL     OW30097   4.349   0.398   0.043  0.5128 -0.8045  0.1446
 6155SOL    HW130098   4.379   0.327   0.099 -3.7019 -3.5826 -1.1078
 6155SOL    HW230099   4.330   0.357  17.697  2.1170  0.6073 -0.8952
 6156SOL     OW30100   1.791   2.800   5.969  0.1594  0.0428  0.0005
 6156SOL    HW130101   1.841   2.881   5.976 -0.5631  0.2214  3.2713
 6156SOL    HW230102   1.722   2.826   5.908  1.4638  0.4870 -1.2680
 6157SOL     OW30103   3.111   2.048   0.073  0.0143 -0.1110  0.4746
 6157SOL    HW130104   3.102   2.086   0.160 -2.7926 -0.8971  0.5175
 6157SOL    HW230105   3.083   1.960   0.096  1.1930 -0.2304  1.4626
 6158SOL     OW30106   2.865   2.724   3.745 -0.9481  0.1246  0.0994
 6158SOL    HW130107   2.883   2.789   3.813 -2.5647 -1.4327  2.0286
 6158SOL    HW230108   2.937   2.668   3.773 -0.4304  0.2870 -0.9225
 6159SOL     OW30109   3.400   3.325   4.409  0.3498 -0.2956  0.0754
 6159SOL    HW130110   3.487   3.333   4.447 -0.3899 -0.3526  1.8036
 6159SOL    HW230111   3.392   3.231   4.391  2.0707 -0.3854 -0.2195
 6160SOL     OW30112   1.678   3.435   4.729 -0.6885  0.4444 -0.3337
 6160SOL    HW130113   1.771   3.429   4.752 -0.4563  1.3281 -1.0309
 6160SOL    HW230114   1.634   3.418   4.813 -2.6140  1.4113 -1.1587
 6161SOL     OW30115   2.841   0.221   6.918 -0.2095 -0.6407  0.7076
 6161SOL    HW130116   2.809   0.163   6.848 -0.7987 -0.2225  0.6255
 6161SOL    HW230117   2.847   0.160   6.992 -1.9624 -1.4329  0.1974
 6162SOL     OW30118   3.253   4.618   0.275  0.3063 -0.3321 -0.0897
 6162SOL    HW130119   3.316   4.572   0.331  2.9695  1.3402 -1.6760
 6162SOL    HW230120   3.177   4.607   0.332 -0.8086  0.8181 -1.3883
 6163SOL     OW30121   2.276   2.990   1.760 -0.1403  0.4023 -0.0305
 6163SOL    HW130122   2.347   2.943   1.717 -0.4507 -0.4593  0.4023
 6163SOL    HW230123   2.305   3.079   1.739  0.6623  0.3033  0.6400
 6164SOL     OW30124   2.460   4.064   7.096  0.1875  0.0462  0.6841
 6164SOL    HW130125   2.396   4.020   7.040  0.7560 -1.0337  0.8911
 6164SOL    HW230126   2.467   4.146   7.048  0.7031  0.3195  1.2174
 6165SOL     OW30127   1.005   0.827   3.108  0.0836  0.0328 -0.0947
 6165SOL    HW130128   1.043   0.747   3.072 -0.0265 -0.3028  0.5330
 6165SOL    HW230129   1.084   0.874   3.134 -0.5469 -0.0235  1.9049
 6166SOL     OW30130   2.528   3.059   5.977 -0.0154 -0.6077 -0.2793
 6166SOL    HW130131   2.591   3.040   5.907  0.9807  1.6604  0.0074
 6166SOL    HW230132   2.464   2.988   5.973  0.4169 -0.9800 -0.7334
 6167SOL     OW30133   2.440   3.576  11.930  0.2304  0.2914 -0.3130
 6167SOL    HW130134   2.521   3.551  11.975  0.5161 -1.3807 -1.7712
 6167SOL    HW230135   2.374   3.572  12.000 -0.8180  1.5440 -1.2205
 6168SOL     OW30136   0.583   1.826   4.681 -0.6038 -0.5657  0.1582
 6168SOL    HW130137   0.623   1.783   4.606  2.6502  0.3592  1.3845
 6168SOL    HW230138   0.526   1.759   4.719 -0.9955 -0.2322  0.1675
 6169SOL     OW30139   2.785   1.560  11.933 -0.3828 -0.6332 -0.0630
 6169SOL    HW130140   2.769   1.469  11.958 -0.4589 -0.3137  1.0471
 6169SOL    HW230141   2.720   1.583  11.866 -0.7210  0.2724  0.5727
 6170SOL     OW30142   0.507   3.027   7.709 -0.1414  0.4684 -0.2774
 6170SOL    HW130143   0.543   3.106   7.747  0.8566  0.3293 -0.9453
 6170SOL    HW230144   0.423   3.034   7.756  0.3327  0.8775  0.5133
 6171SOL     OW30145   1.630   4.452   0.904 -0.2157 -0.4924 -0.4704
 6171SOL    HW130146   1.638   4.460   0.809  1.1360  0.0368 -0.3130
 6171SOL    HW230147   1.638   4.542   0.938 -1.0886 -0.4678 -0.3201
 6172SOL     OW30148   3.951   4.598  10.296 -0.1526  0.0262 -0.3792
 6172SOL    HW130149   4.018   4.531  10.310 -0.8192 -0.4341  0.5544
 6172SOL    HW230150   3.988   4.644  10.221 -2.0083  3.4584  0.7748
 6173SOL     OW30151   4.725   2.549   5.953  0.3132 -0.1873  0.0390
 6173SOL    HW130152   4.630   2.540   5.962 -0.0462  1.2537 -2.4413
 6173SOL    HW230153   4.722   2.553   5.857  0.7511 -1.9546 -0.0489
 6174SOL     OW30154   3.338   2.482   3.783 -0.0492  0.1859 -0.2195
 6174SOL    HW130155   3.372   2.512   3.867 -2.1444  0.3026  0.5744
 6174SOL    HW230156   3.416   2.466   3.730 -0.0745  1.5794 -0.6844
 6175SOL     OW30157   3.992   1.857   7.486 -0.2370 -0.1743 -0.2410
 6175SOL    HW130158   4.045   1.780   7.508  0.0327  0.3107  0.8019
 6175SOL    HW230159   4.058   1.925   7.500  1.2877 -2.4339  3.4641
 6176SOL     OW30160   0.404   2.353   5.735 -0.4657  0.1769 -0.0110
 6176SOL    HW130161   0.362   2.406   5.803 -0.3259 -0.8543  0.8815
 6176SOL    HW230162   0.403   2.395   5.648 -3.5136 -0.5381 -0.3120
 6177SOL     OW30163   0.408   2.616   2.823  0.1452 -0.2154 -0.1996
 6177SOL    HW130164   0.421   2.524   2.844  1.8984  0.0001 -0.3347
 6177SOL    HW230165   0.470   2.649   2.887  1.1809  0.8039 -1.7213
 6178SOL     OW30166   2.012   2.102  16.481 -0.0568  0.1236  0.1074
 6178SOL    HW130167   2.003   2.065  16.393 -2.2982  0.7204  0.0798
 6178SOL    HW230168   2.087   2.046  16.504 -1.8063 -2.8141 -1.3842
 6179SOL     OW30169   0.474   1.987  15.040 -0.1625  0.4372 -0.0100
 6179SOL    HW130170   0.566   1.994  15.011  0.0786 -2.4747  0.0626
 6179SOL    HW230171   0.485   1.901  15.078  1.7040 -0.1572 -1.8663
 6180SOL     OW30172   3.426   0.665   4.765  0.0472 -0.6517 -0.4275
 6180SOL    HW130173   3.386   0.629   4.844 -1.5654 -2.1857 -1.9122
 6180SOL    HW230174   3.483   0.593   4.740  0.3490 -1.6571  3.1614
 6181SOL     OW30175   1.979   2.695   5.467 -0.2897 -0.0789  0.5061
 6181SOL    HW130176   1.946   2.621   5.417  2.4159  1.2602 -3.2865
 6181SOL    HW230177   1.995   2.758   5.397 -1.8951 -2.7372 -2.2144
 6182SOL     OW30178   4.311   2.019  15.286 -0.0046  0.5943  0.6636
 6182SOL    HW130179   4.305   2.011  15.191 -1.5122  0.8555  0.7435
 6182SOL    HW230180   4.362   1.938  15.294 -1.3111 -0.2190  0.6260
 6183SOL     OW30181   3.439   3.968   5.979  0.2596 -0.2140  0.0437
 6183SOL    HW130182   3.393   3.927   5.905  2.5982  0.5982 -1.8491
 6183SOL    HW230183   3.495   4.036   5.943 -1.7767  0.3420 -2.0939
 6184SOL     OW30184   2.131   0.931   8.533 -0.2873 -0.4526 -0.5600
 6184SOL    HW130185   2.134   0.841   8.565 -0.1135 -0.1704  0.2144
 6184SOL    HW230186   2.062   0.965   8.590  0.7765  0.0711  0.4100
 6185SOL     OW30187   2.413   1.093  13.617 -0.1303  0.1397 -0.5188
 6185SOL    HW130188   2.467   1.171  13.614 -1.3298  1.0436  1.4558
 6185SOL    HW230189   2.405   1.078  13.523  2.3522 -2.0517 -0.3822
 6186SOL     OW30190   1.904   3.292   5.674  0.0588  0.0109 -0.0568
 6186SOL    HW130191   1.941   3.220   5.724  1.3836  1.9623  1.7743
 6186SOL    HW230192   1.830   3.316   5.730 -0.3221 -1.5228  0.0988
 6187SOL     OW30193   0.871   0.981  14.197 -0.0932  0.1071  0.4012
 6187SOL    HW130194   0.843   1.015  14.113  0.6241 -1.9931 -0.6932
 6187SOL    HW230195   0.936   0.916  14.168 -1.4302 -0.3950 -1.4534
 6188SOL     OW30196   4.022   1.538   7.809  0.2727  0.3026  0.2967
 6188SOL    HW130197   4.020   1.557   7.903 -0.7125  0.9982  0.1311
 6188SOL    HW230198   4.065   1.452   7.809  0.6422  0.4852 -0.7900
 6189SOL     OW30199   4.352   0.713  16.994  0.1544 -0.5957 -1.0745
 6189SOL    HW130200   4.283   0.771  16.961 -1.3257 -1.7249  0.0279
 6189SOL    HW230201   4.343   0.637  16.937  2.4229  0.3407 -2.6777
 6190SOL     OW30202   4.020   1.437   2.061  0.1646 -0.4669  0.4719
 6190SOL    HW130203   3.966   1.391   1.997 -0.8371 -0.7399  1.5253
 6190SOL    HW230204   4.022   1.372   2.131  0.6151  0.1642  1.0460
 6191SOL     OW30205   1.821   2.273   2.580  1.0591 -0.1214  0.1719
 6191SOL    HW130206   1.869   2.332   2.638 -0.4334 -0.2066  1.4796
 6191SOL    HW230207   1.736   2.279   2.624  0.2153 -1.6388 -1.2493
 6192SOL     OW30208   3.247   0.032   9.406  0.9829  0.1267 -0.0216
 6192SOL    HW130209   3.175   0.020   9.469  0.1322  0.0948 -0.9993
 6192SOL    HW230210   3.229   0.124   9.385  0.5588  0.3920  1.4607
 6193SOL     OW30211   4.405   2.935   3.560  0.3126 -0.7127 -0.0848
 6193SOL    HW130212   4.339   2.994   3.597  0.3000 -0.7550 -0.0389
 6193SOL    HW230213   4.464   2.942   3.635  4.1655 -0.6723 -3.1385
 6194SOL     OW30214   3.677   3.821   2.988  0.0020 -0.1971  0.0471
 6194SOL    HW130215   3.613   3.772   2.936  0.3390 -1.0692  0.4420
 6194SOL    HW230216   3.632   3.875   3.053  0.5468 -0.6933  0.8361
 6195SOL     OW30217   2.212   0.819   7.806  0.1774 -0.1627  0.5191
 6195SOL    HW130218   2.232   0.890   7.746  1.4038  0.2681  1.4367
 6195SOL    HW230219   2.119   0.825   7.827  0.5322  0.4840  1.9016
 6196SOL     OW30220   3.938   4.704  11.207  0.3049  0.0559 -0.3907
 6196SOL    HW130221   3.877   4.702  11.133 -1.4249 -1.0640  1.0506
 6196SOL    HW230222   3.961   0.062  11.214 -0.4111  0.4056 -2.6697
 6197SOL     OW30223   0.040   3.190   4.354  0.1559 -0.0277 -0.3568
 6197SOL    HW130224   4.682   3.167   4.358 -0.1246  1.2136  0.3438
 6197SOL    HW230225   0.074   3.110   4.313 -0.5297 -0.8419  0.6807
 6198SOL     OW30226   3.553   0.492   6.176  0.1249  0.0155 -0.0097
 6198SOL    HW130227   3.518   0.500   6.087 -0.0107  0.1148  0.0507
 6198SOL    HW230228   3.555   0.584   6.202  0.6562  0.9576 -3.2939
 6199SOL     OW30229   2.661   0.991  17.109 -0.1296  0.1951 -0.5719
 6199SOL    HW130230   2.684   1.080  17.137 -2.1550 -0.0654  1.9407
 6199SOL    HW230231   2.706   0.994  17.025  0.0678 -0.5488 -0.4891
 6200SOL     OW30232   4.617   2.621   3.316 -0.2229 -0.0593 -0.2892
 6200SOL    HW130233   4.667   2.543   3.292  0.2555 -0.1614  1.0227
 6200SOL    HW230234   4.664   2.655   3.392 -1.0829  0.7348 -0.1133
 6201SOL     OW30235   1.494   4.710  10.222 -0.1597  0.0183 -0.8755
 6201SOL    HW130236   1.407   0.002  10.252  0.7100  0.7101  1.0630
 6201SOL    HW230237   1.537   4.717  10.307 -1.2619  1.3473 -0.4162
 6202SOL     OW30238   3.440   1.387   7.909  0.3763 -0.5553 -0.1913
 6202SOL    HW130239   3.444   1.305   7.958 -0.9691 -0.5440 -0.0394
 6202SOL    HW230240   3.374   1.376   7.840 -0.9844  2.3817  0.6149
 6203SOL     OW30241   0.446   2.824   1.323  0.1191 -0.0168  0.5227
 6203SOL    HW130242   0.462   2.817   1.229  0.9764 -1.9719  0.8059
 6203SOL    HW230243   0.378   2.757   1.329  0.6908 -0.8929 -2.7769
 6204SOL     OW30244   4.254   1.303   2.432  0.0328  0.6632 -0.0446
 6204SOL    HW130245   4.193   1.369   2.400 -0.5983  0.1236  0.0562
 6204SOL    HW230246   4.284   1.287   2.342 -0.3513  0.2026 -0.0911
 6205SOL     OW30247   4.457   2.522   5.972  0.3448  0.2983  0.1339
 6205SOL    HW130248   4.428   2.601   5.927  1.1854  0.0156 -0.9027
 6205SOL    HW230249   4.388   2.499   6.035 -0.2283  1.4702 -0.0707
 6206SOL     OW30250   0.616   1.102   6.836 -0.3132  0.3251 -0.1800
 6206SOL    HW130251   0.639   1.032   6.774  2.0160  1.6417 -0.8226
 6206SOL    HW230252   0.521   1.105   6.837 -0.3265 -0.5455  1.1761
 6207SOL     OW30253   3.211   3.328   0.554  0.3194 -0.0853 -0.0164
 6207SOL    HW130254   3.151   3.395   0.585 -0.6821 -0.8197 -0.3859
 6207SOL    HW230255   3.190   3.308   0.463  0.6800  1.7781 -0.5115
 6208SOL     OW30256   1.643   1.151   5.279 -0.0732 -0.1973 -0.1476
 6208SOL    HW130257   1.568   1.209   5.266 -0.2521 -0.1538  1.0378
 6208SOL    HW230258   1.632   1.133   5.372 -1.3454  2.3986  0.2085
 6209SOL     OW30259   0.221   1.866   2.748 -0.1972 -0.2222  0.2392
 6209SOL    HW130260   0.184   1.804   2.685  2.9528 -1.0064 -0.8652
 6209SOL    HW230261   0.186   1.824   2.827  2.1799  0.1170  1.4746
 6210SOL     OW30262   0.158   3.135   5.055 -0.2992 -0.5411 -0.1543
 6210SOL    HW130263   0.226   3.125   4.988  1.4221 -0.7778  1.6197
 6210SOL    HW230264   0.161   3.044   5.084 -2.7705 -1.1110 -1.6172
 6211SOL     OW30265   2.917   1.726  14.460 -0.0011 -0.1856 -0.3670
 6211SOL    HW130266   2.981   1.659  14.485 -1.2835 -1.2010  0.1919
 6211SOL    HW230267   2.958   1.768  14.384 -1.7519 -0.3938 -1.4249
 6212SOL     OW30268   2.352   0.990   3.437  0.3045  0.4652 -0.1862
 6212SOL    HW130269   2.420   0.985   3.504  0.9177  0.5496 -0.7980
 6212SOL    HW230270   2.311   0.904   3.437  2.7626 -0.6779  0.9045
 6213SOL     OW30271   0.795   2.220   3.354  0.2341  0.9124  0.8990
 6213SOL    HW130272   0.875   2.273   3.353 -0.2889  1.6824 -0.4091
 6213SOL    HW230273   0.753   2.266   3.427 -1.1166 -1.6366  1.7307
 6214SOL     OW30274   4.209   4.348   3.211  0.3072  0.0558  0.3296
 6214SOL    HW130275   4.126   4.353   3.164 -0.5148  1.0773  1.8902
 6214SOL    HW230276   4.224   4.430   3.259  0.7931  1.3598 -2.0281
 6215SOL     OW30277   2.233   0.756   5.401  0.0676 -0.1239  0.4588
 6215SOL    HW130278   2.317   0.726   5.436 -0.9213  1.4603  4.1127
 6215SOL    HW230279   2.225   0.842   5.442  0.7250  0.3291 -0.3594
 6216SOL     OW30280   3.862   1.088  14.032 -0.0708  0.6809  0.2234
 6216SOL    HW130281   3.905   1.088  14.118 -2.3046 -3.4252  1.3371
 6216SOL    HW230282   3.931   1.068  13.969  1.3043 -0.4135  2.0672
 6217SOL     OW30283   3.234   2.193   2.914 -0.0987 -0.2338  0.3081
 6217SOL    HW130284   3.266   2.194   3.004 -1.0882 -0.1352  0.6671
 6217SOL    HW230285   3.144   2.159   2.920 -0.1824 -0.3902 -1.8146
 6218SOL     OW30286   4.699   3.138   3.631 -0.3561  0.1355 -0.1606
 6218SOL    HW130287   4.608   3.162   3.611 -0.4275 -0.1753 -0.2177
 6218SOL    HW230288   4.689   3.080   3.708  1.2991 -1.3829 -1.0924
 6219SOL     OW30289   3.641   2.707   6.007  0.3187  0.5053 -0.2646
 6219SOL    HW130290   3.641   2.772   6.078  1.2490  2.6945 -2.2620
 6219SOL    HW230291   3.677   2.759   5.935 -1.3483 -0.0469 -1.4982
 6220SOL     OW30292   4.094   0.810   3.692  0.0035  0.4183  0.5132
 6220SOL    HW130293   4.141   0.792   3.610 -0.3240 -0.0346  0.4254
 6220SOL    HW230294   4.023   0.865   3.658  0.1333  1.3783  1.7892
 6221SOL     OW30295   0.334   1.064   2.187 -0.1494  0.1272  0.6618
 6221SOL    HW130296   0.264   1.128   2.202 -2.4696 -2.1387 -0.4297
 6221SOL    HW230297   0.320   1.048   2.094 -0.2558  1.4073  0.4568
 6222SOL     OW30298   1.541   0.693  10.306  0.2288 -0.0252 -0.1310
 6222SOL    HW130299   1.447   0.706  10.293 -0.1667 -0.7606  1.9992
 6222SOL    HW230300   1.555   0.756  10.377 -0.8002 -1.2207  1.1165
 6223SOL     OW30301   0.485   0.044  15.772 -0.2838 -0.0275  0.0663
 6223SOL    HW130302   0.563   0.092  15.745 -0.2146 -0.7803 -1.0781
 6223SOL    HW230303   0.492   4.712  15.703  0.7786 -0.3250  0.4667
 6224SOL     OW30304   4.708   3.230   8.907  0.0705  0.1572 -0.6901
 6224SOL    HW130305   4.680   3.204   8.995 -3.6411 -0.1699 -1.9604
 6224SOL    HW230306   4.641   3.294   8.885 -0.2456  0.4130  1.0294
 6225SOL     OW30307   3.419   3.667   2.998 -0.1553 -0.6920  0.1224
 6225SOL    HW130308   3.350   3.609   2.966  0.7731 -0.8766 -1.5455
 6225SOL    HW230309   3.445   3.630   3.082 -0.9864  0.6746  0.9850
 6226SOL     OW30310   3.754   1.289  13.311 -0.3693 -0.0320  0.0562
 6226SOL    HW130311   3.840   1.282  13.268  0.3757  1.0155  1.3496
 6226SOL    HW230312   3.754   1.378  13.347  1.0769  0.1115 -0.2893
 6227SOL     OW30313   0.042   1.948  16.967  0.4920 -0.8262 -0.0564
 6227SOL    HW130314   0.019   2.026  16.917  2.0392  1.5141  2.9167
 6227SOL    HW230315   0.112   1.910  16.913  1.8097  1.2508  0.2106
 6228SOL     OW30316   2.924   0.438  16.044  0.3511 -0.0858 -0.8948
 6228SOL    HW130317   2.927   0.360  16.099  1.3372 -0.2388 -1.1627
 6228SOL    HW230318   2.851   0.412  15.988  0.0827 -1.2378  0.0028
 6229SOL     OW30319   2.600   4.293  17.378  0.0083  0.3854  0.1355
 6229SOL    HW130320   2.687   4.310  17.413 -0.6052  0.5655  1.5723
 6229SOL    HW230321   2.596   4.313  17.284  0.3923  3.0739  0.7045
 6230SOL     OW30322   0.279   3.063   1.160 -0.3017 -0.0357  0.3273
 6230SOL    HW130323   0.354   3.102   1.204  0.3914  0.9793 -1.7504
 6230SOL    HW230324   0.210   3.076   1.225 -1.4383  1.9440 -1.2628
 6231SOL     OW30325   1.478   2.080  13.996 -0.1668 -0.2858  0.3818
 6231SOL    HW130326   1.390   2.115  13.982 -0.2698 -1.1035 -1.0663
 6231SOL    HW230327   1.487   2.028  13.916  1.0140  2.6359 -1.3961
 6232SOL     OW30328   0.928   2.146   8.588 -0.0463 -0.2676 -0.1114
 6232SOL    HW130329   0.958   2.236   8.572  1.1830 -0.8946 -1.3154
 6232SOL    HW230330   0.836   2.169   8.575  0.2072 -0.0572 -1.5918
 6233SOL     OW30331   2.697   1.244   0.519 -0.1667  0.6542  0.3967
 6233SOL    HW130332   2.718   1.177   0.584 -1.6224 -0.4449 -0.2518
 6233SOL    HW230333   2.761   1.314   0.532  0.3925 -0.3963  3.2396
 6234SOL     OW30334   1.935   2.284   0.948 -0.0583  0.1223  0.9463
 6234SOL    HW130335   1.952   2.343   1.022  3.7280 -2.1467  1.8871
 6234SOL    HW230336   1.933   2.200   0.995 -3.5029 -0.7825 -0.7668
 6235SOL     OW30337   1.283   3.454  12.725 -0.0687 -0.0995 -0.0494
 6235SOL    HW130338   1.216   3.429  12.788  0.8892  0.5075  1.2015
 6235SOL    HW230339   1.265   3.405  12.645  0.0501 -0.8040  0.3613
 6236SOL     OW30340   1.495   0.804   2.821  0.2177  0.0858  0.1963
 6236SOL    HW130341   1.489   0.859   2.742  3.5098  0.8742  0.4881
 6236SOL    HW230342   1.440   0.737   2.781  0.4672 -0.7260  1.2349
 6237SOL     OW30343   4.024   2.597   1.220  0.0342  0.2093  0.4151
 6237SOL    HW130344   3.955   2.540   1.185  1.7439 -0.6570 -1.5200
 6237SOL    HW230345   3.988   2.606   1.308 -2.6944 -2.6671 -0.3786
 6238SOL     OW30346   2.119   4.446  13.223 -0.3017 -0.1824 -0.0832
 6238SOL    HW130347   2.088   4.359  13.197  0.6351 -0.1177 -1.4048
 6238SOL    HW230348   2.168   4.483  13.150 -0.2343 -0.0844  0.0126
 6239SOL     OW30349   4.573   0.967   9.532  0.9480  0.8980  0.1861
 6239SOL    HW130350   4.578   0.970   9.436 -1.5169  0.1664  0.0340
 6239SOL    HW230351   4.547   1.057   9.551  2.4361  1.6522 -1.3529
 6240SOL     OW30352   0.898   2.623  15.859 -0.0762 -0.0952 -0.5203
 6240SOL    HW130353   0.899   2.571  15.939  2.9434 -0.0963 -0.5583
 6240SOL    HW230354   0.957   2.696  15.878 -1.5972  0.7230  1.0254
 6241SOL     OW30355   4.235   2.489  10.557 -0.9094 -1.0452 -0.5884
 6241SOL    HW130356   4.281   2.568  10.529 -0.6172 -1.7632 -2.1780
 6241SOL    HW230357   4.275   2.426  10.496  2.2664  1.9146 -1.5758
 6242SOL     OW30358   0.163   2.480   0.131  0.0766  0.3708 -0.1504
 6242SOL    HW130359   0.118   2.397   0.123  2.9119 -1.4002  2.0846
 6242SOL    HW230360   0.094   2.527   0.179  0.1705  0.1596  0.1959
 6243SOL     OW30361   1.160   3.359  16.477 -0.3886  0.1251  0.1972
 6243SOL    HW130362   1.164   3.438  16.532  1.9757  0.3820 -0.3770
 6243SOL    HW230363   1.066   3.361  16.455 -0.2925 -1.0444 -0.2786
 6244SOL     OW30364   4.729   4.231   5.900 -0.0728  0.0756 -0.2581
 6244SOL    HW130365   4.645   4.195   5.928  0.2231 -0.8960 -0.6103
 6244SOL    HW230366   4.726   4.201   5.810  1.4566  1.5363 -0.7942
 6245SOL     OW30367   3.435   2.368  16.378 -0.1426 -0.3266 -0.0462
 6245SOL    HW130368   3.419   2.429  16.306  2.4151 -2.0612 -2.1021
 6245SOL    HW230369   3.415   2.282  16.343 -3.1996  0.8520 -1.2063
 6246SOL     OW30370   4.579   2.711  13.632 -0.1235 -0.1589 -0.4118
 6246SOL    HW130371   4.642   2.718  13.704 -0.7913  0.5770  0.1006
 6246SOL    HW230372   4.622   2.655  13.568 -1.6905 -1.1888 -0.5485
 6247SOL     OW30373   1.777   2.304   3.240  0.2540 -0.0982 -0.0171
 6247SOL    HW130374   1.810   2.288   3.328  2.3921  0.4139 -0.7382
 6247SOL    HW230375   1.739   2.392   3.242  0.0552 -0.1661 -0.7798
 6248SOL     OW30376   0.479   1.006   2.835 -0.1052  0.1423  0.3120
 6248SOL    HW130377   0.559   0.957   2.817  0.6404  0.6929  2.0858
 6248SOL    HW230378   0.476   1.066   2.761  0.0564 -1.7860 -1.2520
 6249SOL     OW30379   4.135   2.786  10.371  0.1785 -0.2243 -0.0772
 6249SOL    HW130380   4.152   2.879  10.382  0.4845  0.3058 -4.8762
 6249SOL    HW230381   4.209   2.757  10.424  0.0594 -1.2570 -0.4770
 6250SOL     OW30382   2.194   0.571   6.742 -0.4781  0.6215 -0.6166
 6250SOL    HW130383   2.115   0.622   6.723  0.0096  1.3595 -0.6865
 6250SOL    HW230384   2.242   0.573   6.659  1.1019  3.4923  0.3692
 6251SOL     OW30385   1.315   0.761  14.696  0.3227 -0.2648  0.0017
 6251SOL    HW130386   1.269   0.817  14.635  0.1398 -2.7301 -2.1314
 6251SOL    HW230387   1.287   0.675  14.664 -0.6080 -0.1694  0.5487
 6252SOL     OW30388   4.501   1.613   8.653 -0.9342 -0.0077  0.3728
 6252SOL    HW130389   4.529   1.651   8.737 -2.2098 -0.9358  1.2126
 6252SOL    HW230390   4.439   1.679   8.622  0.2159  0.8476 -0.1062
 6253SOL     OW30391   2.960   4.117   2.207 -0.8860  0.9601  0.2033
 6253SOL    HW130392   2.948   4.065   2.287 -2.8538  0.5063 -0.3853
 6253SOL    HW230393   3.041   4.166   2.221 -0.7064  0.5145  0.7217
 6254SOL     OW30394   2.088   2.265  16.695 -0.1330 -0.2657 -0.2542
 6254SOL    HW130395   2.060   2.208  16.624 -0.6549  1.6253 -1.5674
 6254SOL    HW230396   2.125   2.335  16.641  0.9256  0.2547  1.1158
 6255SOL     OW30397   3.893   2.280   8.264  0.4473 -0.0274 -0.3278
 6255SOL    HW130398   3.814   2.310   8.219  0.7134  0.2962 -0.5814
 6255SOL    HW230399   3.859   2.240   8.344  1.1470 -0.1084 -0.0688
 6256SOL     OW30400   2.539   3.992   7.821 -0.3152 -0.4387  0.0047
 6256SOL    HW130401   2.468   3.929   7.809  0.9519 -1.3850 -2.6211
 6256SOL    HW230402   2.499   4.078   7.831  0.8162  0.1685 -0.7487
 6257SOL     OW30403   2.566   1.873   5.431 -0.3478 -0.1155 -0.0872
 6257SOL    HW130404   2.648   1.879   5.382 -0.8399 -1.6872 -1.0803
 6257SOL    HW230405   2.593   1.925   5.508  0.8963 -1.8108  0.6275
 6258SOL     OW30406   1.376   3.704   5.717  0.2851 -0.2130  0.2167
 6258SOL    HW130407   1.326   3.644   5.662  1.3195 -1.2923  0.4460
 6258SOL    HW230408   1.307   3.755   5.760 -0.7362 -0.7680 -0.7835
 6259SOL     OW30409   4.261   3.052   5.589 -0.1077  0.3380 -0.2274
 6259SOL    HW130410   4.304   3.109   5.525 -2.8546  3.2939  0.5702
 6259SOL    HW230411   4.335   3.042   5.649 -0.3242  0.5832  0.0795
 6260SOL     OW30412   0.559   4.124   5.513 -0.4418 -0.3465  0.1527
 6260SOL    HW130413   0.473   4.156   5.486 -0.7302 -2.5090 -1.5064
 6260SOL    HW230414   0.534   4.087   5.597  1.4850 -0.6675  0.5980
 6261SOL     OW30415   3.003   0.496   4.459 -0.2380 -0.1386 -0.0932
 6261SOL    HW130416   3.029   0.418   4.506  1.5192 -0.9972 -2.5011
 6261SOL    HW230417   3.081   0.552   4.454 -0.3664  0.0341 -0.2023
 6262SOL     OW30418   2.049   0.555   3.190  0.3486 -0.3695  0.4901
 6262SOL    HW130419   2.000   0.551   3.107  0.0745 -0.5439  0.6611
 6262SOL    HW230420   2.045   0.651   3.199 -1.9533 -0.4183  0.1400
 6263SOL     OW30421   1.560   3.194   8.796 -0.2550 -0.3974 -0.6025
 6263SOL    HW130422   1.521   3.274   8.830  1.6847 -0.2380  1.3009
 6263SOL    HW230423   1.596   3.160   8.878 -1.8608 -1.5471 -0.3773
 6264SOL     OW30424   4.171   4.356   8.822  0.3483  0.1076 -0.0668
 6264SOL    HW130425   4.165   4.268   8.785 -0.4164  0.4793 -0.8293
 6264SOL    HW230426   4.140   4.415   8.753 -1.8081 -0.7637  0.1594
 6265SOL     OW30427   0.280   4.009   4.713  0.2004 -0.0744 -0.0413
 6265SOL    HW130428   0.298   4.067   4.638  0.8385  0.6637  0.6757
 6265SOL    HW230429   0.315   3.926   4.681  1.6050  0.2470  0.6647
 6266SOL     OW30430   3.259   2.051  17.389 -0.0919 -0.1854  0.0746
 6266SOL    HW130431   3.231   2.040  17.299  1.2370  0.2071 -0.3988
 6266SOL    HW230432   3.203   2.120  17.426 -0.5861  0.0892 -1.2121
 6267SOL     OW30433   2.015   1.784   8.334 -0.3631  0.2767  0.9395
 6267SOL    HW130434   2.072   1.859   8.352 -0.8136  1.5567 -2.9630
 6267SOL    HW230435   2.018   1.783   8.238  0.0977  0.1707  0.9540
 6268SOL     OW30436   3.240   0.908   4.980 -0.8739 -0.5017  0.2488
 6268SOL    HW130437   3.262   0.983   5.035  1.8597 -0.5974 -0.6752
 6268SOL    HW230438   3.219   0.845   5.049  2.0637 -1.4783  0.2709
 6269SOL     OW30439   3.050   3.369   1.726 -0.8731 -0.4484 -0.1831
 6269SOL    HW130440   3.032   3.451   1.682  2.4682  0.3296 -0.0981
 6269SOL    HW230441   3.117   3.326   1.672  1.0330  0.2626  1.5823
 6270SOL     OW30442   0.848   4.464   1.869  0.8363 -0.4905 -0.2754
 6270SOL    HW130443   0.884   4.540   1.916  0.5022 -0.1108 -0.6340
 6270SOL    HW230444   0.886   4.480   1.783 -1.2484  0.4552 -1.0389
 6271SOL     OW30445   4.568   2.972  11.707 -0.5910 -0.2749 -0.0882
 6271SOL    HW130446   4.527   3.012  11.784 -0.2760 -0.3938  0.1408
 6271SOL    HW230447   4.643   2.927  11.745 -0.2942 -1.2850 -1.8697
 6272SOL     OW30448   3.854   3.743  12.142 -0.7372 -0.4487  0.7913
 6272SOL    HW130449   3.825   3.791  12.064 -2.2148  2.2415  2.9992
 6272SOL    HW230450   3.880   3.824  12.187  0.5018 -1.5682  2.0815
 6273SOL     OW30451   4.273   4.131   4.822 -0.3090 -0.4017 -0.1389
 6273SOL    HW130452   4.279   4.135   4.918  2.3034 -1.4984 -0.2743
 6273SOL    HW230453   4.231   4.215   4.802 -0.8248 -0.9800 -1.4661
 6274SOL     OW30454   4.153   3.089   3.599  0.3810  0.3469 -0.3741
 6274SOL    HW130455   4.133   3.115   3.689  0.4921 -0.1780 -0.2022
 6274SOL    HW230456   4.171   3.178   3.569  0.5193 -0.0526 -1.5039
 6275SOL     OW30457   4.254   3.606   3.424 -0.3774  0.0672 -0.3944
 6275SOL    HW130458   4.339   3.616   3.468 -0.6907 -1.5553  0.5815
 6275SOL    HW230459   4.214   3.688   3.453 -2.4626 -0.8659 -0.6954
 6276SOL     OW30460   4.099   2.361   9.107  0.6756 -0.0185 -0.2343
 6276SOL    HW130461   4.109   2.267   9.120  3.1664  0.0337 -1.6895
 6276SOL    HW230462   4.008   2.366   9.078 -0.1007 -1.7165  1.9682
 6277SOL     OW30463   2.258   3.444  16.607 -0.0422  0.0726  0.4035
 6277SOL    HW130464   2.220   3.419  16.522 -1.3992 -1.3500  1.4343
 6277SOL    HW230465   2.199   3.392  16.660 -1.0622  0.1364 -0.6749
 6278SOL     OW30466   0.120   3.809   3.993  0.2334 -0.0045  0.2496
 6278SOL    HW130467   0.029   3.782   4.004 -0.6841  1.8661 -2.9727
 6278SOL    HW230468   0.164   3.737   3.949  0.2831 -0.4270  0.9772
 6279SOL     OW30469   4.550   3.625   3.499  0.0323  0.2758 -0.4694
 6279SOL    HW130470   4.569   3.599   3.409 -0.0249  0.0491 -0.4148
 6279SOL    HW230471   4.594   3.709   3.514 -1.1019  0.6008  1.1239
 6280SOL     OW30472   2.590   1.677   8.110 -0.1282 -0.4311 -0.0155
 6280SOL    HW130473   2.635   1.599   8.078  1.2354  0.2288  0.2956
 6280SOL    HW230474   2.540   1.643   8.184 -1.0096 -0.2737 -0.5269
 6281SOL     OW30475   3.170   0.947  16.960 -0.7304  0.0636  0.5477
 6281SOL    HW130476   3.136   0.994  16.884 -1.0208 -0.1982  0.5153
 6281SOL    HW230477   3.141   1.012  17.024  0.6583 -0.1747  1.4287
 6282SOL     OW30478   2.255   0.471   8.655 -0.1738  0.3644  0.1605
 6282SOL    HW130479   2.300   0.550   8.625 -0.6435  1.0227  1.2073
 6282SOL    HW230480   2.178   0.465   8.598 -0.3557 -1.3707  0.5696
 6283SOL     OW30481   0.688   2.186   6.325 -0.1385  0.4299  0.2184
 6283SOL    HW130482   0.599   2.207   6.354 -0.3037 -0.2539  0.2120
 6283SOL    HW230483   0.709   2.258   6.266 -1.7892 -1.7461 -3.0459
 6284SOL     OW30484   3.818   4.691  10.960  0.3250 -0.1406  0.2568
 6284SOL    HW130485   3.777   4.729  10.883  1.7105  1.4425  0.2980
 6284SOL    HW230486   3.883   4.640  10.912  0.2541 -0.1270  0.1464
 6285SOL     OW30487   0.709   2.617  13.682  0.1105  0.1517 -0.4107
 6285SOL    HW130488   0.634   2.586  13.630 -0.8361  0.1938  0.9259
 6285SOL    HW230489   0.773   2.600  13.613 -0.4017  0.8661 -1.0534
 6286SOL     OW30490   1.457   2.011   4.968 -0.0194 -0.0210 -0.3609
 6286SOL    HW130491   1.545   2.035   4.995 -0.6272  1.9202 -0.0681
 6286SOL    HW230492   1.455   2.048   4.880  1.8890 -1.8825 -1.1636
 6287SOL     OW30493   2.276   1.225   8.532  0.2443  0.1255  0.1301
 6287SOL    HW130494   2.247   1.163   8.465 -0.9537  0.2802  0.5008
 6287SOL    HW230495   2.226   1.200   8.609  0.2397 -1.5877 -0.4394
 6288SOL     OW30496   4.526   2.691  10.917  0.1388  0.4046  0.6899
 6288SOL    HW130497   4.616   2.696  10.949  1.2779  2.2400 -2.7886
 6288SOL    HW230498   4.510   2.783  10.893 -1.3328  0.1534  0.6706
 6289SOL     OW30499   0.597   2.476   3.174 -0.4725 -0.7315 -0.1802
 6289SOL    HW130500   0.622   2.407   3.236  2.0072  0.2656 -0.0536
 6289SOL    HW230501   0.680   2.487   3.128 -0.9120 -1.1082 -1.0581
 6290SOL     OW30502   3.843   2.882  10.600  0.0705 -0.0615  0.4614
 6290SOL    HW130503   3.883   2.829  10.669 -0.4487 -1.8662 -0.6139
 6290SOL    HW230504   3.886   2.966  10.618 -0.1176  0.1711 -0.1967
 6291SOL     OW30505   2.836   4.352  17.497  0.1751 -0.1128 -0.0753
 6291SOL    HW130506   2.821   4.442  17.527  0.0105 -0.3773  0.6410
 6291SOL    HW230507   2.930   4.344  17.479  0.3525  1.8995  0.0082
 6292SOL     OW30508   2.190   1.336  16.648 -0.4935 -0.1566  0.3523
 6292SOL    HW130509   2.097   1.316  16.655 -0.3835 -0.4869  0.8772
 6292SOL    HW230510   2.223   1.290  16.725  0.0109 -0.1554  0.1418
 6293SOL     OW30511   2.861   0.361   6.667 -0.3141  0.3127 -0.8318
 6293SOL    HW130512   2.836   0.279   6.710 -2.2100  1.6316  0.5855
 6293SOL    HW230513   2.943   0.382   6.712 -0.5459  0.6767 -0.5875
 6294SOL     OW30514   2.039   4.026   2.292 -0.2079  0.6943  0.6154
 6294SOL    HW130515   2.021   3.991   2.380 -0.3705 -0.1115  0.2662
 6294SOL    HW230516   1.978   4.100   2.293  0.2052  1.0241  1.5600
 6295SOL     OW30517   2.446   1.274  14.724  0.1559 -0.0203  0.0225
 6295SOL    HW130518   2.435   1.284  14.629  1.5258 -0.4682 -0.1903
 6295SOL    HW230519   2.520   1.334  14.740  1.3746 -1.9290  1.4404
 6296SOL     OW30520   0.697   1.730  14.570  0.2645  0.0062  0.5331
 6296SOL    HW130521   0.757   1.803  14.586  0.9003 -0.3310 -0.3212
 6296SOL    HW230522   0.754   1.673  14.520  0.1649  0.7792 -0.4582
 6297SOL     OW30523   1.909   2.763  10.548  0.4649  0.3347 -0.5384
 6297SOL    HW130524   1.886   2.721  10.630  3.3943  0.2101  0.2040
 6297SOL    HW230525   1.902   2.693  10.483 -1.8978 -0.9060  1.0314
 6298SOL     OW30526   4.474   0.994   2.139  0.4237  0.3035  0.0281
 6298SOL    HW130527   4.524   1.019   2.217  0.8247 -0.2219 -0.0599
 6298SOL    HW230528   4.535   0.942   2.087 -0.0589 -1.5581  1.3130
 6299SOL     OW30529   2.921   1.785   4.880  0.2079  0.2851 -0.2218
 6299SOL    HW130530   2.915   1.772   4.974 -2.2525  0.4236 -0.3533
 6299SOL    HW230531   2.842   1.745   4.845  1.0883 -1.9216  0.3564
 6300SOL     OW30532   4.083   4.436   2.500  0.0903 -0.3497  0.0661
 6300SOL    HW130533   4.136   4.356   2.506 -0.4787 -0.7069  0.2290
 6300SOL    HW230534   4.055   4.456   2.589 -1.3403  1.2183 -0.7412
 6301SOL     OW30535   3.787   1.589   4.668 -0.3347 -0.6585 -0.2148
 6301SOL    HW130536   3.841   1.619   4.741 -0.8494  0.6808 -0.3784
 6301SOL    HW230537   3.854   1.536   4.625 -1.2568 -1.3934 -0.7310
 6302SOL     OW30538   4.379   1.949   7.452  0.3568 -0.0995 -0.0725
 6302SOL    HW130539   4.394   1.859   7.425 -2.7757 -0.3026 -1.1481
 6302SOL    HW230540   4.457   1.988   7.412 -0.5328  1.8439  0.0924
 6303SOL     OW30541   1.571   2.208   9.308  0.6344  0.6621 -0.3665
 6303SOL    HW130542   1.555   2.140   9.373  0.9323 -0.1229 -1.1131
 6303SOL    HW230543   1.509   2.179   9.240 -0.6466  3.5869 -0.4323
 6304SOL     OW30544   3.354   2.943   1.328 -0.3833  0.2672  0.7378
 6304SOL    HW130545   3.411   3.006   1.372 -0.9543 -0.3739  2.4155
 6304SOL    HW230546   3.333   2.981   1.243  0.6421 -0.5856  0.0962
 6305SOL     OW30547   1.137   2.530   1.336  0.8792  0.1536  0.0561
 6305SOL    HW130548   1.152   2.515   1.242 -0.0108 -0.6294  0.0363
 6305SOL    HW230549   1.199   2.468   1.373  1.9125  1.1385 -0.0350
 6306SOL     OW30550   1.487   3.851   6.441 -0.3613  0.3236 -0.7303
 6306SOL    HW130551   1.416   3.884   6.497 -1.8648 -1.2333 -1.7423
 6306SOL    HW230552   1.431   3.845   6.364  0.4009  0.0602 -1.2608
 6307SOL     OW30553   2.474   0.722   1.204 -0.0286 -0.3013  0.6709
 6307SOL    HW130554   2.545   0.743   1.145 -0.3067  2.0504  1.1434
 6307SOL    HW230555   2.522   0.703   1.285  0.8310  1.4703  0.5675
 6308SOL     OW30556   1.396   3.353  12.301 -0.1272  0.0430 -0.4422
 6308SOL    HW130557   1.438   3.285  12.248  1.5535  1.0126 -0.3699
 6308SOL    HW230558   1.310   3.355  12.261 -1.1123 -1.0990  1.6271
 6309SOL     OW30559   3.423   1.713   5.416  0.5560 -0.0416 -0.0912
 6309SOL    HW130560   3.393   1.624   5.397  1.5741 -0.5020  0.4218
 6309SOL    HW230561   3.402   1.727   5.508 -1.7155 -2.2611 -0.2789
 6310SOL     OW30562   1.427   2.632   1.812 -0.1760 -0.0342 -0.2601
 6310SOL    HW130563   1.382   2.709   1.777 -0.5680 -0.6113 -1.0106
 6310SOL    HW230564   1.448   2.662   1.900 -0.1350 -0.6698 -0.0572
 6311SOL     OW30565   0.481   0.276   5.728  0.3052 -0.1043  0.2479
 6311SOL    HW130566   0.500   0.252   5.819  0.9946 -0.0795  0.1109
 6311SOL    HW230567   0.456   0.193   5.687  0.0002  0.2384 -0.2604
 6312SOL     OW30568   3.840   4.603  15.581  0.4978  0.5796 -0.0065
 6312SOL    HW130569   3.825   4.566  15.667  1.8483  0.7144  0.2847
 6312SOL    HW230570   3.875   4.530  15.531 -0.0900  0.6565 -0.5376
 6313SOL     OW30571   1.173   2.294  13.605  0.1816  0.2583 -0.6092
 6313SOL    HW130572   1.117   2.267  13.532  2.0233 -0.9964 -1.5875
 6313SOL    HW230573   1.262   2.293  13.568  0.1161  1.4898 -0.7853
 6314SOL     OW30574   1.080   4.715   6.617 -0.1156 -0.2330 -0.0868
 6314SOL    HW130575   1.175   4.708   6.611 -0.4055 -2.5336 -2.0906
 6314SOL    HW230576   1.060   0.002   6.526  0.4331 -0.2329 -0.2062
 6315SOL     OW30577   4.650   2.837   5.933 -0.4091 -0.1063 -0.5868
 6315SOL    HW130578   4.676   2.745   5.928 -0.0256 -0.0578  0.4646
 6315SOL    HW230579   4.644   2.846   6.028  0.0868 -0.3343 -0.5324
 6316SOL     OW30580   3.133   0.369   6.744 -0.5015  0.1777 -0.0192
 6316SOL    HW130581   3.155   0.276   6.749 -1.0886  0.0779  0.6422
 6316SOL    HW230582   3.151   0.390   6.836 -0.3502 -1.9933  0.4569
 6317SOL     OW30583   2.564   2.069   5.646 -0.2168  0.3563  0.3457
 6317SOL    HW130584   2.651   2.089   5.612  0.3467  0.5198  1.8681
 6317SOL    HW230585   2.547   2.154   5.686  0.4065  0.7136 -0.1406
 6318SOL     OW30586   4.712   3.445   2.032  0.3142 -0.1772  0.2393
 6318SOL    HW130587   4.692   3.354   2.053 -3.4228  0.2728 -1.4844
 6318SOL    HW230588   4.714   3.451   1.937  0.2486  0.1459  0.2574
 6319SOL     OW30589   2.075   3.130   5.945 -0.7861  0.0730 -0.1325
 6319SOL    HW130590   2.035   3.074   6.012 -0.6273  2.8093  2.2336
 6319SOL    HW230591   2.115   3.060   5.893 -2.6126 -1.4384  0.5070
 6320SOL     OW30592   0.750   1.169   3.376 -0.9315 -0.7849  0.4845
 6320SOL    HW130593   0.735   1.077   3.354  0.1775 -0.8520  0.0250
 6320SOL    HW230594   0.762   1.160   3.471  0.2103 -0.3105  0.3890
 6321SOL     OW30595   0.471   4.690   7.880  0.4881 -0.4085  0.6761
 6321SOL    HW130596   0.546   4.651   7.835  0.5324  1.7615 -1.1568
 6321SOL    HW230597   0.406   4.707   7.812  0.3401 -1.0493  0.6645
 6322SOL     OW30598   0.395   0.861   6.602  0.0388  0.1901 -0.4753
 6322SOL    HW130599   0.306   0.889   6.583  0.0233 -0.6501 -1.6702
 6322SOL    HW230600   0.420   0.833   6.514 -0.6499  0.7888 -0.8466
 6323SOL     OW30601   4.237   3.740   5.867 -0.6804  0.3013 -0.2511
 6323SOL    HW130602   4.300   3.802   5.831 -1.1860  0.8439 -0.1903
 6323SOL    HW230603   4.294   3.670   5.900 -0.1686  0.1658 -1.4103
 6324SOL     OW30604   1.230   0.275   6.568 -0.8375  0.1415 -0.1583
 6324SOL    HW130605   1.275   0.194   6.593  0.1545 -0.0041 -2.4691
 6324SOL    HW230606   1.176   0.244   6.496 -0.4568 -2.4165  0.6437
 6325SOL     OW30607   2.022   0.970   5.888 -0.3427 -0.4896  0.3625
 6325SOL    HW130608   2.107   0.931   5.906 -1.4423 -2.4571  1.2393
 6325SOL    HW230609   2.028   0.963   5.792  1.9334  0.8823  0.3988
 6326SOL     OW30610   0.600   2.334   2.391 -0.1411  0.0951  0.2780
 6326SOL    HW130611   0.558   2.358   2.308  0.2022 -1.9559 -0.4779
 6326SOL    HW230612   0.638   2.254   2.355  1.0394  0.6214  0.3497
 6327SOL     OW30613   1.905   1.234   3.876  0.2656 -0.4361  0.2399
 6327SOL    HW130614   1.975   1.278   3.828 -0.1025 -0.0224  0.0831
 6327SOL    HW230615   1.837   1.302   3.881  1.2560  0.5470  0.3479
 6328SOL     OW30616   2.215   1.841   7.768  0.2790  1.1278 -0.1781
 6328SOL    HW130617   2.308   1.818   7.765  0.3792  1.2801  2.0851
 6328SOL    HW230618   2.183   1.774   7.707  1.3177 -0.2155  0.7256
 6329SOL     OW30619   4.229   1.473  10.642 -0.0159  0.3821 -0.5057
 6329SOL    HW130620   4.227   1.444  10.550 -2.0250 -0.7614 -0.1090
 6329SOL    HW230621   4.260   1.563  10.629  0.5564  0.5625  2.1138
 6330SOL     OW30622   3.884   1.904   3.720 -0.1453  0.4255 -0.4962
 6330SOL    HW130623   3.871   1.953   3.801 -0.2573  0.8388 -0.7593
 6330SOL    HW230624   3.883   1.816   3.758  0.3638 -0.0917 -1.6637
 6331SOL     OW30625   4.543   1.984   5.018  0.2623  0.2611 -0.8833
 6331SOL    HW130626   4.540   2.078   5.000 -0.3066 -0.2183 -3.3060
 6331SOL    HW230627   4.635   1.970   5.042 -0.4017  0.5104  1.8377
 6332SOL     OW30628   2.040   1.358   3.142 -0.0129 -0.6099  0.0638
 6332SOL    HW130629   2.090   1.440   3.141 -1.8595  0.5219  1.5038
 6332SOL    HW230630   2.049   1.330   3.233  0.5728 -2.4551 -0.5820
 6333SOL     OW30631   2.572   1.152   9.338  0.1847  0.3234 -0.3911
 6333SOL    HW130632   2.664   1.167   9.314  0.5271 -1.3405 -0.0783
 6333SOL    HW230633   2.529   1.218   9.283  0.2641  0.0940 -0.7347
 6334SOL     OW30634   4.062   0.126   3.950 -0.2352 -0.8123  0.2510
 6334SOL    HW130635   4.065   0.185   3.875 -0.4299 -1.9041 -0.6193
 6334SOL    HW230636   4.022   0.047   3.912 -0.5524 -0.4069 -0.2516
 6335SOL     OW30637   1.737   3.678   2.011  0.4740 -0.2841  0.0644
 6335SOL    HW130638   1.719   3.759   1.964 -2.1607 -2.3739 -2.5421
 6335SOL    HW230639   1.828   3.695   2.033 -0.0678  1.0811  1.2625
 6336SOL     OW30640   0.711   0.167  15.620  0.6180  0.4712 -0.5579
 6336SOL    HW130641   0.801   0.146  15.594 -0.2978 -1.4747 -2.1431
 6336SOL    HW230642   0.711   0.262  15.611  0.0028  0.4989 -0.2407
 6337SOL     OW30643   2.460   0.509   4.526 -0.1598  0.0642 -0.1181
 6337SOL    HW130644   2.551   0.534   4.509 -0.2703  1.3891  1.2101
 6337SOL    HW230645   2.453   0.533   4.618  0.1347 -0.1072 -0.0503
 6338SOL     OW30646   4.291   1.344   4.701 -0.1565 -0.5906 -0.0115
 6338SOL    HW130647   4.296   1.428   4.746 -1.0152 -0.0776 -0.8827
 6338SOL    HW230648   4.196   1.339   4.690 -0.1088 -0.3884 -0.5024
 6339SOL     OW30649   4.010   0.072   8.623 -0.3063 -0.0248 -0.3089
 6339SOL    HW130650   4.045   0.156   8.593 -2.0902  1.0381  0.5564
 6339SOL    HW230651   3.918   0.092   8.640  0.3236  1.3218  1.5269
 6340SOL     OW30652   2.676   3.878   6.311 -0.1815  0.0748 -0.1639
 6340SOL    HW130653   2.684   3.939   6.238  2.4184 -0.0816 -0.0022
 6340SOL    HW230654   2.762   3.839   6.326 -0.0497  0.2661 -0.4460
 6341SOL     OW30655   1.353   0.208   5.775  0.3311 -0.0199 -0.1295
 6341SOL    HW130656   1.387   0.189   5.862  0.7697 -0.0586 -0.3108
 6341SOL    HW230657   1.336   0.301   5.789  0.1792  0.0400 -0.6939
 6342SOL     OW30658   0.000   4.732   5.041 -0.0392  0.1305  0.2336
 6342SOL    HW130659   0.085   0.027   5.074  0.1848 -1.1972  0.8411
 6342SOL    HW230660   4.690   0.078   5.065 -1.1929 -0.5996  0.5194
 6343SOL     OW30661   0.553   3.145   5.743  0.2014  0.3241  0.2302
 6343SOL    HW130662   0.629   3.126   5.799  0.2279  4.1006  1.5008
 6343SOL    HW230663   0.500   3.174   5.818 -0.7017 -1.2682  0.1882
 6344SOL     OW30664   4.577   1.451  12.495 -0.5199 -0.0844 -0.1336
 6344SOL    HW130665   4.590   1.436  12.401  0.5543  0.8844 -0.1402
 6344SOL    HW230666   4.586   1.546  12.494 -1.4798  0.0414  3.1284
 6345SOL     OW30667   3.935   4.233  11.923  0.8469  0.2001 -0.2181
 6345SOL    HW130668   4.004   4.215  11.859 -0.4267 -0.6982 -1.3277
 6345SOL    HW230669   3.868   4.262  11.862  2.1322 -0.8585 -2.1236
 6346SOL     OW30670   1.183   3.456   0.140 -0.2628  0.3127  0.3877
 6346SOL    HW130671   1.235   3.429   0.215 -0.6770 -1.6686 -0.0418
 6346SOL    HW230672   1.124   3.382   0.124  1.6635 -1.9227  3.7960
 6347SOL     OW30673   3.031   4.728  15.606  0.0078  0.3145 -0.2679
 6347SOL    HW130674   2.963   4.661  15.605 -1.2350  1.6074 -3.8399
 6347SOL    HW230675   3.085   4.707  15.683  1.0175 -0.0759 -1.0772
 6348SOL     OW30676   3.363   4.433  17.405  0.5542 -0.1880 -0.1390
 6348SOL    HW130677   3.379   4.527  17.397  0.3697 -0.1007  0.5391
 6348SOL    HW230678   3.368   4.407  17.313  1.0138 -0.2502 -0.0962
 6349SOL     OW30679   2.456   0.940   6.953  0.2346  0.5275 -0.5468
 6349SOL    HW130680   2.446   0.847   6.973 -0.7022  0.8814  0.6446
 6349SOL    HW230681   2.392   0.984   7.010 -0.3003 -1.8717  0.7229
 6350SOL     OW30682   1.748   1.270   7.694 -0.5871 -0.3716  0.5454
 6350SOL    HW130683   1.794   1.202   7.645  0.9798 -0.3221  1.9271
 6350SOL    HW230684   1.789   1.275   7.781 -1.9830 -2.1540  1.3003
 6351SOL     OW30685   4.465   2.773   5.512 -0.1254 -0.0416 -0.1358
 6351SOL    HW130686   4.461   2.817   5.597 -2.8775 -0.1826 -0.2035
 6351SOL    HW230687   4.398   2.705   5.521 -0.1582 -0.0157 -0.1837
 6352SOL     OW30688   2.035   1.428  15.731  0.0390  0.1658  0.1052
 6352SOL    HW130689   2.125   1.433  15.764  0.7642  1.1340 -2.0670
 6352SOL    HW230690   2.005   1.355  15.785 -1.3030 -1.2929 -2.6446
 6353SOL     OW30691   2.883   2.016   6.962 -0.3862  0.3432  0.0755
 6353SOL    HW130692   2.971   1.986   6.987  0.0185  2.6351  1.4327
 6353SOL    HW230693   2.823   1.969   7.019 -0.1619  0.2901  0.2703
 6354SOL     OW30694   4.655   0.737   6.108  0.3752 -0.8084 -0.3295
 6354SOL    HW130695   4.662   0.719   6.201  3.0243 -0.0414 -0.3917
 6354SOL    HW230696   4.705   0.817   6.090  0.5508 -0.5317  1.4440
 6355SOL     OW30697   3.698   1.393   9.969 -0.1187 -0.4308  0.0032
 6355SOL    HW130698   3.766   1.413  10.033  1.0829  1.0898 -1.7573
 6355SOL    HW230699   3.661   1.309   9.997 -0.2876 -0.1872  0.4977
 6356SOL     OW30700   2.563   0.059  10.313 -0.2832 -0.0769 -0.0560
 6356SOL    HW130701   2.597   0.146  10.336 -0.3436 -0.0641 -0.0166
 6356SOL    HW230702   2.489   0.080  10.256 -0.8238  0.0069  0.6788
 6357SOL     OW30703   3.300   2.944   4.224  0.1006  0.5670  0.4567
 6357SOL    HW130704   3.252   2.933   4.306  0.5838 -0.1651  0.6407
 6357SOL    HW230705   3.280   2.858   4.188  1.3508  0.7556 -0.6933
 6358SOL     OW30706   1.606   3.272   2.223  0.3531  0.5985 -0.5617
 6358SOL    HW130707   1.673   3.249   2.159  0.6895 -1.5441  0.5677
 6358SOL    HW230708   1.577   3.355   2.185  0.5326  0.8206 -0.2136
 6359SOL     OW30709   4.043   0.205  16.342  0.2012  0.0907 -0.0315
 6359SOL    HW130710   4.004   0.279  16.295  0.8761  0.4591 -0.0197
 6359SOL    HW230711   4.053   0.246  16.429 -0.8070  0.0732  0.0917
 6360SOL     OW30712   4.102   1.320   9.991  0.3330 -0.6033  0.2380
 6360SOL    HW130713   4.160   1.395   9.979 -0.8716  0.1694 -0.7302
 6360SOL    HW230714   4.026   1.352  10.040 -0.1003 -0.6920 -0.3652
 6361SOL     OW30715   1.399   1.604   5.604 -0.1824 -0.3028 -0.5330
 6361SOL    HW130716   1.396   1.649   5.689  0.8819  0.5125 -0.9355
 6361SOL    HW230717   1.376   1.680   5.551 -1.3138  0.9334  1.7270
 6362SOL     OW30718   1.252   0.428   7.443 -0.5238 -0.4050 -0.3627
 6362SOL    HW130719   1.175   0.468   7.482  1.4711  2.2235  0.8715
 6362SOL    HW230720   1.207   0.389   7.368  1.0453 -1.0214 -0.9927
 6363SOL     OW30721   4.674   1.174   3.511 -0.0283 -0.4905 -0.3012
 6363SOL    HW130722   4.613   1.192   3.583 -2.1934  0.2185 -2.3151
 6363SOL    HW230723   4.629   1.099   3.471  2.9988 -0.5954 -3.4570
 6364SOL     OW30724   1.502   0.977   6.516 -0.2840 -0.2341  0.7349
 6364SOL    HW130725   1.515   0.974   6.421  1.8078 -0.2149  1.0020
 6364SOL    HW230726   1.502   1.073   6.524 -0.2591 -0.1435 -0.3349
 6365SOL     OW30727   4.190   0.792  15.006 -0.3895  0.4272 -0.4390
 6365SOL    HW130728   4.138   0.861  14.966 -0.9612  0.5321  0.4676
 6365SOL    HW230729   4.169   0.731  14.935 -2.5925  1.2846 -0.5114
 6366SOL     OW30730   1.266   1.017   0.086 -0.3037  0.0140  0.0375
 6366SOL    HW130731   1.282   0.979  17.737  1.1409  3.9405 -1.3770
 6366SOL    HW230732   1.342   0.992   0.139 -1.0531 -4.2927 -0.9180
 6367SOL     OW30733   4.510   1.240   7.611 -0.3204 -0.3834 -0.1413
 6367SOL    HW130734   4.529   1.221   7.519  0.1201 -1.4204  0.1582
 6367SOL    HW230735   4.586   1.295   7.629  1.5846 -1.9736 -3.2145
 6368SOL     OW30736   1.883   3.977   3.105 -0.2334  0.5500  0.5016
 6368SOL    HW130737   1.967   3.944   3.137 -0.3754  1.0038  1.3222
 6368SOL    HW230738   1.900   4.068   3.081  0.9589  0.1455 -0.1707
 6369SOL     OW30739   3.977   4.603   3.864 -0.7999 -0.5264  0.1624
 6369SOL    HW130740   3.895   4.591   3.815 -0.7540 -0.1173 -0.0144
 6369SOL    HW230741   3.984   4.515   3.900  0.4689 -0.1701  0.7561
 6370SOL     OW30742   0.887   2.310  13.004 -0.1004  0.4565  0.3252
 6370SOL    HW130743   0.952   2.274  12.942 -1.7151 -0.1425 -1.0164
 6370SOL    HW230744   0.810   2.328  12.950 -0.7142 -2.1975  0.3120
 6371SOL     OW30745   2.852   3.464  16.762 -0.0011  0.0403  0.0325
 6371SOL    HW130746   2.800   3.543  16.750  2.2268  1.6657  0.8614
 6371SOL    HW230747   2.791   3.402  16.802 -0.7290  0.7611  0.0258
 6372SOL     OW30748   1.064   4.557   8.261  0.2052 -0.2474  0.2629
 6372SOL    HW130749   1.067   4.497   8.336 -1.1950 -1.7790 -0.8871
 6372SOL    HW230750   0.974   4.558   8.229  0.2533 -0.4807  0.1175
 6373SOL     OW30751   3.880   4.608  15.148  0.0769 -0.0170 -0.2181
 6373SOL    HW130752   3.887   4.593  15.242 -0.4438  2.2310  0.1934
 6373SOL    HW230753   3.818   4.542  15.120  1.1065 -1.5463  1.1381
 6374SOL     OW30754   2.972   1.794   9.352 -0.0921  0.0887 -0.8235
 6374SOL    HW130755   3.004   1.885   9.352 -0.6314  0.2803 -1.1162
 6374SOL    HW230756   2.895   1.808   9.407  0.4071  1.6828 -0.5066
 6375SOL     OW30757   2.180   1.965  11.830  0.1769  0.0294  0.2482
 6375SOL    HW130758   2.183   1.870  11.824  3.1549  0.1495 -0.2718
 6375SOL    HW230759   2.200   1.988  11.739 -4.3223 -0.3726 -0.8102
 6376SOL     OW30760   2.835   3.075   7.216 -0.1088 -0.0334 -0.4006
 6376SOL    HW130761   2.920   3.113   7.194  1.4790 -2.4773  1.4637
 6376SOL    HW230762   2.842   3.049   7.307  3.6782 -1.8605 -1.2071
 6377SOL     OW30763   3.641   1.558  11.715  0.5302 -0.4769 -0.3176
 6377SOL    HW130764   3.724   1.576  11.671  0.3442 -0.5184 -0.6929
 6377SOL    HW230765   3.654   1.608  11.795  1.2478  0.6993 -1.1640
 6378SOL     OW30766   3.619   0.199  14.114  0.0456 -0.2702  0.0984
 6378SOL    HW130767   3.701   0.194  14.065 -0.4161  1.9729 -0.9230
 6378SOL    HW230768   3.591   0.290  14.107 -1.5518 -0.8878 -1.7635
 6379SOL     OW30769   4.204   4.613   9.085 -0.1269  0.4018  0.2682
 6379SOL    HW130770   4.134   4.547   9.085 -0.7441  1.0569  1.8040
 6379SOL    HW230771   4.269   4.569   9.139 -0.4562 -0.1014  0.2601
 6380SOL     OW30772   3.272   0.217   1.489 -0.3494 -0.2369 -0.3087
 6380SOL    HW130773   3.356   0.187   1.454  0.4538 -2.8511  3.8715
 6380SOL    HW230774   3.307   0.283   1.550 -2.4902  0.7852 -0.1964
 6381SOL     OW30775   2.632   4.319   3.197  0.3323 -0.4901  0.7373
 6381SOL    HW130776   2.572   4.264   3.247  0.3291  0.7122  2.0597
 6381SOL    HW230777   2.567   4.357   3.138 -0.6705 -0.0286  2.1376
 6382SOL     OW30778   1.806   1.524   3.585 -0.1042  0.1892 -0.1085
 6382SOL    HW130779   1.803   1.573   3.502 -0.6717 -0.8254 -0.6871
 6382SOL    HW230780   1.832   1.437   3.555 -0.6549 -0.5415  1.5822
 6383SOL     OW30781   0.814   4.673   4.214  0.1202  0.4286 -0.4523
 6383SOL    HW130782   0.775   4.733   4.278 -0.5003 -0.1662 -0.2723
 6383SOL    HW230783   0.873   4.620   4.267 -0.7349  0.8772  0.9415
 6384SOL     OW30784   2.485   2.485  16.265  0.4479  0.3976 -0.0113
 6384SOL    HW130785   2.532   2.486  16.182 -1.4274  1.4896 -1.0599
 6384SOL    HW230786   2.509   2.569  16.305  2.1236  1.0212 -2.3269
 6385SOL     OW30787   4.449   0.557   4.676  0.4800  0.6604 -0.1193
 6385SOL    HW130788   4.363   0.554   4.719 -0.8004 -0.2476 -2.7531
 6385SOL    HW230789   4.444   0.504   4.596  2.1113 -2.3990  1.7818
 6386SOL     OW30790   2.185   3.227   2.711  0.0417 -0.1411  0.4276
 6386SOL    HW130791   2.124   3.300   2.721 -1.2161 -1.2250  0.7433
 6386SOL    HW230792   2.265   3.271   2.683  0.5898 -0.4989  1.4496
 6387SOL     OW30793   3.981   3.318   3.311 -0.3933  0.3848 -0.3800
 6387SOL    HW130794   3.906   3.299   3.368 -1.9046  3.0688 -1.4834
 6387SOL    HW230795   3.971   3.412   3.295 -0.2753  0.7775  1.8264
 6388SOL     OW30796   1.175   1.043   1.902 -0.2761  0.3918  0.0617
 6388SOL    HW130797   1.121   1.028   1.824 -0.9669  1.2048  0.3752
 6388SOL    HW230798   1.112   1.086   1.960 -0.5766 -0.7723  0.5983
 6389SOL     OW30799   0.272   0.143   4.232  0.2734 -0.4552  0.4000
 6389SOL    HW130800   0.205   0.208   4.250  0.6695 -0.2226  1.0515
 6389SOL    HW230801   0.224   0.063   4.252 -1.0710  0.6448  1.5854
 6390SOL     OW30802   1.639   4.014  11.311 -0.2035  0.0784 -0.3164
 6390SOL    HW130803   1.669   3.954  11.242  1.5480 -1.1077  1.4812
 6390SOL    HW230804   1.576   4.063  11.259 -2.2345 -2.7660 -0.5212
 6391SOL     OW30805   3.312   3.046  15.830  0.2213  0.4965 -0.2971
 6391SOL    HW130806   3.329   2.996  15.750  0.4738  0.6883 -0.3641
 6391SOL    HW230807   3.260   3.114  15.786 -2.2069 -2.4341 -1.9212
 6392SOL     OW30808   2.281   1.280   5.858 -0.3337  0.0506  0.0821
 6392SOL    HW130809   2.323   1.292   5.773  0.6188 -0.1015  0.5298
 6392SOL    HW230810   2.200   1.329   5.845 -0.2893  0.0434 -0.2258
 6393SOL     OW30811   3.109   2.986  14.903 -0.3304 -0.9654 -0.2458
 6393SOL    HW130812   3.110   2.933  14.983  3.5366 -2.3489 -1.1949
 6393SOL    HW230813   3.015   3.006  14.902 -0.2936 -0.7083  1.0169
 6394SOL     OW30814   1.547   4.545   4.041  0.5828 -0.3680 -0.2175
 6394SOL    HW130815   1.501   4.514   4.119 -1.5101  1.6859 -0.6455
 6394SOL    HW230816   1.534   4.466   3.989 -1.8476 -1.0221  1.4140
 6395SOL     OW30817   2.107   2.704  11.172 -0.1568 -0.3084  0.3059
 6395SOL    HW130818   2.114   2.749  11.088  1.5444 -0.3502  0.4189
 6395SOL    HW230819   2.166   2.759  11.224 -1.8538  0.5189  1.3197
 6396SOL     OW30820   3.839   4.094  11.551 -0.8084  0.6584 -0.2005
 6396SOL    HW130821   3.890   4.013  11.554 -0.7437  0.6308 -2.0498
 6396SOL    HW230822   3.773   4.079  11.618 -0.2946 -1.1980 -0.1057
 6397SOL     OW30823   2.096   3.190   5.281  0.0464 -0.5014 -0.4605
 6397SOL    HW130824   2.058   3.278   5.283  2.2245  0.4574 -1.1149
 6397SOL    HW230825   2.179   3.205   5.237 -0.1127  0.5159 -0.4224
 6398SOL     OW30826   0.777   0.634   4.425  0.3826 -0.1706 -0.0069
 6398SOL    HW130827   0.813   0.687   4.496  0.7974 -1.0361  0.4210
 6398SOL    HW230828   0.779   0.706   4.362  1.3775 -1.6731 -1.6981
 6399SOL     OW30829   2.704   4.233   7.340  0.2342 -0.9424 -0.3624
 6399SOL    HW130830   2.680   4.324   7.359  3.3154 -0.1742 -0.1127
 6399SOL    HW230831   2.621   4.187   7.352 -0.9798  1.1088 -0.9045
 6400SOL     OW30832   1.242   3.948   4.441 -0.6197 -0.5247 -0.1894
 6400SOL    HW130833   1.318   3.967   4.495 -1.5283  0.5769  0.6965
 6400SOL    HW230834   1.188   3.906   4.507 -3.1662  0.8639 -1.3833
 6401SOL     OW30835   1.470   3.027   3.330 -0.7259  0.1503 -0.4212
 6401SOL    HW130836   1.408   3.053   3.261 -0.2106  0.2378 -0.8536
 6401SOL    HW230837   1.500   3.114   3.356 -0.2397 -0.7208  1.9123
 6402SOL     OW30838   1.622   1.100  16.136 -0.3662 -1.0510  0.5923
 6402SOL    HW130839   1.557   1.099  16.207 -1.1554 -2.2145 -0.1525
 6402SOL    HW230840   1.586   1.169  16.080  0.8848  0.3231  1.4811
 6403SOL     OW30841   2.976   3.435   1.050  0.4826  0.8224 -0.1080
 6403SOL    HW130842   3.071   3.437   1.034  0.8764  0.3690  2.1985
 6403SOL    HW230843   2.958   3.528   1.037 -1.0663  0.4088 -0.8296
 6404SOL     OW30844   3.270   0.740   8.196 -0.0000 -0.0135  0.0172
 6404SOL    HW130845   3.289   0.716   8.287 -1.1089 -0.6508  0.0743
 6404SOL    HW230846   3.180   0.707   8.195 -0.0669  0.1893 -0.7048
 6405SOL     OW30847   4.068   1.384   6.342  0.2373  0.6987  0.3435
 6405SOL    HW130848   4.153   1.410   6.307  0.3695  0.2460  0.3294
 6405SOL    HW230849   4.010   1.443   6.294 -1.7541 -1.4328  0.0748
 6406SOL     OW30850   0.531   1.440  10.220 -0.4019  0.2234 -0.2914
 6406SOL    HW130851   0.611   1.470  10.264  0.3261 -1.4859 -0.4448
 6406SOL    HW230852   0.511   1.506  10.155 -0.8020  1.7604  1.3779
 6407SOL     OW30853   4.193   2.009   2.893  0.3376  0.3431  0.3202
 6407SOL    HW130854   4.208   2.101   2.916 -3.1874  1.6199 -2.3584
 6407SOL    HW230855   4.101   2.004   2.920 -0.1344  0.3895 -1.2431
 6408SOL     OW30856   0.112   0.307  16.694 -0.3815 -0.1931 -0.2205
 6408SOL    HW130857   0.114   0.262  16.610 -0.0882 -0.6704  0.0406
 6408SOL    HW230858   0.180   0.373  16.688 -0.1247 -0.4192  0.1928
 6409SOL     OW30859   3.832   2.420   1.236 -0.8231  0.0284 -0.1179
 6409SOL    HW130860   3.770   2.401   1.306  1.0937 -0.1226  1.5332
 6409SOL    HW230861   3.801   2.354   1.174 -1.9043  1.1172 -0.7257
 6410SOL     OW30862   2.630   3.220   9.587 -0.1739 -0.2553  0.2331
 6410SOL    HW130863   2.700   3.233   9.651 -1.0718  1.3822  0.8791
 6410SOL    HW230864   2.559   3.269   9.628  0.0425 -0.1255  0.4543
 6411SOL     OW30865   2.805   1.032  17.671  0.0523  0.0118  0.2200
 6411SOL    HW130866   2.785   0.952  17.721 -0.4930  0.0751  0.1082
 6411SOL    HW230867   2.790   1.004  17.581 -2.2001  1.1864  0.2223
 6412SOL     OW30868   0.707   2.651   0.786 -0.0422 -0.2135 -0.5681
 6412SOL    HW130869   0.764   2.619   0.715  1.5062 -0.8235  0.9506
 6412SOL    HW230870   0.665   2.570   0.815 -0.7986 -0.2814 -1.8461
 6413SOL     OW30871   0.714   3.474   0.546  0.0809  0.6549 -0.3547
 6413SOL    HW130872   0.635   3.523   0.567  1.1060  1.6668  1.1221
 6413SOL    HW230873   0.766   3.459   0.626  1.5080 -1.5213 -1.6724
 6414SOL     OW30874   4.690   1.959   4.148  0.2546  0.2520  0.4848
 6414SOL    HW130875   4.720   1.921   4.066  1.0115  1.0321  0.3964
 6414SOL    HW230876   0.007   2.039   4.152 -0.1314  0.5694 -0.9510
 6415SOL     OW30877   4.297   2.227   5.741  0.6196  0.2385 -0.6477
 6415SOL    HW130878   4.380   2.218   5.787 -1.0687 -2.2922  1.9049
 6415SOL    HW230879   4.274   2.319   5.749  1.1954  0.0280  3.5655
 6416SOL     OW30880   0.402   3.217   0.706 -0.2583 -0.2693 -0.0744
 6416SOL    HW130881   0.450   3.294   0.738  1.0805 -0.7134 -0.9834
 6416SOL    HW230882   0.423   3.152   0.772  1.4362  0.0193 -0.3158
 6417SOL     OW30883   4.350   0.014   2.012 -0.8616  1.0915 -0.5378
 6417SOL    HW130884   4.275   4.712   2.058 -1.0805  1.9050 -0.2281
 6417SOL    HW230885   4.362   4.701   1.930 -0.6592  0.0300  0.1181
 6418SOL     OW30886   3.945   0.237   6.646  0.7667  0.3406 -0.3147
 6418SOL    HW130887   4.014   0.240   6.713  0.9505 -1.5847 -0.4124
 6418SOL    HW230888   3.891   0.308   6.680  0.9073  1.2738 -2.0499
 6419SOL     OW30889   1.726   0.713   3.240  0.5744  0.4125  0.1986
 6419SOL    HW130890   1.693   0.645   3.182  3.7413 -0.8245 -0.1750
 6419SOL    HW230891   1.784   0.761   3.179  1.1939  1.2049  1.4061
 6420SOL     OW30892   1.426   2.614  17.095  0.4380 -0.5505 -0.3778
 6420SOL    HW130893   1.357   2.576  17.041  2.7791 -0.3696 -3.4817
 6420SOL    HW230894   1.432   2.557  17.172 -0.0746  2.1029  1.6396
 6421SOL     OW30895   4.088   2.697  10.086 -0.3984  0.3618 -0.1561
 6421SOL    HW130896   4.034   2.619  10.102  0.0813  0.1860  0.6299
 6421SOL    HW230897   4.108   2.725  10.176  0.0465  0.2761 -0.2290
 6422SOL     OW30898   3.358   1.936  17.712 -0.1173 -0.4101 -0.3350
 6422SOL    HW130899   3.438   1.974   0.011 -0.2427  0.8522 -1.3424
 6422SOL    HW230900   3.297   1.990   0.024  2.5305  1.2866  1.0940
 6423SOL     OW30901   2.350   3.573   3.724  0.5306  0.4643  0.9557
 6423SOL    HW130902   2.371   3.666   3.713 -1.5939  1.1331  2.4220
 6423SOL    HW230903   2.276   3.576   3.786  0.7153  1.7384  1.1276
 6424SOL     OW30904   1.461   1.506   9.596  0.0585  0.2639  0.6333
 6424SOL    HW130905   1.529   1.545   9.540  0.1328 -2.0674 -0.8874
 6424SOL    HW230906   1.384   1.513   9.540  0.7762  1.3853 -0.2053
 6425SOL     OW30907   3.881   3.768   5.538 -0.2937  0.0960 -0.6517
 6425SOL    HW130908   3.811   3.707   5.559 -0.7245  0.5389 -0.8163
 6425SOL    HW230909   3.926   3.773   5.623 -0.9515  0.4587 -0.3247
 6426SOL     OW30910   0.691   1.898  15.205  0.2958 -0.2104 -0.8582
 6426SOL    HW130911   0.778   1.880  15.167 -0.7931 -3.5079 -1.8289
 6426SOL    HW230912   0.671   1.832  15.271  0.4686  1.4621  0.8375
 6427SOL     OW30913   3.334   4.228   8.880  0.3246  0.2051  0.4093
 6427SOL    HW130914   3.369   4.224   8.791 -1.4330  2.3160 -0.3937
 6427SOL    HW230915   3.268   4.160   8.871  0.9614 -0.5033  1.1383
 6428SOL     OW30916   2.536   0.536   9.512 -0.0712  0.6351 -0.7305
 6428SOL    HW130917   2.601   0.542   9.442 -1.4449  0.6920 -2.0165
 6428SOL    HW230918   2.456   0.580   9.483 -0.3900  0.4544 -0.1232
 6429SOL     OW30919   1.760   0.296   1.685 -0.0428 -0.0620  0.8332
 6429SOL    HW130920   1.741   0.203   1.698  0.9023 -0.3537  0.1320
 6429SOL    HW230921   1.794   0.292   1.596 -0.7964 -0.5057  0.5559
 6430SOL     OW30922   4.003   3.291   4.251 -0.5447 -0.0391 -0.1729
 6430SOL    HW130923   4.074   3.286   4.315 -1.8711 -1.1849  1.1978
 6430SOL    HW230924   3.975   3.382   4.265  1.0539  0.7853 -2.3700
 6431SOL     OW30925   2.773   3.666   6.061  0.5272 -0.4036  0.1361
 6431SOL    HW130926   2.716   3.601   6.101 -0.5952  0.8425  0.5721
 6431SOL    HW230927   2.801   3.700   6.146  1.1694 -1.7019  0.4446
 6432SOL     OW30928   2.895   0.118   0.473 -0.1029  0.4677  0.2636
 6432SOL    HW130929   2.882   0.035   0.519  1.9609  1.1096  2.0509
 6432SOL    HW230930   2.817   0.119   0.419 -0.0838 -1.3518  0.2123
 6433SOL     OW30931   1.542   3.805   2.869  0.5687 -0.7209 -0.6415
 6433SOL    HW130932   1.505   3.866   2.805  1.4605 -1.1636 -1.5849
 6433SOL    HW230933   1.588   3.865   2.928  1.8955 -0.7445 -1.6532
 6434SOL     OW30934   0.367   3.465   4.039  0.6710 -0.1418 -0.0775
 6434SOL    HW130935   0.422   3.400   3.994 -0.5577 -0.9428 -0.4368
 6434SOL    HW230936   0.287   3.414   4.049  0.6911 -0.1183  0.1948
 6435SOL     OW30937   4.286   0.457   7.548  0.2983  0.3013 -0.9166
 6435SOL    HW130938   4.266   0.364   7.536 -4.8974  1.3401 -0.1214
 6435SOL    HW230939   4.204   0.479   7.591  0.2559 -1.5018 -0.0657
 6436SOL     OW30940   0.467   3.183   0.134  0.2240 -0.1447 -0.3877
 6436SOL    HW130941   0.519   3.209   0.058  1.8887 -1.6242  0.2424
 6436SOL    HW230942   0.522   3.209   0.208 -0.8437 -1.8376  1.0299
 6437SOL     OW30943   4.174   0.820   3.440 -0.9834 -0.4262 -0.1325
 6437SOL    HW130944   4.192   0.913   3.428 -0.5972 -0.3524  0.9889
 6437SOL    HW230945   4.082   0.796   3.423 -1.2903  1.7013 -1.4331
 6438SOL     OW30946   1.619   2.421  14.624 -0.5378 -0.3583 -0.2807
 6438SOL    HW130947   1.640   2.392  14.713 -2.2375 -0.5018  0.0690
 6438SOL    HW230948   1.666   2.503  14.617 -1.7851  0.4740  1.0093
 6439SOL     OW30949   0.259   4.023  10.159  0.4878  0.1970  0.4066
 6439SOL    HW130950   0.210   4.054  10.236 -0.0631  0.1562  0.0705
 6439SOL    HW230951   0.349   4.048  10.179  0.9522 -0.8167 -0.4080
 6440SOL     OW30952   4.262   1.802   4.327  0.7523 -0.5422 -0.5548
 6440SOL    HW130953   4.306   1.819   4.244  2.3222  0.4850  0.4816
 6440SOL    HW230954   4.266   1.707   4.322  0.8835 -0.6160  0.9834
 6441SOL     OW30955   2.197   1.006   2.144 -0.2630  0.4837  0.5038
 6441SOL    HW130956   2.150   1.090   2.147 -0.9806  0.0325  1.9431
 6441SOL    HW230957   2.143   0.950   2.088 -1.5430 -0.1862  2.4399
 6442SOL     OW30958   4.556   1.245  12.679 -0.1014 -0.4182  0.5058
 6442SOL    HW130959   4.576   1.327  12.634 -0.8163  0.0562  1.0590
 6442SOL    HW230960   4.521   1.190  12.610 -1.2975 -0.8847  1.4944
 6443SOL     OW30961   2.936   3.279   6.907 -0.3176 -0.1332 -0.2171
 6443SOL    HW130962   3.022   3.239   6.894 -0.1401 -0.0522  0.6585
 6443SOL    HW230963   2.943   3.369   6.940 -0.9989 -0.4662  0.8445
 6444SOL     OW30964   0.153   0.789   7.310 -0.4033 -0.1466  0.2261
 6444SOL    HW130965   0.228   0.844   7.333 -1.1904  1.3815 -0.8201
 6444SOL    HW230966   0.143   0.733   7.387  1.5013  0.4422  0.8840
 6445SOL     OW30967   1.410   4.572  13.277 -0.2170  0.3834 -0.2560
 6445SOL    HW130968   1.491   4.583  13.327  0.9343 -2.6596 -1.4666
 6445SOL    HW230969   1.421   4.638  13.208  0.1974  2.4429  1.7861
 6446SOL     OW30970   2.593   4.171   4.044  0.4855  0.1942  0.4780
 6446SOL    HW130971   2.505   4.132   4.042  0.2219  0.7353  1.5323
 6446SOL    HW230972   2.573   4.257   4.007  0.1069 -0.8682 -1.7884
 6447SOL     OW30973   0.783   2.383   1.503  0.2246 -0.7878  0.3512
 6447SOL    HW130974   0.797   2.465   1.456 -2.5485 -1.4603 -1.6653
 6447SOL    HW230975   0.843   2.379   1.578  0.6343 -0.0173  0.0725
 6448SOL     OW30976   0.995   4.487   0.651 -0.7555 -0.0587  0.4446
 6448SOL    HW130977   1.063   4.434   0.610 -2.3895 -3.1009  1.6366
 6448SOL    HW230978   0.962   4.416   0.707  0.5284  1.9475  3.7104
 6449SOL     OW30979   0.168   0.413   1.496 -0.3922 -0.1853  0.1031
 6449SOL    HW130980   0.208   0.489   1.452  0.9030  0.4802  2.3863
 6449SOL    HW230981   0.117   0.370   1.428 -0.7427 -0.1594  0.3495
 6450SOL     OW30982   1.237   4.427   7.595 -0.4220 -0.1827 -0.0980
 6450SOL    HW130983   1.244   4.444   7.688  1.7448  0.5998 -0.4077
 6450SOL    HW230984   1.153   4.382   7.604  0.4052 -1.5054  1.1020
 6451SOL     OW30985   0.037   1.827   6.158 -0.7631 -0.6412 -0.2186
 6451SOL    HW130986   0.100   1.778   6.211 -1.4053 -0.8715  0.3328
 6451SOL    HW230987   4.700   1.822   6.221  0.2052 -0.0660  0.9413
 6452SOL     OW30988   3.908   4.042   2.723 -0.0887 -0.0243 -0.0334
 6452SOL    HW130989   3.824   4.079   2.697  0.2965  1.2853  0.5442
 6452SOL    HW230990   3.972   4.098   2.678  0.3276  0.9517  1.7680
 6453SOL     OW30991   0.895   3.376   2.260  0.2944  0.3597  0.4000
 6453SOL    HW130992   0.933   3.319   2.193  1.1059 -1.2981  2.2657
 6453SOL    HW230993   0.828   3.317   2.293 -0.7578  0.5294 -1.4548
 6454SOL     OW30994   2.711   2.622   6.550 -0.3309 -0.2994 -0.9899
 6454SOL    HW130995   2.718   2.587   6.638 -0.4789 -0.3059 -0.9815
 6454SOL    HW230996   2.639   2.685   6.552  2.0345  2.5040 -2.8146
 6455SOL     OW30997   1.156   0.241  10.955 -0.4827 -0.2114 -0.2158
 6455SOL    HW130998   1.199   0.159  10.978 -0.4552 -0.4086 -0.9813
 6455SOL    HW230999   1.196   0.255  10.869  0.8659 -3.4867 -0.1163
 6456SOL     OW31000   2.101   4.310   0.807  0.0139  0.1190  0.3149
 6456SOL    HW131001   2.171   4.308   0.742  0.1340  0.3347  0.4360
 6456SOL    HW231002   2.062   4.397   0.795 -1.0300 -0.3592  0.1844
 6457SOL     OW31003   1.436   2.023  12.517  0.0167  0.5217  0.1185
 6457SOL    HW131004   1.486   1.947  12.545 -0.8025 -0.3071 -0.6538
 6457SOL    HW231005   1.491   2.095  12.547 -1.7775  1.5567  0.8933
 6458SOL     OW31006   1.776   4.623   7.516  0.6517 -0.2413 -0.4027
 6458SOL    HW131007   1.734   4.709   7.521  0.3582 -0.3739 -0.5708
 6458SOL    HW231008   1.835   4.632   7.591 -0.9558 -1.7793  1.0603
 6459SOL     OW31009   0.465   2.696   9.981 -0.1696 -0.0363 -0.1245
 6459SOL    HW131010   0.451   2.789   9.997  0.2858  0.4267 -2.4577
 6459SOL    HW231011   0.528   2.668  10.047 -1.2852 -1.0700  0.4964
 6460SOL     OW31012   1.871   2.691   6.214  0.0052  0.2666  0.1938
 6460SOL    HW131013   1.816   2.681   6.292 -0.8272 -1.8071 -0.6624
 6460SOL    HW231014   1.814   2.701   6.137  1.3990  1.0443 -0.7319
 6461SOL     OW31015   0.208   0.785   0.841  0.7830 -0.0919 -0.1707
 6461SOL    HW131016   0.177   0.706   0.884 -1.6148  0.3496 -1.1119
 6461SOL    HW231017   0.149   0.856   0.868 -1.6800 -1.6352 -1.4851
 6462SOL     OW31018   1.498   4.282   5.456 -0.1369  0.4056  0.8148
 6462SOL    HW131019   1.453   4.221   5.399  3.2949  0.5207 -2.0299
 6462SOL    HW231020   1.530   4.342   5.388  0.1919 -0.6542  0.0285
 6463SOL     OW31021   2.301   2.180  17.337 -0.3057 -0.2442  0.3605
 6463SOL    HW131022   2.331   2.259  17.382 -0.8701 -1.0667  2.1756
 6463SOL    HW231023   2.294   2.123  17.413 -1.1583 -1.9142 -0.9720
 6464SOL     OW31024   1.190   3.823   6.714 -0.6902 -0.8968  0.3143
 6464SOL    HW131025   1.126   3.874   6.761  0.4494  1.0716 -0.2771
 6464SOL    HW231026   1.258   3.891   6.708 -2.9719  1.3585  0.3602
 6465SOL     OW31027   2.335   3.141  15.903  0.1048  0.0017  0.1216
 6465SOL    HW131028   2.327   3.094  15.820  1.1269 -0.1925  0.1423
 6465SOL    HW231029   2.309   3.080  15.971 -0.9705 -0.1803 -0.4484
 6466SOL     OW31030   1.388   1.153  11.460 -0.6236  0.2368 -0.2802
 6466SOL    HW131031   1.325   1.224  11.472  1.0019  1.6107  0.0444
 6466SOL    HW231032   1.356   1.128  11.373  1.5876 -0.8414 -0.7787
 6467SOL     OW31033   4.263   2.435   2.473  0.1039  0.3991  0.4737
 6467SOL    HW131034   4.258   2.381   2.553 -1.1022 -1.2302 -0.7017
 6467SOL    HW231035   4.331   2.392   2.422 -0.7973 -0.6297  0.1426
 6468SOL     OW31036   0.833   3.986   4.991  0.5698  0.8838  0.2912
 6468SOL    HW131037   0.753   4.009   5.039  0.2129  1.0910 -0.3952
 6468SOL    HW231038   0.903   3.981   5.056  0.0993  1.9482  0.8773
 6469SOL     OW31039   4.118   1.323   6.645  0.3290 -0.0176  0.2191
 6469SOL    HW131040   4.061   1.336   6.569 -0.7525 -3.4571  0.4300
 6469SOL    HW231041   4.156   1.411   6.648 -0.7921  0.4514  0.6191
 6470SOL     OW31042   3.351   4.495  11.295 -0.1613  0.6473  0.3055
 6470SOL    HW131043   3.367   4.579  11.339 -0.0163  0.4707  0.5912
 6470SOL    HW231044   3.258   4.490  11.316 -0.4348 -0.8093 -1.2978
 6471SOL     OW31045   3.800   3.995   1.417  0.1211 -0.0900 -0.6065
 6471SOL    HW131046   3.758   4.016   1.500 -1.4519  0.1178 -1.4569
 6471SOL    HW231047   3.790   3.900   1.413 -0.9250 -0.0650  1.6048
 6472SOL     OW31048   2.249   1.442   3.566 -0.1297 -0.1242 -0.1400
 6472SOL    HW131049   2.326   1.499   3.571  0.3624 -0.7531 -0.5711
 6472SOL    HW231050   2.242   1.420   3.473  0.1914 -0.9873  0.0405
 6473SOL     OW31051   3.518   3.657  10.435  0.1617  0.5158  0.3012
 6473SOL    HW131052   3.593   3.715  10.452 -0.9676  2.2325 -0.6852
 6473SOL    HW231053   3.455   3.713  10.391  0.4841  0.6250 -0.0209
 6474SOL     OW31054   1.658   4.010   7.415 -0.4475  0.3428  0.4750
 6474SOL    HW131055   1.654   3.927   7.463  0.2745  0.6264  1.0248
 6474SOL    HW231056   1.750   3.992   7.395 -1.1461 -1.9681 -0.6604
 6475SOL     OW31057   1.053   2.590   2.019  0.1299  0.3524 -0.7563
 6475SOL    HW131058   0.971   2.541   2.017  0.1427  0.2837  0.6825
 6475SOL    HW231059   1.069   2.637   1.937 -1.7761  1.0527 -0.7381
 6476SOL     OW31060   1.116   3.597   7.694  0.3040 -0.4279  0.1323
 6476SOL    HW131061   1.069   3.665   7.743  2.6538  1.5253 -0.3252
 6476SOL    HW231062   1.159   3.651   7.627 -1.0446  0.5657  0.0614
 6477SOL     OW31063   2.498   3.759   2.363 -0.7439  0.4872  0.6510
 6477SOL    HW131064   2.434   3.830   2.365  0.1684  1.4017 -3.6297
 6477SOL    HW231065   2.578   3.806   2.342 -0.6020  0.1763  0.4905
 6478SOL     OW31066   3.282   2.328   5.193 -0.1921  0.2629 -0.4729
 6478SOL    HW131067   3.365   2.335   5.145 -0.0597  0.9163 -0.1470
 6478SOL    HW231068   3.237   2.267   5.135 -0.6292  0.5123 -0.3962
 6479SOL     OW31069   0.710   4.730   6.043 -0.5128  0.2237  0.3024
 6479SOL    HW131070   0.642   0.030   6.100  0.7228  0.4997  1.6013
 6479SOL    HW231071   0.771   0.068   6.054  0.2522 -0.4557  0.5556
 6480SOL     OW31072   2.514   1.278   5.019 -0.4992 -0.4574 -0.5526
 6480SOL    HW131073   2.582   1.222   4.980  1.2713  1.8036 -0.7223
 6480SOL    HW231074   2.455   1.216   5.063 -2.7427  2.4211  0.4379
 6481SOL     OW31075   1.339   4.105   7.656 -0.8626  0.4616  0.3041
 6481SOL    HW131076   1.407   4.038   7.651 -2.9370 -1.5536 -1.1370
 6481SOL    HW231077   1.332   4.153   7.574 -0.9693  0.0755  0.0861
 6482SOL     OW31078   2.508   3.824  13.209  0.4840  0.0423  0.3166
 6482SOL    HW131079   2.569   3.787  13.146  0.9253  0.4059  0.5276
 6482SOL    HW231080   2.426   3.800  13.165 -0.6567  0.5794  2.1210
 6483SOL     OW31081   2.003   0.504   2.654  0.0089  0.0650 -0.0632
 6483SOL    HW131082   1.962   0.484   2.739 -0.0611 -0.5520 -0.2480
 6483SOL    HW231083   2.000   0.424   2.603 -1.1183  0.0328  0.0497
 6484SOL     OW31084   2.847   2.807   4.791 -0.7488 -0.5248  0.2778
 6484SOL    HW131085   2.932   2.795   4.834 -1.3720 -0.8336  1.4376
 6484SOL    HW231086   2.858   2.785   4.699 -0.4108 -0.8594  0.3964
 6485SOL     OW31087   2.338   4.440   5.958  0.0279 -0.0605  0.1696
 6485SOL    HW131088   2.348   4.496   6.035  2.1727 -0.2018 -0.0034
 6485SOL    HW231089   2.416   4.385   5.969 -0.9068 -2.0407 -3.0127
 6486SOL     OW31090   3.360   1.423   4.616  0.4022  0.1175  0.0521
 6486SOL    HW131091   3.402   1.380   4.542 -0.7677 -0.4345 -0.2920
 6486SOL    HW231092   3.376   1.369   4.693  0.1315 -0.0956 -0.0407
 6487SOL     OW31093   0.844   1.505   3.992 -0.2418 -0.2277  0.2674
 6487SOL    HW131094   0.750   1.522   3.996  0.0539  1.3719  0.2286
 6487SOL    HW231095   0.846   1.465   3.905  2.0953 -0.2577  0.3437
 6488SOL     OW31096   4.253   3.489   5.073 -0.0372  0.2816  0.2203
 6488SOL    HW131097   4.158   3.493   5.085 -0.1870  3.4236 -2.0072
 6488SOL    HW231098   4.277   3.476   5.165 -2.6163 -0.0810  0.8456
 6489SOL     OW31099   3.606   1.365   7.455  0.6157  0.0074 -0.0611
 6489SOL    HW131100   3.690   1.338   7.418  0.4205  0.6210 -0.9532
 6489SOL    HW231101   3.631   1.370   7.547  0.6200  1.8133 -0.1595
 6490SOL     OW31102   3.453   3.300   6.210 -0.2770 -0.0976 -0.3590
 6490SOL    HW131103   3.439   3.285   6.117 -0.0814  3.2320 -0.9246
 6490SOL    HW231104   3.428   3.220   6.256 -0.2285 -0.7941 -1.5468
 6491SOL     OW31105   1.021   0.891  12.818 -0.9245 -0.5568 -0.5985
 6491SOL    HW131106   1.021   0.827  12.889 -3.2340  0.4534  0.3235
 6491SOL    HW231107   0.998   0.972  12.864  2.3744 -1.6672  2.9488
 6492SOL     OW31108   1.195   2.695  11.578  0.5193 -0.0905 -0.0218
 6492SOL    HW131109   1.162   2.777  11.541 -2.0148 -2.0190 -2.0591
 6492SOL    HW231110   1.246   2.663  11.502  2.2152 -0.3502  1.2270
 6493SOL     OW31111   3.880   3.715  14.344  0.8385  0.1430  0.2787
 6493SOL    HW131112   3.837   3.630  14.338  0.5758  0.3400 -0.7099
 6493SOL    HW231113   3.800   3.765  14.333  0.4686 -0.9909 -2.3174
 6494SOL     OW31114   3.184   1.852   4.878 -0.0419  0.3568 -0.1887
 6494SOL    HW131115   3.186   1.847   4.974 -0.6106  0.2620 -0.1860
 6494SOL    HW231116   3.103   1.802   4.870 -0.1286  0.7730 -1.8318
 6495SOL     OW31117   4.343   0.221   1.779 -0.3476  0.8867  0.4128
 6495SOL    HW131118   4.357   0.126   1.788 -1.0914  0.8633  1.3104
 6495SOL    HW231119   4.404   0.258   1.844 -1.5017  1.8605  0.9451
 6496SOL     OW31120   1.100   1.473  13.613 -0.5791  0.0657  0.1583
 6496SOL    HW131121   1.098   1.383  13.581 -1.3078  0.7736 -1.7661
 6496SOL    HW231122   1.192   1.497  13.605  0.0092 -2.1959  0.0158
 6497SOL     OW31123   1.068   1.582   5.407 -0.2460 -0.1028  0.4843
 6497SOL    HW131124   1.021   1.574   5.324  1.0578 -0.6941 -0.2046
 6497SOL    HW231125   1.033   1.666   5.434  1.2004  0.8650 -0.6750
 6498SOL     OW31126   4.697   1.779   5.881  0.4937  0.3493  0.0814
 6498SOL    HW131127   0.051   1.741   5.881 -0.7995 -2.6818  2.8464
 6498SOL    HW231128   4.687   1.788   5.976  0.7122  1.1524  0.0348
 6499SOL     OW31129   1.048   4.641   4.747 -0.0295 -0.0760 -0.3996
 6499SOL    HW131130   1.118   4.577   4.753  2.6298  3.0187  1.4914
 6499SOL    HW231131   1.096   4.723   4.736 -0.1299 -0.0885 -0.9384
 6500SOL     OW31132   0.941   4.523   7.316 -0.5048  0.1216 -0.0922
 6500SOL    HW131133   1.001   4.578   7.267 -1.8751  1.4041 -0.3284
 6500SOL    HW231134   0.995   4.444   7.323 -0.7890  0.0384  1.2182
 6501SOL     OW31135   3.577   3.438   6.406 -0.0762  0.6753 -0.0360
 6501SOL    HW131136   3.543   3.384   6.335 -0.6952  1.9121 -0.6700
 6501SOL    HW231137   3.619   3.363   6.450 -1.0992 -0.3575 -0.8119
 6502SOL     OW31138   4.388   3.656   6.179 -0.3526 -0.2181 -0.2048
 6502SOL    HW131139   4.414   3.611   6.098  0.4063 -2.0037  1.0147
 6502SOL    HW231140   4.305   3.613   6.200 -0.5498  0.0334 -0.4738
 6503SOL     OW31141   1.711   2.583  15.163 -0.0685 -0.8250 -0.0363
 6503SOL    HW131142   1.681   2.594  15.254 -1.0823  1.3683 -0.6381
 6503SOL    HW231143   1.648   2.633  15.112 -1.0465 -2.7916 -0.7610
 6504SOL     OW31144   3.959   0.077   2.786 -0.1240  0.2250  0.2444
 6504SOL    HW131145   4.043   0.079   2.831 -1.2168  0.9396  2.2665
 6504SOL    HW231146   3.901   0.092   2.861 -2.7328  1.0888 -1.9187
 6505SOL     OW31147   1.875   2.576  14.500 -0.9930  0.1863  0.1742
 6505SOL    HW131148   1.892   2.498  14.448 -3.4516 -0.4747  0.3879
 6505SOL    HW231149   1.892   2.543  14.589  0.6993  0.9765  0.1526
 6506SOL     OW31150   2.991   3.689  15.216  0.1165 -0.8052  0.0905
 6506SOL    HW131151   2.965   3.780  15.228  0.7711 -0.2749 -2.4986
 6506SOL    HW231152   3.038   3.693  15.132  0.6133  1.2442  0.4890
 6507SOL     OW31153   3.768   3.704   4.671  0.2511 -0.1757  0.2818
 6507SOL    HW131154   3.843   3.736   4.620 -0.5787  0.1827 -0.7153
 6507SOL    HW231155   3.740   3.787   4.709  0.3025  0.3241 -0.7573
 6508SOL     OW31156   0.139   0.931   6.562 -0.4982 -0.4275 -0.1152
 6508SOL    HW131157   0.142   1.010   6.615 -2.0786 -0.8645  0.6162
 6508SOL    HW231158   0.051   0.947   6.528  0.3609  0.9186 -1.6647
 6509SOL     OW31159   1.706   4.229   2.020 -0.4147  0.1468 -0.6105
 6509SOL    HW131160   1.745   4.272   1.944 -2.3914 -0.8232 -2.1784
 6509SOL    HW231161   1.616   4.257   2.001 -1.5630 -3.0528  0.0990
 6510SOL     OW31162   3.638   3.517   5.431 -0.5583 -0.6352  0.0332
 6510SOL    HW131163   3.620   3.513   5.525 -1.2392  1.1989 -0.0224
 6510SOL    HW231164   3.731   3.493   5.429  0.5473  3.7959 -0.9257
 6511SOL     OW31165   3.910   3.466   5.386  0.1682 -0.1117 -0.1645
 6511SOL    HW131166   3.914   3.381   5.429 -0.8384 -0.8010 -1.4176
 6511SOL    HW231167   3.985   3.510   5.425  1.2544 -2.1195 -0.0131
 6512SOL     OW31168   1.358   4.727   6.591  0.1413  0.0915  0.0036
 6512SOL    HW131169   1.364   4.733   6.496 -0.0150  0.0761 -0.0072
 6512SOL    HW231170   1.452   4.711   6.600 -0.2881 -1.6367  1.5539
 6513SOL     OW31171   2.662   3.875   3.530 -0.3742 -0.3272  0.5657
 6513SOL    HW131172   2.672   3.961   3.571  2.2499 -0.8941  1.0875
 6513SOL    HW231173   2.575   3.850   3.560 -1.3314  0.8699 -1.2277
 6514SOL     OW31174   2.426   2.337   8.478 -0.0887 -0.4361  0.0599
 6514SOL    HW131175   2.342   2.326   8.523  0.5722 -3.0391  0.6759
 6514SOL    HW231176   2.475   2.281   8.538 -0.3445 -0.0925  0.5925
 6515SOL     OW31177   2.305   0.897   7.272  0.3517 -0.0893  0.5103
 6515SOL    HW131178   2.388   0.917   7.315 -1.0822  0.4628  3.0420
 6515SOL    HW231179   2.255   0.864   7.347 -1.8322 -1.6483 -1.6446
 6516SOL     OW31180   3.198   2.280   4.002 -0.2642  0.0768 -0.1272
 6516SOL    HW131181   3.274   2.285   3.943 -1.4973 -1.3383 -1.8378
 6516SOL    HW231182   3.220   2.335   4.077  1.8898  0.2097 -0.8531
 6517SOL     OW31183   4.708   1.879   3.886  0.6402 -1.0361  0.0864
 6517SOL    HW131184   0.007   1.841   3.805  4.1937 -1.4624  1.7178
 6517SOL    HW231185   4.646   1.936   3.841  2.9993  0.3227 -1.5156
 6518SOL     OW31186   4.053   1.089  10.738  0.5409  0.1554  0.1084
 6518SOL    HW131187   4.134   1.140  10.729 -0.1658  1.4766  1.3138
 6518SOL    HW231188   4.039   1.065  10.646 -0.1681 -0.4489  0.3738
 6519SOL     OW31189   3.192   4.070   1.017  0.2298  0.3351 -0.0988
 6519SOL    HW131190   3.223   3.981   0.998  0.7766  0.2860  1.0242
 6519SOL    HW231191   3.101   4.070   0.989 -0.2582  0.6456  1.4887
 6520SOL     OW31192   1.940   4.467   4.031 -0.3285  0.4971  0.2221
 6520SOL    HW131193   1.919   4.404   3.962  0.4495 -0.1402  0.5669
 6520SOL    HW231194   1.938   4.549   3.981 -3.5069  0.4334  0.2513
 6521SOL     OW31195   3.972   3.018  10.234 -0.3171 -0.2488  0.3796
 6521SOL    HW131196   3.979   3.113  10.240  2.3163 -0.5526  2.2408
 6521SOL    HW231197   3.890   2.995  10.278 -1.4481  0.0761 -1.5596
 6522SOL     OW31198   2.863   2.303   7.117  0.4167 -0.4331  0.6243
 6522SOL    HW131199   2.860   2.395   7.090 -0.2415  0.0867  2.4762
 6522SOL    HW231200   2.922   2.266   7.051 -0.7191  2.9738 -2.2646
 6523SOL     OW31201   3.072   3.710   1.192 -0.0130  0.4712 -0.2362
 6523SOL    HW131202   3.110   3.769   1.257 -2.1872  3.1491 -1.4389
 6523SOL    HW231203   3.040   3.638   1.246  0.0130 -0.0043 -0.8499
 6524SOL     OW31204   2.046   3.056   5.521  0.5083  0.6978 -0.1998
 6524SOL    HW131205   2.069   3.091   5.434  1.4819 -1.8757 -0.9631
 6524SOL    HW231206   2.135   3.070   5.554  0.7849  0.3994 -0.8057
 6525SOL     OW31207   4.073   2.363  10.735 -0.4981 -0.2041  0.0800
 6525SOL    HW131208   4.125   2.346  10.814 -0.6749 -0.3243  0.1692
 6525SOL    HW231209   4.134   2.402  10.672 -0.6651  0.3318  0.2470
 6526SOL     OW31210   1.233   2.589   5.528  0.4266 -0.3835 -0.2605
 6526SOL    HW131211   1.168   2.544   5.583 -1.2155  1.0141 -1.0650
 6526SOL    HW231212   1.183   2.635   5.461  0.0950 -1.3114 -0.6462
 6527SOL     OW31213   1.724   0.866  17.195  0.7066 -0.2133 -0.0839
 6527SOL    HW131214   1.674   0.818  17.261 -1.5961  0.7166 -1.1455
 6527SOL    HW231215   1.793   0.893  17.255 -0.1458  0.8401  0.4345
 6528SOL     OW31216   1.732   3.624   8.402 -0.7968 -0.1357 -0.8295
 6528SOL    HW131217   1.796   3.610   8.333  0.0610 -0.3688  0.0096
 6528SOL    HW231218   1.659   3.634   8.341  0.3695  1.8217 -1.8757
 6529SOL     OW31219   3.802   3.266  10.045 -0.1618  0.2933  0.1179
 6529SOL    HW131220   3.878   3.234  10.095  0.5470 -0.3538 -1.3700
 6529SOL    HW231221   3.816   3.360  10.057  1.5830  0.0932 -0.2742
 6530SOL     OW31222   1.572   3.538   4.084 -0.0604  0.2825 -0.4433
 6530SOL    HW131223   1.664   3.544   4.061 -0.1072  0.6487 -0.5300
 6530SOL    HW231224   1.561   3.580   4.169 -2.3760 -1.9187  0.3452
 6531SOL     OW31225   0.559   0.804   3.824 -0.3863 -0.0497  1.0929
 6531SOL    HW131226   0.626   0.867   3.852  1.1356 -0.8144 -0.8026
 6531SOL    HW231227   0.469   0.835   3.826 -0.7447 -1.0383  0.3517
 6532SOL     OW31228   0.291   1.913   8.425  0.0285  0.1108  0.0767
 6532SOL    HW131229   0.329   1.906   8.337  0.5029  1.1278  0.1953
 6532SOL    HW231230   0.279   1.823   8.453  0.0039 -0.3921 -1.5422
 6533SOL     OW31231   3.469   3.634   4.606 -0.0814  0.3054 -0.0681
 6533SOL    HW131232   3.486   3.565   4.542  2.5401  2.5011 -1.6943
 6533SOL    HW231233   3.543   3.693   4.611  0.1147  0.1488 -1.3137
 6534SOL     OW31234   1.848   2.582   7.272  0.0914  0.5811 -0.3029
 6534SOL    HW131235   1.852   2.678   7.279 -2.2555  0.4927  2.4560
 6534SOL    HW231236   1.920   2.558   7.214 -1.8465 -0.7630 -2.1861
 6535SOL     OW31237   2.744   0.535   5.105  0.1946 -0.0375 -0.6762
 6535SOL    HW131238   2.801   0.604   5.072 -1.9188  1.0425 -2.0087
 6535SOL    HW231239   2.660   0.568   5.075  0.0463 -2.0466 -2.4711
 6536SOL     OW31240   1.898   2.360  14.327  0.3160  0.7318 -0.4307
 6536SOL    HW131241   1.950   2.344  14.248 -0.4683  0.6387 -0.9264
 6536SOL    HW231242   1.812   2.382  14.290 -2.0356 -1.8332  3.4784
 6537SOL     OW31243   1.281   0.860   3.363 -0.2927 -0.1320  0.8820
 6537SOL    HW131244   1.375   0.863   3.378 -0.1174 -1.6567  0.1118
 6537SOL    HW231245   1.279   0.883   3.270 -2.3866 -1.0546  0.6794
 6538SOL     OW31246   4.395   2.680   3.483 -0.3933  0.6763  0.2806
 6538SOL    HW131247   4.416   2.771   3.502 -1.0464  1.0107 -0.6045
 6538SOL    HW231248   4.448   2.652   3.409 -0.1286  2.1724 -0.0961
 6539SOL     OW31249   2.097   2.875   2.237 -0.5715 -0.4626  0.2497
 6539SOL    HW131250   2.140   2.915   2.161 -0.4353  2.2608  1.7369
 6539SOL    HW231251   2.106   2.784   2.210  0.0295 -0.1216 -0.7127
 6540SOL     OW31252   0.848   4.201   3.863 -0.3404  0.0274  0.2177
 6540SOL    HW131253   0.889   4.117   3.841 -1.2879  0.4198 -3.0334
 6540SOL    HW231254   0.797   4.167   3.936 -0.5146  0.6795  0.3961
 6541SOL     OW31255   0.339   2.420   2.295 -0.3629  0.2475 -0.5539
 6541SOL    HW131256   0.245   2.408   2.306 -0.5244  1.8638 -0.1468
 6541SOL    HW231257   0.364   2.444   2.384  0.2371  1.5845 -1.0878
 6542SOL     OW31258   0.933   0.684   8.016  0.0492  0.0672 -0.5940
 6542SOL    HW131259   1.017   0.684   8.063  0.9158 -0.5295 -2.1305
 6542SOL    HW231260   0.893   0.604   8.047 -2.4009  1.5527  0.0934
 6543SOL     OW31261   4.457   4.329  14.940  0.3592  0.4321  0.0832
 6543SOL    HW131262   4.507   4.256  14.976  1.3674  1.0589 -0.0615
 6543SOL    HW231263   4.530   4.389  14.926 -0.1738  1.4206  1.6219
 6544SOL     OW31264   3.843   2.429   9.011 -0.4619 -0.0302 -0.2164
 6544SOL    HW131265   3.862   2.433   8.917 -0.2696  1.9522 -0.0967
 6544SOL    HW231266   3.767   2.372   9.017  0.1709 -0.7291  1.0871
 6545SOL     OW31267   1.531   3.089   3.030  0.2523 -0.1958  0.1535
 6545SOL    HW131268   1.440   3.091   3.058  0.1237 -1.4393 -0.1937
 6545SOL    HW231269   1.540   3.176   2.991  0.4976 -0.5430 -0.5487
 6546SOL     OW31270   1.628   2.950  16.141 -0.1167  0.4777 -0.1553
 6546SOL    HW131271   1.567   3.022  16.157 -2.0523 -1.3745  0.7982
 6546SOL    HW231272   1.693   2.970  16.208 -0.2108 -1.5469  0.5477
 6547SOL     OW31273   3.910   1.352   5.483 -0.2223 -0.3079 -0.1107
 6547SOL    HW131274   3.999   1.325   5.458 -0.4420  0.2032 -1.4349
 6547SOL    HW231275   3.895   1.420   5.417  0.3232 -0.3149 -0.2421
 6548SOL     OW31276   1.621   3.789  12.012 -0.1864  0.0221  0.1229
 6548SOL    HW131277   1.615   3.817  11.921 -0.9144 -1.9671 -0.4352
 6548SOL    HW231278   1.543   3.821  12.057 -1.2544 -0.0066 -1.7334
 6549SOL     OW31279   3.994   0.842   7.462  0.0902 -0.2790 -0.1107
 6549SOL    HW131280   4.087   0.852   7.445  0.0538 -0.3782 -0.3642
 6549SOL    HW231281   3.976   0.755   7.428 -1.6128 -0.4639  1.2766
 6550SOL     OW31282   1.781   2.372   2.336  0.2086 -0.5708 -0.0560
 6550SOL    HW131283   1.786   2.321   2.417  0.2164  1.1510  1.0222
 6550SOL    HW231284   1.857   2.429   2.351 -0.3661  0.1925 -0.0843
 6551SOL     OW31285   1.891   0.203   2.186 -0.3588 -0.2126  0.0225
 6551SOL    HW131286   1.945   0.279   2.208 -1.7001  0.5684  0.6160
 6551SOL    HW231287   1.916   0.179   2.097 -1.8999  0.0777 -0.4934
 6552SOL     OW31288   1.633   0.521   6.826  0.0285 -0.1193  0.4236
 6552SOL    HW131289   1.601   0.457   6.762 -0.8540  0.0644  0.6693
 6552SOL    HW231290   1.591   0.601   6.793 -1.5580 -1.0464  0.1711
 6553SOL     OW31291   3.562   0.337  10.351  0.6713  0.0227  0.1035
 6553SOL    HW131292   3.485   0.283  10.373  0.8251  0.7825  2.4048
 6553SOL    HW231293   3.517   0.411  10.310 -0.5945 -0.2302  1.0443
 6554SOL     OW31294   0.255   2.666  16.027  0.1717 -0.7961 -0.0866
 6554SOL    HW131295   0.281   2.757  16.011 -0.0401 -0.8497 -0.7177
 6554SOL    HW231296   0.190   2.653  15.958 -2.7073  1.3721  2.2180
 6555SOL     OW31297   0.613   3.642   4.095 -0.2113 -0.5093  0.1669
 6555SOL    HW131298   0.573   3.729   4.095  0.6407 -0.1144  0.9676
 6555SOL    HW231299   0.535   3.588   4.085  0.5404 -1.4150 -0.8319
 6556SOL     OW31300   1.876   0.490   7.792 -0.6718  0.3632  0.8292
 6556SOL    HW131301   1.914   0.481   7.879  0.3589  0.0430  0.3541
 6556SOL    HW231302   1.944   0.451   7.738 -0.0334 -1.4245  2.9651
 6557SOL     OW31303   0.383   0.001   3.025  1.4015 -0.0502  0.4913
 6557SOL    HW131304   0.421   0.006   3.113  0.5197 -0.9416  0.9189
 6557SOL    HW231305   0.384   0.095   3.006  1.7060 -0.5816 -2.0986
 6558SOL     OW31306   4.590   2.687   6.407 -0.2580 -0.1045 -0.2171
 6558SOL    HW131307   4.515   2.705   6.464  0.0628  0.8580 -0.1010
 6558SOL    HW231308   4.662   2.666   6.467 -0.1975 -0.5053 -0.4246
 6559SOL     OW31309   1.600   0.660   5.778 -0.6960  0.1080 -0.3658
 6559SOL    HW131310   1.549   0.665   5.860  0.1214 -0.3042  0.1650
 6559SOL    HW231311   1.612   0.748   5.742  3.2241  0.0381  0.7870
 6560SOL     OW31312   1.166   2.555  17.330  0.9279 -0.1318  0.1543
 6560SOL    HW131313   1.088   2.504  17.309  1.1111 -1.4276  2.5550
 6560SOL    HW231314   1.153   2.630  17.273 -2.0382  0.9914  2.3477
 6561SOL     OW31315   1.200   1.658   2.338  0.3807  0.2952  0.1059
 6561SOL    HW131316   1.269   1.610   2.385 -1.5488 -1.1301  1.4915
 6561SOL    HW231317   1.208   1.611   2.255  0.5462 -0.5816  0.6204
 6562SOL     OW31318   4.623   3.197   0.799  0.5202 -0.4847  0.3443
 6562SOL    HW131319   4.580   3.180   0.883  1.0053 -2.0992  0.2642
 6562SOL    HW231320   4.714   3.178   0.825  0.0857 -1.5964  1.0524
 6563SOL     OW31321   1.804   2.807   3.762 -0.0659  0.0888 -0.8243
 6563SOL    HW131322   1.811   2.767   3.849  0.4228 -0.4613 -1.1134
 6563SOL    HW231323   1.736   2.751   3.724 -1.9821  1.2024  0.9821
 6564SOL     OW31324   0.307   2.797  10.284  0.2977  0.0193 -0.0888
 6564SOL    HW131325   0.373   2.854  10.323  0.6567 -0.2419 -0.3137
 6564SOL    HW231326   0.270   2.857  10.220  2.3914  0.6680 -0.6887
 6565SOL     OW31327   4.186   1.642  15.367 -0.0346 -0.3544 -0.5033
 6565SOL    HW131328   4.166   1.576  15.434 -0.0693  0.1686  0.0034
 6565SOL    HW231329   4.172   1.724  15.414  0.1012 -0.9826  0.6372
 6566SOL     OW31330   4.219   4.335   7.088 -0.2109 -0.1961 -0.5522
 6566SOL    HW131331   4.216   4.242   7.112  0.5688  0.5062  2.2381
 6566SOL    HW231332   4.174   4.379   7.160 -1.7784 -1.6468 -0.6328
 6567SOL     OW31333   0.975   0.384  16.505 -0.2724 -0.1131  0.2474
 6567SOL    HW131334   1.045   0.449  16.511 -0.1138 -0.2521 -0.0834
 6567SOL    HW231335   0.901   0.440  16.529  0.6162  0.3548  1.9116
 6568SOL     OW31336   4.434   4.694   3.838  0.0413  0.6203  0.1801
 6568SOL    HW131337   4.345   4.666   3.816  0.2008  1.4947 -1.5753
 6568SOL    HW231338   4.441   0.015   3.761  0.5686  0.8579  0.3942
 6569SOL     OW31339   3.348   2.293   1.221  0.3113 -0.2364  0.1956
 6569SOL    HW131340   3.314   2.207   1.245  2.0985 -0.4728  1.9076
 6569SOL    HW231341   3.405   2.283   1.145  1.2100 -0.5873  0.9221
 6570SOL     OW31342   3.174   2.279  12.444 -0.0156 -0.5456  0.0831
 6570SOL    HW131343   3.113   2.339  12.486 -0.7937 -1.4584  0.2465
 6570SOL    HW231344   3.260   2.320  12.458  0.8256 -2.3111  0.0292
 6571SOL     OW31345   0.582   2.812   6.042  0.1443  0.5430 -0.2140
 6571SOL    HW131346   0.524   2.740   6.067 -0.5507  0.4287 -2.1589
 6571SOL    HW231347   0.552   2.879   6.103  2.2235  0.9619  0.3353
 6572SOL     OW31348   2.444   1.075   6.727 -0.1181 -0.0289 -0.0915
 6572SOL    HW131349   2.447   1.007   6.794 -1.2157  0.9100  0.9004
 6572SOL    HW231350   2.528   1.118   6.742  0.1393 -0.4466 -0.3015
 6573SOL     OW31351   1.153   4.231  12.730 -0.4416 -0.2236  0.0841
 6573SOL    HW131352   1.119   4.320  12.723  2.5503  0.9202  0.1733
 6573SOL    HW231353   1.110   4.185  12.657  0.4284 -0.8243 -0.0440
 6574SOL     OW31354   0.321   0.399   3.940  0.4277  0.4021  0.0472
 6574SOL    HW131355   0.322   0.303   3.934 -1.6613  0.2875  1.6044
 6574SOL    HW231356   0.295   0.418   3.849 -0.3217 -1.6797 -0.1768
 6575SOL     OW31357   4.533   0.699  12.836  0.4102 -0.2207  0.1214
 6575SOL    HW131358   4.595   0.631  12.862  1.4158  0.8044  0.3983
 6575SOL    HW231359   4.453   0.660  12.874  1.2425 -1.2534  0.8284
 6576SOL     OW31360   1.243   2.655  13.580 -0.3324  0.0808  0.0334
 6576SOL    HW131361   1.247   2.619  13.491  0.7041  0.2709  0.0150
 6576SOL    HW231362   1.219   2.745  13.560  0.9289  0.4659  0.2971
 6577SOL     OW31363   2.361   3.174   5.213  0.5612 -0.0302  0.0196
 6577SOL    HW131364   2.426   3.149   5.148  0.7064  0.2296  0.0625
 6577SOL    HW231365   2.365   3.269   5.225 -0.5288  0.2590 -1.9957
 6578SOL     OW31366   0.445   4.236   3.490 -0.0033 -0.0493  0.0468
 6578SOL    HW131367   0.367   4.260   3.440  0.6840  2.6270  0.2717
 6578SOL    HW231368   0.477   4.325   3.505  2.8398 -0.9286 -0.6219
 6579SOL     OW31369   2.159   0.619  10.476 -0.0525 -0.4242 -0.0900
 6579SOL    HW131370   2.072   0.580  10.472  1.2922 -3.3352 -0.9573
 6579SOL    HW231371   2.186   0.619  10.384 -2.5243 -2.7319 -0.8212
 6580SOL     OW31372   3.648   3.828  16.008 -0.4330 -0.2710  0.1116
 6580SOL    HW131373   3.701   3.749  16.020 -0.0283 -0.1019 -0.5837
 6580SOL    HW231374   3.615   3.831  16.098  2.3287 -0.4066  1.1257
 6581SOL     OW31375   2.499   3.092   6.324  0.3688 -0.3705 -0.3255
 6581SOL    HW131376   2.447   3.015   6.299 -0.5855 -0.0736  0.7248
 6581SOL    HW231377   2.489   3.155   6.253  0.5177 -0.2686 -0.2553
 6582SOL     OW31378   0.115   0.801  10.349  0.0070 -0.2400  0.0347
 6582SOL    HW131379   0.021   0.791  10.332 -0.5066  0.7141  2.3040
 6582SOL    HW231380   0.149   0.717  10.317  2.4083  1.1103 -0.8989
 6583SOL     OW31381   3.360   1.216   2.516 -0.0613 -0.1813  0.3669
 6583SOL    HW131382   3.324   1.196   2.430  1.6765  0.2905 -0.4672
 6583SOL    HW231383   3.324   1.303   2.531 -0.2150  0.0037 -1.1527
 6584SOL     OW31384   3.604   2.143   8.800  0.1227 -0.5435 -0.3230
 6584SOL    HW131385   3.579   2.111   8.886 -0.4567  0.3498 -0.1627
 6584SOL    HW231386   3.625   2.061   8.754 -0.7800 -1.4591  0.8992
 6585SOL     OW31387   2.985   0.509  14.388  0.1389  0.7700  0.2400
 6585SOL    HW131388   3.067   0.507  14.339  0.8741  1.2411  1.4590
 6585SOL    HW231389   2.994   0.429  14.439 -1.9020 -0.0470 -0.6697
 6586SOL     OW31390   2.247   3.009   2.458  0.2625 -0.7715 -0.1796
 6586SOL    HW131391   2.187   2.979   2.390 -0.0105 -0.7067  0.0337
 6586SOL    HW231392   2.196   3.008   2.539  0.6032 -0.9434  0.0325
 6587SOL     OW31393   2.953   1.933   2.444 -0.4126 -0.7522 -0.4488
 6587SOL    HW131394   2.925   2.007   2.390 -2.5469 -0.8234  0.5551
 6587SOL    HW231395   2.941   1.858   2.385 -1.7038 -0.5507 -0.4311
 6588SOL     OW31396   3.559   0.173  12.222 -0.3107  0.2280  0.6529
 6588SOL    HW131397   3.523   0.242  12.167  0.2769  0.0149 -0.0018
 6588SOL    HW231398   3.478   0.153  12.268 -0.0367  0.5377  1.2724
 6589SOL     OW31399   0.149   3.358   8.208 -0.2093 -0.0314 -0.2849
 6589SOL    HW131400   0.060   3.393   8.196 -0.3238 -0.7451 -1.4764
 6589SOL    HW231401   0.181   3.398   8.126  0.4244  1.1284  0.5257
 6590SOL     OW31402   4.159   1.045   6.768  0.3469 -0.3627  0.3492
 6590SOL    HW131403   4.126   1.116   6.712 -1.5832 -0.2124  1.6735
 6590SOL    HW231404   4.237   1.085   6.806  0.1311 -0.8915  1.3530
 6591SOL     OW31405   0.328   2.717  17.265  0.3129 -0.4784 -0.0360
 6591SOL    HW131406   0.260   2.653  17.246  0.8786 -1.4116  1.0829
 6591SOL    HW231407   0.400   2.664  17.230  1.8118  0.9993  0.7779
 6592SOL     OW31408   2.384   3.151  14.482  0.1893  0.7739 -0.6188
 6592SOL    HW131409   2.467   3.128  14.442  0.1507  0.2034 -0.3706
 6592SOL    HW231410   2.419   3.208  14.550 -2.9721  1.8635  0.0964
 6593SOL     OW31411   2.160   0.343   4.990 -0.7207 -0.0146 -0.4010
 6593SOL    HW131412   2.231   0.279   4.994 -2.1800 -1.6468 -0.7910
 6593SOL    HW231413   2.146   0.357   5.083  0.1368 -0.5321 -0.1908
 6594SOL     OW31414   1.004   0.579   3.339 -0.0570  0.3523  0.0557
 6594SOL    HW131415   0.993   0.668   3.305 -2.0980 -0.7221 -2.1275
 6594SOL    HW231416   0.938   0.578   3.408  0.4186  0.2916  0.5078
 6595SOL     OW31417   0.464   2.070   3.778 -0.2556 -0.6559 -0.0732
 6595SOL    HW131418   0.480   2.154   3.820  0.0755 -0.4494 -0.6067
 6595SOL    HW231419   0.412   2.085   3.699  1.5681  1.0387 -0.9512
 6596SOL     OW31420   3.811   2.651  10.850 -0.1574  0.2144 -0.4290
 6596SOL    HW131421   3.831   2.596  10.926 -0.3461  0.1325 -0.4369
 6596SOL    HW231422   3.890   2.651  10.797  0.7645 -3.4005  0.9507
 6597SOL     OW31423   1.077   1.237   6.872  0.1568 -0.2703  0.0274
 6597SOL    HW131424   1.111   1.149   6.855 -1.2236 -1.1635  1.8855
 6597SOL    HW231425   1.100   1.283   6.791  0.7444  1.0695  0.9429
 6598SOL     OW31426   2.264   0.635   7.597  0.5877 -0.4797  0.8232
 6598SOL    HW131427   2.201   0.649   7.668 -0.1554 -3.5153  0.7380
 6598SOL    HW231428   2.338   0.663   7.651  1.9081 -2.0442 -0.1581
 6599SOL     OW31429   1.793   1.202   8.516 -0.1749 -0.1271 -0.8419
 6599SOL    HW131430   1.730   1.260   8.557  0.0227 -1.6297  1.5391
 6599SOL    HW231431   1.799   1.140   8.588 -1.1146  1.1186  0.2875
 6600SOL     OW31432   3.725   0.617  13.773  0.2374  0.0551  0.1264
 6600SOL    HW131433   3.817   0.637  13.754 -0.0325  0.7049 -0.4639
 6600SOL    HW231434   3.720   0.638  13.866 -0.3347 -1.5411  0.4537
 6601SOL     OW31435   1.734   2.204   8.145  0.3851 -0.2854 -0.3688
 6601SOL    HW131436   1.758   2.130   8.201  1.0424 -0.7157 -1.2138
 6601SOL    HW231437   1.760   2.287   8.186  0.7040 -0.4079 -0.3238
 6602SOL     OW31438   0.229   2.174  16.154 -0.0634  0.5595 -0.2859
 6602SOL    HW131439   0.247   2.247  16.213  1.7642 -1.9373  2.2449
 6602SOL    HW231440   0.139   2.195  16.129 -0.7034  0.0188  1.5890
 6603SOL     OW31441   4.324   3.623   2.889 -0.0636  0.5271  0.0009
 6603SOL    HW131442   4.353   3.713   2.878 -2.6727  1.3485 -0.1626
 6603SOL    HW231443   4.297   3.617   2.980  0.3896  0.2668  0.1208
 6604SOL     OW31444   2.406   3.460   5.262  0.4633  0.8751 -0.2224
 6604SOL    HW131445   2.357   3.498   5.335 -0.6646 -0.8500 -0.0795
 6604SOL    HW231446   2.489   3.483   5.302 -0.3922 -0.9578  2.6385
 6605SOL     OW31447   1.957   4.547   0.775 -0.0985 -0.1757 -0.4582
 6605SOL    HW131448   1.944   4.633   0.814 -1.0537 -0.2245 -0.6626
 6605SOL    HW231449   1.869   4.520   0.746  0.5078 -1.3530 -1.2090
 6606SOL     OW31450   0.837   4.394  15.796  0.0586 -0.3822 -0.3275
 6606SOL    HW131451   0.837   4.379  15.890 -2.0136 -0.4154 -0.3309
 6606SOL    HW231452   0.793   4.479  15.791 -0.4883 -0.7978 -2.5404
 6607SOL     OW31453   2.363   1.591   3.819 -0.1533 -0.2175  0.3019
 6607SOL    HW131454   2.416   1.532   3.765 -1.5032  0.3730 -1.6922
 6607SOL    HW231455   2.340   1.535   3.893 -0.2180 -1.2072 -0.4529
 6608SOL     OW31456   4.111   3.061  12.523  0.2185 -0.5583  0.3044
 6608SOL    HW131457   4.022   3.094  12.524  0.8953  1.2666 -0.4155
 6608SOL    HW231458   4.161   3.128  12.569 -1.0019  1.1760 -0.9312
 6609SOL     OW31459   2.350   0.004   8.408 -0.1525  0.1899 -0.3960
 6609SOL    HW131460   2.297   4.695   8.341 -0.4152  0.0019 -0.0604
 6609SOL    HW231461   2.416   4.674   8.430  1.0716  1.2348 -1.0149
 6610SOL     OW31462   4.659   3.884   7.549 -0.0330 -0.5417  0.2214
 6610SOL    HW131463   4.687   3.971   7.520 -3.2790 -0.5415 -2.8959
 6610SOL    HW231464   4.565   3.902   7.548  0.1108  0.2485  0.8357
 6611SOL     OW31465   4.361   3.989   3.367  0.0528 -0.0331  0.0124
 6611SOL    HW131466   4.331   4.008   3.456  1.1298  0.1135  0.3504
 6611SOL    HW231467   4.280   4.004   3.318 -0.0667  0.7943  0.4666
 6612SOL     OW31468   3.325   1.291   1.185 -0.2794 -0.0353 -0.3090
 6612SOL    HW131469   3.266   1.284   1.110  0.8224 -1.4236 -1.0314
 6612SOL    HW231470   3.305   1.210   1.231  1.6958 -0.0896  0.4526
 6613SOL     OW31471   2.396   0.178   7.950 -0.1800 -0.2727 -0.9304
 6613SOL    HW131472   2.385   0.085   7.970  2.8353 -0.6532 -1.0063
 6613SOL    HW231473   2.307   0.212   7.957  0.4183  1.6437 -2.5284
 6614SOL     OW31474   4.080   2.266   5.528 -0.7461  0.5185  0.2882
 6614SOL    HW131475   4.028   2.254   5.607 -2.4425  1.6581 -0.6566
 6614SOL    HW231476   4.023   2.221   5.464 -0.2601  1.0212 -0.4971
 6615SOL     OW31477   1.466   1.999   0.630 -0.2549  0.1118  0.4839
 6615SOL    HW131478   1.433   2.071   0.576 -0.2255 -0.0336  0.2717
 6615SOL    HW231479   1.501   1.942   0.563  0.8255 -0.7565  1.7950
 6616SOL     OW31480   1.391   1.092   4.766 -0.0750 -0.5455 -0.2667
 6616SOL    HW131481   1.306   1.095   4.810  0.2411  0.1320  0.2879
 6616SOL    HW231482   1.458   1.141   4.814  0.1170  1.1563 -2.2728
 6617SOL     OW31483   2.932   2.011  15.143  0.0684  0.3480  0.1594
 6617SOL    HW131484   2.871   2.029  15.072  1.3111 -1.5982 -1.3847
 6617SOL    HW231485   3.006   1.997  15.085 -2.1513  0.5600 -2.7055
 6618SOL     OW31486   3.902   0.277   2.023 -0.3454 -0.1942  0.9836
 6618SOL    HW131487   3.960   0.293   1.949 -1.4944 -1.2834 -0.1404
 6618SOL    HW231488   3.971   0.244   2.081  0.2350 -1.7226 -0.5977
 6619SOL     OW31489   4.338   1.948   8.042 -0.1796 -0.4162  0.2439
 6619SOL    HW131490   4.304   2.033   8.070 -0.7953 -0.8378  0.7719
 6619SOL    HW231491   4.349   1.914   8.131 -0.3421  0.5255  0.6231
 6620SOL     OW31492   1.397   2.671  13.063  0.4797  0.3276 -0.6033
 6620SOL    HW131493   1.314   2.655  13.018 -0.2487  1.9654  0.1707
 6620SOL    HW231494   1.394   2.601  13.128 -2.0825  1.8268  0.9267
 6621SOL     OW31495   0.060   0.733   8.057 -0.4437  0.1478 -0.5384
 6621SOL    HW131496   0.100   0.648   8.072  0.8641  0.7728 -0.4414
 6621SOL    HW231497   0.039   0.771   8.142 -0.6775  1.0578 -0.9957
 6622SOL     OW31498   1.239   0.867  10.231  0.4036 -0.0941  0.3757
 6622SOL    HW131499   1.172   0.875  10.299  0.6805 -0.9991  0.7551
 6622SOL    HW231500   1.289   0.947  10.244  0.9855 -1.0302  4.0115
 6623SOL     OW31501   4.218   3.419   7.627  0.2484 -0.5135  0.0863
 6623SOL    HW131502   4.267   3.486   7.674  0.7850  1.4732 -3.3310
 6623SOL    HW231503   4.124   3.433   7.639  0.4308  0.8479 -0.1735
 6624SOL     OW31504   0.325   3.475   5.973  0.3729  0.6792  0.2352
 6624SOL    HW131505   0.325   3.421   5.894  1.8336 -1.0740  1.4338
 6624SOL    HW231506   0.311   3.414   6.045 -2.2799  1.6275  0.5198
 6625SOL     OW31507   1.701   2.131   3.002 -0.0866 -0.4686  0.4032
 6625SOL    HW131508   1.705   2.139   3.098 -0.2190 -3.4753  0.6530
 6625SOL    HW231509   1.767   2.196   2.978 -0.3799 -1.6965 -3.6103
 6626SOL     OW31510   1.338   0.572   9.204 -0.4151  0.0545 -0.2338
 6626SOL    HW131511   1.419   0.613   9.173 -0.3618 -1.1370 -1.6586
 6626SOL    HW231512   1.306   0.646   9.255  1.3035  0.2591  0.5554
 6627SOL     OW31513   1.360   4.038   6.624  0.5462 -0.1664 -0.0245
 6627SOL    HW131514   1.360   4.095   6.701  2.0387 -0.9494  0.5575
 6627SOL    HW231515   1.407   4.090   6.558 -2.1962  2.8270  0.4014
 6628SOL     OW31516   4.130   1.799  17.293  0.0469 -0.5907  0.0686
 6628SOL    HW131517   4.189   1.812  17.219  1.4984  1.3210  1.5796
 6628SOL    HW231518   4.041   1.821  17.265 -0.5785 -1.2423  1.5092
 6629SOL     OW31519   2.338   2.908   4.588 -0.0713 -0.2233  0.0160
 6629SOL    HW131520   2.389   2.830   4.612 -0.3040  0.2728  2.1087
 6629SOL    HW231521   2.320   2.948   4.673  3.2928 -1.8009  1.5136
 6630SOL     OW31522   2.202   2.006   2.849  0.2236  0.4838  0.1654
 6630SOL    HW131523   2.109   2.025   2.835 -0.6510 -3.4872  0.6429
 6630SOL    HW231524   2.233   2.095   2.868  3.3247 -0.8201  1.0170
 6631SOL     OW31525   2.914   1.757   7.800 -1.2092  0.0606 -0.2463
 6631SOL    HW131526   2.846   1.815   7.833 -0.2512  0.5829  0.8297
 6631SOL    HW231527   2.948   1.808   7.727 -0.2202 -0.5002 -0.1833
 6632SOL     OW31528   3.124   0.046   5.182  0.2493 -0.0305  0.3760
 6632SOL    HW131529   3.092   0.099   5.110 -0.5772 -4.7326 -2.7437
 6632SOL    HW231530   3.042   4.732   5.197 -1.6428  2.2711 -2.5926
 6633SOL     OW31531   0.985   0.125   5.736 -0.3064 -0.1045  0.0857
 6633SOL    HW131532   0.982   0.073   5.816 -1.2439  1.3473  1.0071
 6633SOL    HW231533   1.064   0.093   5.694 -0.5759 -1.6456  0.7592
 6634SOL     OW31534   4.642   3.902   5.943  0.3189  0.3561  0.5384
 6634SOL    HW131535   4.586   3.881   5.868 -0.5180 -2.0215  1.8339
 6634SOL    HW231536   4.723   3.859   5.915  0.4529  0.3736  0.8978
 6635SOL     OW31537   1.257   2.880  13.952  0.2735  0.2085 -0.2263
 6635SOL    HW131538   1.235   2.973  13.946  1.0865  0.3988 -0.3360
 6635SOL    HW231539   1.177   2.836  13.923  1.8635 -1.6945 -1.7251
 6636SOL     OW31540   0.053   4.363   8.967 -0.3363 -0.4826  0.6596
 6636SOL    HW131541   0.003   4.443   8.949  0.3289 -0.5456 -1.4099
 6636SOL    HW231542   0.070   4.373   9.061  1.2634  1.0830  0.1921
 6637SOL     OW31543   4.394   2.885   1.701 -0.2631 -0.4995  0.0997
 6637SOL    HW131544   4.432   2.931   1.776 -1.4210 -0.1524  0.4718
 6637SOL    HW231545   4.326   2.949   1.678  0.5847  1.1301  2.0536
 6638SOL     OW31546   1.199   2.707   4.930 -0.0222  0.2055  0.7645
 6638SOL    HW131547   1.183   2.626   4.979  1.7249  0.3391  1.5558
 6638SOL    HW231548   1.228   2.660   4.852 -2.9115 -0.1381 -0.1175
 6639SOL     OW31549   4.247   1.826   3.255  0.0085  0.1906 -0.0543
 6639SOL    HW131550   4.247   1.733   3.280 -1.7201  0.2235  0.0912
 6639SOL    HW231551   4.153   1.836   3.240 -0.4761 -0.0356  2.8523
 6640SOL     OW31552   2.316   2.779  17.228  0.4300 -0.6982  0.1788
 6640SOL    HW131553   2.366   2.803  17.149  1.3635 -0.5083  0.8287
 6640SOL    HW231554   2.233   2.817  17.198  0.8569  0.8160  0.9178
 6641SOL     OW31555   2.765   1.682   6.060  0.0537  0.3431 -0.5617
 6641SOL    HW131556   2.749   1.607   6.003  0.9563  0.2001 -0.6164
 6641SOL    HW231557   2.807   1.736   5.993 -1.7970  2.3658 -0.0974
 6642SOL     OW31558   1.089   2.337  14.529 -0.4005 -0.3019 -0.3998
 6642SOL    HW131559   1.052   2.363  14.614  2.3526 -0.3032  0.7823
 6642SOL    HW231560   1.145   2.263  14.550  0.7151 -0.0421 -2.4697
 6643SOL     OW31561   4.402   3.474   2.555  0.0194 -0.0484 -0.3622
 6643SOL    HW131562   4.315   3.460   2.593 -0.0013  1.4514  0.1550
 6643SOL    HW231563   4.377   3.520   2.474 -2.1818 -0.3814  0.1291
 6644SOL     OW31564   2.989   0.798  16.788 -0.2569 -0.3796  0.1183
 6644SOL    HW131565   3.054   0.797  16.858 -0.6814 -2.6319  0.4835
 6644SOL    HW231566   2.933   0.863  16.829 -0.7042 -1.5379  1.3404
 6645SOL     OW31567   3.913   3.338   3.681 -0.3090  0.4067  0.0541
 6645SOL    HW131568   3.985   3.275   3.675  0.0292  0.4062  4.1887
 6645SOL    HW231569   3.858   3.304   3.610  1.7357 -3.0287  0.1140
 6646SOL     OW31570   4.046   2.019   8.405 -0.3765 -0.3141 -0.0391
 6646SOL    HW131571   3.984   2.080   8.444 -0.0323 -1.3645  2.1116
 6646SOL    HW231572   4.113   2.013   8.472 -1.5276 -0.3930  1.1011
 6647SOL     OW31573   3.551   2.446   3.968  0.1177 -0.0172 -0.3777
 6647SOL    HW131574   3.542   2.366   3.916 -0.5757  0.5195 -1.0904
 6647SOL    HW231575   3.634   2.481   3.938  0.6141  0.4766  1.5765
 6648SOL     OW31576   1.925   1.769  12.766 -0.2966  0.0312 -0.6074
 6648SOL    HW131577   1.847   1.716  12.782 -0.2074  0.7620  2.4187
 6648SOL    HW231578   1.888   1.816  12.692 -2.2136  2.1560  1.6713
 6649SOL     OW31579   1.332   1.122   3.908  0.4070  0.1210  0.4137
 6649SOL    HW131580   1.383   1.188   3.861 -0.4777 -0.0725 -0.8400
 6649SOL    HW231581   1.387   1.044   3.900  0.3871  0.1037  0.4445
 6650SOL     OW31582   2.374   2.363   9.844 -0.3246  0.6782  0.1485
 6650SOL    HW131583   2.449   2.307   9.863 -1.4945 -0.8110  0.3567
 6650SOL    HW231584   2.374   2.427   9.915  1.0389  0.0541  0.7160
 6651SOL     OW31585   1.552   1.696   2.248 -0.2613  0.4020  0.0214
 6651SOL    HW131586   1.490   1.768   2.241  0.0381  0.8980  2.3832
 6651SOL    HW231587   1.513   1.645   2.178  3.3230 -1.4702 -0.6279
 6652SOL     OW31588   3.254   3.604   3.343  0.5471  0.3287  0.0385
 6652SOL    HW131589   3.335   3.584   3.295 -0.2407 -0.3770 -1.0249
 6652SOL    HW231590   3.301   3.650   3.412 -0.7787  1.2619  0.3053
 6653SOL     OW31591   2.274   0.868   2.543  0.0258  0.0728  0.0459
 6653SOL    HW131592   2.275   0.900   2.634  0.1066  2.6668 -0.8667
 6653SOL    HW231593   2.368   0.874   2.524  0.1369  0.3686  0.6815
 6654SOL     OW31594   0.565   3.286   6.076 -0.0854  0.9323 -0.6079
 6654SOL    HW131595   0.614   3.369   6.074 -0.1588  0.9525 -1.5627
 6654SOL    HW231596   0.502   3.299   6.146  1.5745  0.8702  0.8937
 6655SOL     OW31597   3.798   1.599   2.797 -0.0623 -0.9292  0.0693
 6655SOL    HW131598   3.787   1.589   2.703 -1.4971  0.7284  0.0539
 6655SOL    HW231599   3.842   1.684   2.801 -1.3309 -0.2495 -0.4051
 6656SOL     OW31600   3.843   1.495  12.020  0.2461 -0.0563 -0.1592
 6656SOL    HW131601   3.792   1.570  11.990 -0.4673 -0.5017 -0.0655
 6656SOL    HW231602   3.766   1.453  12.059  0.8753 -1.8193 -0.8266
 6657SOL     OW31603   3.702   0.285   7.908  0.1930 -0.0017  0.4403
 6657SOL    HW131604   3.655   0.367   7.894 -1.7603 -1.3337 -0.8512
 6657SOL    HW231605   3.755   0.298   7.986 -2.4438  0.0236  2.2218
 6658SOL     OW31606   1.368   0.920  16.524  0.0638 -0.6285  0.0605
 6658SOL    HW131607   1.440   0.905  16.585  0.2587  3.8012  0.9807
 6658SOL    HW231608   1.294   0.878  16.567 -0.1009  0.2620  0.6420
 6659SOL     OW31609   2.152   2.111   2.388  0.5285  0.1304 -0.5767
 6659SOL    HW131610   2.142   2.101   2.293 -1.8447  0.8480 -0.4038
 6659SOL    HW231611   2.080   2.061   2.428  0.1080 -0.2162 -1.7476
 6660SOL     OW31612   4.550   1.005   1.653  0.7107 -0.9574  0.1670
 6660SOL    HW131613   4.642   1.007   1.626  0.3188  0.0660 -1.0757
 6660SOL    HW231614   4.542   0.910   1.667  0.5021 -1.4131 -3.0399
 6661SOL     OW31615   3.417   3.159   4.091 -0.3610  0.6857  0.0655
 6661SOL    HW131616   3.383   3.103   4.161  1.0495 -2.4402 -1.7339
 6661SOL    HW231617   3.339   3.207   4.066 -0.9898 -0.1314  0.4359
 6662SOL     OW31618   1.971   1.196   6.489  0.1623 -0.3085  0.0193
 6662SOL    HW131619   2.005   1.109   6.513  0.6250 -0.2467 -0.4209
 6662SOL    HW231620   1.912   1.156   6.426  0.2915 -0.9203  0.2846
 6663SOL     OW31621   0.845   3.859   4.468 -0.3379 -0.0340 -0.1429
 6663SOL    HW131622   0.816   3.935   4.418 -3.8006 -1.2413  0.0506
 6663SOL    HW231623   0.874   3.896   4.552  4.1193  0.1116 -1.7137
 6664SOL     OW31624   4.394   3.290   6.727 -0.3364 -0.1189  0.1686
 6664SOL    HW131625   4.310   3.266   6.767 -0.8498  2.3948  0.6259
 6664SOL    HW231626   4.450   3.213   6.742 -0.7920 -0.5793 -0.5019
 6665SOL     OW31627   4.447   0.515  13.519 -0.3855 -0.0290 -0.0866
 6665SOL    HW131628   4.455   0.578  13.447 -0.3551 -1.4364 -1.3190
 6665SOL    HW231629   4.513   0.448  13.507  0.3611  0.2425  2.4228
 6666SOL     OW31630   3.565   0.710  11.095 -0.0704  0.0095 -0.5591
 6666SOL    HW131631   3.581   0.649  11.023  1.1543 -2.4649  1.8116
 6666SOL    HW231632   3.550   0.795  11.052 -0.8096  0.7051  1.0921
 6667SOL     OW31633   3.871   4.710   6.619  0.1371  0.2059 -0.0271
 6667SOL    HW131634   3.834   4.715   6.531 -1.0072 -2.2977  0.3165
 6667SOL    HW231635   3.881   0.070   6.634  1.6673 -0.0446  0.5667
 6668SOL     OW31636   1.453   3.689  17.460 -0.6918 -0.0743  0.4163
 6668SOL    HW131637   1.388   3.653  17.521  0.8431 -2.2382  0.7839
 6668SOL    HW231638   1.396   3.710  17.386  0.8041  0.6209 -0.5290
 6669SOL     OW31639   3.423   3.136  12.459 -0.7084 -0.2240  0.3571
 6669SOL    HW131640   3.509   3.173  12.439 -1.4662  0.5371 -1.4527
 6669SOL    HW231641   3.446   3.046  12.483 -0.3109 -0.1899  0.1014
 6670SOL     OW31642   2.417   2.170   2.436 -0.1502 -0.2182  0.7190
 6670SOL    HW131643   2.323   2.151   2.431 -0.5858  2.3493 -0.5684
 6670SOL    HW231644   2.419   2.254   2.391  3.0752  0.4366  2.0730
 6671SOL     OW31645   0.668   0.209  17.384  0.0355 -0.1020 -0.1333
 6671SOL    HW131646   0.669   0.288  17.329 -0.5911 -0.7555 -1.0844
 6671SOL    HW231647   0.744   0.165  17.345 -0.3386 -0.9077  0.0570
 6672SOL     OW31648   2.583   3.640   7.391  0.0783  0.1053  0.3254
 6672SOL    HW131649   2.654   3.595   7.438 -1.7986 -2.4898  0.6851
 6672SOL    HW231650   2.629   3.680   7.317 -2.4502 -0.2978 -1.4667
 6673SOL     OW31651   4.496   1.972   9.841  0.3071  0.4997 -0.9181
 6673SOL    HW131652   4.571   2.015   9.883  0.0445  1.7487 -1.7295
 6673SOL    HW231653   4.459   2.048   9.796 -1.7907  0.1849  0.2770
 6674SOL     OW31654   0.517   1.883   1.754  0.1736  0.2280  0.0737
 6674SOL    HW131655   0.470   1.812   1.798 -1.2349  0.5283 -0.9326
 6674SOL    HW231656   0.557   1.924   1.831  0.2074 -0.1555  0.2612
 6675SOL     OW31657   0.640   3.206   4.652 -0.3942 -0.6255 -0.4596
 6675SOL    HW131658   0.621   3.260   4.576 -0.8075 -0.0203  0.0753
 6675SOL    HW231659   0.729   3.184   4.625  0.2943  0.0544  1.2285
 6676SOL     OW31660   3.318   2.246   3.184  0.2654  0.1614  0.4008
 6676SOL    HW131661   3.405   2.210   3.166  0.1250 -0.6411  1.3694
 6676SOL    HW231662   3.333   2.330   3.229 -1.4881  2.2532 -2.9230
 6677SOL     OW31663   3.500   0.896   9.886  0.4266 -0.8468 -0.1686
 6677SOL    HW131664   3.531   0.979   9.920 -0.6610 -0.7140  0.5130
 6677SOL    HW231665   3.579   0.845   9.869  0.3342 -0.8232 -0.6936
 6678SOL     OW31666   3.921   4.633   1.948  0.4409 -0.0097 -0.6572
 6678SOL    HW131667   3.832   4.606   1.923  0.3413 -0.0161 -0.2979
 6678SOL    HW231668   3.973   4.558   1.918 -0.2854 -0.5379 -0.6042
 6679SOL     OW31669   1.745   1.509   7.513  0.7373 -0.2027 -0.2340
 6679SOL    HW131670   1.780   1.578   7.569  1.6572 -1.2440  0.4719
 6679SOL    HW231671   1.739   1.439   7.578 -0.3310  0.9274  0.8879
 6680SOL     OW31672   2.954   0.307   5.681 -0.3734 -0.2514 -0.6400
 6680SOL    HW131673   2.886   0.317   5.748  0.9369 -0.6212  0.7687
 6680SOL    HW231674   3.015   0.249   5.726 -0.5320  0.1457  0.0985
 6681SOL     OW31675   2.269   2.356   4.595  0.4423 -0.4461  0.1974
 6681SOL    HW131676   2.181   2.321   4.577  1.3859 -2.1442 -1.1393
 6681SOL    HW231677   2.317   2.283   4.634  0.1716 -1.2836 -1.0381
 6682SOL     OW31678   2.068   4.131   2.677 -0.5780  0.2079 -0.1859
 6682SOL    HW131679   2.115   4.078   2.612  2.2485  2.5858 -0.0834
 6682SOL    HW231680   2.054   4.059   2.738 -0.4205  0.9619  0.7316
 6683SOL     OW31681   4.609   0.671   7.077 -0.1296 -0.5133  0.0884
 6683SOL    HW131682   4.688   0.622   7.100 -0.5631 -1.4627 -0.4575
 6683SOL    HW231683   4.592   0.637   6.989 -0.3230  0.2467 -0.1698
 6684SOL     OW31684   4.186   0.920   2.129  0.4152 -0.1801  0.1897
 6684SOL    HW131685   4.175   0.906   2.034  0.5640  1.3273 -0.0412
 6684SOL    HW231686   4.278   0.943   2.142 -0.1464  1.6842  0.7165
 6685SOL     OW31687   1.191   2.020   5.626  0.2755  0.1782 -0.4646
 6685SOL    HW131688   1.270   2.060   5.662  0.7791 -0.3312 -1.0086
 6685SOL    HW231689   1.132   2.095   5.620 -2.5273 -1.8597  1.4139
 6686SOL     OW31690   2.747   0.084   6.709 -0.2147 -0.2863 -0.4429
 6686SOL    HW131691   2.674   0.045   6.759  1.8065 -2.7665  0.5851
 6686SOL    HW231692   2.782   0.010   6.659  2.4904  0.6300  0.1201
 6687SOL     OW31693   1.065   2.688  12.259  0.3767 -0.2610  0.3296
 6687SOL    HW131694   1.023   2.622  12.314 -0.7318  1.1774  1.2094
 6687SOL    HW231695   1.057   2.653  12.170 -0.5062 -0.0551  0.3227
 6688SOL     OW31696   3.817   1.248  10.675  0.1687  0.2648 -0.2323
 6688SOL    HW131697   3.897   1.280  10.718  1.7955 -1.5000 -1.9322
 6688SOL    HW231698   3.811   1.161  10.714  1.9335 -0.3940 -1.4077
 6689SOL     OW31699   3.334   1.714  12.926  0.4328  0.0068  0.2638
 6689SOL    HW131700   3.427   1.733  12.914  1.2427 -2.9625  1.8110
 6689SOL    HW231701   3.301   1.699  12.837 -0.2598 -1.9688  0.8389
 6690SOL     OW31702   0.742   0.383   1.641 -0.3481  0.1076  0.1119
 6690SOL    HW131703   0.662   0.370   1.591  0.8992  0.0476 -1.8854
 6690SOL    HW231704   0.804   0.424   1.580  1.5564 -1.4416  1.0138
 6691SOL     OW31705   1.002   3.261   3.932 -0.0796 -0.7300  0.3984
 6691SOL    HW131706   1.090   3.268   3.896  0.2397  0.7405  1.4795
 6691SOL    HW231707   1.009   3.300   4.019 -2.2228  0.8099 -0.1363
 6692SOL     OW31708   1.488   2.156  14.444 -0.0333 -0.0743 -0.8869
 6692SOL    HW131709   1.584   2.148  14.446  0.0808  1.2619 -0.7449
 6692SOL    HW231710   1.458   2.247  14.443  2.5837  0.8412  0.8601
 6693SOL     OW31711   0.906   2.123   5.472  0.1498 -0.6151  0.3383
 6693SOL    HW131712   0.981   2.148   5.418  0.1759  1.9732  1.6074
 6693SOL    HW231713   0.844   2.106   5.401  2.6297  0.0865 -1.9924
 6694SOL     OW31714   1.180   2.449   0.324  0.1445  0.5281 -0.3577
 6694SOL    HW131715   1.090   2.455   0.292  0.0974  0.2968 -0.2692
 6694SOL    HW231716   1.235   2.433   0.248  0.1574 -0.0761 -0.2202
 6695SOL     OW31717   2.774   4.582   3.745 -0.6834 -0.1905  0.3591
 6695SOL    HW131718   2.727   4.610   3.667  1.0997 -0.7024 -0.8914
 6695SOL    HW231719   2.766   4.657   3.804 -0.5644 -0.9824  1.3957
 6696SOL     OW31720   2.066   3.038  11.494  0.1914 -1.1911 -0.5818
 6696SOL    HW131721   2.074   3.120  11.445 -2.0856 -1.2884 -1.1119
 6696SOL    HW231722   1.998   3.068  11.555  1.5524 -0.3254  0.4946
 6697SOL     OW31723   0.272   3.950   3.405  0.3907  0.5184 -0.2548
 6697SOL    HW131724   0.223   3.955   3.322  1.3481 -0.6252 -0.8804
 6697SOL    HW231725   0.359   3.969   3.370  0.6094 -1.7525 -0.9289
 6698SOL     OW31726   1.566   4.281   2.850  0.4924 -0.4109  0.2947
 6698SOL    HW131727   1.623   4.264   2.775  1.6271  1.3069  0.7807
 6698SOL    HW231728   1.553   4.376   2.848 -1.6286 -0.6808  0.7355
 6699SOL     OW31729   3.293   3.196   3.447  0.5868 -0.5233 -0.0411
 6699SOL    HW131730   3.248   3.177   3.529  0.8092 -2.2697 -0.3217
 6699SOL    HW231731   3.218   3.192   3.389  2.0490  2.6092 -2.1370
 6700SOL     OW31732   1.046   1.054  10.099 -0.5565  0.0996 -0.0570
 6700SOL    HW131733   1.013   0.971  10.065 -0.7411  0.4969 -0.8341
 6700SOL    HW231734   1.119   1.062  10.037 -3.0095  1.7681 -2.7288
 6701SOL     OW31735   4.494   3.435   3.257  0.6205 -0.0235  0.0261
 6701SOL    HW131736   4.399   3.424   3.251  0.4738  0.8148  0.7780
 6701SOL    HW231737   4.517   3.389   3.177 -1.7161  1.8304 -1.7211
 6702SOL     OW31738   0.983   4.138   2.860 -0.0167 -0.0720  0.7346
 6702SOL    HW131739   0.958   4.050   2.887 -2.7318 -0.2079 -2.3548
 6702SOL    HW231740   1.059   4.119   2.805 -1.1841 -0.0207 -0.8995
 6703SOL     OW31741   2.628   0.935  16.143 -0.2243 -0.0026  0.3029
 6703SOL    HW131742   2.562   0.866  16.135 -0.7347  0.3433  1.4368
 6703SOL    HW231743   2.704   0.877  16.147  1.4731  2.1476 -0.5447
 6704SOL     OW31744   2.070   3.643  17.206 -0.5583  0.1328 -0.1401
 6704SOL    HW131745   2.135   3.607  17.145 -0.1579  0.9986 -0.2336
 6704SOL    HW231746   1.994   3.587  17.193 -1.1476  1.1731 -1.2145
 6705SOL     OW31747   1.656   2.962   4.585 -0.4039 -0.0123  0.0233
 6705SOL    HW131748   1.623   2.995   4.668 -0.4148  0.6230 -0.2311
 6705SOL    HW231749   1.625   3.026   4.521 -0.8082 -0.6658 -0.4266
 6706SOL     OW31750   0.251   3.873   5.568 -0.2454 -0.3417 -0.5672
 6706SOL    HW131751   0.289   3.836   5.489  1.0950 -0.5913  0.1994
 6706SOL    HW231752   0.227   3.964   5.553 -2.4424 -0.5655  1.4115
 6707SOL     OW31753   4.493   3.005   4.357  0.5148  0.6198  0.2963
 6707SOL    HW131754   4.519   2.921   4.394 -0.0184  0.6044  0.6406
 6707SOL    HW231755   4.494   3.057   4.437 -1.7352  0.6734  0.2759
 6708SOL     OW31756   3.615   2.788   7.386 -0.2628  0.0947  0.2101
 6708SOL    HW131757   3.564   2.855   7.431  0.6084  0.0600  1.2669
 6708SOL    HW231758   3.617   2.717   7.451  1.8565  1.9148  2.1514
 6709SOL     OW31759   4.513   0.965  11.639  0.5426  0.1519  0.1797
 6709SOL    HW131760   4.545   0.932  11.555  0.5949 -1.9300  1.0174
 6709SOL    HW231761   4.420   0.944  11.631  0.8976 -0.7552 -1.4944
 6710SOL     OW31762   2.506   1.803   3.983 -0.1819 -0.1587 -0.6519
 6710SOL    HW131763   2.479   1.716   3.955  0.3911  0.4287 -3.0267
 6710SOL    HW231764   2.497   1.853   3.902 -2.3739 -1.5704 -1.2653
 6711SOL     OW31765   4.661   1.002   7.735 -0.0417  0.0787 -0.0271
 6711SOL    HW131766   4.599   1.075   7.736  1.2446  1.1679  1.7254
 6711SOL    HW231767   4.672   0.985   7.642 -0.8647  0.0528 -0.1130
 6712SOL     OW31768   3.187   1.861   5.158  0.3707 -0.6948 -0.1902
 6712SOL    HW131769   3.156   1.790   5.214 -1.7503 -1.3360 -2.1547
 6712SOL    HW231770   3.191   1.935   5.220  0.8289  1.1096 -2.3627
 6713SOL     OW31771   4.347   0.967   7.313  0.2721 -0.2322 -0.3860
 6713SOL    HW131772   4.280   0.977   7.246  2.2126 -0.7489 -2.3894
 6713SOL    HW231773   4.381   0.878   7.299  0.9069  0.0580 -0.6681
 6714SOL     OW31774   4.442   0.067   7.401  0.5554 -0.0728  0.4784
 6714SOL    HW131775   4.420   0.057   7.494  0.4949 -0.8542  0.3830
 6714SOL    HW231776   4.374   0.130   7.378 -0.6002 -1.0627  1.1667
 6715SOL     OW31777   1.222   3.239   3.759  0.0650  0.0660  0.2623
 6715SOL    HW131778   1.256   3.323   3.729  2.9247 -0.7515  1.1773
 6715SOL    HW231779   1.224   3.188   3.678 -0.2580 -0.7451  0.7584
 6716SOL     OW31780   2.608   3.000   7.496  0.4933  0.1151 -0.0913
 6716SOL    HW131781   2.595   3.094   7.486  1.9578  0.1776 -1.3823
 6716SOL    HW231782   2.615   3.012   7.591 -0.4224 -0.3522  0.0366
 6717SOL     OW31783   0.447   4.198  11.665  0.0470 -0.7549 -0.5851
 6717SOL    HW131784   0.459   4.269  11.728 -0.8530  0.2048 -1.4946
 6717SOL    HW231785   0.365   4.223  11.622 -0.4975 -0.0621  0.8438
 6718SOL     OW31786   0.560   1.388   5.630  0.3972 -0.3619 -0.1502
 6718SOL    HW131787   0.528   1.458   5.573  0.8468  0.5463  0.7283
 6718SOL    HW231788   0.474   1.348   5.646 -0.0718  0.1385 -1.4225
 6719SOL     OW31789   3.199   4.156   5.548 -0.1297 -0.1646 -0.6866
 6719SOL    HW131790   3.136   4.178   5.616  0.9348  3.6191 -0.9264
 6719SOL    HW231791   3.281   4.190   5.583 -0.2702  0.5087 -1.0141
 6720SOL     OW31792   3.219   4.681   3.632  0.3902  0.4646 -0.2369
 6720SOL    HW131793   3.141   4.633   3.660 -0.0338  1.1602 -0.2305
 6720SOL    HW231794   3.277   4.656   3.704 -0.2159 -1.2851 -0.3647
 6721SOL     OW31795   4.339   4.322   3.655  0.5827 -0.1871  0.3766
 6721SOL    HW131796   4.277   4.381   3.699 -0.3609 -0.1671 -0.9895
 6721SOL    HW231797   4.422   4.339   3.699  1.1443 -3.3518  0.4884
 6722SOL     OW31798   3.530   3.121   7.344 -0.1926 -0.3247  0.3438
 6722SOL    HW131799   3.538   3.203   7.392  0.0882 -0.9479  1.3443
 6722SOL    HW231800   3.497   3.060   7.410 -0.6356 -0.1270  0.3044
 6723SOL     OW31801   1.653   3.655   6.331 -0.1676 -0.1992 -0.5000
 6723SOL    HW131802   1.603   3.727   6.370  0.9731  0.3830 -0.1015
 6723SOL    HW231803   1.733   3.694   6.297 -2.3286  2.0963 -2.9890
 6724SOL     OW31804   1.732   3.065   8.296  0.4447 -0.4885 -0.1926
 6724SOL    HW131805   1.679   3.027   8.226  1.2202 -1.6795 -0.1294
 6724SOL    HW231806   1.675   3.069   8.373 -3.4118  1.2171 -3.1067
 6725SOL     OW31807   0.294   2.418  15.242 -0.2475 -0.2437 -0.2133
 6725SOL    HW131808   0.248   2.386  15.319 -1.3011  0.1507 -0.6728
 6725SOL    HW231809   0.326   2.332  15.212  1.4774  0.6364 -0.8945
 6726SOL     OW31810   2.698   2.794   5.892  0.2594 -0.8333  0.0822
 6726SOL    HW131811   2.735   2.746   5.818  0.0263 -0.9877  0.0674
 6726SOL    HW231812   2.772   2.836   5.937 -0.5282  0.2722  0.3501
 6727SOL     OW31813   1.851   3.178   5.044 -0.4096  0.3649 -0.6536
 6727SOL    HW131814   1.792   3.126   5.098  1.0845 -2.0747 -1.3299
 6727SOL    HW231815   1.865   3.257   5.095  0.5445 -0.4080  0.2811
 6728SOL     OW31816   0.984   1.639   5.995 -0.1898 -0.2913  0.5136
 6728SOL    HW131817   1.001   1.727   5.961  0.4349 -0.1963  1.0741
 6728SOL    HW231818   0.975   1.580   5.919  0.3836 -0.1985  0.3691
 6729SOL     OW31819   3.754   2.041  12.401  0.1508  1.0277  0.2589
 6729SOL    HW131820   3.772   2.051  12.494 -3.1665  0.8357  0.8926
 6729SOL    HW231821   3.673   2.087  12.382 -2.2821 -3.2178  0.2817
 6730SOL     OW31822   2.008   0.117   4.751  0.3525 -0.8582  0.2141
 6730SOL    HW131823   2.057   0.100   4.831  0.4093 -0.4711  0.2656
 6730SOL    HW231824   1.925   0.153   4.781  1.0310  0.8948  0.0245
 6731SOL     OW31825   4.192   1.218   1.897  0.2215  0.0297  0.0229
 6731SOL    HW131826   4.105   1.246   1.868  0.7050  0.1098 -1.3605
 6731SOL    HW231827   4.241   1.285   1.847 -1.7710  1.0587 -0.5503
 6732SOL     OW31828   0.932   2.921  12.209 -1.1603 -0.1233  0.1403
 6732SOL    HW131829   1.005   2.864  12.231 -0.9689  0.3613  0.7593
 6732SOL    HW231830   0.926   2.916  12.114  0.6979  0.0183  0.0260
 6733SOL     OW31831   4.108   2.752  14.240  0.8817 -0.5196  0.3203
 6733SOL    HW131832   4.123   2.843  14.215 -0.6610 -0.2945  0.1736
 6733SOL    HW231833   4.117   2.708  14.156  0.7363  1.2861 -0.6434
 6734SOL     OW31834   3.391   1.260  16.468  0.6020 -0.7330 -0.0393
 6734SOL    HW131835   3.383   1.189  16.532 -2.4659  0.0378  0.4110
 6734SOL    HW231836   3.297   1.278  16.462  0.8083  0.8487  1.4086
 6735SOL     OW31837   4.023   1.852   5.078 -0.2767  0.1898  0.1985
 6735SOL    HW131838   3.986   1.877   4.993 -1.3737  2.6258  1.3822
 6735SOL    HW231839   4.074   1.931   5.096  2.0838 -1.5337  0.9414
 6736SOL     OW31840   1.040   2.228  17.626 -0.4421 -0.0766 -0.0627
 6736SOL    HW131841   0.945   2.227  17.611 -0.4687  0.4852  0.0671
 6736SOL    HW231842   1.051   2.161  17.693  2.6315  1.2337  0.7078
 6737SOL     OW31843   4.272   3.941   2.080  0.0459  0.3313  0.1915
 6737SOL    HW131844   4.186   3.974   2.108  0.1041  0.1657  0.5532
 6737SOL    HW231845   4.253   3.934   1.986  2.4938  1.4055 -0.3805
 6738SOL     OW31846   4.189   4.101  14.946  0.9125 -0.1843 -0.9235
 6738SOL    HW131847   4.225   4.183  14.911  0.0443  0.4226 -0.3795
 6738SOL    HW231848   4.208   4.099  15.039  0.7155 -0.3425 -0.8875
 6739SOL     OW31849   0.870   3.543   0.813 -0.3337  0.4211 -0.2454
 6739SOL    HW131850   0.826   3.459   0.828  0.8828 -0.3370 -0.9476
 6739SOL    HW231851   0.961   3.513   0.812 -0.4779 -0.1219  1.7170
 6740SOL     OW31852   3.550   0.451   4.160 -0.0093  0.1474 -0.1009
 6740SOL    HW131853   3.561   0.389   4.088  1.0965  1.3736 -0.9840
 6740SOL    HW231854   3.536   0.380   4.223 -0.0333 -0.7894 -1.1637
 6741SOL     OW31855   2.549   3.719   8.847  0.6567 -0.0339  0.3978
 6741SOL    HW131856   2.546   3.736   8.752 -2.4561 -1.5504  0.2004
 6741SOL    HW231857   2.582   3.629   8.852  0.1249 -0.2502  0.1275
 6742SOL     OW31858   0.976   3.970   0.499 -0.2792 -0.5216 -0.4947
 6742SOL    HW131859   0.933   3.968   0.413 -0.9784 -0.4633 -0.1447
 6742SOL    HW231860   1.030   4.049   0.504  1.6106 -1.8044 -0.7225
 6743SOL     OW31861   3.483   3.407   9.507  0.1211  0.3793  0.0327
 6743SOL    HW131862   3.528   3.453   9.579  1.7145  1.5209 -1.6863
 6743SOL    HW231863   3.463   3.324   9.550 -0.2841  0.0469 -0.8097
 6744SOL     OW31864   3.361   4.340   5.224 -0.3552  0.2413  0.5943
 6744SOL    HW131865   3.273   4.340   5.262 -0.7716 -0.4151 -0.3642
 6744SOL    HW231866   3.410   4.279   5.279 -1.6936  0.5326  2.1225
 6745SOL     OW31867   2.726   2.384   6.074 -0.0971  0.3228  0.6731
 6745SOL    HW131868   2.744   2.397   6.167  0.7683 -3.2195  1.0280
 6745SOL    HW231869   2.778   2.449   6.027 -1.9735  0.5477 -1.0880
 6746SOL     OW31870   1.625   2.793   5.110 -0.2742  0.1342  0.0257
 6746SOL    HW131871   1.600   2.757   5.024 -2.2588  0.6918  0.3622
 6746SOL    HW231872   1.574   2.874   5.113 -0.9603 -0.1946 -2.4376
 6747SOL     OW31873   3.529   3.995   1.917 -0.4047 -0.1409 -0.1315
 6747SOL    HW131874   3.531   3.904   1.945  1.9366 -0.5599 -1.6638
 6747SOL    HW231875   3.450   4.021   1.964 -0.1262 -0.1009  0.3162
 6748SOL     OW31876   2.734   2.602   7.717 -0.4750  0.6984 -0.4135
 6748SOL    HW131877   2.704   2.660   7.647  0.3968 -2.6614 -3.5889
 6748SOL    HW231878   2.749   2.519   7.671 -2.7603  0.8039 -1.3349
 6749SOL     OW31879   2.483   1.015  17.658 -0.1277  0.4802  0.4976
 6749SOL    HW131880   2.557   0.983  17.709  0.9155 -0.1133 -1.4151
 6749SOL    HW231881   2.484   0.971  17.573  0.7802  0.0258  0.7458
 6750SOL     OW31882   2.670   3.371   5.611 -0.5977  0.5426 -0.4427
 6750SOL    HW131883   2.638   3.452   5.651 -2.6905  0.1240 -1.2945
 6750SOL    HW231884   2.731   3.350   5.682 -0.8903  0.3716 -0.2428
 6751SOL     OW31885   3.821   3.061   7.381  0.5616  0.7663 -0.3267
 6751SOL    HW131886   3.743   3.088   7.332  0.6867 -0.5865 -1.2727
 6751SOL    HW231887   3.834   3.127   7.449  2.2828 -2.1394  2.1148
 6752SOL     OW31888   2.993   1.366   8.129 -0.1721  0.0961 -0.7002
 6752SOL    HW131889   2.996   1.346   8.036  0.5202  1.0118 -0.8776
 6752SOL    HW231890   3.076   1.414   8.125  1.0989 -2.0611 -0.5485
 6753SOL     OW31891   0.341   3.972  11.390 -0.1343 -0.7168  0.0749
 6753SOL    HW131892   0.293   4.054  11.378  0.7182 -0.1728  0.3509
 6753SOL    HW231893   0.278   3.925  11.444  0.1960 -0.6159  0.5486
 6754SOL     OW31894   2.721   0.152   0.281  0.0398  0.0478 -0.4938
 6754SOL    HW131895   2.628   0.168   0.260 -0.1899 -1.7545 -0.8150
 6754SOL    HW231896   2.743   0.067   0.243 -2.8234 -0.9556  0.0396
 6755SOL     OW31897   1.240   4.461   6.442 -0.3465  0.1957  0.1932
 6755SOL    HW131898   1.312   4.490   6.499  0.1669 -1.2519  0.2748
 6755SOL    HW231899   1.276   4.429   6.360 -2.6597 -0.2253 -0.6398
 6756SOL     OW31900   0.406   1.857   8.168  0.2489 -0.3851 -0.1261
 6756SOL    HW131901   0.422   1.780   8.113  2.2618 -0.2829  0.2906
 6756SOL    HW231902   0.328   1.900   8.133 -0.5838 -0.0145  2.2073
 6757SOL     OW31903   1.415   0.175  13.422  0.5026 -0.2914  0.2650
 6757SOL    HW131904   1.424   0.156  13.329  0.3188 -1.4165  0.4882
 6757SOL    HW231905   1.351   0.108  13.445  2.6405 -2.0026  1.2248
 6758SOL     OW31906   1.614   0.088   5.516 -0.1801  0.3200 -0.6526
 6758SOL    HW131907   1.600   0.004   5.559 -1.3313  0.8820  0.0687
 6758SOL    HW231908   1.649   0.053   5.434  1.2484  0.5204 -0.1239
 6759SOL     OW31909   2.167   2.033   5.346  1.0344  0.8373  0.3956
 6759SOL    HW131910   2.186   1.995   5.432  1.3836 -0.0741 -0.0947
 6759SOL    HW231911   2.082   2.070   5.369  1.0899  1.5142 -0.4744
 6760SOL     OW31912   3.665   4.641   5.936 -0.1580 -0.1023  0.4275
 6760SOL    HW131913   3.578   4.618   5.967 -1.1255  1.3798 -1.1886
 6760SOL    HW231914   3.682   4.567   5.878  0.6414  0.8175 -0.5115
 6761SOL     OW31915   4.577   4.477  11.685  0.6675  0.6988 -0.2811
 6761SOL    HW131916   4.517   4.548  11.663 -0.6773 -0.1628  0.6702
 6761SOL    HW231917   4.652   4.532  11.706 -0.0814  1.8169 -0.5704
 6762SOL     OW31918   1.761   3.665   3.441  0.1429 -0.6656 -0.1935
 6762SOL    HW131919   1.770   3.716   3.360  0.2555 -1.2192 -0.5361
 6762SOL    HW231920   1.708   3.719   3.499  1.0617  1.8598 -1.7443
 6763SOL     OW31921   1.172   2.527   9.823  0.2343  0.0956  0.6115
 6763SOL    HW131922   1.200   2.605   9.775  0.7030 -0.5838 -0.2093
 6763SOL    HW231923   1.100   2.497   9.768  0.7748 -3.2018  1.7290
 6764SOL     OW31924   1.755   0.825  16.928  0.0223  0.2226  0.1205
 6764SOL    HW131925   1.729   0.832  17.020  1.3387 -1.1274  0.5853
 6764SOL    HW231926   1.800   0.908  16.912 -0.7771  0.6585  0.1508
 6765SOL     OW31927   2.764   2.000   0.368 -0.6008  0.1305 -0.4984
 6765SOL    HW131928   2.705   1.926   0.361 -2.1870  1.3327  0.2783
 6765SOL    HW231929   2.703   2.068   0.399 -0.3886  0.0439  0.1239
 6766SOL     OW31930   3.398   0.333   4.846  0.0115 -0.2332  0.0518
 6766SOL    HW131931   3.460   0.261   4.861  0.0598 -0.0632  0.6448
 6766SOL    HW231932   3.392   0.336   4.750 -0.9362  0.3316  0.1347
 6767SOL     OW31933   4.454   4.561   9.865  0.1449  0.8259  0.1656
 6767SOL    HW131934   4.481   4.470   9.854  1.1137  1.2535 -0.9857
 6767SOL    HW231935   4.401   4.570   9.786 -0.5809 -0.7673  0.4670
 6768SOL     OW31936   0.130   0.354   5.452 -0.0558 -0.0172 -0.3874
 6768SOL    HW131937   0.207   0.350   5.396  0.3619 -2.2731  0.3848
 6768SOL    HW231938   0.177   0.379   5.532 -1.3657 -0.4734  0.5219
 6769SOL     OW31939   2.795   1.253   8.983 -0.2202 -0.2950 -0.2733
 6769SOL    HW131940   2.739   1.229   8.909  0.0710 -2.5899  0.2432
 6769SOL    HW231941   2.844   1.325   8.942  0.1545 -0.2010  0.3448
 6770SOL     OW31942   4.524   3.849  16.034 -0.7274 -0.0620 -0.2237
 6770SOL    HW131943   4.521   3.907  16.111  1.6097 -0.3385  0.0520
 6770SOL    HW231944   4.471   3.900  15.973  0.8559  0.3223 -1.2610
 6771SOL     OW31945   1.578   0.213  10.096 -0.4280  0.4944 -0.3938
 6771SOL    HW131946   1.560   0.133  10.145 -1.1590  0.5408 -0.5969
 6771SOL    HW231947   1.510   0.205  10.029  0.2432  1.6036 -1.2056
 6772SOL     OW31948   4.449   1.084   4.656 -0.2325 -0.4288  0.5196
 6772SOL    HW131949   4.437   1.159   4.714 -1.6378 -0.6010  0.4309
 6772SOL    HW231950   4.361   1.050   4.673  0.0418 -1.1144  0.5793
 6773SOL     OW31951   3.517   0.110   6.426 -0.0652 -0.1391  0.3202
 6773SOL    HW131952   3.491   0.197   6.455  0.6346  0.2989 -0.3362
 6773SOL    HW231953   3.434   0.062   6.425 -0.1459  0.0129 -0.2098
 6774SOL     OW31954   2.356   3.356   0.730 -0.1834 -0.0628  0.5744
 6774SOL    HW131955   2.390   3.445   0.741 -1.6207  0.9140 -2.8684
 6774SOL    HW231956   2.402   3.329   0.651 -1.4554 -1.0024  0.1637
 6775SOL     OW31957   1.677   2.836   5.473  0.0264  0.3681  0.6934
 6775SOL    HW131958   1.647   2.772   5.409  2.0057 -1.0409  1.1621
 6775SOL    HW231959   1.771   2.816   5.472 -0.0150  0.1441  1.3700
 6776SOL     OW31960   4.241   2.341   8.010  0.5083 -0.1827 -0.1339
 6776SOL    HW131961   4.232   2.273   8.077 -0.4039  0.4584  0.3989
 6776SOL    HW231962   4.247   2.414   8.073 -1.6578  0.0442 -0.2133
 6777SOL     OW31963   1.905   2.772   3.069  0.6486 -0.0789 -0.5678
 6777SOL    HW131964   1.846   2.829   3.117  1.9081  0.0560  0.8214
 6777SOL    HW231965   1.992   2.788   3.106  1.8095  0.5456 -3.5052
 6778SOL     OW31966   2.680   2.584   4.054 -0.3215  0.3785 -0.4553
 6778SOL    HW131967   2.637   2.608   4.136 -0.4231  0.6961 -0.6014
 6778SOL    HW231968   2.766   2.562   4.091 -0.4930  2.3600  1.0916
 6779SOL     OW31969   4.452   2.408   9.332  0.3360 -0.3066  0.3847
 6779SOL    HW131970   4.475   2.474   9.267  0.5482 -1.8607 -1.1479
 6779SOL    HW231971   4.359   2.407   9.309  0.7252 -1.8504 -1.1595
 6780SOL     OW31972   3.687   2.445   2.949  0.4406  0.5760 -0.1924
 6780SOL    HW131973   3.737   2.364   2.947 -0.3026  0.0139  2.9021
 6780SOL    HW231974   3.672   2.453   3.044 -0.3772  0.7293 -0.3426
 6781SOL     OW31975   2.733   0.304  10.166  0.0874  0.1838  0.2497
 6781SOL    HW131976   2.807   0.360  10.141 -0.6083  0.8172 -0.4049
 6781SOL    HW231977   2.664   0.354  10.122 -0.1275 -0.2578  0.0781
 6782SOL     OW31978   2.552   3.128   3.157 -0.0255  0.6501  0.1090
 6782SOL    HW131979   2.630   3.149   3.106 -0.7003 -4.4083 -2.9476
 6782SOL    HW231980   2.491   3.113   3.085  0.6381 -1.5484  0.0114
 6783SOL     OW31981   1.948   1.802   5.022  0.2162 -0.1297 -0.0099
 6783SOL    HW131982   1.925   1.847   5.103  0.4126 -0.9067  0.4775
 6783SOL    HW231983   2.012   1.859   4.980  0.8994 -0.0698  1.1047
 6784SOL     OW31984   0.655   2.644   6.379 -0.3306 -0.3451  0.5101
 6784SOL    HW131985   0.685   2.735   6.382  0.4647 -0.4963 -3.7057
 6784SOL    HW231986   0.697   2.601   6.454  0.5192  2.1609  1.4861
 6785SOL     OW31987   2.421   3.328  14.697 -0.1447  0.1716  0.0393
 6785SOL    HW131988   2.498   3.383  14.709  0.9685 -1.5149  0.5253
 6785SOL    HW231989   2.366   3.353  14.771  1.6639  0.8863  1.1381
 6786SOL     OW31990   2.488   2.819  12.572 -0.0840  0.0871  0.1438
 6786SOL    HW131991   2.516   2.903  12.535  2.0277 -1.1015 -0.9512
 6786SOL    HW231992   2.570   2.783  12.607 -1.7337 -2.8537  0.9865
 6787SOL     OW31993   2.751   2.819   6.283 -0.2831 -0.1462 -0.5109
 6787SOL    HW131994   2.791   2.736   6.309 -0.5455  0.3504  1.4715
 6787SOL    HW231995   2.665   2.778   6.270  1.0251 -2.7626 -0.9321
 6788SOL     OW31996   0.070   3.561   6.519 -0.2175 -0.7671 -0.2774
 6788SOL    HW131997   0.034   3.576   6.606  2.5603  1.3255  0.4714
 6788SOL    HW231998   4.731   3.532   6.465  1.1500 -0.2142 -2.4743
 6789SOL     OW31999   2.327   4.404   4.500  0.1428  0.1267 -0.0024
 6789SOL    HW132000   2.383   4.453   4.561  0.9121 -0.9803  0.1793
 6789SOL    HW232001   2.367   4.434   4.418 -1.2339 -0.2688 -0.8172
 6790SOL     OW32002   2.455   0.288   1.724  0.7717  0.6606 -0.1914
 6790SOL    HW132003   2.429   0.257   1.810 -1.0414  0.0869 -0.9530
 6790SOL    HW232004   2.543   0.313   1.753  0.5508  1.5707 -0.3104
 6791SOL     OW32005   3.374   0.865   2.663  0.4194  0.1234  0.5611
 6791SOL    HW132006   3.303   0.848   2.725  1.7096 -0.6155  1.8362
 6791SOL    HW232007   3.318   0.864   2.585 -0.7790 -0.3002  1.4394
 6792SOL     OW32008   3.642   0.618   3.777 -0.1138  0.6064 -0.0636
 6792SOL    HW132009   3.573   0.678   3.805 -1.7056 -0.3125 -1.9853
 6792SOL    HW232010   3.656   0.575   3.861 -4.2603 -0.2372  0.2082
 6793SOL     OW32011   0.361   4.647  14.584  0.2434  0.6067  0.4424
 6793SOL    HW132012   0.288   4.700  14.551  1.1835  0.9536 -1.0926
 6793SOL    HW232013   0.391   4.704  14.655 -0.4203  1.0777  0.3451
 6794SOL     OW32014   1.953   4.117  16.323  0.0093 -0.3255  0.3349
 6794SOL    HW132015   1.881   4.107  16.385 -1.4667  2.1322 -0.9695
 6794SOL    HW232016   2.014   4.048  16.348  1.3097  1.3779  1.8800
 6795SOL     OW32017   4.496   3.328   7.592 -0.0878 -0.0519  0.2499
 6795SOL    HW132018   4.517   3.353   7.502  0.1264 -1.5883 -0.1363
 6795SOL    HW232019   4.403   3.351   7.595  0.1325  0.5389  2.7777
 6796SOL     OW32020   2.722   2.663   7.320 -0.3641  0.1414  0.0043
 6796SOL    HW132021   2.647   2.679   7.378  0.6375  0.7860  1.1264
 6796SOL    HW232022   2.667   2.622   7.254  1.5125  0.4825 -1.7610
 6797SOL     OW32023   1.965   0.753   8.858  0.3156 -0.2689  0.5843
 6797SOL    HW132024   2.059   0.770   8.865  0.4180 -0.4730 -0.3372
 6797SOL    HW232025   1.960   0.678   8.799 -0.9056  1.9072 -2.0556
 6798SOL     OW32026   3.645   2.114  13.236 -0.0458 -0.0738 -0.6373
 6798SOL    HW132027   3.606   2.054  13.299  1.6418 -0.9643 -0.4547
 6798SOL    HW232028   3.615   2.076  13.153  0.8077  1.6354 -1.7416
 6799SOL     OW32029   2.660   0.803   0.019  0.0551 -0.1496  0.0340
 6799SOL    HW132030   2.574   0.782   0.057 -0.0326 -0.6995 -0.4804
 6799SOL    HW232031   2.704   0.719   0.011  1.7094  0.6882  0.3953
 6800SOL     OW32032   0.780   2.738  17.140 -0.3656 -0.5035  0.0478
 6800SOL    HW132033   0.720   2.689  17.196  1.2678 -1.3126  1.0858
 6800SOL    HW232034   0.714   2.798  17.106  0.1486 -1.4450 -2.6226
 6801SOL     OW32035   1.587   4.035   3.944  0.2072  0.1239 -0.2794
 6801SOL    HW132036   1.653   4.004   3.882  0.7815  1.9062 -0.5720
 6801SOL    HW232037   1.617   3.980   4.017  0.5756  0.0746 -0.4661
 6802SOL     OW32038   4.381   4.536  10.162 -0.0069  0.1150  0.1264
 6802SOL    HW132039   4.402   4.520  10.070 -0.3118 -1.7011  0.3863
 6802SOL    HW232040   4.384   4.444  10.187 -0.5174  0.0096 -0.1978
 6803SOL     OW32041   4.138   1.707  11.980 -0.0578  0.2457 -0.0931
 6803SOL    HW132042   4.176   1.625  11.949 -0.6370  1.0675 -2.9283
 6803SOL    HW232043   4.057   1.668  12.015  0.2817  0.8695  1.4090
 6804SOL     OW32044   1.538   3.197   5.744 -0.2304 -0.2674  0.0514
 6804SOL    HW132045   1.562   3.287   5.765  3.6334 -0.8941 -1.7699
 6804SOL    HW232046   1.626   3.161   5.734  0.6158  1.9967 -0.7537
 6805SOL     OW32047   4.605   3.322  15.388 -0.4814 -0.9767 -0.0574
 6805SOL    HW132048   4.518   3.287  15.408  0.0837 -1.2343  1.9017
 6805SOL    HW232049   4.587   3.351  15.298  0.3769  1.1115  0.4406
 6806SOL     OW32050   3.218   4.186  11.792 -0.3189 -0.0842  0.5226
 6806SOL    HW132051   3.161   4.197  11.868 -2.1711 -1.5622 -0.6567
 6806SOL    HW232052   3.297   4.154  11.835  0.0684 -2.2352 -1.7765
 6807SOL     OW32053   3.618   2.831   2.634 -0.6995 -0.1208 -0.4106
 6807SOL    HW132054   3.555   2.871   2.695  2.1975 -0.6524  2.9123
 6807SOL    HW232055   3.683   2.791   2.691 -0.1423  0.4552 -0.6440
 6808SOL     OW32056   4.187   0.441   4.113  0.2218  0.2754  0.2690
 6808SOL    HW132057   4.236   0.360   4.102  0.6959  0.6021 -0.0471
 6808SOL    HW232058   4.173   0.452   4.207 -0.3716  0.2544  0.1868
 6809SOL     OW32059   2.526   3.309  15.807  0.0677  0.0855 -0.2701
 6809SOL    HW132060   2.461   3.254  15.850 -0.1824  0.3613 -0.2959
 6809SOL    HW232061   2.485   3.317  15.721 -1.0553 -1.5457  0.1166
 6810SOL     OW32062   2.181   2.279  12.974  0.1310 -0.2263  0.4532
 6810SOL    HW132063   2.159   2.297  13.065  0.0372  1.1227  0.1641
 6810SOL    HW232064   2.252   2.220  12.997  0.8882  0.5639  0.1333
 6811SOL     OW32065   3.998   1.316   4.964  0.3600 -0.0078 -0.3019
 6811SOL    HW132066   4.017   1.396   4.915 -1.3336  1.3886  1.3149
 6811SOL    HW232067   3.915   1.336   5.007  1.5166 -0.3564  2.1254
 6812SOL     OW32068   1.435   3.116  12.180 -0.4468  0.4152 -0.1973
 6812SOL    HW132069   1.509   3.057  12.196  0.7299  1.8158 -0.4687
 6812SOL    HW232070   1.370   3.064  12.133  0.8951 -0.6561 -0.8979
 6813SOL     OW32071   1.702   0.844   6.869  0.2463  0.1188  0.4331
 6813SOL    HW132072   1.719   0.751   6.882 -2.1834 -0.6383 -1.5961
 6813SOL    HW232073   1.779   0.877   6.822 -0.9459 -0.8607 -2.2287
 6814SOL     OW32074   0.304   0.793  14.680 -1.2448  0.6123 -0.4332
 6814SOL    HW132075   0.370   0.849  14.640  0.5704 -0.9854  0.3309
 6814SOL    HW232076   0.356   0.724  14.721 -3.6464 -1.4809 -0.9616
 6815SOL     OW32077   1.133   0.475  11.065 -0.4475 -0.4900  0.6059
 6815SOL    HW132078   1.124   0.395  11.013 -2.5867  0.3616 -0.3045
 6815SOL    HW232079   1.079   0.436  11.134  0.5164  0.6378  1.9959
 6816SOL     OW32080   2.082   2.361  10.487  1.1479  0.1493  0.2540
 6816SOL    HW132081   2.054   2.334  10.575  0.2735 -2.5059 -0.8575
 6816SOL    HW232082   2.082   2.278  10.440  1.5762 -0.1264  0.7350
 6817SOL     OW32083   3.833   4.056   7.833  0.3453 -0.0729 -0.3217
 6817SOL    HW132084   3.908   4.110   7.854 -0.4118  0.9133 -0.1376
 6817SOL    HW232085   3.780   4.119   7.783  0.0566 -0.9613 -1.1319
 6818SOL     OW32086   2.265   4.631   7.912 -0.4139  0.1420 -0.0028
 6818SOL    HW132087   2.189   4.590   7.952 -0.4918  0.6324  0.3486
 6818SOL    HW232088   2.338   4.596   7.965 -0.4396 -1.3424 -0.9451
 6819SOL     OW32089   2.535   3.722  17.223 -0.4312  0.2711 -0.1451
 6819SOL    HW132090   2.563   3.804  17.263  0.5848  0.6289 -1.5682
 6819SOL    HW232091   2.462   3.745  17.166  0.8371 -0.1136 -1.9139
 6820SOL     OW32092   1.769   0.640   3.494  0.4851  0.4270  0.0331
 6820SOL    HW132093   1.816   0.671   3.416  0.4390 -0.4355 -0.3451
 6820SOL    HW232094   1.678   0.634   3.467  0.2544 -0.5675  1.0173
 6821SOL     OW32095   0.465   3.676   3.100  0.1278 -0.0928 -0.3158
 6821SOL    HW132096   0.521   3.704   3.173 -0.9180 -0.3310  0.5859
 6821SOL    HW232097   0.398   3.744   3.101 -1.6673 -1.8578 -2.4704
 6822SOL     OW32098   4.626   2.440   3.766  0.8582  0.4442  0.3065
 6822SOL    HW132099   4.571   2.517   3.756  0.1846 -0.0577  0.1826
 6822SOL    HW232100   4.597   2.414   3.854 -1.4952  2.5694  0.1367
 6823SOL     OW32101   0.967   4.365  17.599 -0.4244  0.5414 -0.4155
 6823SOL    HW132102   0.889   4.386  17.548 -0.0681  0.7807 -0.8618
 6823SOL    HW232103   0.998   4.280  17.568 -0.7623  0.0621  0.5546
 6824SOL     OW32104   0.442   3.014  10.399 -0.4506 -0.4385 -0.7016
 6824SOL    HW132105   0.518   3.021  10.456 -1.7663 -1.9744  1.2763
 6824SOL    HW232106   0.386   3.085  10.431  0.2714 -0.7154  1.2057
 6825SOL     OW32107   4.475   2.761   4.504  0.0705 -0.0856 -0.7211
 6825SOL    HW132108   4.422   2.736   4.580  1.9768 -2.6638 -0.2178
 6825SOL    HW232109   4.499   2.676   4.466  1.2976 -0.2386  0.4375
 6826SOL     OW32110   3.601   2.048  17.726 -0.5524 -0.5217 -0.1075
 6826SOL    HW132111   3.680   1.994  17.733  1.2167  1.8859 -1.4309
 6826SOL    HW232112   3.612   2.089   0.074 -2.2846 -1.5185  0.5839
 6827SOL     OW32113   1.725   1.377  14.715 -0.8703 -0.3007  0.2069
 6827SOL    HW132114   1.640   1.395  14.675  0.4900  0.4268 -2.3073
 6827SOL    HW232115   1.759   1.463  14.738  1.3676  0.0900 -4.6050
 6828SOL     OW32116   3.342   3.102   6.631 -0.4180  0.1716  0.0806
 6828SOL    HW132117   3.408   3.039   6.662 -2.5003 -2.2913 -0.4180
 6828SOL    HW232118   3.276   3.070   6.694  0.5442 -1.6565  0.1761
 6829SOL     OW32119   0.683   0.179   1.835 -0.0324 -0.2005 -0.4763
 6829SOL    HW132120   0.743   0.158   1.907 -2.3466 -0.8154  1.2952
 6829SOL    HW232121   0.732   0.233   1.774 -2.2009  1.2450 -0.9374
 6830SOL     OW32122   2.018   0.749   4.326  0.7826 -0.2296  0.2745
 6830SOL    HW132123   2.018   0.661   4.289 -1.2762  0.6140 -1.6763
 6830SOL    HW232124   1.960   0.742   4.402  1.3841  0.9389  0.8325
 6831SOL     OW32125   3.475   0.471   8.149 -0.2928  0.0504  0.0448
 6831SOL    HW132126   3.518   0.536   8.204  3.6452 -2.5768  0.0744
 6831SOL    HW232127   3.523   0.476   8.067 -0.5276  2.3022  0.0564
 6832SOL     OW32128   4.157   1.720   5.807  0.2624  0.5862 -0.2484
 6832SOL    HW132129   4.249   1.730   5.780  0.2648  0.0157 -0.4424
 6832SOL    HW232130   4.112   1.719   5.723 -1.4222  1.8752  0.6340
 6833SOL     OW32131   3.906   1.546   4.189 -0.0684  0.1645 -0.2370
 6833SOL    HW132132   3.970   1.502   4.245 -0.6444  0.7366  0.8712
 6833SOL    HW232133   3.876   1.611   4.252  1.3020  0.9153 -0.3452
 6834SOL     OW32134   1.191   1.211  13.578 -0.0802  0.0939 -0.2949
 6834SOL    HW132135   1.146   1.175  13.655  1.5319  1.0535  1.0974
 6834SOL    HW232136   1.240   1.132  13.555  0.6738  0.6155 -0.4695
 6835SOL     OW32137   3.139   4.451   2.930  0.5573 -0.0505  0.1263
 6835SOL    HW132138   3.129   4.546   2.933  1.8115  0.1071 -1.0093
 6835SOL    HW232139   3.190   4.443   2.849 -1.2406  1.7264 -1.1791
 6836SOL     OW32140   0.997   0.245   1.939  0.6518 -0.2182 -0.3205
 6836SOL    HW132141   1.053   0.320   1.915  0.1907 -0.4478 -2.1372
 6836SOL    HW232142   0.964   0.270   2.025  1.3955 -0.3332 -0.0014
 6837SOL     OW32143   1.194   1.157  12.738  0.4591 -0.3980 -0.0033
 6837SOL    HW132144   1.171   1.098  12.666  2.3123  1.0902 -1.8311
 6837SOL    HW232145   1.154   1.232  12.693 -0.3542 -1.5575 -1.2034
 6838SOL     OW32146   2.135   3.365   6.110  0.0304  0.2523 -0.1667
 6838SOL    HW132147   2.054   3.375   6.160  1.2180  1.8529  1.4359
 6838SOL    HW232148   2.110   3.291   6.054  0.2755 -0.9993  1.3820
 6839SOL     OW32149   3.900   4.651  11.944  0.0648  1.0336 -0.2814
 6839SOL    HW132150   3.962   4.591  11.986  0.8141  1.4501 -0.7981
 6839SOL    HW232151   3.868   4.593  11.875 -0.9638  0.4307  0.7193
 6840SOL     OW32152   3.003   2.404   4.672 -0.0894  0.3342  0.6193
 6840SOL    HW132153   2.934   2.352   4.713  0.4702 -0.1817  0.9113
 6840SOL    HW232154   3.006   2.477   4.734  0.2691  0.3071  0.6342
 6841SOL     OW32155   4.708   2.626   0.287  0.6340  0.1389 -0.3104
 6841SOL    HW132156   0.032   2.613   0.362  0.5993  0.1890 -0.2746
 6841SOL    HW232157   4.623   2.622   0.330  0.6582  1.9940 -0.1028
 6842SOL     OW32158   3.903   0.595   8.494 -0.4106 -0.3281  0.0726
 6842SOL    HW132159   3.970   0.590   8.562  1.2040  0.9682 -1.4213
 6842SOL    HW232160   3.849   0.661   8.538 -0.9714 -1.1008  0.5396
 6843SOL     OW32161   2.663   0.454   3.085  0.3984  0.2338 -0.4503
 6843SOL    HW132162   2.750   0.493   3.077  0.8246 -0.6586 -0.1606
 6843SOL    HW232163   2.625   0.485   3.167  0.2286  1.4639 -0.9845
 6844SOL     OW32164   1.546   1.630   5.245 -0.2801  0.7150 -0.0661
 6844SOL    HW132165   1.625   1.585   5.276 -1.1564 -0.3205  0.6475
 6844SOL    HW232166   1.545   1.695   5.315 -0.1197  0.4818  0.1528
 6845SOL     OW32167   4.285   0.894   2.789  0.6846  0.2277 -0.0863
 6845SOL    HW132168   4.254   0.860   2.706 -0.3298  0.1106  0.3436
 6845SOL    HW232169   4.252   0.984   2.792 -1.1491 -0.4882  0.9276
 6846SOL     OW32170   3.453   4.569   6.104 -0.0956  0.0368  0.1072
 6846SOL    HW132171   3.515   4.580   6.176  2.4249  2.1907 -2.3548
 6846SOL    HW232172   3.446   4.474   6.110 -2.8604  0.3358  1.3833
 6847SOL     OW32173   2.953   1.414   7.513 -0.0873 -0.4527  0.6083
 6847SOL    HW132174   3.032   1.417   7.459 -0.7470  1.9524 -0.2230
 6847SOL    HW232175   2.894   1.444   7.444  0.3207  1.2526  0.9855
 6848SOL     OW32176   1.146   4.121   3.527  0.6580  0.5237 -0.1648
 6848SOL    HW132177   1.235   4.117   3.562 -0.0609  1.1929  1.7886
 6848SOL    HW232178   1.122   4.213   3.538 -1.3490  0.0663 -0.6452
 6849SOL     OW32179   1.396   0.639   7.348 -0.6112  0.2916  0.5213
 6849SOL    HW132180   1.441   0.604   7.271 -0.9799  1.2075 -0.1256
 6849SOL    HW232181   1.365   0.558   7.387  0.9638 -0.5770 -0.0439
 6850SOL     OW32182   2.489   1.464  14.290  0.1040 -0.4237  0.2332
 6850SOL    HW132183   2.465   1.557  14.292  0.6465 -0.2767  0.0268
 6850SOL    HW232184   2.579   1.465  14.256 -0.4274 -2.5269 -1.2054
 6851SOL     OW32185   0.333   3.708   4.878  0.6000  0.5115 -0.1628
 6851SOL    HW132186   0.391   3.661   4.938  2.7587  0.5144 -2.2633
 6851SOL    HW232187   0.370   3.689   4.792 -3.6292 -2.3552 -1.3793
 6852SOL     OW32188   3.112   4.422  17.525  0.0158 -0.4722  0.1443
 6852SOL    HW132189   3.205   4.427  17.504  0.1465 -0.2500  0.7556
 6852SOL    HW232190   3.121   4.405  17.619 -0.1551 -0.7776  0.1055
 6853SOL     OW32191   1.004   3.493   7.307 -0.0104 -0.5712 -0.3236
 6853SOL    HW132192   0.946   3.544   7.249 -0.6746  1.3898  2.0638
 6853SOL    HW232193   1.012   3.412   7.256 -1.1095 -1.6785  1.2407
 6854SOL     OW32194   4.167   2.149   2.245 -0.0603 -0.0594 -0.3131
 6854SOL    HW132195   4.167   2.211   2.172 -1.0482 -0.1072 -0.3491
 6854SOL    HW232196   4.182   2.204   2.322  2.3445 -0.3407 -0.5547
 6855SOL     OW32197   2.886   0.039  10.076 -0.5655  0.3925  0.4011
 6855SOL    HW132198   2.848   4.707  10.133 -1.4089  2.1652  1.9214
 6855SOL    HW232199   2.819   0.065  10.013  0.6306  0.0786 -0.9825
 6856SOL     OW32200   2.845   4.496   8.676  0.0591  0.1081 -0.1336
 6856SOL    HW132201   2.751   4.476   8.675  0.9236 -4.0124  0.6795
 6856SOL    HW232202   2.840   4.590   8.693  1.4491  0.0150  0.7923
 6857SOL     OW32203   3.365   0.460  17.527 -0.0050 -0.6142 -0.2905
 6857SOL    HW132204   3.440   0.514  17.502 -0.2285  0.6119  1.6401
 6857SOL    HW232205   3.410   0.386  17.568  0.5556  0.3841  0.9049
 6858SOL     OW32206   1.817   3.161   6.491 -0.6863  0.1645  0.5173
 6858SOL    HW132207   1.786   3.224   6.427 -4.0016  0.5502  2.4861
 6858SOL    HW232208   1.844   3.225   6.557  1.4716  1.8618 -2.0472
 6859SOL     OW32209   4.639   1.530   2.647  0.0336 -0.3447 -0.1004
 6859SOL    HW132210   4.603   1.452   2.690  0.5023 -1.6757 -2.1058
 6859SOL    HW232211   4.571   1.585   2.684  0.4089  0.4906 -0.6570
 6860SOL     OW32212   4.177   2.050   7.592  0.2327 -0.4445  0.4010
 6860SOL    HW132213   4.261   2.028   7.551  0.6761 -0.5320  1.3542
 6860SOL    HW232214   4.170   1.984   7.660 -0.3377  0.9319  1.6775
 6861SOL     OW32215   4.266   2.035   5.549  0.3402 -0.1135 -0.6098
 6861SOL    HW132216   4.236   2.125   5.533  1.5405  0.5063  0.5822
 6861SOL    HW232217   4.316   2.049   5.630  0.9639 -1.1793 -0.8196
 6862SOL     OW32218   1.165   4.383   2.174 -0.1856  0.6864  0.9380
 6862SOL    HW132219   1.084   4.355   2.215 -0.0321 -0.1641  0.6581
 6862SOL    HW232220   1.152   4.375   2.079  0.4691 -2.4584  1.0974
 6863SOL     OW32221   2.163   2.439   3.162 -0.7956 -0.3622  0.1634
 6863SOL    HW132222   2.246   2.401   3.190 -1.1961 -1.2222  0.2022
 6863SOL    HW232223   2.133   2.490   3.237 -0.3309 -0.7168  0.5937
 6864SOL     OW32224   3.911   3.100   2.595 -0.1343  0.2644  0.5045
 6864SOL    HW132225   3.831   3.048   2.591  0.7223 -0.8856 -1.6602
 6864SOL    HW232226   3.977   3.030   2.591 -0.6612  0.0539 -3.9141
 6865SOL     OW32227   4.086   4.003   1.436  0.1256  0.5352 -0.9839
 6865SOL    HW132228   3.992   3.984   1.435  0.1825  0.1879  0.1984
 6865SOL    HW232229   4.100   4.034   1.346  1.9684  2.8305  0.0732
 6866SOL     OW32230   1.610   1.605   3.001 -0.1317  0.3167 -0.5140
 6866SOL    HW132231   1.583   1.576   3.089  0.5164 -1.1754 -0.8088
 6866SOL    HW232232   1.680   1.661   3.034 -0.1561  1.1019 -1.7879
 6867SOL     OW32233   0.106   2.630  15.806 -0.0952 -0.0887 -0.2921
 6867SOL    HW132234   0.171   2.606  15.740 -0.5910  0.8860 -1.1528
 6867SOL    HW232235   0.098   2.723  15.784  0.3765  0.2702  1.0631
 6868SOL     OW32236   1.897   1.351  17.721 -0.3032 -0.1624  0.2953
 6868SOL    HW132237   1.946   1.400  17.655  0.9813 -0.8906  0.7114
 6868SOL    HW232238   1.847   1.419   0.028 -2.4644 -1.1690 -0.5760
 6869SOL     OW32239   2.899   2.470   1.763  0.2560 -0.2571 -0.5246
 6869SOL    HW132240   2.817   2.464   1.715  0.9617 -1.4101 -1.5978
 6869SOL    HW232241   2.865   2.460   1.852 -0.3711  1.1677 -0.6185
 6870SOL     OW32242   0.819   0.022   9.291  0.3908  0.3784 -0.0440
 6870SOL    HW132243   0.864   4.674   9.274 -1.1128 -0.5149  0.3040
 6870SOL    HW232244   0.730   4.728   9.269  0.6242 -2.9272  3.2427
 6871SOL     OW32245   2.157   3.822   8.696 -0.0652  0.0086  0.2576
 6871SOL    HW132246   2.074   3.787   8.665  0.5030  0.3591 -1.6478
 6871SOL    HW232247   2.220   3.766   8.649  1.7339  1.7172  0.6072
 6872SOL     OW32248   0.708   2.965   7.062  0.8893 -0.5310  0.2071
 6872SOL    HW132249   0.676   2.944   6.975 -1.8187  1.8584  0.6039
 6872SOL    HW232250   0.733   2.882   7.103 -1.5892 -0.0801  2.6978
 6873SOL     OW32251   0.803   1.006   3.911 -0.4822  0.3194 -0.6231
 6873SOL    HW132252   0.803   1.079   3.972 -0.0287 -0.1380 -0.0751
 6873SOL    HW232253   0.890   0.969   3.926 -1.1135  0.5285  3.4695
 6874SOL     OW32254   4.290   2.737  11.617 -0.5015  0.3082  0.1510
 6874SOL    HW132255   4.274   2.787  11.698  1.3790  0.0857  0.6416
 6874SOL    HW232256   4.350   2.666  11.639 -1.8765 -0.7661  0.4315
 6875SOL     OW32257   2.273   2.900  16.054  0.1566  0.0246  0.1118
 6875SOL    HW132258   2.202   2.850  16.095  0.9954 -1.4008 -0.1731
 6875SOL    HW232259   2.321   2.940  16.126  0.5265  1.1952 -0.7869
 6876SOL     OW32260   3.590   0.390   3.345 -0.0134  0.2889  0.0173
 6876SOL    HW132261   3.671   0.437   3.325  0.4267 -0.9213 -1.0337
 6876SOL    HW232262   3.591   0.398   3.440 -1.1096  1.1091 -0.0474
 6877SOL     OW32263   0.566   4.376   7.976  0.6955  0.1185  0.2801
 6877SOL    HW132264   0.544   4.298   7.925  1.1835  0.4305 -0.4011
 6877SOL    HW232265   0.587   4.440   7.908 -0.6879  0.6151  0.3171
 6878SOL     OW32266   4.194   2.562  12.762  0.6583 -0.4508  0.1254
 6878SOL    HW132267   4.251   2.590  12.691 -0.2557 -0.1615 -0.4889
 6878SOL    HW232268   4.128   2.512  12.714 -0.2453  2.8492 -2.0555
 6879SOL     OW32269   0.612   1.656   7.726 -0.0544  0.0613  0.4484
 6879SOL    HW132270   0.621   1.748   7.703 -0.2080  0.2011  0.9457
 6879SOL    HW232271   0.647   1.618   7.646  0.5073  1.6359 -0.0521
 6880SOL     OW32272   1.662   1.862   6.784 -0.2145 -0.2484 -0.2181
 6880SOL    HW132273   1.687   1.790   6.842 -1.0757 -1.4269 -1.3260
 6880SOL    HW232274   1.575   1.888   6.814 -0.3159 -0.2887 -0.4810
 6881SOL     OW32275   3.367   4.591   6.689 -0.3341  0.2955 -0.6785
 6881SOL    HW132276   3.357   4.686   6.691 -0.4161  0.2553  0.7057
 6881SOL    HW232277   3.293   4.565   6.634 -0.0744  2.9749 -2.3070
 6882SOL     OW32278   2.594   2.573   4.417  0.0731  0.7144  0.1204
 6882SOL    HW132279   2.506   2.573   4.378  0.1947 -3.2588 -0.1037
 6882SOL    HW232280   2.584   2.638   4.487 -1.3670  0.3790  0.2168
 6883SOL     OW32281   2.009   2.288   0.310  0.2961  0.4668 -0.1661
 6883SOL    HW132282   1.918   2.284   0.338  0.6482  1.0766  1.0810
 6883SOL    HW232283   2.060   2.308   0.389  0.0769 -0.0267  0.0959
 6884SOL     OW32284   4.048   3.218   6.171 -0.5542 -0.1063 -0.3476
 6884SOL    HW132285   3.978   3.224   6.237  0.2932  0.5428  0.4856
 6884SOL    HW232286   4.057   3.123   6.158  1.2863  0.4345 -2.8775
 6885SOL     OW32287   3.692   3.781   6.150  0.0819 -0.0370 -0.4278
 6885SOL    HW132288   3.701   3.752   6.241 -2.0131  1.6142  0.2854
 6885SOL    HW232289   3.773   3.830   6.142  0.3306 -0.6319 -1.7126
 6886SOL     OW32290   0.433   2.194  14.190 -0.0233 -0.1980 -0.9063
 6886SOL    HW132291   0.424   2.119  14.249 -1.5756 -0.1987 -1.1284
 6886SOL    HW232292   0.520   2.226  14.211 -0.8749  0.8922  0.9096
 6887SOL     OW32293   1.389   4.012   5.693  0.3173 -0.0553 -0.2721
 6887SOL    HW132294   1.405   4.099   5.730  1.7308 -1.1502  1.7025
 6887SOL    HW232295   1.435   3.946   5.744 -0.4863  0.7858  1.5519
 6888SOL     OW32296   3.241   3.636   5.081 -0.1663 -0.5132 -0.2639
 6888SOL    HW132297   3.170   3.675   5.132  0.6541 -1.5197  1.6410
 6888SOL    HW232298   3.317   3.680   5.120  1.5547 -1.7054 -2.3021
 6889SOL     OW32299   2.717   1.196   6.812 -0.3601 -1.0270 -0.2624
 6889SOL    HW132300   2.784   1.145   6.856 -1.2053 -1.0705  0.9784
 6889SOL    HW232301   2.768   1.273   6.788  0.5218 -1.2312  0.9990
 6890SOL     OW32302   3.963   1.645   4.916 -0.2786  0.5931 -0.2238
 6890SOL    HW132303   4.015   1.706   4.967  0.5811  0.2671 -0.7078
 6890SOL    HW232304   3.877   1.647   4.958 -0.5732 -0.6370 -0.7807
 6891SOL     OW32305   0.523   1.384   2.765 -0.0819  0.4904  0.1612
 6891SOL    HW132306   0.618   1.384   2.757 -0.0652  0.2718  0.3566
 6891SOL    HW232307   0.490   1.453   2.707 -1.4509 -0.6152 -0.3771
 6892SOL     OW32308   3.797   2.052  12.662  0.3253 -0.1130 -0.0416
 6892SOL    HW132309   3.853   2.044  12.739  1.0350 -2.3327 -0.8041
 6892SOL    HW232310   3.782   1.959  12.647 -0.5390 -0.1327  0.9178
 6893SOL     OW32311   1.196   4.248   8.722 -0.0214 -0.0974 -0.0996
 6893SOL    HW132312   1.284   4.286   8.718  0.0160 -0.1810 -0.0782
 6893SOL    HW232313   1.227   4.161   8.746 -1.0343 -0.1473  0.9794
 6894SOL     OW32314   3.835   1.789   5.796  0.1097 -0.0736  0.6417
 6894SOL    HW132315   3.920   1.833   5.786  0.2178 -1.1111 -3.1278
 6894SOL    HW232316   3.845   1.708   5.747 -0.2384 -1.1488  2.3558
 6895SOL     OW32317   3.909   2.241  16.563 -0.0794  0.3155 -0.4306
 6895SOL    HW132318   3.964   2.235  16.485 -0.2920 -1.0394 -0.4751
 6895SOL    HW232319   3.897   2.334  16.581  0.5936  0.4493 -0.6973
 6896SOL     OW32320   3.076   3.548   2.687  0.0041 -0.2206 -0.5336
 6896SOL    HW132321   3.140   3.520   2.753  1.0282  0.4002 -1.2599
 6896SOL    HW232322   2.995   3.545   2.737  0.9241  1.4743  1.0770
 6897SOL     OW32323   3.541   4.051   7.588  0.9123 -0.1019  0.3824
 6897SOL    HW132324   3.458   4.063   7.634  0.5507 -2.4182  0.3147
 6897SOL    HW232325   3.573   4.139   7.569  0.8842 -0.5571 -1.7781
 6898SOL     OW32326   0.943   2.614   7.891 -0.4772 -0.5014 -0.1155
 6898SOL    HW132327   0.953   2.647   7.802 -1.9016 -2.6738 -1.0620
 6898SOL    HW232328   1.032   2.582   7.899 -0.6778 -0.9788  0.1914
 6899SOL     OW32329   1.538   3.896   5.397 -0.4085 -0.3319  0.0888
 6899SOL    HW132330   1.444   3.911   5.398 -0.8874 -3.2416 -0.6452
 6899SOL    HW232331   1.564   3.867   5.485 -0.5964  0.6844  0.4829
 6900SOL     OW32332   1.104   3.633   3.922  0.3398 -0.6498 -0.0249
 6900SOL    HW132333   1.124   3.671   3.836  0.7077 -1.5155 -0.3181
 6900SOL    HW232334   1.010   3.634   3.904  1.0386  1.1037 -3.6068
 6901SOL     OW32335   2.087   1.177  14.978  0.0846 -0.1049  0.1343
 6901SOL    HW132336   2.084   1.089  14.940 -0.3858  0.8915 -2.1140
 6901SOL    HW232337   1.997   1.198  14.954  0.3366  0.7901 -0.0203
 6902SOL     OW32338   2.945   0.755   3.552 -0.3367 -0.2696 -0.1832
 6902SOL    HW132339   3.019   0.725   3.498 -0.4492  2.0286 -1.6181
 6902SOL    HW232340   2.947   0.682   3.613  1.3644  1.5116  1.8762
 6903SOL     OW32341   1.919   2.268   4.266  0.5590 -0.4502 -0.5405
 6903SOL    HW132342   1.911   2.281   4.172  1.7237  2.5659 -0.2456
 6903SOL    HW232343   1.878   2.182   4.275 -2.7189  1.1973  0.0215
 6904SOL     OW32344   4.539   0.986   8.509 -0.1627  0.0097 -0.3973
 6904SOL    HW132345   4.574   1.056   8.454  1.7045 -0.4568  0.1933
 6904SOL    HW232346   4.456   1.031   8.524  0.4615  1.0779 -0.2049
 6905SOL     OW32347   4.351   3.208   8.044 -0.4426  0.3871  0.6937
 6905SOL    HW132348   4.340   3.247   8.130 -0.3591 -2.8173  2.1477
 6905SOL    HW232349   4.423   3.145   8.055  0.0890  0.8216 -0.2271
 6906SOL     OW32350   4.540   4.345   1.870 -0.4985 -0.3171  0.2221
 6906SOL    HW132351   4.600   4.341   1.795 -0.7257 -2.1771  0.1375
 6906SOL    HW232352   4.578   4.422   1.912 -0.5634 -0.7405  1.0664
 6907SOL     OW32353   2.296   2.706   9.595  0.3135  0.2621  0.5112
 6907SOL    HW132354   2.293   2.610   9.590 -0.3936  0.4238 -1.8892
 6907SOL    HW232355   2.249   2.728   9.675 -1.0323  1.6404 -0.6711
 6908SOL     OW32356   2.241   0.612   3.495 -0.5908 -0.0746  0.4532
 6908SOL    HW132357   2.296   0.653   3.427 -0.0853 -1.0669  0.2647
 6908SOL    HW232358   2.254   0.671   3.569 -0.3904  0.3567  0.0769
 6909SOL     OW32359   2.973   2.095   2.917 -0.1289 -0.3202  1.1754
 6909SOL    HW132360   2.969   2.063   2.827 -1.2337  0.1735  1.0509
 6909SOL    HW232361   2.928   2.179   2.905 -0.9968 -1.1516 -1.5641
 6910SOL     OW32362   0.409   3.541  14.860  0.4518 -0.0972 -0.4502
 6910SOL    HW132363   0.487   3.485  14.859  0.3135 -0.3629  2.2186
 6910SOL    HW232364   0.368   3.519  14.944 -0.0873 -3.2796 -1.5487
 6911SOL     OW32365   1.320   2.132  16.697  0.3390 -0.3509  0.4619
 6911SOL    HW132366   1.245   2.191  16.712  1.5908  1.3960 -0.1196
 6911SOL    HW232367   1.393   2.176  16.740  0.1631  2.5546 -2.1625
 6912SOL     OW32368   2.225   0.623  16.569  0.2518  0.6290  0.1500
 6912SOL    HW132369   2.238   0.705  16.522  0.9898 -0.5915 -1.7884
 6912SOL    HW232370   2.163   0.648  16.637  2.0782  0.8141  1.7632
 6913SOL     OW32371   1.203   3.613   2.689  0.3691 -0.4950 -0.2292
 6913SOL    HW132372   1.182   3.695   2.644  0.0936 -0.5108 -0.1299
 6913SOL    HW232373   1.133   3.553   2.663  1.8595 -3.3752  2.4250
 6914SOL     OW32374   3.766   2.800   3.438  0.2720  0.1261  0.6071
 6914SOL    HW132375   3.844   2.835   3.396  0.2893  0.4747  0.9340
 6914SOL    HW232376   3.703   2.868   3.414 -0.3480 -0.4901  0.4765
 6915SOL     OW32377   0.262   4.118   5.442 -0.1820  0.0483 -0.4480
 6915SOL    HW132378   0.242   4.212   5.436 -2.5759 -0.4241 -0.0713
 6915SOL    HW232379   0.206   4.086   5.371 -0.7344 -0.8148  0.3856
 6916SOL     OW32380   3.579   0.772   9.522 -0.1661  0.7286  0.0954
 6916SOL    HW132381   3.616   0.702   9.577  1.5182  1.3023 -0.3181
 6916SOL    HW232382   3.490   0.742   9.504  0.5967 -2.7978  2.0987
 6917SOL     OW32383   4.065   4.650   5.867  0.2943 -0.1697 -0.6601
 6917SOL    HW132384   3.985   4.643   5.815 -1.0295  1.5862  1.1601
 6917SOL    HW232385   4.104   4.575   5.822  1.6753  0.2549 -0.1712
 6918SOL     OW32386   1.975   0.682   6.639  0.3956 -0.0671 -0.0784
 6918SOL    HW132387   1.893   0.674   6.591 -1.3602  2.1269  2.5373
 6918SOL    HW232388   2.015   0.752   6.588 -0.6481 -0.3802 -1.3212
 6919SOL     OW32389   4.470   1.723   9.779 -0.4382 -0.4798  0.1764
 6919SOL    HW132390   4.546   1.691   9.731 -1.5096 -1.8011 -0.6221
 6919SOL    HW232391   4.487   1.817   9.778  2.5162 -1.0088 -0.2470
 6920SOL     OW32392   3.008   1.859  16.594  0.5506  0.0445 -0.4769
 6920SOL    HW132393   2.938   1.796  16.579 -1.1707  1.8027  0.1622
 6920SOL    HW232394   3.086   1.804  16.586 -0.5283 -1.5509 -0.0252
 6921SOL     OW32395   1.830   0.910   1.869 -0.1229 -0.4530 -0.2886
 6921SOL    HW132396   1.921   0.901   1.842 -0.6649 -0.6389 -2.0678
 6921SOL    HW232397   1.788   0.900   1.783 -0.2924 -2.4357  0.0191
 6922SOL     OW32398   2.191   0.066   9.636  0.0794  0.0807 -0.1718
 6922SOL    HW132399   2.168   0.158   9.627  1.7569  0.4346 -0.7576
 6922SOL    HW232400   2.145   0.054   9.719 -0.4873 -0.8862 -0.6247
 6923SOL     OW32401   2.188   2.832   0.502  0.1449  0.5585 -0.3340
 6923SOL    HW132402   2.247   2.906   0.513  1.4314 -0.3171 -1.3456
 6923SOL    HW232403   2.234   2.780   0.436 -0.6504  1.2614 -1.4396
 6924SOL     OW32404   3.805   0.997   8.446  0.2649 -0.3489  0.4699
 6924SOL    HW132405   3.796   1.071   8.387 -0.5553 -0.2699  0.7038
 6924SOL    HW232406   3.884   1.025   8.492 -0.1184 -3.4043  3.0060
 6925SOL     OW32407   1.188   0.755  13.888  0.7301  0.2435  0.3547
 6925SOL    HW132408   1.265   0.699  13.901 -0.1734 -1.1329 -0.1303
 6925SOL    HW232409   1.175   0.737  13.795 -3.8436  0.0603  1.0282
 6926SOL     OW32410   2.676   1.112  15.251 -0.3506  0.2195  0.4295
 6926SOL    HW132411   2.630   1.174  15.194 -0.5197  0.2933  0.6456
 6926SOL    HW232412   2.608   1.091  15.315 -1.3228  0.1678 -0.6067
 6927SOL     OW32413   0.641   3.193   3.329 -0.7655 -0.7068 -0.3463
 6927SOL    HW132414   0.723   3.223   3.290 -0.5362  1.8888  2.1489
 6927SOL    HW232415   0.665   3.216   3.419 -3.7484 -0.2879  0.3363
 6928SOL     OW32416   1.966   2.677   9.687  0.6707  0.6252 -0.2195
 6928SOL    HW132417   2.011   2.597   9.714 -2.9419 -1.9956 -1.8616
 6928SOL    HW232418   2.029   2.741   9.719 -0.1349  0.3574  1.8846
 6929SOL     OW32419   4.292   2.904   4.109  0.5573  0.6314  0.5064
 6929SOL    HW132420   4.275   2.996   4.128 -0.0276  0.0508  2.7525
 6929SOL    HW232421   4.382   2.896   4.139  1.4230  0.5805 -2.0632
 6930SOL     OW32422   1.833   2.415   8.315  0.1419  0.1471 -0.1455
 6930SOL    HW132423   1.894   2.468   8.264 -0.7862  1.3043 -0.0384
 6930SOL    HW232424   1.894   2.352   8.354  0.7926 -1.4125 -3.7551
 6931SOL     OW32425   2.515   3.531   8.038  0.0289  0.2714  0.0584
 6931SOL    HW132426   2.436   3.509   8.088  1.5739  3.6660  4.0114
 6931SOL    HW232427   2.489   3.559   7.950 -0.1448  0.3619  0.1391
 6932SOL     OW32428   0.589   1.159   2.175  0.0132 -0.1958 -0.5459
 6932SOL    HW132429   0.618   1.129   2.089  0.7793 -1.5671  0.1817
 6932SOL    HW232430   0.512   1.103   2.181  0.9583 -1.2927  1.4908
 6933SOL     OW32431   4.674   3.454   5.587 -0.5974 -0.2059 -0.5610
 6933SOL    HW132432   0.025   3.465   5.547  0.3658  3.8442  2.5858
 6933SOL    HW232433   4.688   3.470   5.680 -1.2842  1.5874 -0.7635
 6934SOL     OW32434   3.900   0.964   6.892  0.0231 -0.0598 -0.0997
 6934SOL    HW132435   3.966   1.021   6.853 -0.7585  0.8284 -0.1129
 6934SOL    HW232436   3.853   0.931   6.815  0.0511  0.8057 -0.4905
 6935SOL     OW32437   3.623   3.094   5.682  0.7361 -0.1655 -0.1139
 6935SOL    HW132438   3.539   3.107   5.727  0.2196 -2.0762 -0.5404
 6935SOL    HW232439   3.672   3.154   5.739 -0.6821  1.4122 -0.5503
 6936SOL     OW32440   2.960   2.106   4.765 -0.6539 -0.9432 -0.0963
 6936SOL    HW132441   3.049   2.110   4.730 -0.9968  1.5380 -0.6547
 6936SOL    HW232442   2.970   2.032   4.824 -1.1923 -1.3317 -0.4876
 6937SOL     OW32443   3.971   2.439   6.226  0.6342 -0.2360 -0.8822
 6937SOL    HW132444   3.889   2.428   6.178 -0.2739  0.1046  0.6199
 6937SOL    HW232445   3.976   2.361   6.281 -1.4505 -1.0365 -1.8269
 6938SOL     OW32446   1.604   1.126   2.067 -0.2755  0.2197 -0.2520
 6938SOL    HW132447   1.674   1.189   2.051  0.5394 -1.3217 -2.7371
 6938SOL    HW232448   1.585   1.110   1.974  1.2420 -0.7350 -0.3968
 6939SOL     OW32449   1.516   0.417   4.866  0.0894 -0.7328 -0.4220
 6939SOL    HW132450   1.499   0.481   4.935 -1.7244 -2.2270  0.4952
 6939SOL    HW232451   1.609   0.427   4.845 -0.1961  1.6301 -0.5556
 6940SOL     OW32452   4.530   1.904  11.999 -0.0827 -0.3577 -0.9812
 6940SOL    HW132453   4.511   1.834  11.936 -0.8141 -0.2174 -0.9197
 6940SOL    HW232454   4.625   1.907  11.989  0.1059  3.4697  2.1245
 6941SOL     OW32455   4.488   2.172   6.536 -0.0479 -0.1083 -0.0156
 6941SOL    HW132456   4.400   2.139   6.515  0.2586 -1.4911  0.9096
 6941SOL    HW232457   4.535   2.121   6.470  0.6810  3.4499 -2.2307
 6942SOL     OW32458   4.328   2.860  15.727 -0.6379  0.0125 -0.6002
 6942SOL    HW132459   4.423   2.869  15.736 -0.7444 -0.2289  0.6602
 6942SOL    HW232460   4.330   2.850  15.631 -0.2134 -3.3588 -0.2331
 6943SOL     OW32461   0.719   3.310   1.882  0.1398  0.0636  0.7454
 6943SOL    HW132462   0.704   3.216   1.884 -0.6998  0.1726 -0.6522
 6943SOL    HW232463   0.679   3.332   1.798  1.0513 -1.4826 -0.0907
 6944SOL     OW32464   2.734   4.495   6.950  0.0769  0.2884  0.2033
 6944SOL    HW132465   2.697   4.510   7.037 -0.9202  2.6911 -0.6339
 6944SOL    HW232466   2.822   4.532   6.955  0.4137 -0.0218 -3.7156
 6945SOL     OW32467   1.898   1.605   8.788 -0.1392 -0.3905  0.4884
 6945SOL    HW132468   1.970   1.593   8.850 -0.6671 -0.7702  1.0357
 6945SOL    HW232469   1.922   1.663   8.716  1.4892 -1.1144  0.4381
 6946SOL     OW32470   0.026   2.747  13.827  0.5631  0.1987  0.7088
 6946SOL    HW132471   0.077   2.668  13.847  2.2023  1.4442  1.4399
 6946SOL    HW232472   0.090   2.814  13.850  1.2138 -0.7283  1.6242
 6947SOL     OW32473   2.614   3.189   2.458 -0.2148 -0.0731 -0.5987
 6947SOL    HW132474   2.588   3.097   2.465 -0.3389 -0.1343 -1.9016
 6947SOL    HW232475   2.699   3.167   2.418 -0.6221  0.9954 -2.0462
 6948SOL     OW32476   0.147   4.554   4.594  0.1685 -0.7213 -0.4686
 6948SOL    HW132477   0.081   4.582   4.657  1.1862 -0.7497  0.5871
 6948SOL    HW232478   0.214   4.621   4.610 -0.1713 -0.3933 -0.4052
 6949SOL     OW32479   1.620   0.822  10.991 -0.0565 -0.1578 -0.3288
 6949SOL    HW132480   1.622   0.742  11.043 -0.9059  0.5800  0.8244
 6949SOL    HW232481   1.688   0.877  11.030 -2.0950  2.5101 -0.6222
 6950SOL     OW32482   0.471   3.379   2.380  0.6550 -0.2446  0.7755
 6950SOL    HW132483   0.567   3.374   2.380  0.5754 -1.6712 -1.1897
 6950SOL    HW232484   0.456   3.339   2.465  0.9021 -1.8966  0.0578
 6951SOL     OW32485   4.640   2.981  14.093  0.4037 -0.3439 -0.4198
 6951SOL    HW132486   4.660   2.887  14.096 -1.1930 -0.6582  0.4012
 6951SOL    HW232487   4.550   2.974  14.061  0.5173 -3.5442 -0.0210
 6952SOL     OW32488   4.033   0.347   3.769 -0.1931 -0.2553  0.2658
 6952SOL    HW132489   4.105   0.347   3.705 -2.1880 -1.2245 -1.9631
 6952SOL    HW232490   4.028   0.437   3.799  3.1129  0.4881 -1.3352
 6953SOL     OW32491   2.703   3.378   0.632 -0.1644  0.4110  0.1456
 6953SOL    HW132492   2.664   3.464   0.650 -0.0855  0.0930  1.8912
 6953SOL    HW232493   2.633   3.339   0.580  1.8975  2.3071 -4.0176
 6954SOL     OW32494   4.059   4.184   5.716 -0.5342  0.3436 -0.0443
 6954SOL    HW132495   4.038   4.173   5.623 -0.1561  0.7459 -0.1766
 6954SOL    HW232496   4.053   4.279   5.729 -0.1720  0.3744 -0.1096
 6955SOL     OW32497   0.336   1.067   4.574  0.1409 -0.3958 -0.2377
 6955SOL    HW132498   0.271   1.127   4.537 -0.4603 -1.7912 -1.4235
 6955SOL    HW232499   0.345   0.995   4.513 -0.1369  0.6483 -1.5153
 6956SOL     OW32500   3.432   2.498  16.124  0.1782 -0.0436 -0.3241
 6956SOL    HW132501   3.485   2.434  16.077  0.4292 -0.3323  0.3370
 6956SOL    HW232502   3.362   2.520  16.063 -1.6753 -3.2673  0.6039
 6957SOL     OW32503   1.669   3.945   1.917 -0.2810 -0.0207 -0.0714
 6957SOL    HW132504   1.689   3.973   1.828 -1.4012 -1.4614 -0.7800
 6957SOL    HW232505   1.704   4.014   1.973 -1.3377 -0.1228  0.7175
 6958SOL     OW32506   2.791   3.233   1.464 -0.1581  0.3374 -0.1406
 6958SOL    HW132507   2.879   3.216   1.498 -0.0973  0.5198 -0.2091
 6958SOL    HW232508   2.819   3.241   1.373 -2.6756 -1.0866 -1.0366
 6959SOL     OW32509   2.733   1.793   9.488  0.7754 -0.0835  0.4838
 6959SOL    HW132510   2.739   1.848   9.566  1.4233  0.5477 -0.0100
 6959SOL    HW232511   2.674   1.725   9.522 -1.1361  0.3732 -1.8777
 6960SOL     OW32512   0.159   1.393   6.567 -0.9973  0.2182  0.0534
 6960SOL    HW132513   0.121   1.388   6.479  1.2827 -1.2584 -0.8311
 6960SOL    HW232514   0.246   1.425   6.541 -0.6689 -0.7776 -0.0748
 6961SOL     OW32515   1.262   0.925  14.237  0.5629  0.0653 -0.1687
 6961SOL    HW132516   1.225   0.930  14.325 -0.8595 -0.7329 -0.7199
 6961SOL    HW232517   1.293   0.834  14.238 -0.2742 -0.2027  1.6769
 6962SOL     OW32518   1.522   2.175   2.501 -0.2241 -0.7829 -0.2024
 6962SOL    HW132519   1.547   2.267   2.490 -1.3262 -0.3449  0.8911
 6962SOL    HW232520   1.561   2.149   2.585  0.1955  0.6190  0.0409
 6963SOL     OW32521   2.962   2.445  14.233  0.2769  0.0038 -0.4288
 6963SOL    HW132522   2.913   2.495  14.298  3.3817 -1.3828  3.0012
 6963SOL    HW232523   3.032   2.509  14.221  0.8856 -1.0687 -2.6037
 6964SOL     OW32524   0.957   0.463   7.558 -0.3261 -0.0491 -0.5537
 6964SOL    HW132525   0.884   0.489   7.614 -0.4161 -0.2684 -0.5673
 6964SOL    HW232526   0.914   0.402   7.497  1.5460 -1.9207  0.0173
 6965SOL     OW32527   0.285   1.460   1.649 -0.0229  0.0010  0.1870
 6965SOL    HW132528   0.343   1.493   1.717  2.9196 -1.9357 -1.4202
 6965SOL    HW232529   0.297   1.529   1.584 -0.8103 -1.2440 -1.2767
 6966SOL     OW32530   0.903   2.212   7.013 -1.1216  0.4001 -0.0182
 6966SOL    HW132531   0.860   2.193   7.096  1.0966 -1.3653  0.7200
 6966SOL    HW232532   0.862   2.143   6.961  1.1309  0.8024 -2.3621
 6967SOL     OW32533   1.467   3.309   4.512 -0.0208  0.1241  0.3125
 6967SOL    HW132534   1.452   3.283   4.603  0.6828 -0.0273  0.3868
 6967SOL    HW232535   1.389   3.356   4.483  0.8902  0.3821 -1.7340
 6968SOL     OW32536   1.649   2.326  14.963  0.2019 -0.4160  0.7023
 6968SOL    HW132537   1.688   2.328  15.050 -1.8335  1.8039  1.5645
 6968SOL    HW232538   1.720   2.328  14.898 -0.3874  0.8087  0.0844
 6969SOL     OW32539   0.732   0.853   5.498  0.4400 -0.0418 -0.6147
 6969SOL    HW132540   0.738   0.759   5.485 -3.2876 -0.3476  0.0222
 6969SOL    HW232541   0.637   0.865   5.496  0.5945  1.3215 -0.0885
 6970SOL     OW32542   3.471   3.353   5.721  0.2014  0.4994  0.3086
 6970SOL    HW132543   3.435   3.358   5.632 -0.6902  1.0484  0.6926
 6970SOL    HW232544   3.535   3.422   5.734 -1.2553  1.7718  0.7326
 6971SOL     OW32545   0.128   2.290   7.290 -0.7018 -0.7897 -0.3061
 6971SOL    HW132546   0.165   2.350   7.355 -1.9720  0.6641 -0.9352
 6971SOL    HW232547   0.035   2.306   7.306 -0.8011  1.4189 -3.1955
 6972SOL     OW32548   1.500   1.038  14.008 -0.4594  0.1392 -0.2365
 6972SOL    HW132549   1.414   0.998  13.994 -0.4258  0.0665 -0.2358
 6972SOL    HW232550   1.466   1.127  14.016 -4.1103 -1.2972  0.2792
 6973SOL     OW32551   1.773   1.541   6.683  0.3530 -0.0006  0.1124
 6973SOL    HW132552   1.806   1.486   6.612  0.6611  0.1013  0.1787
 6973SOL    HW232553   1.682   1.518   6.702  0.2782 -0.2285 -0.5203
 6974SOL     OW32554   2.261   3.048   7.878 -0.0022 -0.2389  0.2259
 6974SOL    HW132555   2.287   3.123   7.825 -0.3187  0.9667  1.7835
 6974SOL    HW232556   2.183   3.076   7.925  1.3710 -0.3379  2.5831
 6975SOL     OW32557   4.372   2.864  14.322 -0.3986  0.0802 -0.0224
 6975SOL    HW132558   4.307   2.823  14.378 -0.2781 -0.8688 -0.5791
 6975SOL    HW232559   4.412   2.784  14.288 -0.5868 -0.1513  0.3079
 6976SOL     OW32560   1.270   3.021   1.828  0.4496 -0.0494 -0.0590
 6976SOL    HW132561   1.271   2.949   1.765 -2.3513 -0.1163  0.0079
 6976SOL    HW232562   1.327   3.090   1.794 -1.2749  1.0641 -0.6690
 6977SOL     OW32563   2.235   4.322  16.919  0.0902 -0.2383 -0.1618
 6977SOL    HW132564   2.159   4.304  16.975  0.5851 -1.7152  0.0362
 6977SOL    HW232565   2.229   4.247  16.861  0.0670 -0.0479 -0.4025
 6978SOL     OW32566   3.333   3.464   1.460  0.6984  0.4304 -0.0122
 6978SOL    HW132567   3.256   3.512   1.430  2.7362  2.9875 -1.1021
 6978SOL    HW232568   3.382   3.446   1.381 -0.7789  1.3891 -1.1456
 6979SOL     OW32569   1.051   1.353   0.808 -0.0483 -0.6748 -0.2261
 6979SOL    HW132570   0.987   1.388   0.746 -0.2336  0.8375  0.7874
 6979SOL    HW232571   1.135   1.372   0.767 -0.7789  2.5940 -0.2172
 6980SOL     OW32572   1.311   0.890   6.198 -0.2436  0.0378  0.5829
 6980SOL    HW132573   1.303   0.829   6.272 -0.7460 -2.3316 -1.4563
 6980SOL    HW232574   1.404   0.915   6.198 -0.9083  2.5062  1.1626
 6981SOL     OW32575   1.214   0.242   1.707  0.0577  0.2211 -0.2120
 6981SOL    HW132576   1.211   0.314   1.769 -0.3060 -0.0868  0.1314
 6981SOL    HW232577   1.122   0.215   1.709 -0.4621  2.2635  2.1213
 6982SOL     OW32578   3.747   0.945  11.451 -0.0012  0.0221 -0.1589
 6982SOL    HW132579   3.740   0.999  11.372 -2.5225  2.0834  1.4800
 6982SOL    HW232580   3.654   0.931  11.464 -0.1697  0.7009 -0.6396
 6983SOL     OW32581   0.660   0.560   1.833  0.5010 -0.3032  0.1871
 6983SOL    HW132582   0.701   0.521   1.755 -0.0511 -0.1170 -0.1931
 6983SOL    HW232583   0.575   0.521   1.813  0.1595  1.6773 -2.1885
 6984SOL     OW32584   1.936   4.185   5.560  0.1407  0.4788 -0.0337
 6984SOL    HW132585   1.953   4.277   5.541 -0.5778  0.8936  1.3097
 6984SOL    HW232586   1.842   4.179   5.581  0.0656 -4.7002 -1.8322
 6985SOL     OW32587   0.823   3.025   7.967  0.2063 -0.0532  0.6249
 6985SOL    HW132588   0.891   3.092   7.953  0.8699 -0.4633  1.8900
 6985SOL    HW232589   0.814   2.997   7.876 -0.0422  0.9991  0.3206
 6986SOL     OW32590   2.477   1.531   4.943 -0.3589  0.1140 -0.5970
 6986SOL    HW132591   2.464   1.504   4.852 -1.3365 -1.6070  0.0523
 6986SOL    HW232592   2.500   1.444   4.975  2.4051  0.7633 -0.8724
 6987SOL     OW32593   0.100   4.697  14.473  0.0909  0.5211  0.4831
 6987SOL    HW132594   0.059   4.725  14.555 -0.6339  0.8268  0.0140
 6987SOL    HW232595   0.039   4.714  14.401  1.2456  0.8529 -0.4151
 6988SOL     OW32596   1.653   1.100   2.520 -0.3987 -0.9108 -0.3530
 6988SOL    HW132597   1.593   1.036   2.559 -3.2407  0.5794 -2.2840
 6988SOL    HW232598   1.735   1.087   2.567 -0.9961 -0.9025  0.6812
 6989SOL     OW32599   3.263   1.457   1.966  0.3540  0.0082  0.2863
 6989SOL    HW132600   3.343   1.479   2.014 -0.5076 -0.1375  1.7933
 6989SOL    HW232601   3.191   1.508   2.003 -1.5583 -1.9483 -0.7359
 6990SOL     OW32602   4.506   1.907   4.522  0.3613 -0.1701  0.0135
 6990SOL    HW132603   4.429   1.964   4.517 -0.0288 -0.5580  1.7950
 6990SOL    HW232604   4.469   1.824   4.551  0.2798 -1.2713 -3.2893
 6991SOL     OW32605   4.431   2.984  10.618 -0.2896  0.4754 -0.2315
 6991SOL    HW132606   4.447   2.974  10.712  4.4030 -0.1646 -1.0915
 6991SOL    HW232607   4.520   2.986  10.581  0.2457 -0.4413  1.0014
 6992SOL     OW32608   3.969   2.219  10.096 -0.6396  0.1926  0.1568
 6992SOL    HW132609   3.987   2.292  10.155 -0.4679  0.3952 -0.1460
 6992SOL    HW232610   4.046   2.229  10.040 -1.9198  0.0112 -1.6519
 6993SOL     OW32611   1.036   3.347   5.635  0.3728 -0.1511  0.4749
 6993SOL    HW132612   1.115   3.347   5.688 -0.0277  1.8871  1.0974
 6993SOL    HW232613   1.034   3.270   5.578  2.8439  0.5888 -0.6041
 6994SOL     OW32614   2.330   3.875   2.791  0.4487  0.7162  0.1977
 6994SOL    HW132615   2.363   3.961   2.819  1.4471  0.6369 -0.7196
 6994SOL    HW232616   2.310   3.897   2.700  0.0787  0.0559  0.1269
 6995SOL     OW32617   0.893   0.087  17.263 -0.4528  0.5464  0.2475
 6995SOL    HW132618   0.838   0.009  17.258  0.9158 -0.2305 -2.3332
 6995SOL    HW232619   0.975   0.039  17.273 -1.0961 -0.7189 -0.6304
 6996SOL     OW32620   4.697   1.545   4.668  0.1540 -0.0127  0.1468
 6996SOL    HW132621   0.023   1.538   4.595  1.1438  0.7074  0.8907
 6996SOL    HW232622   4.679   1.453   4.687  0.5468 -0.4355 -1.5203
 6997SOL     OW32623   0.953   3.192  17.080  0.0986  0.3526  0.3682
 6997SOL    HW132624   0.981   3.241  17.002  2.0594 -1.5078 -0.1079
 6997SOL    HW232625   0.862   3.219  17.095 -0.2414 -0.3092 -0.4901
 6998SOL     OW32626   2.459   3.988  13.404 -0.5094 -0.5289  0.6607
 6998SOL    HW132627   2.497   3.909  13.365  1.4876 -0.1942  1.8962
 6998SOL    HW232628   2.536   4.019  13.452  0.0918  1.3761 -1.5536
 6999SOL     OW32629   3.070   0.357   7.983 -0.2088  0.8938 -0.4433
 6999SOL    HW132630   3.092   0.293   8.050  0.3249  0.6618 -0.8380
 6999SOL    HW232631   2.976   0.368   7.998 -0.8102 -4.0126 -0.4753
 7000SOL     OW32632   3.245   1.674  16.630 -0.6859  0.5752 -0.2776
 7000SOL    HW132633   3.284   1.751  16.589  0.7151 -0.1235 -0.2449
 7000SOL    HW232634   3.326   1.629  16.652 -0.0978  0.5208 -2.5380
 7001SOL     OW32635   2.451   3.276   0.491  0.1220  0.5862 -0.8359
 7001SOL    HW132636   2.431   3.352   0.438  1.1352  0.7287 -1.0143
 7001SOL    HW232637   2.469   3.216   0.419 -0.9903 -1.2645  0.4028
 7002SOL     OW32638   2.302   2.263  16.334  0.3409  0.2043  0.9232
 7002SOL    HW132639   2.306   2.242  16.428  3.2070  1.4008  1.0674
 7002SOL    HW232640   2.337   2.353  16.331  1.7057 -0.3600 -0.0726
 7003SOL     OW32641   1.200   0.864   4.564 -0.0724  0.1113  0.1578
 7003SOL    HW132642   1.159   0.880   4.479  1.8800 -0.9540 -0.9871
 7003SOL    HW232643   1.189   0.951   4.603 -2.3044 -1.1264  2.2495
 7004SOL     OW32644   2.090   0.014   5.770  0.1876 -0.0785  0.0255
 7004SOL    HW132645   2.052   4.675   5.818 -0.7779  1.5418  1.7392
 7004SOL    HW232646   2.067   0.089   5.825 -1.3745 -1.6011  1.4510
 7005SOL     OW32647   3.803   0.263  12.570  0.2696  0.4145 -0.2553
 7005SOL    HW132648   3.787   0.217  12.653  3.3334  0.8559  0.5593
 7005SOL    HW232649   3.898   0.275  12.570  0.3745 -0.4141 -0.4867
 7006SOL     OW32650   2.924   4.083   8.720  0.5013 -0.1921 -0.0790
 7006SOL    HW132651   2.857   4.097   8.652 -1.0281  1.6459  1.8243
 7006SOL    HW232652   2.896   4.136   8.794 -3.3393 -1.1599 -0.8576
 7007SOL     OW32653   2.759   4.329   3.471 -0.1534 -0.1789  0.2983
 7007SOL    HW132654   2.740   4.327   3.377  0.5966 -0.4078  0.1534
 7007SOL    HW232655   2.807   4.412   3.476 -2.1420  1.1165 -1.9122
 7008SOL     OW32656   0.131   3.229   2.665  0.3876  0.4859  0.1823
 7008SOL    HW132657   0.190   3.232   2.740  1.1759 -0.2460 -0.4118
 7008SOL    HW232658   0.098   3.319   2.665  0.0230  0.3484  1.6870
 7009SOL     OW32659   4.245   3.726   4.108  0.3398 -1.3249 -0.2306
 7009SOL    HW132660   4.150   3.719   4.114  0.1422  0.0465 -1.5965
 7009SOL    HW232661   4.256   3.635   4.079  0.8087 -0.6850 -2.0579
 7010SOL     OW32662   2.712   4.381   0.458  0.5815 -0.2126  0.3047
 7010SOL    HW132663   2.668   4.296   0.465 -1.5597  0.5842 -3.0757
 7010SOL    HW232664   2.700   4.399   0.364 -0.4948 -0.0325  0.4736
 7011SOL     OW32665   0.446   2.443   1.275  0.1521  0.3125  0.3530
 7011SOL    HW132666   0.541   2.451   1.266 -0.2225  0.8827 -3.3462
 7011SOL    HW232667   0.411   2.527   1.245 -2.1214 -1.2617 -1.4229
 7012SOL     OW32668   3.618   0.078   6.856 -0.4182  0.2526 -0.4196
 7012SOL    HW132669   3.678   0.003   6.847 -0.3879 -0.0918  2.7665
 7012SOL    HW232670   3.672   0.156   6.867  1.5739 -0.9608 -1.4750
 7013SOL     OW32671   2.533   0.109   2.437 -0.4293  0.1376 -0.7081
 7013SOL    HW132672   2.538   0.092   2.343 -2.3468  0.9321 -0.9547
 7013SOL    HW232673   2.614   0.156   2.455  0.5884 -1.5787 -0.9022
 7014SOL     OW32674   0.238   1.740   1.560 -0.1672 -0.0603 -0.1972
 7014SOL    HW132675   0.290   1.755   1.639 -1.1847 -0.7676  0.6118
 7014SOL    HW232676   0.175   1.813   1.556 -0.0462  0.0530 -0.0223
 7015SOL     OW32677   1.118   0.849   9.808 -0.0893  0.4676  0.8801
 7015SOL    HW132678   1.153   0.932   9.842  0.1273  1.1122 -0.9291
 7015SOL    HW232679   1.028   0.870   9.782 -1.2686 -1.2735  3.5764
 7016SOL     OW32680   1.231   0.035   2.741  0.5733 -0.2819 -0.3220
 7016SOL    HW132681   1.142   0.070   2.735  0.2818 -0.6892  1.5505
 7016SOL    HW232682   1.266   0.056   2.828 -0.8952  2.0108 -0.3003
 7017SOL     OW32683   1.418   1.176   3.068  0.9044 -0.5604 -0.3485
 7017SOL    HW132684   1.407   1.221   3.152 -1.9080 -0.2252 -0.8938
 7017SOL    HW232685   1.411   1.245   3.003  1.1747 -0.1869  0.0180
 7018SOL     OW32686   0.720   3.761   5.224  0.5538 -0.6684 -0.1266
 7018SOL    HW132687   0.709   3.851   5.256  0.4852 -1.4088  1.9565
 7018SOL    HW232688   0.744   3.734   5.313 -1.1112 -1.3592  0.0993
 7019SOL     OW32689   4.066   4.007  12.950 -1.1792 -0.1430 -0.1826
 7019SOL    HW132690   3.996   4.051  12.902 -0.3170  0.7251 -0.6245
 7019SOL    HW232691   4.142   4.065  12.942 -1.4187  0.2668  0.5315
 7020SOL     OW32692   4.294   2.051   4.039 -0.2388  0.3653 -0.0391
 7020SOL    HW132693   4.333   1.971   4.075 -0.8227  1.2378  2.5615
 7020SOL    HW232694   4.307   2.039   3.945 -0.3665  1.1644 -0.1651
 7021SOL     OW32695   1.492   2.451  10.966 -0.0842  0.2547 -0.1115
 7021SOL    HW132696   1.487   2.527  10.907 -2.9187  0.9699  1.0106
 7021SOL    HW232697   1.542   2.392  10.910 -0.1801  0.0804 -0.0120
 7022SOL     OW32698   3.675   2.398   8.588 -0.9908  0.1760  0.1984
 7022SOL    HW132699   3.603   2.394   8.651 -0.2312  2.2156  1.1972
 7022SOL    HW232700   3.656   2.482   8.547  0.3631  0.3591 -0.0602
 7023SOL     OW32701   1.411   1.637   3.735 -0.4809  0.0479 -0.3818
 7023SOL    HW132702   1.476   1.568   3.725 -0.3755  0.4339 -2.3014
 7023SOL    HW232703   1.351   1.582   3.785 -0.3411  2.1309  2.0711
 7024SOL     OW32704   4.647   4.048   5.404 -0.2651 -0.1966 -0.4157
 7024SOL    HW132705   4.573   4.018   5.350 -0.3643 -0.1961 -0.2811
 7024SOL    HW232706   4.670   4.128   5.356  1.7882 -0.3885  0.2525
 7025SOL     OW32707   4.219   4.108  14.217  0.2380  0.2000  0.2227
 7025SOL    HW132708   4.155   4.175  14.239 -2.4514 -2.6151  0.9621
 7025SOL    HW232709   4.265   4.103  14.301  1.0440 -0.8906 -0.2744
 7026SOL     OW32710   1.181   2.066   4.884  0.2040  0.6352 -0.3835
 7026SOL    HW132711   1.131   1.993   4.921  1.2040 -0.3026 -0.9053
 7026SOL    HW232712   1.273   2.043   4.892 -0.2059 -0.6963  0.5001
 7027SOL     OW32713   2.933   3.282   0.772 -0.3043 -0.2379 -0.3332
 7027SOL    HW132714   2.997   3.351   0.755 -2.1726  1.8702  1.3003
 7027SOL    HW232715   2.868   3.292   0.702 -1.7131  0.0811  1.0247
 7028SOL     OW32716   3.496   4.620   3.769 -0.1027 -0.3801  0.0688
 7028SOL    HW132717   3.464   4.625   3.859 -0.9696  2.6359 -0.3891
 7028SOL    HW232718   3.499   4.526   3.755 -1.8701 -0.3695 -0.4161
 7029SOL     OW32719   2.633   3.194  16.175 -0.1375 -0.3515 -0.2495
 7029SOL    HW132720   2.640   3.271  16.231 -1.1391  0.0242 -0.6275
 7029SOL    HW232721   2.681   3.226  16.099 -0.6734 -1.9882 -1.2658
 7030SOL     OW32722   4.566   2.820   4.070 -0.2902  0.1578  0.3725
 7030SOL    HW132723   4.655   2.790   4.051 -0.5302 -0.5986  0.4529
 7030SOL    HW232724   4.528   2.738   4.100  1.8791 -0.7562  0.6384
 7031SOL     OW32725   4.459   4.500   2.174 -0.1416 -0.1491  0.3443
 7031SOL    HW132726   4.402   4.562   2.218  1.0696  1.0622  0.2237
 7031SOL    HW232727   4.530   4.504   2.238 -0.2527 -0.9366  0.5188
 7032SOL     OW32728   1.949   1.941   9.029 -0.4574  0.0250 -0.4215
 7032SOL    HW132729   1.940   1.996   9.107  1.9327  0.1914 -0.2626
 7032SOL    HW232730   1.896   1.991   8.968  1.4451 -0.7822 -2.7313
 7033SOL     OW32731   2.664   3.202   9.062 -0.1288  0.1960 -0.5530
 7033SOL    HW132732   2.636   3.138   9.127 -0.8224  2.0373  0.9639
 7033SOL    HW232733   2.671   3.153   8.980  0.4075  1.6107 -1.3502
 7034SOL     OW32734   1.246   1.979  17.284  0.0468 -0.4555  0.1677
 7034SOL    HW132735   1.165   1.955  17.329 -1.4548 -0.3787 -2.4675
 7034SOL    HW232736   1.228   2.072  17.271 -0.3544 -0.5500  0.0616
 7035SOL     OW32737   2.086   2.602   6.310 -0.7415 -0.1425 -0.0289
 7035SOL    HW132738   2.145   2.598   6.235  1.8714 -1.0767  2.0562
 7035SOL    HW232739   2.020   2.649   6.259 -1.2099 -3.3232 -2.3048
 7036SOL     OW32740   2.502   2.682   2.549  0.0900 -0.0987  0.2039
 7036SOL    HW132741   2.424   2.690   2.603  0.7154  0.1686  1.0629
 7036SOL    HW232742   2.539   2.601   2.583  0.3509 -0.1612 -0.2208
 7037SOL     OW32743   1.610   0.541   3.067 -0.8302  0.4237  0.3869
 7037SOL    HW132744   1.567   0.476   3.011 -1.8703  0.1270  1.5086
 7037SOL    HW232745   1.530   0.591   3.086 -1.1552  0.0359  0.0646
 7038SOL     OW32746   3.134   3.546   8.134 -0.1574  0.2973  0.2593
 7038SOL    HW132747   3.066   3.584   8.078 -0.6196  1.0621  1.3571
 7038SOL    HW232748   3.085   3.489   8.193  1.2138 -1.1569  0.0121
 7039SOL     OW32749   3.898   0.917   9.629 -0.0493 -0.2456  0.5302
 7039SOL    HW132750   3.812   0.884   9.657  0.3039 -1.4182  0.2378
 7039SOL    HW232751   3.883   1.012   9.630 -1.0104 -0.3719 -3.5263
 7040SOL     OW32752   1.773   1.921   7.190 -0.1576  0.0773  0.0844
 7040SOL    HW132753   1.726   1.858   7.245 -1.2715  0.8670  0.0452
 7040SOL    HW232754   1.846   1.869   7.158  1.3266  1.7013  0.7765
 7041SOL     OW32755   2.430   3.255   5.816  0.3021  0.6505 -1.0049
 7041SOL    HW132756   2.520   3.254   5.784  1.2207  0.1458  1.5599
 7041SOL    HW232757   2.447   3.218   5.903 -1.4991  0.3362 -0.7855
 7042SOL     OW32758   2.054   4.217  13.129 -0.1743  0.0236 -0.6240
 7042SOL    HW132759   2.018   4.255  13.049  1.3742  2.9184  0.0512
 7042SOL    HW232760   2.119   4.157  13.092 -1.0186 -0.0111 -2.0426
 7043SOL     OW32761   0.658   0.861   6.701  0.1536 -0.0229 -0.3094
 7043SOL    HW132762   0.579   0.856   6.647 -1.5704  3.6460  1.9108
 7043SOL    HW232763   0.702   0.787   6.659  0.2519 -1.4779  2.3407
 7044SOL     OW32764   2.685   0.383   1.856 -0.5436  0.3177 -0.1235
 7044SOL    HW132765   2.762   0.380   1.799  0.0491  1.2830  0.6105
 7044SOL    HW232766   2.721   0.335   1.931 -0.9551  0.3102  0.0721
 7045SOL     OW32767   0.923   3.069   9.691 -0.1835  0.1112 -0.3403
 7045SOL    HW132768   0.992   3.116   9.644  0.9956 -1.4648 -0.1663
 7045SOL    HW232769   0.849   3.097   9.638 -1.0653 -0.6673  0.4968
 7046SOL     OW32770   1.371   2.364   1.781  0.4409  0.4840 -0.1389
 7046SOL    HW132771   1.286   2.368   1.737  0.5228 -2.6229 -0.5554
 7046SOL    HW232772   1.387   2.458   1.791 -0.9171  0.5426  1.5797
 7047SOL     OW32773   3.956   1.107  13.613  0.0371 -0.1169 -0.0525
 7047SOL    HW132774   3.961   1.038  13.547 -3.5028  0.2225 -0.6694
 7047SOL    HW232775   3.910   1.177  13.566 -1.3640 -0.9561  0.0439
 7048SOL     OW32776   3.241   1.637   7.683  0.1436 -0.1080  0.0320
 7048SOL    HW132777   3.201   1.551   7.696 -1.1951  0.8068  2.0731
 7048SOL    HW232778   3.245   1.635   7.588  1.0933 -1.3957  0.0997
 7049SOL     OW32779   4.498   3.646   5.393 -0.0668 -0.3574  0.3792
 7049SOL    HW132780   4.575   3.623   5.341  0.2457  1.4667  0.0384
 7049SOL    HW232781   4.537   3.625   5.477  2.6464 -1.0662 -1.0686
 7050SOL     OW32782   3.369   0.246  13.779 -0.0295  0.4686 -0.2810
 7050SOL    HW132783   3.278   0.274  13.772 -0.7394 -2.7444 -4.4071
 7050SOL    HW232784   3.382   0.211  13.691  2.6494  0.6306  0.0551
 7051SOL     OW32785   3.983   4.520   6.926  0.3968  0.1650 -0.1983
 7051SOL    HW132786   4.037   4.598   6.911  0.8619 -0.3673 -1.3160
 7051SOL    HW232787   4.051   4.456   6.902  2.7880  2.1231  1.3805
 7052SOL     OW32788   0.653   3.454   7.623 -0.3230  0.0116  0.6251
 7052SOL    HW132789   0.699   3.535   7.600 -1.4530  1.1956  2.4979
 7052SOL    HW232790   0.582   3.462   7.560  0.1824 -0.4027  0.0027
 7053SOL     OW32791   1.894   2.621  12.344 -0.3010  0.0119 -0.4330
 7053SOL    HW132792   1.877   2.680  12.270  2.4771  1.1590 -0.1226
 7053SOL    HW232793   1.985   2.597  12.327 -0.6538 -1.7287  0.0804
 7054SOL     OW32794   0.514   3.798  17.454 -0.2703  0.0868  0.2304
 7054SOL    HW132795   0.529   3.711  17.416 -2.6365  0.5342 -1.7168
 7054SOL    HW232796   0.439   3.824  17.400  0.5945  0.4925 -0.7772
 7055SOL     OW32797   4.146   4.314  16.642  0.2377 -0.0895 -0.2231
 7055SOL    HW132798   4.149   4.310  16.738  1.8660  2.4657 -0.1567
 7055SOL    HW232799   4.087   4.389  16.632  2.1472  1.3425 -0.7357
 7056SOL     OW32800   1.927   3.399   6.289  0.3426  0.3707  0.2832
 7056SOL    HW132801   1.857   3.426   6.348  1.3097  3.4060  0.0421
 7056SOL    HW232802   1.907   3.310   6.259  0.6177  0.3244  0.2412
 7057SOL     OW32803   1.309   0.084   4.740  0.3763  0.1156  0.4873
 7057SOL    HW132804   1.332   0.035   4.661  1.0287  2.1497 -0.5880
 7057SOL    HW232805   1.326   0.175   4.715 -2.6577  0.9014  1.3400
 7058SOL     OW32806   4.086   2.601  12.083 -0.3828  0.0206 -0.1687
 7058SOL    HW132807   4.059   2.520  12.041  0.4055  0.9868 -2.5381
 7058SOL    HW232808   4.075   2.661  12.009 -0.8236  0.5330  0.3124
 7059SOL     OW32809   0.572   0.608  13.991 -0.0261  0.4126 -0.0467
 7059SOL    HW132810   0.547   0.700  13.997  2.1495  0.9743  0.2425
 7059SOL    HW232811   0.525   0.576  14.068  0.5756  0.8969  0.5135
 7060SOL     OW32812   1.759   3.064   0.648  0.0312 -0.5590  0.9048
 7060SOL    HW132813   1.800   3.047   0.732  0.5256  1.1472  0.9990
 7060SOL    HW232814   1.708   3.144   0.665  1.3341  0.8427 -1.7327
 7061SOL     OW32815   0.967   3.907   7.501 -0.3087  0.6316 -0.6192
 7061SOL    HW132816   0.922   3.967   7.441 -2.2424 -1.1515 -0.9294
 7061SOL    HW232817   1.021   3.960   7.559  1.1681 -1.4032 -0.1491
 7062SOL     OW32818   1.807   4.123  13.354  0.8455  0.4306  0.6619
 7062SOL    HW132819   1.753   4.200  13.367 -1.3333 -0.9905  0.0213
 7062SOL    HW232820   1.893   4.154  13.325  1.0011 -2.2868 -1.8079
 7063SOL     OW32821   3.366   4.082   3.301  0.4797  0.3004  0.3696
 7063SOL    HW132822   3.306   4.054   3.232 -0.2835  0.0211  1.1525
 7063SOL    HW232823   3.299   4.084   3.369 -0.4128 -0.1897 -0.5027
 7064SOL     OW32824   0.489   3.018   6.214 -0.6286  0.4063 -0.0001
 7064SOL    HW132825   0.463   3.009   6.306 -0.0552 -0.6591  0.0532
 7064SOL    HW232826   0.509   3.112   6.210  2.8644 -0.3840 -1.0049
 7065SOL     OW32827   3.707   0.885   3.207 -0.0833  0.6427 -0.0289
 7065SOL    HW132828   3.707   0.865   3.114  1.2917  1.1812 -0.1391
 7065SOL    HW232829   3.617   0.916   3.217 -0.1624  0.6332 -0.7272
 7066SOL     OW32830   3.702   4.176   4.796 -0.4614 -0.0850  0.0491
 7066SOL    HW132831   3.749   4.199   4.716 -1.0605  2.3508  0.3979
 7066SOL    HW232832   3.624   4.231   4.787 -1.2275 -0.5221  3.8293
 7067SOL     OW32833   2.246   1.460   4.495  0.2554  0.3959 -0.2785
 7067SOL    HW132834   2.258   1.422   4.582 -0.7593  0.4020 -0.1435
 7067SOL    HW232835   2.307   1.533   4.486  0.6689 -0.4075 -3.8756
 7068SOL     OW32836   0.766   4.054   2.556 -0.1830  0.7785  0.2186
 7068SOL    HW132837   0.741   4.046   2.464 -1.3307  1.9607  0.4333
 7068SOL    HW232838   0.747   4.143   2.584 -1.6251  0.7289 -0.6675
 7069SOL     OW32839   0.783   0.036   5.620 -0.4833  0.8687 -0.6469
 7069SOL    HW132840   0.789   0.100   5.550  1.5926  0.8717 -0.4857
 7069SOL    HW232841   0.849   0.079   5.675 -0.5568 -0.1636  0.2580
 7070SOL     OW32842   4.095   1.628   4.625 -0.2421  0.7470  0.7852
 7070SOL    HW132843   4.106   1.619   4.719  2.7475  2.7229  0.6205
 7070SOL    HW232844   4.101   1.724   4.621  1.7431  0.6646  2.0242
 7071SOL     OW32845   4.264   1.093   3.398 -0.0726  0.2410  0.4711
 7071SOL    HW132846   4.206   1.117   3.325  0.5688  2.4933  0.7249
 7071SOL    HW232847   4.234   1.148   3.470  3.4165  2.6924  0.0097
 7072SOL     OW32848   0.617   0.142   7.197 -0.6399 -0.2522 -0.2648
 7072SOL    HW132849   0.667   0.106   7.124  0.2282 -0.2179  0.3259
 7072SOL    HW232850   0.562   0.196   7.140  1.1316  1.2564 -0.5292
 7073SOL     OW32851   1.460   0.812  11.287 -0.2980  0.0366  0.1450
 7073SOL    HW132852   1.538   0.772  11.248  0.3317  1.0308  0.3799
 7073SOL    HW232853   1.398   0.743  11.262  0.6330 -0.6517 -0.2823
 7074SOL     OW32854   1.398   0.952   1.664  0.2909 -0.2759  0.0870
 7074SOL    HW132855   1.333   1.017   1.691  0.7769  0.1695  0.1835
 7074SOL    HW232856   1.352   0.920   1.586 -0.5656 -1.4619  1.0695
 7075SOL     OW32857   4.075   1.548   9.543 -0.0267 -0.2133 -0.1248
 7075SOL    HW132858   3.987   1.579   9.524 -0.2624 -1.1428 -0.5437
 7075SOL    HW232859   4.065   1.453   9.541  0.2786 -0.2268 -1.2126
 7076SOL     OW32860   3.293   0.971   1.245 -0.7837  0.0057 -0.6704
 7076SOL    HW132861   3.348   0.987   1.322  0.1398 -1.2896 -1.0650
 7076SOL    HW232862   3.212   1.023   1.247  0.4280  1.8364  1.2521
 7077SOL     OW32863   0.480   2.830   0.230 -0.0111 -0.1791  0.3750
 7077SOL    HW132864   0.515   2.903   0.281 -0.4044  0.4506 -0.2581
 7077SOL    HW232865   0.420   2.879   0.174 -1.5055 -0.4399  1.7640
 7078SOL     OW32866   2.334   4.478   0.152  0.2417 -0.0031 -0.0926
 7078SOL    HW132867   2.285   4.466   0.070 -0.3604  0.3740  0.2158
 7078SOL    HW232868   2.354   4.386   0.171  1.0712  0.6483  2.2084
 7079SOL     OW32869   3.100   1.420  16.325 -0.0127  0.4809  0.1181
 7079SOL    HW132870   3.143   1.381  16.249 -2.2556 -0.7714 -0.5045
 7079SOL    HW232871   3.038   1.481  16.284 -0.4916 -0.0071  0.1239
 7080SOL     OW32872   3.166   1.550   6.579 -0.2026 -0.3792  0.2250
 7080SOL    HW132873   3.230   1.488   6.544 -1.2883  0.0860 -2.6099
 7080SOL    HW232874   3.208   1.600   6.649  1.5865 -2.3332  0.5415
 7081SOL     OW32875   1.886   4.469   5.557 -0.3616 -0.1127 -0.1479
 7081SOL    HW132876   1.942   4.535   5.598 -1.1606  0.4357  0.0559
 7081SOL    HW232877   1.903   4.497   5.467  1.1340  2.6126  0.9875
 7082SOL     OW32878   0.408   3.062   4.209 -0.1546  0.1445  0.0164
 7082SOL    HW132879   0.420   3.067   4.304 -1.0444 -0.5114  0.1649
 7082SOL    HW232880   0.429   3.152   4.184  0.3655 -0.0421 -0.2103
 7083SOL     OW32881   2.750   1.501   1.152 -0.9078  0.0044  0.2349
 7083SOL    HW132882   2.824   1.490   1.092 -1.4721  2.3563 -0.8523
 7083SOL    HW232883   2.776   1.443   1.225 -2.8821 -0.0045  0.9350
 7084SOL     OW32884   2.676   4.202  17.733  0.1424  0.5918 -0.0189
 7084SOL    HW132885   2.621   4.143  17.682  0.2090 -0.8571  1.5666
 7084SOL    HW232886   2.753   4.217  17.678 -0.1662 -1.4857 -0.9925
 7085SOL     OW32887   0.061   1.686   8.738  0.4384 -0.1473 -0.4673
 7085SOL    HW132888   0.027   1.621   8.676  0.6628 -0.5426 -0.1777
 7085SOL    HW232889   0.028   1.768   8.701  1.3587  0.9786  1.2190
 7086SOL     OW32890   3.634   3.410   4.107  0.0254 -0.1241  0.3478
 7086SOL    HW132891   3.629   3.472   4.034  0.2139 -0.2554  0.2228
 7086SOL    HW232892   3.586   3.460   4.174  1.7492  1.9991 -0.0255
 7087SOL     OW32893   1.643   2.741   0.978 -0.0108  0.4467 -0.1725
 7087SOL    HW132894   1.719   2.784   1.017  0.0629  0.4615 -0.3316
 7087SOL    HW232895   1.666   2.648   0.969  1.0539  0.6340  0.6304
 7088SOL     OW32896   0.453   2.533   4.144  0.1440  0.3949 -0.0699
 7088SOL    HW132897   0.543   2.549   4.114  0.8324 -0.6182  1.4302
 7088SOL    HW232898   0.422   2.623   4.150  1.6566  0.9280 -0.3294
 7089SOL     OW32899   3.539   2.399   4.246  0.0332  0.6967 -0.7319
 7089SOL    HW132900   3.566   2.407   4.154  4.6686  2.5459  0.7697
 7089SOL    HW232901   3.490   2.480   4.256  0.9779  1.1874 -0.1098
 7090SOL     OW32902   1.344   2.726   2.076 -0.2103  0.1199  0.2230
 7090SOL    HW132903   1.351   2.821   2.069  1.6952  0.0738  1.3901
 7090SOL    HW232904   1.280   2.719   2.148  0.6644 -1.5183  0.8358
 7091SOL     OW32905   0.052   3.434  14.259 -0.1900  0.4621  0.2223
 7091SOL    HW132906   0.076   3.461  14.348 -0.4676 -0.5940  0.6196
 7091SOL    HW232907   0.127   3.375  14.254 -1.7158 -1.2856 -1.9427
 7092SOL     OW32908   0.987   1.406   4.496  0.7434 -0.3649 -0.2663
 7092SOL    HW132909   0.899   1.436   4.519  1.0268  0.4609 -0.2817
 7092SOL    HW232910   0.964   1.396   4.404 -1.6824  0.8408  0.1946
 7093SOL     OW32911   0.316   3.004  10.684 -0.1448  0.4886  0.7194
 7093SOL    HW132912   0.289   2.942  10.617  3.6124 -1.8161  1.3563
 7093SOL    HW232913   0.246   3.070  10.680 -1.2568 -0.8821 -2.1640
 7094SOL     OW32914   0.577   0.260   5.106  0.5653  0.5883 -0.2727
 7094SOL    HW132915   0.528   0.302   5.036 -0.3843 -1.0311 -0.5812
 7094SOL    HW232916   0.626   0.332   5.145  1.7438  0.6283 -1.8360
 7095SOL     OW32917   1.816   4.480  13.058 -0.0261  0.3421  0.3912
 7095SOL    HW132918   1.766   4.403  13.029 -0.4643  0.3864  1.0435
 7095SOL    HW232919   1.906   4.463  13.029 -0.6760 -2.8936  0.2639
 7096SOL     OW32920   1.495   0.397   2.845 -0.1990 -0.1524 -0.0464
 7096SOL    HW132921   1.419   0.448   2.819 -0.6111 -2.8759 -4.2441
 7096SOL    HW232922   1.560   0.447   2.795  0.6092 -1.2985 -0.1406
 7097SOL     OW32923   0.390   0.162   4.639 -0.2095  0.1394  0.0285
 7097SOL    HW132924   0.332   0.238   4.631  0.3024  0.4976 -0.3066
 7097SOL    HW232925   0.479   0.198   4.635 -0.2960  0.1531 -1.6390
 7098SOL     OW32926   4.087   3.195   2.032  0.0246  0.1165 -0.5043
 7098SOL    HW132927   4.058   3.192   1.941 -0.3859  0.5600 -0.3838
 7098SOL    HW232928   4.063   3.103   2.048  0.5354 -0.0791 -0.8596
 7099SOL     OW32929   4.308   3.468   5.330  0.0791  0.2119 -0.5674
 7099SOL    HW132930   4.368   3.539   5.352 -3.3193  3.2084 -1.1078
 7099SOL    HW232931   4.240   3.501   5.389 -0.0890  1.4095 -1.4397
 7100SOL     OW32932   1.484   2.649   6.348  0.2320 -0.2688 -0.0459
 7100SOL    HW132933   1.422   2.710   6.388  1.3947  0.1940  1.0479
 7100SOL    HW232934   1.566   2.674   6.391  1.2278 -1.7608 -1.0871
 7101SOL     OW32935   3.828   2.272   7.500 -0.4693  0.3853 -0.3234
 7101SOL    HW132936   3.910   2.275   7.450 -1.0954  1.3551 -1.2925
 7101SOL    HW232937   3.856   2.191   7.544 -1.5202  0.9050  1.2958
 7102SOL     OW32938   2.655   0.687   2.424 -0.6084  0.3222 -0.2419
 7102SOL    HW132939   2.621   0.699   2.512 -0.2201 -2.4555  0.2949
 7102SOL    HW232940   2.747   0.699   2.448 -0.5291  1.1671 -0.9798
 7103SOL     OW32941   4.653   0.549   5.474 -0.4322 -0.4619  0.1617
 7103SOL    HW132942   4.694   0.567   5.558 -0.6989 -2.1503  0.6557
 7103SOL    HW232943   4.718   0.504   5.419  0.7386 -0.0283  1.1973
 7104SOL     OW32944   0.838   0.075   3.647  0.3418  0.1740 -0.3842
 7104SOL    HW132945   0.897   0.122   3.589  1.0718 -0.4331 -0.1256
 7104SOL    HW232946   0.847   0.137   3.720 -1.8537  1.4621 -1.2024
 7105SOL     OW32947   3.108   3.090   0.876 -0.2234  0.0819 -0.2459
 7105SOL    HW132948   3.178   3.112   0.815 -0.9532  0.6889 -0.8775
 7105SOL    HW232949   3.043   3.144   0.830  1.4988  0.3025 -2.3888
 7106SOL     OW32950   1.703   4.233  12.331  0.0044  0.2693 -0.2729
 7106SOL    HW132951   1.710   4.245  12.426 -0.9076  0.9685 -0.2931
 7106SOL    HW232952   1.795   4.214  12.310 -0.3625 -1.2856 -0.4858
 7107SOL     OW32953   3.839   0.520  15.768  0.3292  0.1010 -0.1145
 7107SOL    HW132954   3.840   0.465  15.689  0.0864 -0.8324  0.5409
 7107SOL    HW232955   3.779   0.588  15.738 -0.5342 -0.0533  1.2513
 7108SOL     OW32956   2.147   4.492   8.861 -0.6208  0.3057 -0.0798
 7108SOL    HW132957   2.141   4.510   8.767 -0.7767  0.5579 -0.0211
 7108SOL    HW232958   2.072   4.544   8.892  1.3184  2.0338  1.6867
 7109SOL     OW32959   3.998   0.756  13.976  0.1848  0.5296 -0.0731
 7109SOL    HW132960   4.012   0.717  13.890  1.3972 -0.8458  0.7358
 7109SOL    HW232961   4.004   0.847  13.949  0.2542  0.4095 -0.4623
 7110SOL     OW32962   4.579   2.776  12.808 -0.0421 -0.3954 -0.0736
 7110SOL    HW132963   4.577   2.681  12.800  1.2760 -0.5187  1.1511
 7110SOL    HW232964   4.599   2.819  12.725  1.5271  0.7513  0.8974
 7111SOL     OW32965   2.938   1.322   0.650 -0.0475 -0.0582  0.0486
 7111SOL    HW132966   2.882   1.269   0.706  2.8436 -3.1760 -0.0291
 7111SOL    HW232967   3.019   1.273   0.636 -0.3821 -0.6433  0.1787
 7112SOL     OW32968   2.674   0.793   3.503 -0.4430 -0.4796  0.3001
 7112SOL    HW132969   2.627   0.868   3.540 -1.1837 -0.6586 -0.2643
 7112SOL    HW232970   2.762   0.792   3.540 -0.4578  0.6516  0.3732
 7113SOL     OW32971   1.639   0.140   2.170 -0.5722 -0.0218  0.4249
 7113SOL    HW132972   1.732   0.162   2.177 -1.1562  3.3155 -2.2175
 7113SOL    HW232973   1.648   0.056   2.216 -2.0081  0.0984  0.9071
 7114SOL     OW32974   4.364   0.336   3.830 -0.5011  0.1610  0.0801
 7114SOL    HW132975   4.459   0.343   3.841 -0.3069 -2.3359  0.1622
 7114SOL    HW232976   4.342   0.284   3.907 -1.1332  2.4394  1.3982
 7115SOL     OW32977   4.413   0.561   2.530 -0.1553  0.0933 -0.0075
 7115SOL    HW132978   4.405   0.467   2.516  4.2577 -0.8914  4.1812
 7115SOL    HW232979   4.430   0.588   2.440  2.4503 -0.9719  0.1575
 7116SOL     OW32980   1.285   2.140   2.408  0.0646  0.0027 -0.0121
 7116SOL    HW132981   1.271   2.152   2.314  2.7761  0.0949 -0.4059
 7116SOL    HW232982   1.373   2.175   2.422 -0.4350  1.8056 -1.2828
 7117SOL     OW32983   2.419   4.084  13.056 -0.4487 -0.4265  0.2526
 7117SOL    HW132984   2.344   4.025  13.058 -0.9243  0.2424  1.5813
 7117SOL    HW232985   2.482   4.040  13.113 -0.1735 -1.9937 -1.2576
 7118SOL     OW32986   1.092   3.833   7.826 -0.4374  0.3396  0.4410
 7118SOL    HW132987   1.069   3.891   7.899 -0.2652  1.7371 -0.6210
 7118SOL    HW232988   1.183   3.858   7.815  0.2667 -1.0570  3.1877
 7119SOL     OW32989   3.422   0.471   8.478 -0.3075  0.0672  0.1504
 7119SOL    HW132990   3.460   0.501   8.561  0.7425  1.7255 -0.9180
 7119SOL    HW232991   3.474   0.509   8.407 -0.1014  0.5672  0.5666
 7120SOL     OW32992   1.191   0.481   7.924 -0.1047  0.2153  0.4620
 7120SOL    HW132993   1.168   0.396   7.886  0.7617  0.5726 -0.8342
 7120SOL    HW232994   1.233   0.452   8.005 -1.3150 -1.8055  0.3468
 7121SOL     OW32995   2.900   2.683   8.465  0.0497  0.5619 -0.4006
 7121SOL    HW132996   2.888   2.682   8.370  1.0165  3.5487 -0.5544
 7121SOL    HW232997   2.810   2.686   8.497  0.4002  0.3905  0.5990
 7122SOL     OW32998   3.931   4.524  14.859 -0.2631  0.9029 -0.2041
 7122SOL    HW132999   4.010   4.573  14.836 -1.6483  3.6009  0.7890
 7122SOL    HW233000   3.878   4.594  14.897  2.7369  2.5538  0.8779
 7123SOL     OW33001   3.305   0.756   8.800  0.8954  0.1454 -0.0355
 7123SOL    HW133002   3.380   0.700   8.782  1.8248  1.3048  0.1985
 7123SOL    HW233003   3.352   0.839   8.791  0.0804  0.4809 -1.1594
 7124SOL     OW33004   1.357   2.798   0.567  0.1201 -0.2532  0.0323
 7124SOL    HW133005   1.323   2.774   0.654 -2.7678  0.3741 -0.9062
 7124SOL    HW233006   1.452   2.795   0.579  0.1004  2.0863  0.8690
 7125SOL     OW33007   2.127   3.077   4.930  0.4748  0.5978  0.2702
 7125SOL    HW133008   2.110   2.991   4.893 -0.6411  0.5549  0.8796
 7125SOL    HW233009   2.050   3.081   4.986  0.9856 -0.9100  1.0860
 7126SOL     OW33010   1.548   0.197   7.810 -0.1483  0.1283 -0.1601
 7126SOL    HW133011   1.478   0.203   7.744 -0.3778 -2.7857 -0.1640
 7126SOL    HW233012   1.532   0.107   7.838 -0.2549 -0.0083 -0.6719
 7127SOL     OW33013   1.183   0.532   7.047 -0.4047 -0.0719 -0.1120
 7127SOL    HW133014   1.095   0.568   7.053 -1.1328 -1.6579 -1.1618
 7127SOL    HW233015   1.163   0.454   6.995 -0.9039  0.5587 -0.8661
 7128SOL     OW33016   4.433   0.455   1.582  0.6090 -0.2286  0.0686
 7128SOL    HW133017   4.383   0.412   1.651 -0.1595 -1.4173 -1.2452
 7128SOL    HW233018   4.374   0.447   1.507 -1.1191  2.6439  1.1046
 7129SOL     OW33019   4.530   2.347   8.207  0.1137  0.1319 -0.3810
 7129SOL    HW133020   4.580   2.388   8.278 -2.0304 -1.1489  1.8751
 7129SOL    HW233021   4.449   2.398   8.211 -1.1561 -1.9128  0.0977
 7130SOL     OW33022   2.176   2.195   9.818 -0.0541  0.4608 -0.1468
 7130SOL    HW133023   2.257   2.245   9.833  0.1389 -0.0038  0.3325
 7130SOL    HW233024   2.197   2.113   9.862  0.0744  0.3091 -0.4913
 7131SOL     OW33025   4.058   1.007  16.062 -0.5152 -0.1746  0.0528
 7131SOL    HW133026   3.981   0.976  16.014  0.8904 -2.2607 -0.8786
 7131SOL    HW233027   4.047   1.100  16.045 -1.0274  0.1151  2.0070
 7132SOL     OW33028   3.892   2.040   1.470 -0.0273 -0.2254  0.0492
 7132SOL    HW133029   3.821   2.050   1.406  1.6609 -0.3573 -1.8161
 7132SOL    HW233030   3.947   1.997   1.405  2.4523 -0.3241  2.2115
 7133SOL     OW33031   1.059   4.515  13.897 -0.1108 -0.4922  0.3425
 7133SOL    HW133032   1.024   4.428  13.875 -1.0092 -0.3992  1.4024
 7133SOL    HW233033   1.058   4.497  13.991 -0.0798  1.0358  0.6286
 7134SOL     OW33034   1.481   3.695   2.311 -0.5356  0.5602  0.3187
 7134SOL    HW133035   1.513   3.761   2.250 -0.8861  0.8478  0.4511
 7134SOL    HW233036   1.561   3.675   2.359  1.3347  2.1791 -2.1652
 7135SOL     OW33037   2.889   3.658   8.013  0.1714  0.0358  0.5433
 7135SOL    HW133038   2.865   3.715   8.087  0.1790 -0.1132  0.6600
 7135SOL    HW233039   2.839   3.695   7.940 -0.8029 -1.3410  0.5003
 7136SOL     OW33040   3.620   2.778   4.976 -0.1121 -0.0639  0.5305
 7136SOL    HW133041   3.700   2.754   4.929 -2.5105 -2.5592 -2.2581
 7136SOL    HW233042   3.649   2.762   5.066  2.0443  1.3834  0.1030
 7137SOL     OW33043   1.347   1.032   2.122 -0.0535 -0.5432 -0.2781
 7137SOL    HW133044   1.312   1.039   2.033 -2.9045 -0.8171  0.8182
 7137SOL    HW233045   1.422   1.091   2.117 -0.2673 -0.2784 -0.3042
 7138SOL     OW33046   1.057   4.363   3.603  0.1088  0.0999  0.0798
 7138SOL    HW133047   1.093   4.388   3.688  1.6718  0.4086 -0.6654
 7138SOL    HW233048   0.980   4.419   3.594 -0.2232 -0.3840 -0.0702
 7139SOL     OW33049   3.941   4.580   4.988 -0.1480 -0.3853 -0.3579
 7139SOL    HW133050   3.850   4.579   4.961 -0.8320  2.5960  1.8521
 7139SOL    HW233051   3.951   4.491   5.023  0.8632  0.7217  2.2092
 7140SOL     OW33052   0.882   1.508   5.776 -0.3627  0.3686 -0.7359
 7140SOL    HW133053   0.831   1.532   5.698  1.6685  1.5221 -1.6979
 7140SOL    HW233054   0.931   1.432   5.745 -0.9694 -0.1571 -0.4029
 7141SOL     OW33055   3.218   3.338   7.436 -0.2633  0.4411  0.5001
 7141SOL    HW133056   3.239   3.382   7.518 -2.0341  2.7242 -0.2573
 7141SOL    HW233057   3.291   3.365   7.380 -0.1643 -0.1282  0.3519
 7142SOL     OW33058   4.043   1.638  16.946  0.1588  0.3856  0.0775
 7142SOL    HW133059   4.014   1.617  17.035 -1.0009  0.5454 -0.2629
 7142SOL    HW233060   4.016   1.730  16.942 -1.0322  0.0385  0.2692
 7143SOL     OW33061   4.548   3.777  17.051  0.7027  0.2440  0.1584
 7143SOL    HW133062   4.525   3.869  17.054 -1.7586 -0.3308 -0.8502
 7143SOL    HW233063   4.640   3.783  17.026  0.1217  0.9992 -1.8072
 7144SOL     OW33064   0.787   0.968  15.836  0.2938  0.0280  0.5830
 7144SOL    HW133065   0.825   1.038  15.782  2.1233 -0.6904  0.9394
 7144SOL    HW233066   0.759   0.903  15.772  0.4034  0.1497  0.4106
 7145SOL     OW33067   3.121   3.130  16.587  0.2704  0.2522 -0.0931
 7145SOL    HW133068   3.165   3.143  16.502 -1.4792 -1.2566 -1.2301
 7145SOL    HW233069   3.138   3.040  16.615  0.6269  0.9057  1.7899
 7146SOL     OW33070   4.507   3.521   2.254 -0.0502  0.1000  0.0489
 7146SOL    HW133071   4.424   3.533   2.207  0.7467  0.8415 -1.1525
 7146SOL    HW233072   4.575   3.521   2.187  0.4321  0.1011  0.5427
 7147SOL     OW33073   3.784   0.141   5.896  0.1292  0.6122 -0.0679
 7147SOL    HW133074   3.735   0.059   5.894  1.7108 -0.3493  0.1784
 7147SOL    HW233075   3.750   0.180   5.976  1.1974  2.6707 -0.6055
 7148SOL     OW33076   0.271   1.896   6.003  0.4529  0.0360  0.3287
 7148SOL    HW133077   0.205   1.874   6.070  0.7464 -0.6034  0.4039
 7148SOL    HW233078   0.315   1.973   6.039  1.3763 -0.1063 -0.5294
 7149SOL     OW33079   1.234   0.968   3.105 -0.7446 -0.2534  0.5122
 7149SOL    HW133080   1.281   1.051   3.113 -0.8818 -0.2969  1.9127
 7149SOL    HW233081   1.204   0.972   3.014 -0.8647 -1.3971  0.4932
 7150SOL     OW33082   2.795   3.308   1.830 -0.2175  0.2074  0.6885
 7150SOL    HW133083   2.890   3.315   1.839  0.0455  0.5785 -2.5562
 7150SOL    HW233084   2.764   3.330   1.919  1.5791 -1.7628  1.7838
 7151SOL     OW33085   3.176   3.876  12.879  0.0872  0.7276 -0.2318
 7151SOL    HW133086   3.209   3.801  12.828 -0.0041 -0.6675  1.7822
 7151SOL    HW233087   3.175   3.841  12.968 -0.0391 -0.8030 -0.8184
 7152SOL     OW33088   0.615   3.198  17.397  0.0899 -0.7229  0.3078
 7152SOL    HW133089   0.602   3.250  17.477 -1.5457 -1.5538  0.5757
 7152SOL    HW233090   0.578   3.112  17.417  0.6853 -1.3639 -1.3918
 7153SOL     OW33091   2.451   1.443   6.278 -0.2787  0.1373 -0.4867
 7153SOL    HW133092   2.491   1.507   6.219  1.2598  1.7003  2.2893
 7153SOL    HW233093   2.383   1.498   6.316  1.7361  1.2509  1.5486
 7154SOL     OW33094   2.513   0.705  16.104  0.5568 -0.4619 -0.0182
 7154SOL    HW133095   2.562   0.631  16.138 -0.0468 -0.6039  0.5502
 7154SOL    HW233096   2.531   0.692  16.011 -1.4956 -1.1130 -0.3391
 7155SOL     OW33097   2.556   1.599   1.403 -0.1249 -0.3594 -0.3109
 7155SOL    HW133098   2.520   1.549   1.477  0.6774 -0.0378  0.2973
 7155SOL    HW233099   2.633   1.619   1.457  0.6513  0.7221 -1.8157
 7156SOL     OW33100   4.388   1.848   7.123 -0.2056  0.0417 -0.4255
 7156SOL    HW133101   4.375   1.784   7.053  0.4086  0.5679 -1.0216
 7156SOL    HW233102   4.422   1.925   7.076  0.0015  0.4441  0.3798
 7157SOL     OW33103   1.251   1.191   4.182  0.2925  0.0608  0.1125
 7157SOL    HW133104   1.261   1.160   4.091  0.4555 -0.4075  0.2883
 7157SOL    HW233105   1.328   1.147   4.219  1.6154  2.1130 -0.2257
 7158SOL     OW33106   1.037   4.030   6.795  0.3023 -0.2925  0.2619
 7158SOL    HW133107   1.030   4.016   6.889  1.8161 -1.3534  0.2265
 7158SOL    HW233108   1.025   4.125   6.801 -0.5421 -0.3950  0.1653
 7159SOL     OW33109   2.444   0.286  13.405  0.1541 -0.1912  0.2872
 7159SOL    HW133110   2.481   0.371  13.384  1.0904 -0.6942 -0.1076
 7159SOL    HW233111   2.377   0.277  13.337 -0.4249 -1.6049  1.0509
 7160SOL     OW33112   0.963   2.602   4.515 -0.0816 -0.5377  0.5369
 7160SOL    HW133113   0.892   2.540   4.498 -2.0803  1.5727  1.1861
 7160SOL    HW233114   0.964   2.657   4.436  0.6817  1.5608  2.0051
 7161SOL     OW33115   3.774   1.917  14.269 -0.3519  0.5287  0.1384
 7161SOL    HW133116   3.739   1.880  14.350  1.6280 -1.3334  0.1366
 7161SOL    HW233117   3.704   1.885  14.212  0.4098 -2.5486  0.9658
 7162SOL     OW33118   0.094   3.551   4.894 -0.1343  0.6006 -0.5215
 7162SOL    HW133119   0.066   3.623   4.950 -1.1984 -0.5209  0.3975
 7162SOL    HW233120   0.188   3.565   4.906  0.0634 -0.9513 -0.2752
 7163SOL     OW33121   4.309   2.661  12.539 -0.3035 -0.5226 -0.4063
 7163SOL    HW133122   4.300   2.755  12.550  0.6161 -0.1866 -2.4109
 7163SOL    HW233123   4.316   2.652  12.444  1.2058  0.3134 -0.3666
 7164SOL     OW33124   0.309   0.120   0.760  0.4557  0.1221  0.4732
 7164SOL    HW133125   0.350   0.200   0.792  0.9806 -0.6063  1.6569
 7164SOL    HW233126   0.296   0.136   0.667 -1.9536 -0.1203  0.7687
 7165SOL     OW33127   0.691   4.303   2.442 -0.0081 -0.0990 -0.2187
 7165SOL    HW133128   0.694   4.398   2.426 -1.5911  0.3811  2.3313
 7165SOL    HW233129   0.598   4.295   2.462 -0.3301 -0.6774 -1.9929
 7166SOL     OW33130   1.589   4.542   3.204 -0.2913 -0.4138 -1.0780
 7166SOL    HW133131   1.568   4.483   3.276 -0.4977  0.6855 -0.2367
 7166SOL    HW233132   1.504   4.579   3.180  0.4068  2.3305  0.6882
 7167SOL     OW33133   4.065   3.773   6.382 -0.4001  0.0915  0.1665
 7167SOL    HW133134   4.125   3.769   6.456 -0.1790  0.0727 -0.0163
 7167SOL    HW233135   4.006   3.847   6.398 -2.2122 -1.1686 -0.6974
 7168SOL     OW33136   0.127   3.130   1.801  0.1990 -0.3504 -0.1384
 7168SOL    HW133137   0.137   3.107   1.894  1.5707 -0.8391 -0.4066
 7168SOL    HW233138   0.105   3.223   1.810  0.2734 -0.3397 -0.0601
 7169SOL     OW33139   1.284   1.440   3.237  0.4143  0.4068  0.1656
 7169SOL    HW133140   1.196   1.476   3.226  0.5905  0.7086 -0.2448
 7169SOL    HW233141   1.259   1.367   3.294 -1.0354  2.0299  1.6207
 7170SOL     OW33142   0.529   0.805   4.522  0.5406  0.0812  0.4899
 7170SOL    HW133143   0.463   0.825   4.456  1.4450 -1.5302 -0.9041
 7170SOL    HW233144   0.609   0.825   4.474  0.4319  0.2009  0.3571
 7171SOL     OW33145   1.555   1.545  13.993  0.6143 -0.1974 -0.7727
 7171SOL    HW133146   1.484   1.597  14.030 -0.4369 -1.4733 -0.9895
 7171SOL    HW233147   1.621   1.550  14.062 -0.4830  1.8465  0.1351
 7172SOL     OW33148   0.319   1.335  16.221  0.2123  0.1059 -0.0617
 7172SOL    HW133149   0.408   1.300  16.213  0.9171  2.3935 -2.0939
 7172SOL    HW233150   0.275   1.250  16.216  1.0608 -0.3314 -0.1668
 7173SOL     OW33151   2.113   2.904   4.414  0.7559 -0.1222 -0.2880
 7173SOL    HW133152   2.076   2.965   4.477 -1.3792 -0.1864 -1.4892
 7173SOL    HW233153   2.191   2.870   4.458  1.4477  0.2886 -1.2157
 7174SOL     OW33154   2.525   0.908   1.965  0.0310  0.1184  0.3421
 7174SOL    HW133155   2.526   0.953   2.049 -0.1523  0.2059  0.2983
 7174SOL    HW233156   2.533   0.817   1.994  0.4192 -0.3093 -1.1262
 7175SOL     OW33157   3.571   1.424   1.740 -0.1200 -0.1410 -0.1804
 7175SOL    HW133158   3.545   1.493   1.801 -1.0659 -0.8395  0.2067
 7175SOL    HW233159   3.535   1.355   1.796  1.0801 -0.2184  0.5032
 7176SOL     OW33160   1.754   4.376   1.499 -0.1732 -0.5808 -0.0138
 7176SOL    HW133161   1.763   4.458   1.450 -0.5290  0.6501  1.9701
 7176SOL    HW233162   1.709   4.320   1.437 -0.1739 -0.1960 -0.3581
 7177SOL     OW33163   2.909   1.837  15.393  0.2083 -0.5096 -0.1171
 7177SOL    HW133164   2.855   1.780  15.339  0.3936  0.1211 -0.9722
 7177SOL    HW233165   2.945   1.887  15.319  3.1284 -1.8126  0.4332
 7178SOL     OW33166   4.229   3.113   1.642 -0.6953  0.3328  0.5340
 7178SOL    HW133167   4.244   3.207   1.642  0.7184  0.1173 -1.6633
 7178SOL    HW233168   4.147   3.096   1.688 -0.2393 -2.9915  0.1408
 7179SOL     OW33169   0.543   2.258   4.831 -0.3010 -0.0788  0.1128
 7179SOL    HW133170   0.638   2.264   4.840 -0.3459  0.6423  0.1165
 7179SOL    HW233171   0.550   2.220   4.743 -1.4777  0.3607 -0.1614
 7180SOL     OW33172   1.722   3.825   8.891 -0.3563 -0.4434 -0.5641
 7180SOL    HW133173   1.664   3.844   8.818  0.6521  1.4720 -0.8610
 7180SOL    HW233174   1.777   3.753   8.859  2.1978  1.4497 -0.4574
 7181SOL     OW33175   0.480   1.017   5.143 -0.6833 -0.2626  0.1479
 7181SOL    HW133176   0.503   1.063   5.062 -1.4458  0.0700  0.1264
 7181SOL    HW233177   0.423   1.085   5.178 -0.0216  0.3240  0.1002
 7182SOL     OW33178   4.547   0.204   5.067  0.2631  0.6726 -0.2890
 7182SOL    HW133179   4.584   0.249   5.143  0.9470  0.6626 -0.6137
 7182SOL    HW233180   4.455   0.227   5.076 -0.1696 -1.3245  0.4922
 7183SOL     OW33181   3.817   4.208   4.383  0.3042 -0.3713  0.3204
 7183SOL    HW133182   3.849   4.203   4.473 -1.0391 -1.7216  0.7393
 7183SOL    HW233183   3.724   4.227   4.396  0.4119 -1.8496  3.4511
 7184SOL     OW33184   1.268   3.089   3.107 -0.1970 -0.2173  0.1448
 7184SOL    HW133185   1.213   3.130   3.040 -0.0661  1.4366  1.0446
 7184SOL    HW233186   1.200   3.035   3.148  1.0685 -1.5040  0.5329
 7185SOL     OW33187   1.152   2.816   9.679 -0.3913  0.4049 -0.2582
 7185SOL    HW133188   1.171   2.797   9.771  0.3002  1.8399 -0.0983
 7185SOL    HW233189   1.231   2.865   9.656 -1.0858  0.3515 -2.7580
 7186SOL     OW33190   4.137   2.383   0.229 -0.0009  0.2488 -0.4452
 7186SOL    HW133191   4.101   2.442   0.296  0.2390  0.8285 -0.8306
 7186SOL    HW233192   4.220   2.425   0.208  0.7492 -1.5846 -1.0860
 7187SOL     OW33193   1.381   4.048   6.038  0.2222  0.1320 -0.2457
 7187SOL    HW133194   1.438   3.971   6.038  1.5317  1.0741  0.6812
 7187SOL    HW233195   1.406   4.092   5.956 -0.5114  3.0820  1.0864
 7188SOL     OW33196   2.571   0.926   9.718  0.5272  0.2240 -0.2044
 7188SOL    HW133197   2.551   0.964   9.804 -1.6180 -0.5417 -0.3599
 7188SOL    HW233198   2.494   0.961   9.674  0.0385  1.0856  1.3047
 7189SOL     OW33199   3.748   3.893   2.301 -0.4608  0.5462  0.2587
 7189SOL    HW133200   3.842   3.878   2.293 -0.5507  0.0719  0.0910
 7189SOL    HW233201   3.744   3.960   2.233  1.5068  1.8871  1.4611
 7190SOL     OW33202   3.910   4.372   3.996 -0.0130  0.0055  0.3243
 7190SOL    HW133203   3.978   4.308   4.016 -0.2099  0.0617  1.1630
 7190SOL    HW233204   3.904   4.414   4.082  3.7473  1.7807 -0.2636
 7191SOL     OW33205   4.495   0.394   9.414 -0.6660 -0.6905 -0.0745
 7191SOL    HW133206   4.521   0.394   9.506 -1.3048 -0.6290  0.1074
 7191SOL    HW233207   4.401   0.412   9.416 -0.3972  0.5159  2.4575
 7192SOL     OW33208   0.105   2.544   0.956  0.4771  0.3767  0.0806
 7192SOL    HW133209   0.092   2.489   1.033 -0.3411 -2.3233 -1.9757
 7192SOL    HW233210   0.035   2.512   0.899  0.4594 -0.8844  0.8175
 7193SOL     OW33211   3.995   3.807   5.773  0.6498  0.1049 -0.6136
 7193SOL    HW133212   4.088   3.796   5.792  0.2583 -2.2648 -0.0694
 7193SOL    HW233213   3.971   3.881   5.829  3.2774  0.0668  0.5876
 7194SOL     OW33214   2.493   3.246   7.445  0.5954  0.6527 -0.3397
 7194SOL    HW133215   2.527   3.243   7.356 -0.1501 -1.6935 -0.5376
 7194SOL    HW233216   2.459   3.335   7.434  0.1286  0.3065 -1.6978
 7195SOL     OW33217   4.435   0.360   4.476 -0.0193 -0.7277  0.1197
 7195SOL    HW133218   4.483   0.407   4.408  0.0739  0.0582  0.7348
 7195SOL    HW233219   4.384   0.295   4.427 -1.3847  0.8962 -0.5840
 7196SOL     OW33220   2.717   1.894   7.135 -0.0383  0.0340 -0.3107
 7196SOL    HW133221   2.626   1.905   7.163 -0.0123 -0.3713 -0.0748
 7196SOL    HW233222   2.746   1.901   7.226 -0.0269  0.3125 -0.3350
 7197SOL     OW33223   0.589   4.716   6.291  0.5083  0.0485  0.2874
 7197SOL    HW133224   0.581   0.012   6.382 -1.4706 -2.3360  0.9305
 7197SOL    HW233225   0.582   4.621   6.297  0.0735  0.0341 -0.4413
 7198SOL     OW33226   0.719   3.020   5.411 -0.9692  0.1224 -0.3983
 7198SOL    HW133227   0.655   3.071   5.362 -0.0877  0.4831 -1.1716
 7198SOL    HW233228   0.663   2.987   5.481  0.8531 -2.8245 -0.3055
 7199SOL     OW33229   3.588   3.388   8.768 -0.4301 -0.1644  0.0521
 7199SOL    HW133230   3.564   3.352   8.683 -0.3426  0.5775 -0.2923
 7199SOL    HW233231   3.635   3.322   8.820  1.3249  0.2540 -1.0100
 7200SOL     OW33232   4.084   3.628   8.145 -0.2039 -0.0720  0.2081
 7200SOL    HW133233   4.121   3.605   8.230  2.9557  2.7457 -0.3945
 7200SOL    HW233234   4.131   3.712   8.138 -0.3270  0.1048  1.6019
 7201SOL     OW33235   3.200   4.007   5.332  0.5058 -0.7388  0.2753
 7201SOL    HW133236   3.283   4.053   5.318  0.1734 -0.2923 -0.1888
 7201SOL    HW233237   3.174   4.057   5.410 -0.7200 -1.6278  0.4172
 7202SOL     OW33238   1.974   3.059   9.151 -0.1723  0.2124 -0.2340
 7202SOL    HW133239   2.065   3.031   9.160  0.0978  0.8250 -1.1602
 7202SOL    HW233240   1.969   3.128   9.086  3.7817 -1.2518 -2.0932
 7203SOL     OW33241   2.442   1.913   7.187  0.0268  0.0166  0.4965
 7203SOL    HW133242   2.413   1.935   7.276  2.6260  0.3299  1.2467
 7203SOL    HW233243   2.435   1.818   7.181 -0.6525  0.0911 -0.0376
 7204SOL     OW33244   1.018   4.364   1.189 -0.4788  0.7830  0.0162
 7204SOL    HW133245   0.967   4.297   1.144  2.6093 -1.2239 -0.4556
 7204SOL    HW233246   1.106   4.357   1.152  0.0752  2.8676  0.9094
 7205SOL     OW33247   1.395   4.680   4.527  0.1873 -0.6536 -0.0746
 7205SOL    HW133248   1.325   4.681   4.462 -0.5985 -1.1392  0.7523
 7205SOL    HW233249   1.471   4.660   4.473 -1.1865 -1.4522 -1.7243
 7206SOL     OW33250   2.003   0.346   5.513  0.5087 -0.3961  0.2680
 7206SOL    HW133251   1.994   0.441   5.510 -2.9504 -0.8123 -2.7357
 7206SOL    HW233252   1.917   0.312   5.489  0.5270  0.7581 -1.4492
 7207SOL     OW33253   1.220   3.876   6.366 -0.0677 -0.8321 -0.1762
 7207SOL    HW133254   1.206   3.968   6.344  3.5287 -0.0897  0.6822
 7207SOL    HW233255   1.131   3.847   6.384 -0.1243  1.6832  3.4197
 7208SOL     OW33256   4.027   1.925   4.239 -0.1578 -1.0250 -0.0516
 7208SOL    HW133257   4.113   1.898   4.271  0.2226  0.1445 -0.1102
 7208SOL    HW233258   4.009   1.994   4.303  0.8812  0.4468 -1.3425
 7209SOL     OW33259   2.827   4.050   1.945  0.2915 -0.5879 -0.1936
 7209SOL    HW133260   2.839   4.117   2.012 -4.5756  0.9833 -0.8577
 7209SOL    HW233261   2.884   3.981   1.980 -3.2668 -2.8842  1.1053
 7210SOL     OW33262   3.922   1.900  12.239  0.4091 -0.0570  0.4742
 7210SOL    HW133263   3.864   1.936  12.306  0.0437 -0.5971  0.4415
 7210SOL    HW233264   3.985   1.855  12.296  0.6534 -0.3811 -0.0570
 7211SOL     OW33265   0.794   0.867   8.760  0.1170 -0.3876 -0.2691
 7211SOL    HW133266   0.799   0.943   8.817  0.5236 -0.5593 -0.0742
 7211SOL    HW233267   0.701   0.845   8.761 -0.4760  2.1301 -0.9626
 7212SOL     OW33268   3.824   0.831   6.128  0.1339 -0.5130 -0.3123
 7212SOL    HW133269   3.767   0.876   6.067 -0.6426 -0.1865  0.6677
 7212SOL    HW233270   3.844   0.748   6.083  1.6287 -0.5926  0.4740
 7213SOL     OW33271   4.680   2.584   2.340  0.3939  0.8735  0.4430
 7213SOL    HW133272   4.659   2.582   2.247 -1.9295  1.9951  0.9564
 7213SOL    HW233273   4.705   2.494   2.362  0.0259  0.3513 -1.2976
 7214SOL     OW33274   0.906   4.729   8.467  0.3698 -0.6456 -0.2656
 7214SOL    HW133275   0.881   4.680   8.545 -0.2113 -1.6752 -1.0877
 7214SOL    HW233276   0.829   4.719   8.411 -0.7036  0.1156  1.0757
 7215SOL     OW33277   2.070   3.063   8.526  0.4443  0.0162 -0.2897
 7215SOL    HW133278   2.119   3.051   8.607 -0.3961 -1.2970  0.0299
 7215SOL    HW233279   1.983   3.057   8.567 -1.0705  1.8534 -3.2063
 7216SOL     OW33280   4.021   3.053   3.178 -0.2593  0.4368 -0.0172
 7216SOL    HW133281   4.116   3.052   3.185 -0.1944 -1.4849 -1.1486
 7216SOL    HW233282   3.999   3.143   3.202  1.5782  0.8183  0.2146
 7217SOL     OW33283   3.789   1.057   8.770 -0.2528  0.3076  0.4414
 7217SOL    HW133284   3.810   1.141   8.730 -0.7201  0.5232  0.6447
 7217SOL    HW233285   3.751   1.074   8.857  2.0855  0.4931  1.4115
 7218SOL     OW33286   1.654   4.350   5.798  0.2927  0.2242 -0.8481
 7218SOL    HW133287   1.559   4.339   5.803  0.0909  2.0809 -0.4823
 7218SOL    HW233288   1.675   4.271   5.748 -0.1260 -0.0053 -0.6595
 7219SOL     OW33289   0.528   1.170  16.220 -0.1478  0.8503 -0.4279
 7219SOL    HW133290   0.594   1.129  16.276 -0.3381 -0.3020 -1.0456
 7219SOL    HW233291   0.584   1.200  16.148  2.6380  0.5952  1.6378
 7220SOL     OW33292   2.660   0.100   9.923  0.4083  0.4803  0.0767
 7220SOL    HW133293   2.638   0.106   9.830 -1.2594 -1.5013  0.3154
 7220SOL    HW233294   2.606   0.171   9.956  0.8492  0.4558  0.8343
 7221SOL     OW33295   1.931   3.078   3.513  0.2156 -0.0592  0.0924
 7221SOL    HW133296   1.921   3.138   3.438  2.8646 -0.6896 -0.7823
 7221SOL    HW233297   1.841   3.069   3.543 -0.2244  0.3556 -1.0852
 7222SOL     OW33298   0.916   2.711  15.385 -0.1617 -0.3574  0.0198
 7222SOL    HW133299   0.908   2.711  15.289 -0.3735 -0.9177  0.0399
 7222SOL    HW233300   1.005   2.745  15.387 -0.0896 -0.4193 -1.6926
 7223SOL     OW33301   2.159   3.723  10.619  0.1002 -0.0179  0.0099
 7223SOL    HW133302   2.091   3.692  10.679  1.1775 -2.0033  0.2043
 7223SOL    HW233303   2.158   3.813  10.651  0.5905 -0.0300  0.0534
 7224SOL     OW33304   1.950   3.608   3.705 -0.6979  0.4023  0.5735
 7224SOL    HW133305   1.875   3.620   3.646 -0.8746  0.0143  0.7163
 7224SOL    HW233306   2.016   3.624   3.638 -0.3330  0.3967  0.9322
 7225SOL     OW33307   0.282   3.226  10.411 -0.5093  0.4141  0.3029
 7225SOL    HW133308   0.228   3.282  10.467 -0.4747 -0.5090  1.2680
 7225SOL    HW233309   0.226   3.226  10.333 -0.7280 -0.0958  0.4602
 7226SOL     OW33310   2.978   4.106   8.235 -0.0964 -0.3098 -0.5048
 7226SOL    HW133311   2.885   4.091   8.219 -0.4175  1.0593  0.1340
 7226SOL    HW233312   2.995   4.024   8.282  0.3125  1.1793  1.9349
 7227SOL     OW33313   2.038   1.855   4.280  0.1584  0.3415  0.2552
 7227SOL    HW133314   2.111   1.899   4.237 -1.3880 -0.0669 -2.8072
 7227SOL    HW233315   2.074   1.766   4.285  0.6857  0.6005  1.0712
 7228SOL     OW33316   1.534   3.491   2.079  1.0273 -0.0936  0.7113
 7228SOL    HW133317   1.615   3.528   2.044  0.8454  0.5318  0.9475
 7228SOL    HW233318   1.500   3.566   2.127 -2.1331  0.1561 -1.9739
 7229SOL     OW33319   3.555   0.246   3.988 -0.3256 -0.4380  0.5387
 7229SOL    HW133320   3.633   0.236   3.933 -0.3945  0.6812  0.2309
 7229SOL    HW233321   3.486   0.241   3.922  0.8680  1.3008 -0.8567
 7230SOL     OW33322   1.997   2.449  11.946  0.2667  0.5130  0.2599
 7230SOL    HW133323   1.907   2.418  11.957  0.8081 -1.0477  0.3046
 7230SOL    HW233324   1.979   2.542  11.934  1.4558  0.3231 -2.9354
 7231SOL     OW33325   4.633   4.393  11.159  0.1681 -0.5708  0.4074
 7231SOL    HW133326   4.662   4.467  11.212 -0.0922  0.1619 -0.4757
 7231SOL    HW233327   4.713   4.342  11.156 -0.0145 -0.5728 -3.5116
 7232SOL     OW33328   4.400   3.563   8.140  0.3641 -0.4499 -0.1298
 7232SOL    HW133329   4.351   3.607   8.208  0.1810 -0.1876 -0.4336
 7232SOL    HW233330   4.354   3.599   8.064  0.8796  1.5713  0.5259
 7233SOL     OW33331   1.418   2.870   6.044  0.1145  0.3746  0.0147
 7233SOL    HW133332   1.411   2.928   5.968 -1.0522  0.4068  0.1433
 7233SOL    HW233333   1.371   2.922   6.109  1.2920 -1.6229  2.4727
 7234SOL     OW33334   2.443   1.088   2.206 -0.0053  0.3572  0.0113
 7234SOL    HW133335   2.360   1.041   2.201 -0.8224  1.8437 -0.2738
 7234SOL    HW233336   2.476   1.053   2.289 -1.6665 -1.4417 -0.0905
 7235SOL     OW33337   0.289   2.770   8.394 -0.5460 -0.0758 -1.3200
 7235SOL    HW133338   0.195   2.782   8.385 -0.8195  0.5197  2.4612
 7235SOL    HW233339   0.299   2.780   8.489  1.2315  0.5680 -1.5823
 7236SOL     OW33340   4.017   3.823   4.305  0.3010 -0.2770  0.1510
 7236SOL    HW133341   4.050   3.752   4.360 -0.2058 -0.4277  0.2611
 7236SOL    HW233342   3.927   3.789   4.301 -1.3651  4.1424  0.8578
 7237SOL     OW33343   0.988   2.442   8.315 -0.5082  0.5757 -0.0058
 7237SOL    HW133344   0.927   2.499   8.269 -2.8778 -0.9075  1.3062
 7237SOL    HW233345   0.955   2.443   8.405  1.3086 -1.2173  0.6899
 7238SOL     OW33346   1.281   0.105   3.015  0.1991 -0.1552 -1.0093
 7238SOL    HW133347   1.250   0.124   3.104  0.0938 -2.4103 -0.5688
 7238SOL    HW233348   1.338   0.035   3.047 -0.3737 -0.9125 -1.6423
 7239SOL     OW33349   3.965   3.197   7.608 -0.5292 -0.4440  0.6243
 7239SOL    HW133350   4.036   3.187   7.671  1.9620 -1.9735 -2.4401
 7239SOL    HW233351   3.892   3.215   7.667  0.1200 -1.3992  1.7117
 7240SOL     OW33352   0.398   2.156   7.916  0.4254 -0.3538  0.5027
 7240SOL    HW133353   0.344   2.236   7.915  0.2086 -0.5092 -1.2114
 7240SOL    HW233354   0.470   2.180   7.974  0.0130  3.4324 -0.5120
 7241SOL     OW33355   1.615   0.880   5.263 -0.1968  0.0940 -0.2836
 7241SOL    HW133356   1.646   0.968   5.240 -0.2440  0.4209  0.9108
 7241SOL    HW233357   1.660   0.825   5.199 -2.5767 -0.2555 -1.6774
 7242SOL     OW33358   3.016   4.461   5.049  0.1683  0.1069 -0.7723
 7242SOL    HW133359   2.921   4.454   5.058  0.1443  0.1848 -0.9750
 7242SOL    HW233360   3.032   4.453   4.955 -1.0915  0.5679 -1.0363
 7243SOL     OW33361   3.145   2.964  12.071  0.0278  0.2733  0.1201
 7243SOL    HW133362   3.151   3.026  12.143  0.0689 -0.2244  0.5484
 7243SOL    HW233363   3.067   2.990  12.022  1.0765  0.2937 -1.5399
 7244SOL     OW33364   4.731   2.969   7.084 -0.0443 -0.0768 -0.0711
 7244SOL    HW133365   4.668   3.041   7.085 -1.9378 -1.7265 -1.9462
 7244SOL    HW233366   4.682   2.889   7.099 -0.0912 -0.0967 -0.3384
 7245SOL     OW33367   3.837   2.413  17.441 -0.1307 -0.0997  0.0823
 7245SOL    HW133368   3.800   2.483  17.386  1.5144  1.2488  0.6934
 7245SOL    HW233369   3.846   2.461  17.523  1.5637  0.7926 -0.6185
 7246SOL     OW33370   3.470   2.581   7.801  0.6419 -0.1358 -0.2549
 7246SOL    HW133371   3.526   2.634   7.857  0.6259  1.4815 -1.7577
 7246SOL    HW233372   3.523   2.504   7.780  0.2216 -0.4180 -0.2794
 7247SOL     OW33373   0.054   4.290   7.162 -0.2428 -0.2465  0.0212
 7247SOL    HW133374   0.001   4.212   7.183 -1.1526  0.6216  0.9269
 7247SOL    HW233375   0.143   4.256   7.150 -0.4961 -1.3226  1.1313
 7248SOL     OW33376   3.445   3.518   2.536 -0.2868  0.0628  0.1814
 7248SOL    HW133377   3.483   3.605   2.521  1.1508 -0.3647  1.3385
 7248SOL    HW233378   3.460   3.471   2.454 -0.6790 -1.0522  0.7542
 7249SOL     OW33379   0.196   2.163   4.687 -0.2721 -0.0048  0.5809
 7249SOL    HW133380   0.207   2.252   4.654 -1.4374 -0.0515  0.0887
 7249SOL    HW233381   0.268   2.115   4.645  0.7331  1.5603  0.5112
 7250SOL     OW33382   2.651   3.819  16.510 -0.0284  0.3165 -0.0269
 7250SOL    HW133383   2.663   3.741  16.565 -0.2041 -0.1913 -0.7057
 7250SOL    HW233384   2.719   3.803  16.445  2.0214  0.0549  2.1721
 7251SOL     OW33385   3.075   1.070   4.852  0.1149  0.7452 -0.1387
 7251SOL    HW133386   3.119   0.992   4.887 -1.2296  0.4609  0.9089
 7251SOL    HW233387   3.064   1.053   4.758  1.8458 -0.2822 -0.1529
 7252SOL     OW33388   3.722   3.606   2.211 -0.4035  0.4468  0.6809
 7252SOL    HW133389   3.788   3.561   2.157 -1.8670  0.0547 -0.7698
 7252SOL    HW233390   3.776   3.671   2.256  1.3944 -0.3515 -0.3284
 7253SOL     OW33391   1.228   4.407   5.973 -0.2615  0.0732  0.2377
 7253SOL    HW133392   1.209   4.452   5.891  1.3334 -1.9425 -1.2287
 7253SOL    HW233393   1.146   4.423   6.020  0.2071  1.7172  0.5163
 7254SOL     OW33394   2.411   2.416  11.939 -0.0671  0.0783 -0.0926
 7254SOL    HW133395   2.337   2.391  11.994  0.1222 -1.5289 -0.5654
 7254SOL    HW233396   2.360   2.448  11.864  0.9346 -0.9361 -1.2106
 7255SOL     OW33397   2.707   3.669   3.181  0.1148  0.1042  0.2703
 7255SOL    HW133398   2.712   3.574   3.188  2.4136  0.1970 -0.2732
 7255SOL    HW233399   2.729   3.705   3.266  0.4539 -1.8058  0.9788
 7256SOL     OW33400   4.297   4.074   2.938  0.6097 -0.3476  0.7531
 7256SOL    HW133401   4.277   4.013   2.867 -0.1450  0.4847  0.2446
 7256SOL    HW233402   4.374   4.028   2.970  0.7175 -0.0798  0.8778
 7257SOL     OW33403   2.689   2.243   7.742  0.4304  0.7618  0.8331
 7257SOL    HW133404   2.768   2.287   7.710 -0.3856  1.0593 -0.7992
 7257SOL    HW233405   2.710   2.247   7.835  0.2507 -2.6209  1.0146
 7258SOL     OW33406   1.579   3.489   5.517  0.0678 -0.2761 -0.3281
 7258SOL    HW133407   1.660   3.486   5.466  1.8476 -0.1904  2.4771
 7258SOL    HW233408   1.508   3.496   5.454  1.0399 -3.1093 -1.7614
 7259SOL     OW33409   0.942   3.014   1.741 -0.4516  0.0352  0.1435
 7259SOL    HW133410   0.855   2.993   1.774 -1.6859  2.2025 -1.8006
 7259SOL    HW233411   0.984   3.024   1.827  0.2079  1.9964 -0.4112
 7260SOL     OW33412   0.111   1.167   6.694 -0.7989  0.0473 -0.5338
 7260SOL    HW133413   0.027   1.199   6.727  1.5211  4.4160  1.1514
 7260SOL    HW233414   0.139   1.248   6.651  1.1890  0.4387  1.5012
 7261SOL     OW33415   2.126   2.959   0.172  0.0411 -0.6080 -0.1611
 7261SOL    HW133416   2.160   3.031   0.226  1.3031 -1.2335 -0.1101
 7261SOL    HW233417   2.201   2.953   0.113 -0.2894  3.2714 -0.9823
 7262SOL     OW33418   1.907   0.105   8.069  0.2542  0.3986 -0.3898
 7262SOL    HW133419   1.910   0.018   8.030 -3.7971 -0.3539  0.9954
 7262SOL    HW233420   1.813   0.109   8.087  0.4310 -0.9980  0.8274
 7263SOL     OW33421   1.012   4.535   2.451 -0.3584 -0.7909  0.1540
 7263SOL    HW133422   1.073   4.517   2.522  0.3268  0.6536 -0.0572
 7263SOL    HW233423   1.065   4.592   2.394  1.5903 -3.3404 -0.5793
 7264SOL     OW33424   4.035   0.318   7.866  1.0183  0.3717 -0.2265
 7264SOL    HW133425   3.977   0.315   7.942 -0.0733  1.1746 -1.0419
 7264SOL    HW233426   4.051   0.228   7.837  0.5352  0.4547 -0.7435
 7265SOL     OW33427   2.128   0.007   2.314 -0.2276 -0.3076 -0.0226
 7265SOL    HW133428   2.045   0.006   2.267  0.3493  4.7325 -1.1485
 7265SOL    HW233429   2.147   0.100   2.329  1.8297 -0.9857  1.5045
 7266SOL     OW33430   0.544   1.692   5.199 -0.3252  1.0799  0.0743
 7266SOL    HW133431   0.456   1.658   5.180  0.5805 -0.1038 -1.9594
 7266SOL    HW233432   0.548   1.768   5.140 -1.5922  1.1790  0.0987
 7267SOL     OW33433   0.970   1.241   4.904  0.0845 -0.4406  0.4909
 7267SOL    HW133434   1.015   1.160   4.879 -0.9310 -1.0732  0.7323
 7267SOL    HW233435   0.938   1.215   4.990 -1.5110  0.8896  0.2902
 7268SOL     OW33436   1.243   2.853  15.604  0.2193  0.5187 -0.0245
 7268SOL    HW133437   1.232   2.816  15.517 -2.7339 -1.4276  1.1670
 7268SOL    HW233438   1.320   2.907  15.586  1.5146 -0.7065  1.6817
 7269SOL     OW33439   4.607   1.976  10.161  0.1728  0.1017  0.7323
 7269SOL    HW133440   4.598   1.952  10.253  0.4759 -1.2349  0.4247
 7269SOL    HW233441   4.703   1.972  10.165  0.2634  0.1416 -1.2362
 7270SOL     OW33442   4.055   4.275  12.528 -0.4207 -0.0144  0.4902
 7270SOL    HW133443   4.124   4.277  12.461 -0.4349  1.2554  0.5131
 7270SOL    HW233444   3.976   4.313  12.489  1.2257  2.8923 -0.0154
 7271SOL     OW33445   1.600   4.130  11.551 -0.7180  0.2620  0.2884
 7271SOL    HW133446   1.656   4.207  11.561 -0.4431  0.1910 -0.7267
 7271SOL    HW233447   1.618   4.090  11.466  0.2873  0.7849  0.2492
 7272SOL     OW33448   3.601   2.868  14.685 -0.0066 -0.1265 -0.2809
 7272SOL    HW133449   3.554   2.848  14.604 -2.4563  3.0540  0.3329
 7272SOL    HW233450   3.689   2.852  14.652  0.0685  0.1868 -0.2372
 7273SOL     OW33451   2.346   3.405  14.356 -0.1225 -0.7279 -0.1281
 7273SOL    HW133452   2.315   3.466  14.424 -1.4933 -0.8136 -0.6665
 7273SOL    HW233453   2.306   3.325  14.392 -0.8900 -0.8360 -1.2332
 7274SOL     OW33454   3.860   1.160   6.071 -0.0727  0.3764  0.4928
 7274SOL    HW133455   3.801   1.223   6.030 -2.0205 -1.1108  1.0156
 7274SOL    HW233456   3.835   1.176   6.162  0.0075  0.3297  0.5232
 7275SOL     OW33457   0.640   0.406  15.824  0.2623  0.1858  0.8287
 7275SOL    HW133458   0.688   0.385  15.744 -0.0894  1.3432  0.3130
 7275SOL    HW233459   0.552   0.422  15.788  0.8798  1.1603 -0.2211
 7276SOL     OW33460   2.031   4.532   5.318  0.3721  0.1893 -0.1884
 7276SOL    HW133461   2.111   4.483   5.336  1.0518  1.2127 -0.4427
 7276SOL    HW233462   1.998   4.471   5.252  1.0090 -1.8211  1.3396
 7277SOL     OW33463   3.066   0.015   5.568 -0.4450 -0.0002 -0.0095
 7277SOL    HW133464   3.047   0.046   5.656  0.7433  0.9262 -0.0687
 7277SOL    HW233465   2.975   0.004   5.540 -0.2531  1.0471 -1.0923
 7278SOL     OW33466   4.473   1.750   6.286 -0.2976  0.4447 -0.2148
 7278SOL    HW133467   4.402   1.754   6.223 -0.7269  1.7588  0.3593
 7278SOL    HW233468   4.434   1.695   6.354  1.3868  0.5422  0.8422
 7279SOL     OW33469   2.193   0.219   3.577  0.2996  0.2337 -0.1430
 7279SOL    HW133470   2.233   0.161   3.513 -0.7651 -1.8636  1.1126
 7279SOL    HW233471   2.141   0.288   3.535 -1.2868 -1.3223 -0.7583
 7280SOL     OW33472   1.403   3.374  14.558  0.5642 -0.2628 -0.0047
 7280SOL    HW133473   1.362   3.316  14.494 -0.5186  1.6282 -1.0149
 7280SOL    HW233474   1.332   3.437  14.568  0.9991  0.0171  1.3424
 7281SOL     OW33475   0.206   1.612   7.293 -0.2692  0.1879  0.3514
 7281SOL    HW133476   0.204   1.647   7.204  1.0593  0.8061  0.5715
 7281SOL    HW233477   0.290   1.642   7.328 -0.3177 -0.6511  1.2091
 7282SOL     OW33478   1.768   0.673   6.458 -0.1004  0.2570 -0.1182
 7282SOL    HW133479   1.775   0.581   6.435 -1.9908  0.3071 -0.8976
 7282SOL    HW233480   1.786   0.709   6.371 -0.3350  1.1474  0.2003
 7283SOL     OW33481   2.240   2.885  11.350  0.2250 -0.4065 -0.0136
 7283SOL    HW133482   2.177   2.934  11.403 -0.1564 -1.7787  0.8023
 7283SOL    HW233483   2.280   2.818  11.405  1.2609  0.0959 -0.1627
 7284SOL     OW33484   2.480   0.306   3.452  0.4212  0.1290 -0.1701
 7284SOL    HW133485   2.444   0.363   3.385  0.0068  1.8808  1.5207
 7284SOL    HW233486   2.537   0.259   3.391  2.4018  1.0708  0.9494
 7285SOL     OW33487   1.941   3.397   7.477 -0.4553 -0.6481  0.0245
 7285SOL    HW133488   2.014   3.360   7.428 -0.3612  0.8433 -0.9709
 7285SOL    HW233489   1.910   3.332   7.540  1.4642 -1.7827 -0.2176
 7286SOL     OW33490   1.218   4.135   6.240  0.4518  0.2131  0.4364
 7286SOL    HW133491   1.280   4.098   6.178 -2.7705  0.1592 -2.7647
 7286SOL    HW233492   1.266   4.213   6.269  0.3862  0.5322 -0.3207
 7287SOL     OW33493   2.365   4.004   9.364  0.5361 -0.4914  0.5324
 7287SOL    HW133494   2.363   4.090   9.320  1.0793 -0.6916  0.1076
 7287SOL    HW233495   2.273   3.998   9.389  1.3659 -3.0344  2.9299
 7288SOL     OW33496   2.418   3.812   5.719 -0.5017  0.2127  0.4865
 7288SOL    HW133497   2.431   3.899   5.756  2.2731  0.2043 -0.5214
 7288SOL    HW233498   2.326   3.814   5.690 -0.9723 -1.3747  1.8569
 7289SOL     OW33499   2.486   4.538   8.051  0.3845 -0.6923 -0.4297
 7289SOL    HW133500   2.536   4.519   7.971 -3.2087 -1.5328 -2.4625
 7289SOL    HW233501   2.545   4.568   8.120 -1.1775  2.1091 -0.3402
 7290SOL     OW33502   0.695   3.857   2.941 -0.0329  0.1561  0.2297
 7290SOL    HW133503   0.601   3.850   2.954  0.2334 -0.9044  1.5946
 7290SOL    HW233504   0.715   3.878   3.032 -1.8766  0.5425  0.5379
 7291SOL     OW33505   0.800   4.023  16.093  0.4720 -0.1812 -0.0568
 7291SOL    HW133506   0.793   3.998  16.001  0.7656  0.6650 -0.3109
 7291SOL    HW233507   0.715   4.064  16.108  0.2706 -0.8104  0.4923
 7292SOL     OW33508   3.064   3.203   7.196  0.1355 -0.4960 -0.2381
 7292SOL    HW133509   3.105   3.246   7.271 -0.7558 -1.6006  0.8722
 7292SOL    HW233510   3.146   3.190   7.149  1.3670  0.4097  1.6254
 7293SOL     OW33511   0.071   0.009   7.135  0.0788  0.5328  0.3775
 7293SOL    HW133512   0.087   4.720   7.043 -0.0300 -2.1625  1.0423
 7293SOL    HW233513   0.151   0.051   7.164  0.0443  2.1905 -1.9166
 7294SOL     OW33514   0.525   4.535  10.060 -0.4204 -0.5295  0.3106
 7294SOL    HW133515   0.440   4.505  10.093 -1.9333 -0.0920 -3.1599
 7294SOL    HW233516   0.492   4.600   9.998  1.6847  0.8116  0.5908
 7295SOL     OW33517   2.291   2.619   4.334  0.3817 -0.2350  0.1740
 7295SOL    HW133518   2.210   2.572   4.353 -0.8392  1.6192 -0.5153
 7295SOL    HW233519   2.307   2.579   4.248 -1.1102  0.5951 -0.4946
 7296SOL     OW33520   1.048   2.177  12.253  0.6879  0.2989  0.4110
 7296SOL    HW133521   1.083   2.090  12.272  1.4663 -0.0361 -2.6448
 7296SOL    HW233522   1.073   2.224  12.333 -0.8578  1.2117  0.3779
 7297SOL     OW33523   3.954   3.887  11.342  0.3750 -0.4570 -0.0244
 7297SOL    HW133524   3.982   3.892  11.434  0.0991 -0.7322  0.0731
 7297SOL    HW233525   3.893   3.814  11.350  0.9141 -1.1231 -2.1111
 7298SOL     OW33526   3.427   4.478   4.185  0.6978  0.6559  0.5942
 7298SOL    HW133527   3.490   4.406   4.190 -1.6903 -1.3532  1.5222
 7298SOL    HW233528   3.417   4.502   4.277 -1.3034 -1.7396  0.9815
 7299SOL     OW33529   2.047   2.759   7.551  0.0602 -0.0351  0.0915
 7299SOL    HW133530   2.001   2.675   7.548 -0.2072  0.1469 -0.9504
 7299SOL    HW233531   2.028   2.787   7.641 -0.5585  1.5132 -0.5351
 7300SOL     OW33532   4.503   3.719   1.912  0.6979  0.2862 -0.0388
 7300SOL    HW133533   4.508   3.791   1.850  2.3326  0.6210  0.4986
 7300SOL    HW233534   4.565   3.754   1.975 -0.1262  2.9562 -0.7171
 7301SOL     OW33535   2.275   2.523   5.225  0.0065  0.1666 -1.1626
 7301SOL    HW133536   2.207   2.482   5.170 -1.3368 -0.4651  0.9817
 7301SOL    HW233537   2.253   2.471   5.302  1.7631  1.2733  0.0593
 7302SOL     OW33538   4.357   3.641  13.310  0.5214  0.5270 -0.3880
 7302SOL    HW133539   4.350   3.546  13.323 -1.7344  0.9056  1.2210
 7302SOL    HW233540   4.308   3.676  13.385  0.4034  0.8261 -0.6049
 7303SOL     OW33541   0.226   3.342   6.156  0.2760 -0.4040  0.7206
 7303SOL    HW133542   0.177   3.424   6.149  2.6575  0.9087 -0.4476
 7303SOL    HW233543   0.249   3.352   6.249 -0.6338  1.0301  0.7969
 7304SOL     OW33544   0.164   1.101   5.784  0.0225  0.0993  0.3497
 7304SOL    HW133545   0.112   1.033   5.741 -0.0128 -0.4409  1.2444
 7304SOL    HW233546   0.251   1.064   5.767  0.2663  1.1569 -0.7249
 7305SOL     OW33547   3.173   0.730   7.779 -0.0901 -0.6319 -0.4372
 7305SOL    HW133548   3.143   0.821   7.784  0.8668 -0.3337 -0.0064
 7305SOL    HW233549   3.152   0.701   7.868 -1.3320 -0.5169 -0.6860
 7306SOL     OW33550   2.392   3.924   6.346 -0.4807  0.4882  0.1005
 7306SOL    HW133551   2.469   3.887   6.303 -2.4466 -1.4032 -1.8036
 7306SOL    HW233552   2.396   4.013   6.312  1.8546  0.0056 -0.8693
 7307SOL     OW33553   0.436   1.827  12.024  0.3094  0.2093  0.4644
 7307SOL    HW133554   0.437   1.753  12.085 -0.0598  1.1750  1.6302
 7307SOL    HW233555   0.528   1.851  12.009  0.7110  1.0982  4.4429
 7308SOL     OW33556   2.725   4.589   7.821  0.1796  0.8481 -0.2556
 7308SOL    HW133557   2.708   4.681   7.842  2.9577  1.5173 -0.9090
 7308SOL    HW233558   2.805   4.564   7.867  0.8451  0.4630 -1.6164
 7309SOL     OW33559   2.901   2.346   5.306  0.5773 -0.2543  0.0359
 7309SOL    HW133560   2.830   2.401   5.339  2.3493  2.5386 -0.7913
 7309SOL    HW233561   2.865   2.259   5.321 -0.0080  0.3281  1.9991
 7310SOL     OW33562   3.168   3.090   8.354  0.8470 -0.4570 -0.0736
 7310SOL    HW133563   3.218   3.164   8.318  0.3391 -0.1857 -0.2352
 7310SOL    HW233564   3.211   3.062   8.434 -1.1026  1.4285  1.6665
 7311SOL     OW33565   4.206   1.976  16.254 -0.1147 -0.0476  0.2285
 7311SOL    HW133566   4.116   1.943  16.246  0.2944 -0.4298 -2.5577
 7311SOL    HW233567   4.214   2.026  16.173  2.5944  0.4881  0.8525
 7312SOL     OW33568   2.411   0.218   4.532 -0.5607  0.0668  0.0412
 7312SOL    HW133569   2.438   0.289   4.474 -2.1052 -2.1713 -3.4282
 7312SOL    HW233570   2.349   0.271   4.582 -1.3994  0.7200 -1.6976
 7313SOL     OW33571   0.326   2.228   5.379  0.5100  0.1669  1.2340
 7313SOL    HW133572   0.349   2.192   5.293  2.4081  1.9752  0.9846
 7313SOL    HW233573   0.270   2.162   5.419  2.6009 -2.1582  0.3450
 7314SOL     OW33574   4.496   1.537   2.410  0.2082  0.6903  0.0387
 7314SOL    HW133575   4.541   1.477   2.469 -0.1286 -0.3411 -0.7531
 7314SOL    HW233576   4.405   1.539   2.438  0.3350  2.7189  0.2763
 7315SOL     OW33577   3.070   4.606   2.067 -0.4297 -0.4688  0.0825
 7315SOL    HW133578   3.011   4.530   2.065 -2.4889  1.1409  0.7736
 7315SOL    HW233579   3.009   4.669   2.028  2.2057  1.3999 -1.0341
 7316SOL     OW33580   3.851   0.629   9.499  0.4750 -0.0383  0.0749
 7316SOL    HW133581   3.801   0.562   9.544 -1.7328  0.7108 -1.3030
 7316SOL    HW233582   3.878   0.591   9.416  0.9917  0.5751 -0.0438
 7317SOL     OW33583   1.462   4.215   3.630 -0.8803  0.3040  0.5102
 7317SOL    HW133584   1.466   4.121   3.612  1.0170  0.7046 -1.1591
 7317SOL    HW233585   1.549   4.239   3.661 -1.2333  0.6644  1.2267
 7318SOL     OW33586   0.798   2.004   4.446 -0.3801  0.0250 -0.1039
 7318SOL    HW133587   0.826   1.913   4.452 -0.0446  0.0678 -1.0890
 7318SOL    HW233588   0.880   2.048   4.426 -0.6170  1.6200  2.3774
 7319SOL     OW33589   0.087   4.357   4.149 -0.8852  0.4836  0.1408
 7319SOL    HW133590   0.135   4.361   4.232 -0.6697  1.0288 -0.0060
 7319SOL    HW233591   0.115   4.273   4.113  0.0083  0.5906  0.5885
 7320SOL     OW33592   4.020   1.141   3.745  0.2184 -0.3111  1.0068
 7320SOL    HW133593   3.956   1.120   3.677  3.8763 -0.8484 -2.2630
 7320SOL    HW233594   3.985   1.091   3.819  2.4796 -3.7941 -0.2767
 7321SOL     OW33595   3.219   2.370   0.916  0.4080  0.0187 -0.0570
 7321SOL    HW133596   3.131   2.342   0.941  0.0275  2.5375  1.4938
 7321SOL    HW233597   3.225   2.446   0.974 -2.7812  0.0665  0.2144
 7322SOL     OW33598   0.098   0.267   3.014 -0.3193  0.0702 -0.1222
 7322SOL    HW133599   0.020   0.271   2.960 -0.1926 -0.1204 -0.3239
 7322SOL    HW233600   0.157   0.232   2.947 -0.0212 -1.3543  0.8725
 7323SOL     OW33601   4.398   1.802   3.004 -0.0906 -0.3479 -0.5207
 7323SOL    HW133602   4.385   1.883   2.953 -0.6585  0.6493  1.1960
 7323SOL    HW233603   4.332   1.816   3.072  0.6002 -0.0897  0.1048
 7324SOL     OW33604   4.633   2.600   1.833  0.3855  0.0467 -0.6818
 7324SOL    HW133605   4.554   2.611   1.780  0.2588 -1.4866 -0.8154
 7324SOL    HW233606   4.697   2.557   1.777  1.1129 -0.3300  0.4339
 7325SOL     OW33607   4.006   0.478  11.298 -0.6450 -0.3787  0.1349
 7325SOL    HW133608   4.035   0.493  11.388 -0.5933 -1.7027  0.3321
 7325SOL    HW233609   3.940   0.547  11.290 -1.3751 -0.8846  1.8831
 7326SOL     OW33610   2.299   3.896   4.551  0.0634  0.0924  0.6853
 7326SOL    HW133611   2.344   3.819   4.515 -0.4164 -0.3032  0.9196
 7326SOL    HW233612   2.371   3.957   4.563  0.4336  0.1719 -1.9910
 7327SOL     OW33613   4.337   1.407   2.987  0.0937  0.0702 -0.6564
 7327SOL    HW133614   4.356   1.473   2.920 -0.7495  0.3604 -0.6090
 7327SOL    HW233615   4.423   1.366   2.995  0.1835  0.4670  0.3852
 7328SOL     OW33616   4.068   4.396   1.878 -0.4593 -0.3013  0.0490
 7328SOL    HW133617   4.015   4.354   1.946  1.3115  1.3775  2.4924
 7328SOL    HW233618   4.156   4.401   1.916  0.6004 -1.1766 -2.3304
 7329SOL     OW33619   4.274   3.116   6.451  0.2566  0.0513 -0.1409
 7329SOL    HW133620   4.222   3.039   6.431 -2.4164  1.6636  0.6086
 7329SOL    HW233621   4.248   3.156   6.534 -0.8844  0.0525 -0.5025
 7330SOL     OW33622   0.701   4.497   4.509 -0.0074  0.2140 -0.2033
 7330SOL    HW133623   0.749   4.564   4.557 -1.3433  1.3101 -0.3944
 7330SOL    HW233624   0.751   4.422   4.543  2.0849  1.1355 -1.2075
 7331SOL     OW33625   1.671   3.544   2.812 -0.1662 -0.0836  0.1899
 7331SOL    HW133626   1.646   3.627   2.853  0.6454 -0.0772  0.6615
 7331SOL    HW233627   1.728   3.497   2.873  2.2353 -0.2705 -2.2318
 7332SOL     OW33628   2.566   2.163   6.036  0.7524  0.1965 -0.6374
 7332SOL    HW133629   2.582   2.111   6.115 -0.3300  0.1666 -0.4388
 7332SOL    HW233630   2.605   2.242   6.075 -0.4371  0.6131 -0.3024
 7333SOL     OW33631   1.064   0.945   8.842 -0.3178  0.4362 -0.3882
 7333SOL    HW133632   0.995   0.923   8.779 -0.4352  0.6109 -0.3204
 7333SOL    HW233633   1.122   0.877   8.808  1.6175  1.1926  1.4380
 7334SOL     OW33634   3.494   2.196  12.316  0.3356 -0.0524 -0.1386
 7334SOL    HW133635   3.446   2.117  12.343 -0.4878  0.4649 -0.0713
 7334SOL    HW233636   3.462   2.266  12.373  0.3186 -0.7362  0.6959
 7335SOL     OW33637   0.533   4.119   7.881  0.4997 -1.2116 -0.3219
 7335SOL    HW133638   0.627   4.119   7.865  0.6835  0.3417  0.7992
 7335SOL    HW233639   0.516   4.038   7.930 -1.8184 -1.2459 -1.1645
 7336SOL     OW33640   2.861   0.002   3.241  0.2572 -0.1830 -0.0905
 7336SOL    HW133641   2.787   4.695   3.198  0.9846 -1.8453  0.2634
 7336SOL    HW233642   2.833   0.092   3.254 -1.3930 -0.9484  1.6537
 7337SOL     OW33643   3.751   3.270   5.885  0.4958  0.1075  0.4346
 7337SOL    HW133644   3.823   3.333   5.881  0.5339  0.0406  0.0192
 7337SOL    HW233645   3.716   3.290   5.971  2.1832  1.1386  0.8600
 7338SOL     OW33646   2.356   2.420   7.474 -0.4411 -0.0975 -0.5974
 7338SOL    HW133647   2.326   2.506   7.445  0.5720  0.4903  0.1286
 7338SOL    HW233648   2.286   2.361   7.447 -0.5481 -0.6151  0.7977
 7339SOL     OW33649   1.050   3.812  15.921  0.3174 -0.4256 -0.0675
 7339SOL    HW133650   0.962   3.819  15.958 -0.3614 -0.5132 -1.6505
 7339SOL    HW233651   1.095   3.895  15.936  0.9749 -0.7321 -0.3109
 7340SOL     OW33652   0.482   2.851   3.769 -0.3384  0.2557  0.1808
 7340SOL    HW133653   0.539   2.920   3.736 -1.0037  0.7457  0.0424
 7340SOL    HW233654   0.521   2.835   3.855 -0.8544 -1.5370  0.0910
 7341SOL     OW33655   4.562   1.281   3.939  0.0966  0.1361 -0.4864
 7341SOL    HW133656   4.529   1.329   4.015 -1.5328  0.6772 -1.5247
 7341SOL    HW233657   4.565   1.189   3.965 -2.4167 -0.3994 -2.0371
 7342SOL     OW33658   0.678   4.153  13.749  0.5378  0.1052  0.5305
 7342SOL    HW133659   0.654   4.076  13.801  0.8566 -0.5924 -0.3579
 7342SOL    HW233660   0.593   4.195  13.734  0.7310  0.0456 -0.7115
 7343SOL     OW33661   0.600   3.204   8.680 -0.5019 -0.6040 -0.3539
 7343SOL    HW133662   0.565   3.285   8.716 -3.0116 -1.1189 -1.6901
 7343SOL    HW233663   0.693   3.225   8.665 -0.0704 -1.4836  1.0357
 7344SOL     OW33664   1.043   3.416  14.116 -0.0110 -0.1662  0.4925
 7344SOL    HW133665   0.951   3.429  14.135  0.1980 -0.1686  1.5168
 7344SOL    HW233666   1.081   3.445  14.199  1.4184  1.3455 -0.6963
 7345SOL     OW33667   4.134   3.466   2.720  0.4596 -0.2655 -0.1132
 7345SOL    HW133668   4.053   3.517   2.721  0.2214 -0.6463 -0.0390
 7345SOL    HW233669   4.190   3.492   2.794 -0.9546 -1.2409  1.2974
 7346SOL     OW33670   2.374   0.067   2.669 -0.1624  0.5422  0.0337
 7346SOL    HW133671   2.444   0.086   2.606 -0.3772 -1.3778 -0.7835
 7346SOL    HW233672   2.314   0.010   2.621  0.0921  0.4667 -0.1916
 7347SOL     OW33673   4.631   4.527   7.178  0.5892 -0.2326 -0.8893
 7347SOL    HW133674   4.678   4.610   7.176 -0.4934  0.4098  0.0584
 7347SOL    HW233675   4.701   4.464   7.160 -0.9651 -2.5196  0.9835
 7348SOL     OW33676   1.079   0.610   5.931  0.0905  0.2247 -0.1077
 7348SOL    HW133677   1.031   0.528   5.934  0.9723 -0.1352  4.3076
 7348SOL    HW233678   1.024   0.669   5.878  0.4207  0.7186  0.0959
 7349SOL     OW33679   2.911   3.318   2.220  0.5583  0.2178 -0.0302
 7349SOL    HW133680   2.895   3.234   2.264  0.8280 -0.9148 -2.1240
 7349SOL    HW233681   2.990   3.296   2.170  0.9917 -1.2067  1.2360
 7350SOL     OW33682   1.279   4.276  10.872 -0.2169 -0.3360  0.1221
 7350SOL    HW133683   1.234   4.198  10.840 -1.9910  0.0715  1.6650
 7350SOL    HW233684   1.236   4.289  10.957  0.5807 -2.2594  0.8363
 7351SOL     OW33685   1.077   4.691   3.831 -0.1623  0.1822 -0.2837
 7351SOL    HW133686   1.036   4.604   3.834 -0.6145  0.3267 -2.1967
 7351SOL    HW233687   1.002   0.006   3.863  0.9185  0.3157  2.0256
 7352SOL     OW33688   1.154   1.158   4.546 -0.3712 -0.0857  0.2114
 7352SOL    HW133689   1.105   1.236   4.519  2.6008  2.1523  1.3235
 7352SOL    HW233690   1.239   1.176   4.506 -0.2575  0.9803  0.9281
 7353SOL     OW33691   2.990   4.640  17.697  0.2051 -0.0088  0.1899
 7353SOL    HW133692   2.958   4.621  17.609  0.6448 -0.6249  0.1580
 7353SOL    HW233693   3.082   4.659  17.678  0.4718 -1.8310 -0.3684
 7354SOL     OW33694   2.544   1.062   7.655  0.0857 -0.3458 -0.1011
 7354SOL    HW133695   2.532   0.981   7.606  2.1743 -0.3484 -0.5949
 7354SOL    HW233696   2.614   1.098   7.600 -0.3041  1.0321  0.2900
 7355SOL     OW33697   4.257   1.542   9.947  0.4123  0.1129  0.0795
 7355SOL    HW133698   4.168   1.567   9.920  0.2580 -1.2603 -0.6748
 7355SOL    HW233699   4.307   1.620   9.922  3.2098 -1.3624  1.1318
 7356SOL     OW33700   4.136   0.770   7.766  0.1401  0.4610 -0.8877
 7356SOL    HW133701   4.096   0.683   7.767 -2.3179  1.5911 -0.3424
 7356SOL    HW233702   4.194   0.756   7.691  1.2421  2.4054 -0.4100
 7357SOL     OW33703   0.448   3.505   7.162 -0.1408 -0.0053  0.1372
 7357SOL    HW133704   0.489   3.422   7.188 -0.0478 -0.2955 -0.9305
 7357SOL    HW233705   0.482   3.520   7.074  0.6408 -0.8037  0.2975
 7358SOL     OW33706   4.534   2.046   3.736 -0.3360  0.0487  0.3650
 7358SOL    HW133707   4.553   2.005   3.651 -2.1064  0.8727 -0.4265
 7358SOL    HW233708   4.443   2.019   3.741 -0.6087  0.8917  0.0191
 7359SOL     OW33709   1.793   0.511   7.261  0.3881  0.1179 -0.3899
 7359SOL    HW133710   1.752   0.477   7.341 -1.7199  1.2163 -1.0073
 7359SOL    HW233711   1.882   0.542   7.278  0.6524 -0.4267 -0.8061
 7360SOL     OW33712   1.641   1.165  10.902  0.0692 -0.2160 -0.2495
 7360SOL    HW133713   1.612   1.117  10.979  2.7441 -0.7664  0.4098
 7360SOL    HW233714   1.598   1.249  10.920 -3.4467 -1.8204 -1.1357
 7361SOL     OW33715   0.780   4.581   5.234  0.4476 -0.2018  0.0226
 7361SOL    HW133716   0.723   4.657   5.252  0.3146  0.3221 -2.6414
 7361SOL    HW233717   0.732   4.532   5.167 -1.3863  1.3859  0.1563
 7362SOL     OW33718   2.035   4.439   7.793  0.3462  0.5063  0.4136
 7362SOL    HW133719   1.997   4.352   7.781  2.6345 -0.5174  0.3794
 7362SOL    HW233720   2.101   4.440   7.724  0.3129  2.1862  0.4161
 7363SOL     OW33721   3.099   3.291   4.486 -0.2890 -0.7814 -0.1376
 7363SOL    HW133722   3.192   3.314   4.498 -0.7217 -0.1202  2.0739
 7363SOL    HW233723   3.086   3.244   4.568 -1.9456 -0.6176 -0.3232
 7364SOL     OW33724   1.500   3.778   6.035  0.9164 -0.4152 -0.3447
 7364SOL    HW133725   1.410   3.757   6.062 -0.2786  2.0952 -2.4539
 7364SOL    HW233726   1.530   3.689   6.014  3.4327  0.0893  1.0604
 7365SOL     OW33727   1.823   2.768   4.454  0.3349  0.4557 -0.5591
 7365SOL    HW133728   1.766   2.807   4.520  1.1576  2.6630 -1.1447
 7365SOL    HW233729   1.895   2.831   4.448 -0.1914  1.1086 -0.1298
 7366SOL     OW33730   3.051   3.904   5.819 -0.0761 -0.0773 -0.1743
 7366SOL    HW133731   2.990   3.834   5.794  1.1345 -1.2907  0.2282
 7366SOL    HW233732   3.018   3.983   5.778 -0.0376 -0.6051 -1.2109
 7367SOL     OW33733   3.323   3.528   8.723  0.0913 -0.5966 -0.0090
 7367SOL    HW133734   3.328   3.602   8.783 -0.7189 -0.2446 -0.3724
 7367SOL    HW233735   3.411   3.497   8.746  1.4787  1.1556 -2.9313
 7368SOL     OW33736   0.442   4.363  17.228  0.1806  0.4291 -0.2627
 7368SOL    HW133737   0.471   4.415  17.153 -2.6172  0.4178 -1.3770
 7368SOL    HW233738   0.370   4.409  17.271 -0.0012 -0.0103 -0.0994
 7369SOL     OW33739   2.373   3.144   2.934 -0.1529  0.0192 -0.0978
 7369SOL    HW133740   2.293   3.131   2.985  0.9245  0.0626  1.6031
 7369SOL    HW233741   2.367   3.237   2.910  1.2860  0.3884  0.9365
 7370SOL     OW33742   1.451   1.584   4.147  0.5612  0.1106 -0.0240
 7370SOL    HW133743   1.540   1.551   4.146  0.7991  0.7790 -0.9023
 7370SOL    HW233744   1.465   1.678   4.136 -0.4784  0.3709  0.8933
 7371SOL     OW33745   4.190   3.004  14.644  0.0772  0.0546  0.5211
 7371SOL    HW133746   4.117   2.978  14.700 -2.5552  3.4949 -1.2867
 7371SOL    HW233747   4.225   2.922  14.609  1.0168 -0.1729  1.9714
 7372SOL     OW33748   0.942   4.486   5.697 -0.3784 -0.0317 -0.3020
 7372SOL    HW133749   0.849   4.463   5.694 -0.8449  1.9665 -1.0237
 7372SOL    HW233750   0.942   4.542   5.619 -0.7968 -1.4090 -1.2878
 7373SOL     OW33751   1.860   4.640  17.481 -0.4349 -0.0195 -0.5060
 7373SOL    HW133752   1.901   4.713  17.434 -0.5082  0.4555  0.1582
 7373SOL    HW233753   1.859   4.680  17.568  1.4959  0.9850 -0.9406
 7374SOL     OW33754   0.688   0.817   2.856  0.2809  0.1952  0.3773
 7374SOL    HW133755   0.625   0.745   2.858 -2.2547  2.3120 -3.3343
 7374SOL    HW233756   0.767   0.768   2.832 -0.0350 -1.0982  1.9500
 7375SOL     OW33757   4.676   1.632   6.751 -0.5471  0.6341  0.9682
 7375SOL    HW133758   4.645   1.541   6.749 -2.5139  1.2968  1.8918
 7375SOL    HW233759   0.035   1.616   6.737 -1.2210 -1.8441 -0.6387
 7376SOL     OW33760   3.239   2.464  17.508  0.1745  0.1426  0.0372
 7376SOL    HW133761   3.299   2.443  17.436 -0.3053  0.0078 -0.3278
 7376SOL    HW233762   3.193   2.381  17.522  0.6932 -0.2366 -0.5033
 7377SOL     OW33763   4.004   0.051  14.172  0.4359  0.2535 -0.5112
 7377SOL    HW133764   4.021   0.087  14.259 -1.8604 -0.3527  0.1824
 7377SOL    HW233765   4.084   0.001  14.153 -0.5075 -1.3194 -0.3541
 7378SOL     OW33766   1.881   0.911   9.885  0.2750  0.0547  0.2701
 7378SOL    HW133767   1.877   0.835   9.827  0.2909  0.7267 -0.6101
 7378SOL    HW233768   1.828   0.892   9.963 -2.6349  0.6582 -1.5603
 7379SOL     OW33769   3.089   3.422   3.222 -0.2363  0.2068 -0.0007
 7379SOL    HW133770   3.046   3.479   3.158 -0.6018 -1.4207 -1.1822
 7379SOL    HW233771   3.139   3.488   3.270  0.7290  0.4515 -1.3373
 7380SOL     OW33772   0.149   3.491  15.347 -0.2251 -0.3752  0.4434
 7380SOL    HW133773   0.076   3.430  15.349  1.1821 -2.1088 -1.1903
 7380SOL    HW233774   0.153   3.506  15.442  3.4025 -5.9423  1.1819
 7381SOL     OW33775   2.898   4.048   4.596  0.4289 -0.1189  0.2004
 7381SOL    HW133776   2.954   3.976   4.624 -1.1859 -0.9065  1.3919
 7381SOL    HW233777   2.921   4.058   4.504 -1.2985  1.7408 -0.0565
 7382SOL     OW33778   2.607   1.301   5.439 -0.0148 -0.1877  0.0025
 7382SOL    HW133779   2.667   1.299   5.364 -0.2451 -0.1240 -0.1858
 7382SOL    HW233780   2.641   1.226   5.488  3.0662  1.5417  0.4902
 7383SOL     OW33781   0.377   0.911   1.848  0.0273  0.0934 -0.5184
 7383SOL    HW133782   0.282   0.918   1.858  0.2879 -0.6100  2.4172
 7383SOL    HW233783   0.377   0.871   1.761 -2.6089 -0.3339 -0.3495
 7384SOL     OW33784   2.787   4.245   5.524 -0.0973 -0.0547  0.2312
 7384SOL    HW133785   2.759   4.174   5.466  0.0069 -1.2151  1.5864
 7384SOL    HW233786   2.749   4.324   5.486  0.2796 -0.4698 -1.0012
 7385SOL     OW33787   0.692   4.403   3.282 -0.3783 -0.3785  0.4782
 7385SOL    HW133788   0.756   4.474   3.272 -0.5960 -0.2475  0.0153
 7385SOL    HW233789   0.724   4.342   3.215  0.3480 -1.0851  1.4558
 7386SOL     OW33790   3.697   3.551   7.854 -0.0599  0.2447  0.1033
 7386SOL    HW133791   3.738   3.637   7.867  0.1924  0.1230  0.1110
 7386SOL    HW233792   3.704   3.559   7.759  0.0652 -0.3361  0.0647
 7387SOL     OW33793   4.682   1.832   4.740  0.2080 -0.3153  0.0419
 7387SOL    HW133794   4.595   1.873   4.741  0.7641  0.8958 -1.6869
 7387SOL    HW233795   4.658   1.740   4.728 -0.2514 -0.0827 -0.8093
 7388SOL     OW33796   0.317   0.060  15.963  0.5147  0.5554 -0.0981
 7388SOL    HW133797   0.394   0.051  15.907 -0.4104  2.7968 -1.7306
 7388SOL    HW233798   0.259   0.102  15.900  0.7218 -2.0158 -1.9700
 7389SOL     OW33799   0.915   0.811  10.046  0.3545  0.4829  0.3911
 7389SOL    HW133800   0.885   0.749   9.980  2.3978  0.6395 -0.6822
 7389SOL    HW233801   0.851   0.880  10.029  0.8782  0.3909 -1.9125
 7390SOL     OW33802   4.697   1.436   7.670  0.1588  0.4848 -0.3451
 7390SOL    HW133803   4.696   1.498   7.597 -0.4937  1.2858  0.3444
 7390SOL    HW233804   0.048   1.451   7.709  0.1751  0.8613 -0.5281
 7391SOL     OW33805   4.288   2.574   4.210 -0.6274  0.0365 -0.3888
 7391SOL    HW133806   4.354   2.566   4.279  0.0442 -0.7176 -1.1295
 7391SOL    HW233807   4.329   2.523   4.141  0.6223  1.4293 -0.6823
 7392SOL     OW33808   3.905   2.236   4.120  1.1042 -0.3616  0.4617
 7392SOL    HW133809   4.000   2.246   4.126  1.0849 -1.2466  2.3018
 7392SOL    HW233810   3.896   2.285   4.038 -0.6625  0.6127  1.2415
 7393SOL     OW33811   4.682   4.733   9.755  0.1167  0.2859 -0.1768
 7393SOL    HW133812   4.724   4.695   9.678 -1.4292 -0.5514 -0.6123
 7393SOL    HW233813   4.594   0.010   9.719 -0.1631 -3.1160 -0.6061
 7394SOL     OW33814   4.633   0.376   3.891  0.0818  0.3702  0.1169
 7394SOL    HW133815   4.708   0.343   3.941 -1.1925 -1.7714  0.5921
 7394SOL    HW233816   4.669   0.381   3.803 -0.9255  0.1573 -0.3017
 7395SOL     OW33817   2.472   1.344   9.144  0.6680 -0.0031 -0.1415
 7395SOL    HW133818   2.403   1.379   9.087  1.7814  1.0343 -0.8511
 7395SOL    HW233819   2.526   1.299   9.079 -1.7060 -3.2130  0.1219
 7396SOL     OW33820   3.890   3.828   1.875 -0.1056 -0.4119 -0.7428
 7396SOL    HW133821   3.802   3.862   1.857 -0.2781 -0.2640  0.3305
 7396SOL    HW233822   3.883   3.734   1.862  0.8395 -0.3636 -1.5760
 7397SOL     OW33823   3.962   2.807   7.370  0.1727  0.1378  0.0757
 7397SOL    HW133824   3.886   2.754   7.393 -1.3246  1.4853 -1.8226
 7397SOL    HW233825   3.924   2.888   7.402  1.0610  1.1853 -1.5165
 7398SOL     OW33826   3.671   0.308   4.460  0.1324  0.7682 -0.0819
 7398SOL    HW133827   3.730   0.245   4.501 -0.0705  1.5526  1.4118
 7398SOL    HW233828   3.699   0.296   4.369  2.4448 -1.0899  0.8881
 7399SOL     OW33829   2.287   2.004  13.555  0.1640 -0.1400  0.1357
 7399SOL    HW133830   2.212   2.012  13.496 -0.1113  0.3059  0.5464
 7399SOL    HW233831   2.344   1.939  13.513 -2.8639 -2.6056 -0.1599
 7400SOL     OW33832   0.968   4.385   4.280  0.1908 -0.3430 -0.3258
 7400SOL    HW133833   1.045   4.384   4.223 -0.1295 -2.4297 -0.7248
 7400SOL    HW233834   1.008   4.358   4.363 -1.3154  0.3889  0.6429
 7401SOL     OW33835   2.900   2.982  11.902 -0.7598 -0.0862  0.5689
 7401SOL    HW133836   2.867   2.959  11.989 -1.3141  1.9410  0.8941
 7401SOL    HW233837   2.830   3.030  11.858  0.6881  0.0785 -1.5456
 7402SOL     OW33838   1.254   4.734   5.647  0.1960 -0.0876 -0.3903
 7402SOL    HW133839   1.269   0.024   5.556 -0.8190 -1.0886 -0.8188
 7402SOL    HW233840   1.282   0.074   5.701 -1.3139 -0.2048  0.5545
 7403SOL     OW33841   1.509   2.726   4.159  0.0140  0.5210  0.3327
 7403SOL    HW133842   1.470   2.754   4.076 -0.2389 -0.0260  0.2672
 7403SOL    HW233843   1.598   2.760   4.151  0.2078 -0.0036  0.3039
 7404SOL     OW33844   1.264   1.200   8.764 -0.1891 -0.4951 -0.3719
 7404SOL    HW133845   1.178   1.232   8.736  0.4096  0.2487 -1.3495
 7404SOL    HW233846   1.308   1.209   8.680 -0.3218 -1.9527 -0.5924
 7405SOL     OW33847   1.075   0.681   3.947 -0.0488  0.2765 -0.0272
 7405SOL    HW133848   1.097   0.670   3.854  1.4996  0.8464  0.2760
 7405SOL    HW233849   1.094   0.774   3.960  0.1250  0.3202 -0.6000
 7406SOL     OW33850   2.740   0.926   3.964 -0.1783 -0.5540  0.8120
 7406SOL    HW133851   2.655   0.899   3.928  0.1446  0.5702 -0.7925
 7406SOL    HW233852   2.718   1.018   3.983 -1.0689 -0.4170 -0.9159
 7407SOL     OW33853   3.757   0.243   5.302  0.0101 -0.5241 -0.2036
 7407SOL    HW133854   3.685   0.237   5.239 -0.0135  2.1594 -0.4528
 7407SOL    HW233855   3.808   0.167   5.273 -1.1417 -0.8068 -1.4845
 7408SOL     OW33856   2.484   0.693   7.741  0.2846  0.0762  0.2766
 7408SOL    HW133857   2.579   0.683   7.751  0.1628 -0.9061  0.4877
 7408SOL    HW233858   2.459   0.732   7.825  2.8072 -0.3523  1.2338
 7409SOL     OW33859   3.156   4.016   7.994 -0.4317  0.0222 -0.4261
 7409SOL    HW133860   3.074   4.045   8.034 -0.2530  0.2188 -0.2046
 7409SOL    HW233861   3.152   3.925   7.965  0.2065 -0.6352  1.5892
 7410SOL     OW33862   1.249   4.301   3.861 -0.0628  0.3497  0.2105
 7410SOL    HW133863   1.345   4.300   3.868 -0.0268  0.9681 -0.1958
 7410SOL    HW233864   1.250   4.219   3.813  4.2731  0.1933  0.5643
 7411SOL     OW33865   4.280   1.022   4.019  0.3299 -0.3796  0.0709
 7411SOL    HW133866   4.359   1.010   4.072  1.0427  0.5901 -0.7717
 7411SOL    HW233867   4.293   0.966   3.942 -0.2449 -0.1294 -0.2066
 7412SOL     OW33868   0.434   1.182  13.493  0.4442 -0.0705 -0.4711
 7412SOL    HW133869   0.500   1.251  13.487 -0.7028  1.0457 -0.3445
 7412SOL    HW233870   0.388   1.176  13.409 -1.3877 -1.8057  0.6737
 7413SOL     OW33871   2.403   4.260   3.535 -0.2709 -0.1634  0.2050
 7413SOL    HW133872   2.434   4.349   3.518 -0.0375 -0.6581 -1.8851
 7413SOL    HW233873   2.462   4.221   3.600 -0.8496  0.7356  1.2920
 7414SOL     OW33874   0.980   1.164  16.179  0.3068 -0.3088  0.3197
 7414SOL    HW133875   1.055   1.181  16.122 -1.0122  1.5739 -0.8201
 7414SOL    HW233876   0.952   1.078  16.148 -2.2866  0.1682  1.3343
 7415SOL     OW33877   0.924   3.620  16.937  0.4052 -0.3782  0.6686
 7415SOL    HW133878   0.939   3.575  17.020 -0.2130  0.3466  1.1850
 7415SOL    HW233879   0.899   3.709  16.961  0.9665 -0.3360  1.0994
 7416SOL     OW33880   3.077   2.461   8.246  0.0830  0.7165 -0.4119
 7416SOL    HW133881   3.021   2.537   8.228 -1.5438 -0.4162 -0.2116
 7416SOL    HW233882   3.128   2.478   8.325  0.3026  0.6734 -0.5442
 7417SOL     OW33883   2.533   2.882   1.721 -0.3945  0.4257  0.5992
 7417SOL    HW133884   2.596   2.954   1.712 -1.2503  1.3962  2.2126
 7417SOL    HW233885   2.554   2.832   1.642 -0.6644 -0.9077  1.3638
 7418SOL     OW33886   2.900   4.140   3.249  0.1510 -0.3704 -0.0628
 7418SOL    HW133887   2.848   4.066   3.218 -0.0069 -0.1923 -0.2239
 7418SOL    HW233888   2.844   4.216   3.234  1.5084  0.7285  0.3839
 7419SOL     OW33889   1.602   2.161   5.540  0.5555  0.0972  0.2401
 7419SOL    HW133890   1.631   2.252   5.534  0.8053  0.0723  1.0983
 7419SOL    HW233891   1.513   2.169   5.506  0.5515  1.7713  0.6206
 7420SOL     OW33892   2.313   0.945   9.124 -0.4396  0.2261 -0.5310
 7420SOL    HW133893   2.385   0.923   9.184  0.5945 -2.0609 -2.6009
 7420SOL    HW233894   2.232   0.922   9.169 -1.5934  0.0338 -2.7195
 7421SOL     OW33895   2.450   3.212  10.165  0.2149  0.2512 -0.5702
 7421SOL    HW133896   2.364   3.255  10.169 -0.2557 -0.6578 -0.8416
 7421SOL    HW233897   2.447   3.162  10.246  0.3198  1.1439 -0.0211
 7422SOL     OW33898   1.705   4.369   7.961  0.7028  0.7895 -0.3922
 7422SOL    HW133899   1.634   4.326   7.913  1.4459 -1.7739  0.7806
 7422SOL    HW233900   1.662   4.371   8.046 -1.2134 -1.3300 -1.2991
 7423SOL     OW33901   3.848   2.622   1.743  0.2223 -0.3468  0.5463
 7423SOL    HW133902   3.868   2.623   1.837  1.1340  1.5330  0.3310
 7423SOL    HW233903   3.825   2.529   1.734 -2.3858  0.3052  0.5235
 7424SOL     OW33904   1.223   3.651  12.275  0.2087  0.5180  0.0955
 7424SOL    HW133905   1.243   3.684  12.188 -1.0088 -2.6573 -1.3908
 7424SOL    HW233906   1.181   3.567  12.255 -0.4116  0.8777 -0.1231
 7425SOL     OW33907   2.523   0.383   9.148  0.1113  0.6550  0.3965
 7425SOL    HW133908   2.603   0.421   9.186  1.6291 -0.0228 -2.1053
 7425SOL    HW233909   2.518   0.291   9.174 -2.7139  0.4793 -0.8634
 7426SOL     OW33910   0.707   2.568   4.942 -0.2402 -0.9513  0.2070
 7426SOL    HW133911   0.724   2.624   4.866 -2.5529  0.6215  0.8474
 7426SOL    HW233912   0.649   2.612   5.004  0.7588  2.2337 -1.1277
 7427SOL     OW33913   1.223   0.778  11.527 -0.1754  0.0879 -0.5794
 7427SOL    HW133914   1.209   0.742  11.439 -1.5567  1.9102 -1.1037
 7427SOL    HW233915   1.249   0.705  11.584  0.7055  1.2310  0.4733
 7428SOL     OW33916   4.187   3.296  13.858 -0.0894  0.3671 -0.5648
 7428SOL    HW133917   4.214   3.327  13.945  0.1937 -2.2121  0.2478
 7428SOL    HW233918   4.251   3.227  13.841  1.0394  1.0583  0.8304
 7429SOL     OW33919   0.615   1.825   7.265  0.1127 -0.5491  0.0386
 7429SOL    HW133920   0.615   1.797   7.174  1.2779 -0.8809  0.1481
 7429SOL    HW233921   0.696   1.784   7.295 -0.2225 -0.6080  0.8787
 7430SOL     OW33922   3.091   0.466   8.497  0.6419 -0.2289  0.9820
 7430SOL    HW133923   3.122   0.376   8.483  2.3095  0.3859  0.7888
 7430SOL    HW233924   3.067   0.477   8.589  2.7745  0.7270  1.4115
 7431SOL     OW33925   3.384   2.786   8.720  0.3091 -0.3290 -0.0230
 7431SOL    HW133926   3.354   2.695   8.730  1.1343 -0.4824  1.0213
 7431SOL    HW233927   3.414   2.794   8.810 -0.5011  0.5524  0.1762
 7432SOL     OW33928   0.940   4.208  16.559 -0.0044  0.1292 -0.5949
 7432SOL    HW133929   0.961   4.133  16.504 -0.2684 -0.4434  0.0759
 7432SOL    HW233930   1.024   4.254  16.564 -0.3973  0.8857 -1.0297
 7433SOL     OW33931   0.428   2.033   4.618 -0.3687 -0.0861  0.2125
 7433SOL    HW133932   0.483   1.978   4.673 -0.5720  1.3844  1.8718
 7433SOL    HW233933   0.473   2.034   4.533 -1.4433 -0.1468 -0.3629
 7434SOL     OW33934   0.905   0.680   7.039 -0.0936 -0.5515  0.2643
 7434SOL    HW133935   0.937   0.729   7.114 -1.1660 -0.8530  0.9220
 7434SOL    HW233936   0.832   0.727   6.998 -0.0296 -0.2431  0.5053
 7435SOL     OW33937   0.405   0.820   2.353 -0.7588  0.4060 -0.3043
 7435SOL    HW133938   0.387   0.893   2.294 -2.3535  0.3126  0.0527
 7435SOL    HW233939   0.495   0.794   2.336 -0.9127 -0.4767  0.2535
 7436SOL     OW33940   0.187   3.710   7.491  0.3383 -0.1670  0.3009
 7436SOL    HW133941   0.122   3.770   7.528  0.2430 -0.0946  0.0177
 7436SOL    HW233942   0.154   3.624   7.517  2.0564 -1.1146 -0.7157
 7437SOL     OW33943   3.574   1.951   3.534 -0.6269 -0.3639 -0.0986
 7437SOL    HW133944   3.523   1.893   3.592  1.6891 -2.8042 -0.4644
 7437SOL    HW233945   3.647   1.892   3.516 -1.0847 -0.9264 -0.1248
 7438SOL     OW33946   1.393   0.732   9.716 -0.5037  0.0084 -0.4139
 7438SOL    HW133947   1.311   0.771   9.748 -0.8005 -0.2909 -0.8175
 7438SOL    HW233948   1.423   0.700   9.801 -0.4879 -2.1101 -1.2125
 7439SOL     OW33949   2.713   3.244   7.928  0.2048 -0.1877 -0.2863
 7439SOL    HW133950   2.746   3.196   8.004 -0.2751  2.7403  1.7612
 7439SOL    HW233951   2.675   3.326   7.958  0.6815 -0.4875  1.1615
 7440SOL     OW33952   4.083   2.129   5.147  0.5264 -0.2451 -0.3950
 7440SOL    HW133953   4.077   2.184   5.069 -0.4764  2.6867  1.7175
 7440SOL    HW233954   3.994   2.131   5.183  0.3150 -0.5319 -0.9112
 7441SOL     OW33955   0.000   2.840   2.500 -0.8310  0.2896 -0.2453
 7441SOL    HW133956   4.722   2.903   2.429  1.9756  1.4553  0.2622
 7441SOL    HW233957   0.010   2.752   2.465  0.7609  0.1637  0.4927
 7442SOL     OW33958   0.546   4.071   3.139  0.0427  0.4975  0.0245
 7442SOL    HW133959   0.637   4.096   3.118  0.4725 -1.7886 -0.8223
 7442SOL    HW233960   0.551   4.091   3.232 -0.7107  0.9182 -0.0262
 7443SOL     OW33961   1.440   4.618   5.802 -0.3175 -0.3348  0.2643
 7443SOL    HW133962   1.385   4.677   5.751  1.6474  2.1612  0.9871
 7443SOL    HW233963   1.496   4.581   5.733  0.5339 -0.7729  1.1755
 7444SOL     OW33964   3.549   3.815   7.739 -0.0367  0.0630  0.1508
 7444SOL    HW133965   3.629   3.806   7.791  0.5184 -0.2651 -0.7453
 7444SOL    HW233966   3.567   3.901   7.700 -2.9410 -0.0660 -1.4182
 7445SOL     OW33967   3.839   0.541   5.991  0.2013  0.2197  0.0908
 7445SOL    HW133968   3.759   0.493   5.966  0.4848  0.8499 -1.9993
 7445SOL    HW233969   3.866   0.483   6.062  1.3624 -0.3903 -0.8412
 7446SOL     OW33970   0.181   0.715  13.724 -0.0715  0.6485 -0.3529
 7446SOL    HW133971   0.180   0.631  13.678  0.3786  1.0825 -1.1642
 7446SOL    HW233972   0.232   0.687  13.799  1.3885  0.3553 -1.4563
 7447SOL     OW33973   2.551   0.778   8.065 -0.3572  0.3400  0.3690
 7447SOL    HW133974   2.644   0.778   8.087 -0.1169  0.7712 -0.6264
 7447SOL    HW233975   2.548   0.867   8.030 -2.7108  0.1009 -0.0612
 7448SOL     OW33976   1.220   0.434   1.905 -0.3123 -0.8481 -0.2376
 7448SOL    HW133977   1.291   0.497   1.922 -0.2115 -1.0850  0.2297
 7448SOL    HW233978   1.242   0.365   1.968  0.0794  1.5506  2.2673
 7449SOL     OW33979   2.923   1.787  10.497  0.4785  0.0018 -0.0222
 7449SOL    HW133980   2.976   1.740  10.562 -0.6508 -0.7586  0.3443
 7449SOL    HW233981   2.883   1.708  10.459 -1.0339  1.4732 -1.4730
 7450SOL     OW33982   3.773   3.719  16.244 -0.5575  0.1074 -0.1800
 7450SOL    HW133983   3.756   3.629  16.273 -0.5479  0.7056  1.6788
 7450SOL    HW233984   3.803   3.695  16.157 -0.0437 -0.9045  0.2733
 7451SOL     OW33985   1.236   2.241   9.790  0.6175  0.0714 -0.2758
 7451SOL    HW133986   1.170   2.310   9.786 -0.9785 -1.3005  2.4918
 7451SOL    HW233987   1.259   2.226   9.699  0.6698 -2.3701  0.1338
 7452SOL     OW33988   0.328   1.373   6.971 -0.0159 -0.0210  0.3640
 7452SOL    HW133989   0.270   1.356   7.046  1.0770  0.5188  1.3258
 7452SOL    HW233990   0.338   1.286   6.934  0.2549 -0.5491  1.6682
 7453SOL     OW33991   1.572   3.677   1.437  0.0728  0.3773  0.3383
 7453SOL    HW133992   1.503   3.713   1.494  2.2880  2.1549  1.8809
 7453SOL    HW233993   1.652   3.686   1.488  0.7787 -3.8596 -0.0321
 7454SOL     OW33994   0.296   0.059   2.278 -0.0161  0.1125  0.3137
 7454SOL    HW133995   0.345   4.729   2.226  1.1851  0.3819  1.1185
 7454SOL    HW233996   0.363   0.095   2.335  0.0708 -0.9116  0.8613
 7455SOL     OW33997   2.071   1.023   3.928 -0.2245  0.1635 -0.3520
 7455SOL    HW133998   2.034   0.970   3.998 -1.0329  1.7447  0.4177
 7455SOL    HW233999   2.016   1.101   3.930  1.2794  1.1842  1.9309
 7456SOL     OW34000   0.848   0.411   8.553 -0.1541 -0.1398 -0.3100
 7456SOL    HW134001   0.863   0.499   8.588  0.7335  0.1432 -1.4042
 7456SOL    HW234002   0.753   0.397   8.558 -0.0694 -0.6308 -0.1578
 7457SOL     OW34003   1.994   4.309   4.881  0.1919  0.2054  0.1227
 7457SOL    HW134004   1.938   4.241   4.921  0.6995  0.2961  0.9763
 7457SOL    HW234005   1.921   4.370   4.870 -0.0045 -0.5830 -2.8755
 7458SOL     OW34006   3.163   1.909   2.638 -0.1788 -0.8107  0.4112
 7458SOL    HW134007   3.133   1.885   2.725 -2.4755 -1.7559 -0.6443
 7458SOL    HW234008   3.082   1.925   2.589  0.1473  0.0849  0.1608
 7459SOL     OW34009   1.169   1.960  12.086  0.9989 -0.1919  0.0657
 7459SOL    HW134010   1.206   2.045  12.063  0.7810  0.0677  0.6712
 7459SOL    HW234011   1.243   1.910  12.119  1.4640  0.6514  0.3010
 7460SOL     OW34012   3.350   1.125  16.754 -0.3855  0.0239 -0.8747
 7460SOL    HW134013   3.352   1.087  16.842  0.4587  0.6856 -0.6093
 7460SOL    HW234014   3.259   1.115  16.725 -1.1011  0.2140  1.3507
 7461SOL     OW34015   2.821   4.231   4.825 -0.0289  0.6833  0.1459
 7461SOL    HW134016   2.844   4.169   4.756 -1.3127  0.3035  0.0750
 7461SOL    HW234017   2.832   4.171   4.899 -1.5645  0.5096  0.2272
 7462SOL     OW34018   1.320   2.823  15.970 -0.3066 -0.0920 -0.0618
 7462SOL    HW134019   1.362   2.888  15.914  1.4130 -0.6644  0.5715
 7462SOL    HW234020   1.322   2.866  16.056 -0.9611 -2.8855  1.3670
 7463SOL     OW34021   2.728   3.940   5.701  0.1507 -0.1033  0.9263
 7463SOL    HW134022   2.770   3.881   5.764  0.9140 -0.8887 -0.3203
 7463SOL    HW234023   2.693   3.880   5.635  0.0349 -0.4924  1.3406
 7464SOL     OW34024   0.697   4.085   6.789 -0.8028  0.1561  0.0631
 7464SOL    HW134025   0.646   4.046   6.860 -0.8334  0.6656  0.3166
 7464SOL    HW234026   0.746   4.143   6.847 -2.1185  1.1274  0.1909
 7465SOL     OW34027   4.610   4.064   7.181 -0.2972  0.0280  0.1397
 7465SOL    HW134028   4.669   4.045   7.254 -0.4231 -0.4628  0.1102
 7465SOL    HW234029   4.552   4.131   7.219  1.2150  1.0095  0.7304
 7466SOL     OW34030   0.098   1.773   2.987  0.1005 -0.0223 -0.1751
 7466SOL    HW134031   0.046   1.692   2.985  2.3427 -1.4984  0.6024
 7466SOL    HW234032   0.179   1.739   3.025  0.4378  1.6876  0.6054
 7467SOL     OW34033   4.701   1.259   5.362 -0.1449  0.3963  0.2797
 7467SOL    HW134034   4.672   1.259   5.270  0.7326  0.7972  0.0055
 7467SOL    HW234035   4.614   1.248   5.399 -0.9169  1.9245 -1.0388
 7468SOL     OW34036   0.534   0.196   8.017 -0.4250  0.7020 -0.5519
 7468SOL    HW134037   0.465   0.193   7.950 -0.5032 -1.4390 -0.3692
 7468SOL    HW234038   0.618   0.174   7.977 -0.6334 -0.2037 -0.4913
 7469SOL     OW34039   1.299   1.691   0.689 -0.1679  0.2235 -0.7595
 7469SOL    HW134040   1.228   1.753   0.681  0.4909  1.1715  0.7401
 7469SOL    HW234041   1.314   1.671   0.597 -2.0914  0.8996 -1.2104
 7470SOL     OW34042   0.535   2.368   0.424 -0.1774  0.3700  0.1534
 7470SOL    HW134043   0.609   2.384   0.366  0.2476  0.2681  0.6598
 7470SOL    HW234044   0.539   2.273   0.433  0.4121  0.4216  0.4069
 7471SOL     OW34045   2.711   0.523   8.736 -0.1985 -0.7525 -0.3896
 7471SOL    HW134046   2.641   0.505   8.673  0.5728 -3.5210 -0.4513
 7471SOL    HW234047   2.680   0.608   8.767  2.5022 -0.7051  2.1882
 7472SOL     OW34048   3.053   2.349   3.108 -0.4331  0.0282 -0.0718
 7472SOL    HW134049   3.032   2.442   3.118  0.4322  0.2326 -0.1987
 7472SOL    HW234050   3.133   2.340   3.159  1.0059 -0.8703 -2.4993
 7473SOL     OW34051   1.547   0.528   3.409  0.0418  0.4573  0.3531
 7473SOL    HW134052   1.460   0.489   3.402  0.9170 -1.2337 -1.0144
 7473SOL    HW234053   1.594   0.475   3.344  1.4176  0.7127  1.1430
 7474SOL     OW34054   0.094   4.630  10.822  0.0522 -0.0402  0.0822
 7474SOL    HW134055   0.041   4.659  10.896  0.3136 -1.1549  0.7201
 7474SOL    HW234056   0.044   4.662  10.747  0.5231  0.1290 -0.1569
 7475SOL     OW34057   1.815   0.406   6.396 -0.1844 -0.8515  0.2751
 7475SOL    HW134058   1.827   0.347   6.470 -0.1021 -2.9602 -1.4113
 7475SOL    HW234059   1.794   0.347   6.324 -0.3287 -0.3340 -0.1024
 7476SOL     OW34060   4.137   1.304   7.815  0.5621  0.4645 -0.1523
 7476SOL    HW134061   4.210   1.361   7.790  2.3430 -1.6635  0.2776
 7476SOL    HW234062   4.136   1.234   7.750 -2.4459  1.0741 -0.7947
 7477SOL     OW34063   3.736   0.002   3.727 -0.0641 -0.3849 -0.4469
 7477SOL    HW134064   3.769   4.664   3.675 -1.4701 -1.2832 -0.0801
 7477SOL    HW234065   3.643   4.717   3.735  0.0436 -1.1320 -1.0392
 7478SOL     OW34066   0.961   3.288  13.480  0.5348  0.3518 -0.5987
 7478SOL    HW134067   0.919   3.330  13.555 -1.1792  0.2069 -1.4732
 7478SOL    HW234068   0.893   3.284  13.412  0.9497 -1.9529 -0.8811
 7479SOL     OW34069   3.589   1.211   6.958  0.1031 -0.5989  0.6954
 7479SOL    HW134070   3.629   1.297   6.970 -0.6239 -0.3590  1.3871
 7479SOL    HW234071   3.525   1.213   7.029  1.5070  1.9115  1.8957
 7480SOL     OW34072   1.977   2.171   5.524 -0.4628 -0.2410  0.1673
 7480SOL    HW134073   1.884   2.183   5.502 -0.8033 -0.4793  1.4752
 7480SOL    HW234074   1.980   2.089   5.574 -3.2509  0.9599  2.2724
 7481SOL     OW34075   3.723   1.031   3.737 -0.5746  0.2053  0.4540
 7481SOL    HW134076   3.696   1.113   3.698 -0.2517  0.3855  0.6073
 7481SOL    HW234077   3.784   0.991   3.675 -0.2579 -0.0721  0.9376
 7482SOL     OW34078   4.026   2.677  10.690  0.5914 -1.1553  0.0413
 7482SOL    HW134079   4.083   2.611  10.652  1.7265 -1.9486  3.1746
 7482SOL    HW234080   4.089   2.728  10.740 -0.2109  0.1417 -0.2576
 7483SOL     OW34081   2.258   1.536   3.238  0.0699 -0.3307  0.6895
 7483SOL    HW134082   2.255   1.631   3.233  0.1216 -0.3676 -0.0327
 7483SOL    HW234083   2.338   1.520   3.289  0.3533  2.8223  1.1913
 7484SOL     OW34084   4.075   2.447   4.034 -0.4128 -0.2101 -0.7514
 7484SOL    HW134085   4.165   2.435   4.062 -0.5410 -0.5448 -0.4824
 7484SOL    HW234086   4.047   2.531   4.070  2.2371 -0.0589  0.8928
 7485SOL     OW34087   4.555   1.788   7.995  0.0293  0.3063 -0.2480
 7485SOL    HW134088   4.489   1.857   8.008 -1.8354 -1.1251 -2.0497
 7485SOL    HW234089   4.588   1.775   8.084 -2.5402  0.0793  0.6914
 7486SOL     OW34090   0.669   2.094   0.647 -0.1795  0.2018 -0.4378
 7486SOL    HW134091   0.612   2.096   0.569 -2.7666  0.3189  1.4399
 7486SOL    HW234092   0.603   2.098   0.716  0.4315 -0.5497  0.1778
 7487SOL     OW34093   1.414   3.647  10.586  0.1226  0.0926 -0.3819
 7487SOL    HW134094   1.373   3.569  10.548 -0.8358  0.6005 -0.3748
 7487SOL    HW234095   1.494   3.642  10.534  0.3697 -1.0233  0.1153
 7488SOL     OW34096   2.512   4.062   4.545  0.1868  0.2491 -0.1111
 7488SOL    HW134097   2.606   4.063   4.561  0.3510  1.2744 -1.1192
 7488SOL    HW234098   2.487   4.120   4.616 -0.5235  3.0021 -2.5934
 7489SOL     OW34099   2.894   3.458   4.487 -0.1456 -0.4026 -0.3713
 7489SOL    HW134100   2.888   3.456   4.583 -0.8586 -0.5745 -0.4188
 7489SOL    HW234101   2.981   3.424   4.470 -0.0703 -1.0179  1.2258
 7490SOL     OW34102   0.414   1.551   6.565  0.0828  0.6200 -0.0523
 7490SOL    HW134103   0.446   1.616   6.502 -0.7347  0.0268 -1.0979
 7490SOL    HW234104   0.496   1.511   6.591 -0.8641  1.0768  3.6005
 7491SOL     OW34105   0.423   2.492   0.029  0.1525  0.2568 -0.1957
 7491SOL    HW134106   0.474   2.555   0.080 -0.0164  1.0757 -1.0405
 7491SOL    HW234107   0.347   2.480   0.087 -0.1179 -0.5600 -0.7234
 7492SOL     OW34108   2.829   1.540  10.418  0.0040 -0.1227 -0.6005
 7492SOL    HW134109   2.736   1.536  10.394 -0.0821  0.2228 -0.3304
 7492SOL    HW234110   2.830   1.477  10.491 -0.6645  0.7068  0.1238
 7493SOL     OW34111   2.109   1.451   7.684  1.2020 -0.6292 -0.3770
 7493SOL    HW134112   2.038   1.387   7.677  0.5521  0.0628 -0.1444
 7493SOL    HW234113   2.190   1.407   7.709  0.8671 -0.8685  0.2811
 7494SOL     OW34114   0.724   4.076   7.371  0.1538  0.2730 -1.0049
 7494SOL    HW134115   0.711   4.136   7.444  0.8887  1.0067 -1.4708
 7494SOL    HW234116   0.640   4.030   7.363  0.4897 -1.1438  3.5991
 7495SOL     OW34117   3.945   1.367   8.453 -0.0907 -0.9723  0.0946
 7495SOL    HW134118   3.943   1.459   8.479  0.5882 -0.4334 -1.8144
 7495SOL    HW234119   4.036   1.342   8.467  0.5262  0.2182 -1.7322
 7496SOL     OW34120   1.277   0.949  13.435 -0.1833  0.1954 -0.3013
 7496SOL    HW134121   1.356   0.917  13.391  0.6210  1.2996  0.3496
 7496SOL    HW234122   1.244   0.861  13.456 -1.7282  0.6178 -0.9546
 7497SOL     OW34123   0.438   2.131  16.394  0.5779  0.0882 -0.4633
 7497SOL    HW134124   0.347   2.150  16.374  1.2560  3.5891 -0.2345
 7497SOL    HW234125   0.425   2.054  16.448  1.1646 -0.0125 -0.4669
 7498SOL     OW34126   0.346   1.225   5.195 -0.1029  0.3423 -0.3678
 7498SOL    HW134127   0.339   1.273   5.113 -2.2364 -0.0853 -0.4334
 7498SOL    HW234128   0.301   1.284   5.255 -0.3724 -0.2865  0.0523
 7499SOL     OW34129   0.887   4.552   6.670 -0.0014 -0.3008 -0.2954
 7499SOL    HW134130   0.951   4.484   6.648 -1.1124 -1.8557  1.2307
 7499SOL    HW234131   0.955   4.619   6.670  0.4126 -0.7165 -4.2340
 7500SOL     OW34132   0.302   1.280   5.603 -0.3608  0.2587  0.3382
 7500SOL    HW134133   0.269   1.339   5.535  2.2967 -0.3261 -1.4634
 7500SOL    HW234134   0.307   1.197   5.555 -1.0195 -0.9845  2.4289
 7501SOL     OW34135   0.691   2.503   6.899  0.2648 -0.1107 -0.1445
 7501SOL    HW134136   0.733   2.472   6.979 -1.1376  0.6999  0.9265
 7501SOL    HW234137   0.679   2.419   6.854 -2.0204 -0.2760  0.7417
 7502SOL     OW34138   2.355   3.534   7.095 -0.3018 -0.5940 -0.0932
 7502SOL    HW134139   2.302   3.479   7.153 -1.4361 -0.2274 -0.7742
 7502SOL    HW234140   2.294   3.604   7.074 -0.3397 -0.9633 -1.2138
 7503SOL     OW34141   0.376   4.088   8.495 -0.1990 -0.2010 -0.1150
 7503SOL    HW134142   0.385   4.062   8.587  3.4341  0.7940 -0.1597
 7503SOL    HW234143   0.465   4.067   8.465 -0.6506 -1.6050 -0.4527
 7504SOL     OW34144   3.553   3.712  13.186  0.8370 -0.1436  0.2879
 7504SOL    HW134145   3.568   3.748  13.273 -0.8893  0.8586  0.1465
 7504SOL    HW234146   3.605   3.766  13.126 -0.3168  0.3658 -0.2347
 7505SOL     OW34147   2.947   2.653   7.900  0.3713 -0.2910 -0.3066
 7505SOL    HW134148   2.874   2.618   7.848  0.5548 -1.1668  0.0184
 7505SOL    HW234149   3.016   2.599   7.861 -0.1941 -0.6027 -0.8901
 7506SOL     OW34150   4.622   0.753  10.594  0.0258 -0.1428 -0.5341
 7506SOL    HW134151   4.590   0.691  10.529  0.7832 -1.1770  0.0698
 7506SOL    HW234152   4.695   0.715  10.644 -1.1613 -0.0409  1.2954
 7507SOL     OW34153   4.231   3.576   3.153  0.1927 -0.6939 -0.3883
 7507SOL    HW134154   4.220   3.574   3.248  0.1565  1.2520 -0.3581
 7507SOL    HW234155   4.220   3.486   3.121 -0.0047 -0.2812 -1.4662
 7508SOL     OW34156   0.165   3.418   1.261 -0.1638 -0.1547 -0.1489
 7508SOL    HW134157   0.153   3.340   1.316 -1.3385 -0.3699 -0.7021
 7508SOL    HW234158   0.251   3.439   1.296 -0.7869  2.6699 -0.3767
 7509SOL     OW34159   0.127   0.377   7.594 -0.3683 -0.1133 -0.0517
 7509SOL    HW134160   0.204   0.393   7.539 -0.5189 -0.1300 -0.2684
 7509SOL    HW234161   0.072   0.347   7.522  1.3688 -0.7435 -1.1193
 7510SOL     OW34162   0.836   2.799   3.309 -0.2412  0.4372  0.3193
 7510SOL    HW134163   0.749   2.837   3.296  0.0808  0.5376 -1.5567
 7510SOL    HW234164   0.833   2.727   3.245 -2.9892  0.4375  0.4466
 7511SOL     OW34165   3.762   3.445   4.767  0.1806 -0.7886 -0.8309
 7511SOL    HW134166   3.847   3.400   4.766  1.1707  1.1286 -1.5910
 7511SOL    HW234167   3.786   3.537   4.758  0.6546 -0.8702 -0.4208
 7512SOL     OW34168   3.921   4.482   7.612  0.2088  0.5911 -0.0327
 7512SOL    HW134169   4.015   4.470   7.600  0.3850  3.1115 -1.0074
 7512SOL    HW234170   3.892   4.529   7.534 -0.2653  0.4111  0.0300
 7513SOL     OW34171   4.408   4.478   8.877  0.2591 -0.0501  0.6349
 7513SOL    HW134172   4.391   4.476   8.783  1.4772 -3.5420  0.4961
 7513SOL    HW234173   4.355   4.403   8.902  3.3480 -3.8970 -4.2802
 7514SOL     OW34174   3.326   3.737   1.608  0.4595  0.0279 -0.0015
 7514SOL    HW134175   3.255   3.772   1.663  1.4324  1.7290  0.1819
 7514SOL    HW234176   3.306   3.644   1.603 -0.8854  0.3313 -0.5091
 7515SOL     OW34177   2.469   4.246   6.540  0.2699  0.0775  0.3306
 7515SOL    HW134178   2.440   4.211   6.456 -1.1004 -0.0011  0.8390
 7515SOL    HW234179   2.517   4.167   6.565 -1.6574 -1.3851 -0.6193
 7516SOL     OW34180   2.770   0.640  17.462 -0.0590 -0.4261 -0.1830
 7516SOL    HW134181   2.860   0.631  17.431  0.1208 -1.8778  0.7337
 7516SOL    HW234182   2.793   0.633  17.555  1.2167 -1.1538 -0.5424
 7517SOL     OW34183   0.255   0.750   1.659 -0.1104  0.3346  0.5268
 7517SOL    HW134184   0.171   0.727   1.698  0.0310 -0.1662  0.5348
 7517SOL    HW234185   0.275   0.688   1.590 -0.0343  2.1249 -1.0595
 7518SOL     OW34186   3.139   4.491   8.632 -0.2863 -0.0539 -0.5794
 7518SOL    HW134187   3.153   4.581   8.604  1.6604 -0.2763 -0.3687
 7518SOL    HW234188   3.047   4.497   8.657 -0.2636  1.1656 -0.7989
 7519SOL     OW34189   3.925   4.121   4.138  0.1465 -1.1926 -0.2682
 7519SOL    HW134190   3.869   4.069   4.080 -1.5059 -0.6426  0.8315
 7519SOL    HW234191   3.863   4.130   4.210  0.0627 -1.9254 -0.2412
 7520SOL     OW34192   1.616   3.932  14.065  0.5323  0.5869  0.1479
 7520SOL    HW134193   1.618   4.023  14.092  0.5376  1.0644 -1.5075
 7520SOL    HW234194   1.704   3.916  14.031 -0.6585 -1.4003 -2.0178
 7521SOL     OW34195   3.653   3.964   1.164 -0.2270 -0.0580 -0.5476
 7521SOL    HW134196   3.567   4.002   1.183 -0.7455 -1.6051  0.2681
 7521SOL    HW234197   3.711   4.034   1.193 -0.2757 -0.3833  0.3544
 7522SOL     OW34198   2.498   2.242   4.115  0.0438 -0.3538 -0.0721
 7522SOL    HW134199   2.541   2.159   4.135  1.0865  0.0901 -0.4847
 7522SOL    HW234200   2.548   2.273   4.040 -0.1634 -0.0644 -0.0906
 7523SOL     OW34201   3.428   3.692  14.985 -0.5768  0.8693  0.1002
 7523SOL    HW134202   3.505   3.673  15.039  0.8815  0.6495 -2.0830
 7523SOL    HW234203   3.421   3.788  14.984 -2.0001  0.7120 -3.1296
 7524SOL     OW34204   1.064   3.015   2.563  0.3974  0.1869 -0.3033
 7524SOL    HW134205   1.100   2.970   2.640  0.7676  0.2992 -0.4098
 7524SOL    HW234206   1.136   3.026   2.502 -0.0043 -0.5854 -0.9115
 7525SOL     OW34207   1.102   2.808  10.421  0.7037 -0.1115  0.0893
 7525SOL    HW134208   1.012   2.837  10.432 -0.7360 -2.8569 -4.3225
 7525SOL    HW234209   1.087   2.731  10.366  0.8484  0.1681 -0.3413
 7526SOL     OW34210   4.414   4.449   8.394  0.1374 -0.2845 -0.4370
 7526SOL    HW134211   4.492   4.394   8.402  0.6631  0.4308 -0.6493
 7526SOL    HW234212   4.413   4.493   8.479  0.3231 -1.4896  0.1948
 7527SOL     OW34213   2.292   2.437   9.605 -0.5773 -0.3324  0.0938
 7527SOL    HW134214   2.314   2.386   9.683 -0.1529  1.0391  0.8731
 7527SOL    HW234215   2.197   2.442   9.609 -0.6294 -1.6097  0.3559
 7528SOL     OW34216   2.665   0.552   3.348 -0.2818 -0.3731  0.0238
 7528SOL    HW134217   2.740   0.512   3.392 -0.6841 -0.7102  0.4027
 7528SOL    HW234218   2.669   0.640   3.386 -1.4516 -0.0485 -0.6126
 7529SOL     OW34219   3.034   1.087   0.097 -0.6574  0.4928 -0.4002
 7529SOL    HW134220   2.986   1.103   0.178  0.1134  2.0255 -0.2368
 7529SOL    HW234221   2.963   1.105   0.036 -1.4160  0.2889  0.4405
 7530SOL     OW34222   2.128   2.453   3.679 -0.1616 -0.5728 -0.3668
 7530SOL    HW134223   2.117   2.361   3.655 -3.9013 -0.3154  0.4473
 7530SOL    HW234224   2.123   2.441   3.773  0.4575 -1.3843 -0.4358
 7531SOL     OW34225   3.048   4.381   7.811 -0.3338  0.4737 -0.3495
 7531SOL    HW134226   3.023   4.290   7.796  0.3209  0.4518 -1.3373
 7531SOL    HW234227   3.117   4.392   7.745  0.2677 -0.6686  0.0891
 7532SOL     OW34228   2.775   0.081   6.385 -0.4156 -0.1226  0.5632
 7532SOL    HW134229   2.844   0.032   6.340  0.2447 -0.3754  1.8705
 7532SOL    HW234230   2.815   0.165   6.408  2.5683 -1.8621  1.6784
 7533SOL     OW34231   2.817   0.820   7.478 -0.8553 -0.3020  0.1745
 7533SOL    HW134232   2.814   0.872   7.558 -1.9710 -0.2408  0.0899
 7533SOL    HW234233   2.885   0.756   7.502  1.1487  1.3791 -1.0437
 7534SOL     OW34234   3.139   0.187   3.476  0.0166  0.5362 -0.5619
 7534SOL    HW134235   3.057   0.200   3.524  1.4778  2.1450  1.4862
 7534SOL    HW234236   3.164   0.103   3.515  0.4445  0.5468 -0.8201
 7535SOL     OW34237   1.575   4.637   9.121  0.1261  0.2083 -0.3873
 7535SOL    HW134238   1.569   4.711   9.061 -1.9840 -0.3971 -0.9159
 7535SOL    HW234239   1.483   4.650   9.143  0.0539 -1.1171  0.0886
 7536SOL     OW34240   3.723   2.912   6.945 -0.2190 -0.0516  0.5847
 7536SOL    HW134241   3.635   2.916   6.906  0.2333 -0.0326 -0.4206
 7536SOL    HW234242   3.714   2.845   7.013  0.0568 -0.4230  0.2481
 7537SOL     OW34243   2.691   4.601   4.400  0.7965  0.2537  0.1656
 7537SOL    HW134244   2.620   4.561   4.350 -0.0515 -0.2294  1.7777
 7537SOL    HW234245   2.706   4.672   4.337 -1.6934 -0.0216 -0.7406
 7538SOL     OW34246   2.938   0.742   5.800  0.6697 -0.2221  0.6814
 7538SOL    HW134247   2.950   0.799   5.724 -1.2715  1.8605  1.9093
 7538SOL    HW234248   2.895   0.792   5.870  0.3982  0.5077 -0.0108
 7539SOL     OW34249   0.114   3.479   3.088 -0.0171 -0.6022 -0.5034
 7539SOL    HW134250   0.038   3.423   3.069 -1.4488  1.0434  0.4081
 7539SOL    HW234251   0.127   3.467   3.182  3.1430  1.5698 -0.6898
 7540SOL     OW34252   4.198   1.146   7.612  0.7042 -0.7270 -0.8226
 7540SOL    HW134253   4.272   1.104   7.568  2.0908  0.8248  0.0391
 7540SOL    HW234254   4.202   1.231   7.569 -1.0608  0.9171  2.2284
 7541SOL     OW34255   1.675   4.129   5.617 -0.2656  0.4978  0.0566
 7541SOL    HW134256   1.606   4.154   5.556  0.1135 -0.8049 -0.9148
 7541SOL    HW234257   1.645   4.046   5.654 -0.1091 -0.0053 -0.9270
 7542SOL     OW34258   0.207   1.377   5.366  0.2559 -0.3516 -0.2317
 7542SOL    HW134259   0.204   1.457   5.313  0.7354  0.0006  0.2654
 7542SOL    HW234260   0.119   1.349   5.344  0.9370 -2.3354 -0.3633
 7543SOL     OW34261   0.414   2.978   3.003  0.2674 -1.0601  0.5608
 7543SOL    HW134262   0.388   2.921   3.075 -1.5642 -0.7471  0.1686
 7543SOL    HW234263   0.509   2.969   2.995  0.8025  1.6628  3.8842
 7544SOL     OW34264   0.784   3.890   8.031 -0.0386 -0.7239  0.1966
 7544SOL    HW134265   0.718   3.888   8.100 -1.5136 -0.3316 -1.2089
 7544SOL    HW234266   0.757   3.822   7.969  0.7392 -1.0117  0.1778
 7545SOL     OW34267   2.494   0.640   5.081  0.4843 -0.8211  0.3417
 7545SOL    HW134268   2.401   0.627   5.102  1.0941 -1.3203  2.7431
 7545SOL    HW234269   2.511   0.721   5.128  1.9897 -0.4500 -0.8697
 7546SOL     OW34270   0.703   0.969   7.361 -0.1927 -0.2512 -0.1850
 7546SOL    HW134271   0.744   1.038   7.310  0.1700 -1.6190 -1.7620
 7546SOL    HW234272   0.620   0.975   7.314 -0.1100  1.9159 -0.0404
 7547SOL     OW34273   0.401   3.338   4.295 -0.1562  0.0816  0.0857
 7547SOL    HW134274   0.365   3.411   4.244 -0.0926 -0.9248 -1.4055
 7547SOL    HW234275   0.374   3.350   4.386  1.3973  1.5669  0.3387
 7548SOL     OW34276   4.638   4.608   8.936  1.2198 -0.2081 -0.1719
 7548SOL    HW134277   4.611   4.686   8.985  0.4171 -0.2422 -0.5523
 7548SOL    HW234278   4.556   4.563   8.918  0.8654  0.0245  0.8770
 7549SOL     OW34279   3.598   2.481   2.657 -0.1431 -0.4240 -0.5324
 7549SOL    HW134280   3.616   2.388   2.642 -0.8287 -0.0770 -3.6391
 7549SOL    HW234281   3.596   2.483   2.752  2.3632  2.1198 -0.4980
 7550SOL     OW34282   1.376   4.583   3.761 -0.0227 -0.6833  0.5262
 7550SOL    HW134283   1.349   4.513   3.820  1.0484 -0.5818  1.1454
 7550SOL    HW234284   1.304   4.587   3.698  0.5483 -1.1262 -0.1717
 7551SOL     OW34285   0.249   0.884  16.713  0.3466 -0.2388 -0.9096
 7551SOL    HW134286   0.252   0.980  16.716 -1.4269 -0.2366  0.8883
 7551SOL    HW234287   0.155   0.867  16.720  0.4989 -0.2531  1.0851
 7552SOL     OW34288   3.247   2.113   8.793 -0.4497 -0.3162  0.0694
 7552SOL    HW134289   3.306   2.126   8.719  0.1757  1.1419  0.8286
 7552SOL    HW234290   3.175   2.172   8.772  0.4438  0.6843 -0.1445
 7553SOL     OW34291   2.971   1.780   8.639 -0.1731  0.0853  0.6284
 7553SOL    HW134292   3.000   1.855   8.588  1.0664 -1.3405 -0.7944
 7553SOL    HW234293   3.010   1.708   8.589 -3.1413 -1.6328  0.7729
 7554SOL     OW34294   0.444   3.301   3.616 -0.5484 -0.4498  0.2808
 7554SOL    HW134295   0.389   3.317   3.540 -2.9960  0.2821  2.1945
 7554SOL    HW234296   0.488   3.383   3.638  0.3110 -0.6864 -0.5718
 7555SOL     OW34297   2.890   2.955   3.887  0.2609  0.0360  0.5699
 7555SOL    HW134298   2.877   3.044   3.853 -1.2819  0.1797  1.5139
 7555SOL    HW234299   2.804   2.930   3.922 -0.4399  0.0467 -1.1049
 7556SOL     OW34300   1.495   2.331   6.070  0.3895 -0.2807  0.4009
 7556SOL    HW134301   1.524   2.422   6.067  0.5235 -0.3100  0.8226
 7556SOL    HW234302   1.419   2.359   6.120 -1.6313 -0.0483 -2.8308
 7557SOL     OW34303   1.193   2.108   6.737 -0.3558  0.0289 -0.3400
 7557SOL    HW134304   1.189   2.014   6.756  0.9314  0.0003 -0.1689
 7557SOL    HW234305   1.264   2.105   6.673  0.9908 -2.6917  1.2684
 7558SOL     OW34306   2.245   4.566  11.275 -0.2590 -0.1427 -0.7911
 7558SOL    HW134307   2.216   4.484  11.234  0.0514 -2.2309  3.1556
 7558SOL    HW234308   2.271   4.534  11.361  2.4393  0.8649 -1.2404
 7559SOL     OW34309   0.270   3.283   3.394 -0.3154 -0.3856 -0.5872
 7559SOL    HW134310   0.344   3.327   3.353  0.2905  0.5804  1.5633
 7559SOL    HW234311   0.208   3.300   3.323  0.9127 -2.0509 -2.0724
 7560SOL     OW34312   3.218   4.682   7.354  0.0567 -0.2148 -0.5638
 7560SOL    HW134313   3.250   4.718   7.437  1.4172 -1.5565 -0.5017
 7560SOL    HW234314   3.296   4.633   7.328  0.3924  0.2458 -0.4124
 7561SOL     OW34315   4.013   0.889   8.843 -0.6521  0.3692  0.2669
 7561SOL    HW134316   4.022   0.851   8.931 -3.1378 -0.2687  0.2493
 7561SOL    HW234317   3.941   0.951   8.848  0.5830  1.6779  1.9555
 7562SOL     OW34318   0.917   4.722   6.336  0.0445  0.4525 -0.0999
 7562SOL    HW134319   0.905   4.627   6.327 -1.3021  0.5460  0.6251
 7562SOL    HW234320   0.866   0.017   6.262  1.3413  3.0841  0.0703
 7563SOL     OW34321   1.619   3.031   6.201  0.6977 -0.1107 -0.4174
 7563SOL    HW134322   1.571   2.955   6.169  0.7618 -0.1076 -0.5244
 7563SOL    HW234323   1.582   3.042   6.288 -1.7060 -3.1708 -1.0399
 7564SOL     OW34324   0.413   3.157   4.917  0.5255 -0.0794 -0.0498
 7564SOL    HW134325   0.430   3.083   4.976  0.6208 -0.1672 -0.1857
 7564SOL    HW234326   0.491   3.212   4.926 -0.8930  1.8812  0.0616
 7565SOL     OW34327   4.175   0.806   6.096  0.2935 -0.7820  0.3546
 7565SOL    HW134328   4.158   0.770   6.009 -1.3560  0.3620  0.2034
 7565SOL    HW234329   4.099   0.863   6.108  0.8715 -0.1777  1.1342
 7566SOL     OW34330   3.364   0.488   2.388  0.1459  0.6773  0.2140
 7566SOL    HW134331   3.300   0.546   2.430 -0.9080  0.5002 -1.1433
 7566SOL    HW234332   3.422   0.558   2.359 -0.9825  0.7728 -1.8789
 7567SOL     OW34333   3.988   3.615   6.126 -0.3243  0.3112  0.2121
 7567SOL    HW134334   4.031   3.676   6.186  3.1731 -1.6010 -0.3762
 7567SOL    HW234335   4.053   3.547   6.110  1.3599  1.3924  2.3912
 7568SOL     OW34336   4.728   0.484   5.965  0.2196 -0.1650  0.3586
 7568SOL    HW134337   4.694   0.571   5.986 -2.7081 -0.9234 -1.3251
 7568SOL    HW234338   0.069   0.487   6.023  0.3053 -0.5254  0.2652
 7569SOL     OW34339   0.567   4.040  12.326 -0.0630  0.6209  0.3923
 7569SOL    HW134340   0.510   3.967  12.299  1.8932 -1.0157  0.6975
 7569SOL    HW234341   0.530   4.113  12.276  1.8870  0.6502 -0.9966
 7570SOL     OW34342   4.483   1.331   3.673  0.0631  0.1303  0.3766
 7570SOL    HW134343   4.477   1.335   3.769 -2.9497  1.5699  0.1360
 7570SOL    HW234344   4.467   1.238   3.654 -0.3378  0.3706 -0.4657
 7571SOL     OW34345   0.184   0.602   0.324  0.1192  0.0685  0.0857
 7571SOL    HW134346   0.181   0.680   0.378  1.5273 -1.0081  1.7097
 7571SOL    HW234347   0.203   0.647   0.241 -1.0111 -0.9960 -0.7436
 7572SOL     OW34348   0.982   2.557  17.633  0.4022  0.0325 -0.5875
 7572SOL    HW134349   0.972   2.581  17.726  0.5248 -1.8411 -0.0919
 7572SOL    HW234350   1.057   2.613  17.614  0.6901 -0.8979 -2.1348
 7573SOL     OW34351   0.089   3.196  10.137  0.3992 -0.4132  0.2904
 7573SOL    HW134352   0.101   3.283  10.099 -0.8471 -0.1634  0.4705
 7573SOL    HW234353   0.010   3.171  10.090 -0.8604  1.8670  1.1703
 7574SOL     OW34354   0.819   2.807   3.840 -0.2632 -0.2115  0.2647
 7574SOL    HW134355   0.883   2.842   3.902  1.7885 -1.7681 -0.9617
 7574SOL    HW234356   0.874   2.796   3.763 -1.6314 -1.3278 -0.5563
 7575SOL     OW34357   3.382   3.003   4.644  0.5926  0.2492 -0.4979
 7575SOL    HW134358   3.450   3.001   4.577 -1.5044 -1.2903 -2.5380
 7575SOL    HW234359   3.345   2.915   4.640  0.8490 -0.0245  2.7375
 7576SOL     OW34360   3.754   2.357  12.623  0.9430  0.3010  0.4189
 7576SOL    HW134361   3.848   2.374  12.613  0.9544  0.5122  0.9132
 7576SOL    HW234362   3.764   2.271  12.664  0.7869  0.3145  0.4848
 7577SOL     OW34363   0.822   2.374   5.801  0.4722 -1.1714 -0.2748
 7577SOL    HW134364   0.824   2.281   5.781  2.4995 -1.0006 -0.8967
 7577SOL    HW234365   0.754   2.386   5.868 -0.1422 -1.1694 -0.9033
 7578SOL     OW34366   0.143   2.213   0.597 -0.1315 -0.5473  0.0017
 7578SOL    HW134367   0.161   2.137   0.541  0.9395  0.3439 -0.8710
 7578SOL    HW234368   0.142   2.174   0.684 -0.0035  1.0414  0.7017
 7579SOL     OW34369   0.993   1.917   3.891  0.0610  0.2330  0.0368
 7579SOL    HW134370   1.061   1.945   3.952  0.5665  0.7906 -0.7790
 7579SOL    HW234371   1.044   1.893   3.814  1.4142 -1.2301  1.3989
 7580SOL     OW34372   1.169   1.654   4.428 -0.1792  0.1099  0.0169
 7580SOL    HW134373   1.082   1.614   4.422 -0.0341 -0.3999  1.1056
 7580SOL    HW234374   1.215   1.595   4.369 -2.0282  0.9772 -2.2617
 7581SOL     OW34375   2.507   2.206   6.379  0.0239 -0.1820 -0.4737
 7581SOL    HW134376   2.496   2.209   6.474  1.8747 -0.1290 -0.2757
 7581SOL    HW234377   2.551   2.124   6.358  2.3869  1.1003 -0.5080
 7582SOL     OW34378   1.134   2.520   1.687  0.0022  0.1711  0.1588
 7582SOL    HW134379   1.096   2.605   1.710  0.2608  0.5164 -0.6739
 7582SOL    HW234380   1.209   2.554   1.638  1.6039  0.8949  3.1138
 7583SOL     OW34381   4.685   3.032   2.956 -0.3229 -0.0661 -0.1435
 7583SOL    HW134382   4.727   2.978   3.022 -1.7113  0.4039  1.1177
 7583SOL    HW234383   4.729   2.994   2.880  1.1226 -0.2957  0.8152
 7584SOL     OW34384   1.607   4.357   6.096 -0.5947  0.1700  0.7843
 7584SOL    HW134385   1.654   4.377   6.014 -1.1825  0.9142  0.6267
 7584SOL    HW234386   1.650   4.274   6.116  0.3288  0.7191  1.1068
 7585SOL     OW34387   1.902   2.552  10.379 -0.6558  0.2718 -0.3266
 7585SOL    HW134388   1.899   2.532  10.286  0.1512  2.4185 -0.8234
 7585SOL    HW234389   1.981   2.509  10.410 -0.9593  0.1200  0.2499
 7586SOL     OW34390   2.014   0.479   8.063 -0.5896  0.3032  0.0319
 7586SOL    HW134391   2.012   0.574   8.078 -0.9690  0.3404 -0.2561
 7586SOL    HW234392   1.941   0.446   8.114 -0.1235 -1.0726 -0.2024
 7587SOL     OW34393   0.604   4.018   3.423 -0.2048  0.1528  0.2490
 7587SOL    HW134394   0.532   4.060   3.471 -1.7050  0.3965 -2.2078
 7587SOL    HW234395   0.682   4.068   3.445  0.1861  1.4623 -4.1839
 7588SOL     OW34396   1.817   2.092   8.865  0.5566  0.3091 -0.3447
 7588SOL    HW134397   1.787   2.162   8.922 -0.1492 -0.9980  0.8975
 7588SOL    HW234398   1.733   2.063   8.829  1.6691 -2.2353 -0.9118
 7589SOL     OW34399   1.944   2.027   3.402 -1.0344  0.7415 -0.2713
 7589SOL    HW134400   1.857   2.042   3.365 -0.0202  2.8087 -1.8420
 7589SOL    HW234401   1.991   2.004   3.322 -0.5250  1.7156 -0.2564
 7590SOL     OW34402   1.728   0.088  14.780  0.2366  0.4026 -1.3074
 7590SOL    HW134403   1.776   0.008  14.758 -1.6880 -1.2753  0.6180
 7590SOL    HW234404   1.796   0.155  14.786 -0.0178  0.4216  1.2981
 7591SOL     OW34405   3.082   2.519   5.146  0.3207  0.4310 -0.4772
 7591SOL    HW134406   3.156   2.463   5.169 -0.8976 -1.8380 -2.0032
 7591SOL    HW234407   3.018   2.457   5.182  0.2328 -0.1651 -1.6719
 7592SOL     OW34408   0.395   3.653   8.455 -0.0507 -0.4227  0.0191
 7592SOL    HW134409   0.389   3.741   8.491  0.5869 -0.4090  0.0818
 7592SOL    HW234410   0.489   3.635   8.458  0.4959  2.1108 -1.4906
 7593SOL     OW34411   1.084   3.029  17.250 -0.0960 -0.1242  0.1411
 7593SOL    HW134412   1.013   3.075  17.206 -0.7384  0.4072  1.7012
 7593SOL    HW234413   1.138   3.104  17.277 -1.1187  0.8171 -0.4046
 7594SOL     OW34414   1.463   3.181   6.543 -0.3199 -0.2521 -0.3512
 7594SOL    HW134415   1.504   3.170   6.629 -0.6251  1.1376 -0.0225
 7594SOL    HW234416   1.422   3.265   6.564  1.3554  0.5395 -0.2345
 7595SOL     OW34417   4.481   0.807  11.406  0.2996 -0.1763 -0.2143
 7595SOL    HW134418   4.471   0.880  11.345 -2.2763 -0.1325  0.2710
 7595SOL    HW234419   4.468   0.733  11.346 -1.9281  0.5943 -0.6693
 7596SOL     OW34420   3.075   1.319   2.963  0.2873 -0.0263 -0.0743
 7596SOL    HW134421   3.088   1.402   2.916  3.3855 -1.5947 -1.9647
 7596SOL    HW234422   2.982   1.321   2.986  0.1157 -0.0962 -0.7699
 7597SOL     OW34423   4.275   0.061  11.225 -0.0470 -0.0491  0.2662
 7597SOL    HW134424   4.356   0.099  11.191 -1.1672  0.4364 -1.8247
 7597SOL    HW234425   4.225   0.143  11.228 -0.7461 -0.5006  1.2685
 7598SOL     OW34426   1.184   1.034   4.940 -0.4476  0.0059 -0.5950
 7598SOL    HW134427   1.239   1.079   5.005 -3.1561  1.3849  0.7436
 7598SOL    HW234428   1.201   0.943   4.965  0.3954  0.2884 -0.1379
 7599SOL     OW34429   4.681   1.974   8.317 -0.2614  0.2380 -0.1505
 7599SOL    HW134430   4.714   2.016   8.238 -1.4496 -1.0837 -1.3485
 7599SOL    HW234431   4.688   2.048   8.378 -0.6533 -1.3817  1.8579
 7600SOL     OW34432   1.648   3.270   4.098  0.3298  0.6464  0.0208
 7600SOL    HW134433   1.583   3.334   4.125  1.3165  1.5151  0.3235
 7600SOL    HW234434   1.698   3.302   4.173 -1.1100  2.2995  0.2726
 7601SOL     OW34435   3.713   3.250   7.159 -0.1515 -0.4609  0.2990
 7601SOL    HW134436   3.645   3.315   7.142 -0.9666 -1.4076 -0.0611
 7601SOL    HW234437   3.763   3.300   7.223  1.3168 -1.8074  0.2071
 7602SOL     OW34438   1.193   4.682   8.520 -0.4995  0.1961  0.1390
 7602SOL    HW134439   1.190   4.596   8.479  2.5047  0.2741 -0.2593
 7602SOL    HW234440   1.107   4.723   8.513 -0.8939 -0.7215 -0.3766
 7603SOL     OW34441   2.506   1.749   7.815  0.1762  0.4383 -0.2247
 7603SOL    HW134442   2.541   1.837   7.802 -1.7838  1.2708  0.1007
 7603SOL    HW234443   2.536   1.732   7.905 -0.4243 -0.2390 -0.1471
 7604SOL     OW34444   1.845   3.235  13.700  0.5475 -0.6625  0.1877
 7604SOL    HW134445   1.904   3.223  13.626 -1.3085 -0.6339 -1.2830
 7604SOL    HW234446   1.890   3.292  13.762  0.9145 -1.6198  0.8129
 7605SOL     OW34447   2.967   2.920   9.302  0.0604 -0.4573 -0.0447
 7605SOL    HW134448   2.925   2.942   9.385  1.0116  0.4032  0.2167
 7605SOL    HW234449   2.895   2.868   9.267 -0.1070 -0.6257  0.5538
 7606SOL     OW34450   4.518   2.095   1.471 -0.7642 -0.0194 -0.3477
 7606SOL    HW134451   4.514   2.000   1.461  1.4251 -0.1267 -0.2951
 7606SOL    HW234452   4.533   2.104   1.565 -1.1565 -0.7516 -0.2149
 7607SOL     OW34453   3.388   1.932   8.005 -0.0876 -0.1959 -0.0365
 7607SOL    HW134454   3.346   1.867   8.061  1.5890 -0.3306  1.0553
 7607SOL    HW234455   3.405   1.875   7.931 -1.0165 -1.4420  0.7202
 7608SOL     OW34456   2.830   2.886  12.140  0.5311  0.3403 -0.1370
 7608SOL    HW134457   2.880   2.898  12.221  1.4493  2.0941 -0.9675
 7608SOL    HW234458   2.754   2.933  12.174  0.9990  1.1676 -0.2368
 7609SOL     OW34459   1.842   1.500  14.978 -0.3325 -0.6141  0.2148
 7609SOL    HW134460   1.892   1.530  14.902  1.3046 -3.4162  0.2116
 7609SOL    HW234461   1.909   1.471  15.041  0.7106  0.4469 -0.3939
 7610SOL     OW34462   4.491   0.580   2.020 -0.0979 -0.1454  0.1538
 7610SOL    HW134463   4.538   0.511   1.973 -1.1486 -1.4297  0.9963
 7610SOL    HW234464   4.411   0.581   1.967  1.0529 -1.1374 -1.5860
 7611SOL     OW34465   0.038   4.450   3.549  0.1117 -0.2659 -0.4859
 7611SOL    HW134466   4.688   4.405   3.550 -1.0171  1.8743  0.2233
 7611SOL    HW234467   0.015   4.520   3.488  1.2471  2.1140  1.7889
 7612SOL     OW34468   3.508   1.135   9.609  0.2345  0.6051 -0.2083
 7612SOL    HW134469   3.543   1.212   9.654  0.9283 -1.7546  3.3419
 7612SOL    HW234470   3.582   1.074   9.617 -0.1033  0.1796 -0.3599
 7613SOL     OW34471   1.505   2.873  13.832  0.3217  0.2722  0.0539
 7613SOL    HW134472   1.416   2.886  13.866  0.2835  1.9222 -0.6781
 7613SOL    HW234473   1.499   2.905  13.741 -1.0613 -0.0766  0.0189
 7614SOL     OW34474   2.569   3.214   0.033  0.4093  0.6068  0.1336
 7614SOL    HW134475   2.636   3.230  17.706 -0.4979 -1.1304 -1.2345
 7614SOL    HW234476   2.490   3.189  17.723  1.7405 -2.0845 -0.6963
 7615SOL     OW34477   0.600   2.280   0.130 -0.4365 -0.5601 -0.5549
 7615SOL    HW134478   0.561   2.339   0.065  0.3722  0.7839  0.1695
 7615SOL    HW234479   0.521   2.228   0.140 -0.9693  0.1032 -1.2323
 7616SOL     OW34480   0.007   2.885   3.183  0.5124 -0.2598 -0.4248
 7616SOL    HW134481   4.706   2.957   3.235 -0.7560  0.0329 -1.7018
 7616SOL    HW234482   4.719   2.815   3.244  2.4696 -0.1764  0.3826
 7617SOL     OW34483   0.826   2.404   5.289  0.0716  0.1253 -0.0372
 7617SOL    HW134484   0.770   2.472   5.326 -0.2186 -0.2602  0.2318
 7617SOL    HW234485   0.772   2.326   5.300 -1.9198  1.1015 -3.0196
 7618SOL     OW34486   0.090   3.703   2.064  0.6822 -0.4433 -0.0105
 7618SOL    HW134487   0.142   3.675   2.139 -1.3341 -0.0297  1.5307
 7618SOL    HW234488   0.041   3.622   2.049  1.0252 -0.7517  0.5432
 7619SOL     OW34489   4.101   3.832   3.509 -0.4122  0.0542 -0.2535
 7619SOL    HW134490   4.047   3.879   3.444 -1.0911  0.6058  0.7066
 7619SOL    HW234491   4.069   3.867   3.592 -1.7837 -2.1906  0.1557
 7620SOL     OW34492   0.394   1.231   7.449 -0.3102  0.3235 -0.0787
 7620SOL    HW134493   0.414   1.239   7.542 -0.9801  0.1366  0.0771
 7620SOL    HW234494   0.362   1.318   7.424 -1.1997  0.2336  0.7528
 7621SOL     OW34495   0.473   4.661   8.665 -0.0343 -0.0930  0.2374
 7621SOL    HW134496   0.388   4.639   8.704  0.8244 -3.4548  0.2295
 7621SOL    HW234497   0.491   0.016   8.690  0.1116 -0.1910  0.4876
 7622SOL     OW34498   4.062   4.027   9.814  0.4805  0.1360 -0.2412
 7622SOL    HW134499   4.077   3.999   9.724  0.1680  0.4395 -0.3839
 7622SOL    HW234500   3.986   4.082   9.796 -0.1575 -0.6995 -0.0728
 7623SOL     OW34501   4.693   4.613   4.784 -0.0518 -0.3572 -0.0871
 7623SOL    HW134502   4.602   4.597   4.759  0.0420 -2.2487  0.8331
 7623SOL    HW234503   4.693   4.674   4.858  0.1909 -1.5517  0.8889
 7624SOL     OW34504   2.804   3.752  16.296  0.2877 -0.2779  0.3934
 7624SOL    HW134505   2.779   3.697  16.221  0.0980  2.8277 -1.8307
 7624SOL    HW234506   2.896   3.728  16.304 -0.0529 -1.3168  1.0839
 7625SOL     OW34507   1.695   4.612   8.319 -0.3400  0.7607  0.6115
 7625SOL    HW134508   1.778   4.593   8.362  0.5517  1.0940 -0.9542
 7625SOL    HW234509   1.639   4.620   8.397 -0.1637 -0.9400  0.9013
 7626SOL     OW34510   3.424   0.755   1.167  0.2295 -0.1255  0.6635
 7626SOL    HW134511   3.370   0.832   1.183  1.2177  0.7680 -0.3313
 7626SOL    HW234512   3.422   0.740   1.072 -0.6566  0.8230  0.5347
 7627SOL     OW34513   1.462   4.411   3.425 -0.6457  0.0160  0.8515
 7627SOL    HW134514   1.513   4.433   3.504 -1.0128 -2.4369  1.7635
 7627SOL    HW234515   1.424   4.329   3.456 -1.1824  0.1272  0.4855
 7628SOL     OW34516   3.558   0.700   3.413  0.6230 -0.0372  0.2619
 7628SOL    HW134517   3.566   0.611   3.380  0.5523  0.8005 -1.9758
 7628SOL    HW234518   3.649   0.728   3.424  0.3999  1.7833 -2.4717
 7629SOL     OW34519   2.258   0.820   6.064  0.1550 -0.9071 -0.1976
 7629SOL    HW134520   2.337   0.823   6.117 -0.2838  0.3451  0.3780
 7629SOL    HW234521   2.259   0.912   6.039  3.6311 -0.8870  0.0440
 7630SOL     OW34522   3.539   0.840  10.155 -0.7561  0.2962  0.7599
 7630SOL    HW134523   3.491   0.826  10.073 -1.2448  0.2612  1.0465
 7630SOL    HW234524   3.566   0.755  10.191 -3.8567 -0.2341  1.9224
 7631SOL     OW34525   1.786   3.319   5.391 -0.1364 -0.0375  0.0969
 7631SOL    HW134526   1.795   3.227   5.365 -0.1743 -0.3691  1.2318
 7631SOL    HW234527   1.801   3.306   5.485 -0.4168  1.1686  0.3086
 7632SOL     OW34528   0.299   1.899   5.071  0.5571 -0.5871 -0.5957
 7632SOL    HW134529   0.390   1.870   5.074  0.4707 -0.5977  1.5246
 7632SOL    HW234530   0.261   1.841   5.005 -3.7931  0.8226  0.6463
 7633SOL     OW34531   4.217   0.142  15.185  0.3569 -0.1867  0.1705
 7633SOL    HW134532   4.164   0.095  15.121 -0.3448 -0.4454  0.9393
 7633SOL    HW234533   4.275   0.180  15.120 -1.0586 -0.3210 -1.1654
 7634SOL     OW34534   3.697   2.527  14.889  0.4574  0.5108 -0.2348
 7634SOL    HW134535   3.643   2.602  14.915 -1.1398 -1.1529  1.2922
 7634SOL    HW234536   3.684   2.530  14.795 -0.6238 -1.3365 -0.1526
 7635SOL     OW34537   1.096   3.354   7.573  0.0594  0.3709 -0.1166
 7635SOL    HW134538   1.111   3.396   7.489  1.9759  0.2115  0.1287
 7635SOL    HW234539   1.093   3.429   7.632 -3.2696 -1.7354  2.4167
 7636SOL     OW34540   4.477   3.784   0.786  0.4471 -0.7347  0.1481
 7636SOL    HW134541   4.522   3.795   0.870  1.5571  4.7780 -1.1172
 7636SOL    HW234542   4.547   3.752   0.729  0.8041  0.2785  0.0082
 7637SOL     OW34543   2.199   1.972   4.551 -0.0605  0.6638  0.2819
 7637SOL    HW134544   2.195   2.020   4.468  0.5880 -0.7964 -0.5938
 7637SOL    HW234545   2.149   1.891   4.545  1.5109 -0.3003  0.1710
 7638SOL     OW34546   1.177   1.161   6.540 -0.2056  0.2911 -0.4423
 7638SOL    HW134547   1.200   1.075   6.574  0.6740  0.0383 -1.6910
 7638SOL    HW234548   1.258   1.211   6.530  0.6447 -0.9261  0.4082
 7639SOL     OW34549   0.978   1.464   5.191 -0.2931  1.0190 -0.5515
 7639SOL    HW134550   0.883   1.476   5.195 -0.4437 -0.0338 -0.8236
 7639SOL    HW234551   0.980   1.393   5.255  2.8671  3.0530  1.6361
 7640SOL     OW34552   0.778   3.275   0.875 -0.4715 -0.1122  0.5743
 7640SOL    HW134553   0.720   3.319   0.936 -1.3424 -1.5704  0.8066
 7640SOL    HW234554   0.830   3.215   0.928  1.0784  0.7058 -0.0132
 7641SOL     OW34555   1.649   0.162   2.958  0.4471  0.6239  0.0839
 7641SOL    HW134556   1.581   0.224   2.930 -0.5898 -0.1775  0.8392
 7641SOL    HW234557   1.660   0.107   2.880 -0.4963  1.1383 -0.4137
 7642SOL     OW34558   3.176   2.595   5.821  0.1838  0.3328  0.3789
 7642SOL    HW134559   3.269   2.618   5.821  0.2121  0.2088 -0.2563
 7642SOL    HW234560   3.139   2.660   5.762  0.0290 -0.8733 -0.8484
 7643SOL     OW34561   3.214   3.514   2.919  0.3891 -0.5433  0.5181
 7643SOL    HW134562   3.204   3.427   2.958  2.6172 -1.9770 -2.1781
 7643SOL    HW234563   3.130   3.548   2.950 -0.2921  0.0104 -1.9349
 7644SOL     OW34564   4.485   4.429   3.436 -0.4125 -0.0422  0.0078
 7644SOL    HW134565   4.424   4.384   3.494  1.2574 -0.0066  1.7783
 7644SOL    HW234566   4.445   4.516   3.436 -0.0326  0.1291 -1.7388
 7645SOL     OW34567   0.205   0.494  13.564 -0.3453 -0.3320  0.0601
 7645SOL    HW134568   0.189   0.425  13.628  1.9502 -0.2713  0.6645
 7645SOL    HW234569   0.285   0.456  13.529  0.1225 -1.0679  1.9775
 7646SOL     OW34570   0.700   3.418   3.066  0.1294  0.3336  0.4249
 7646SOL    HW134571   0.715   3.434   3.159 -1.7262 -2.9237  1.2768
 7646SOL    HW234572   0.773   3.470   3.032 -1.1896  1.6182 -0.4687
 7647SOL     OW34573   4.614   3.363  17.541 -0.0828  0.8072 -0.2431
 7647SOL    HW134574   4.627   3.268  17.543  0.1838  0.8448 -0.2399
 7647SOL    HW234575   4.529   3.368  17.496 -1.9960 -3.2590  2.9027
 7648SOL     OW34576   0.540   2.055   6.019  0.0828 -0.6755  0.1466
 7648SOL    HW134577   0.479   2.096   6.080 -0.5137  0.4070 -1.1568
 7648SOL    HW234578   0.579   2.133   5.978  0.4863 -1.5021 -1.0659
 7649SOL     OW34579   1.941   2.868   8.200 -0.3330  0.0090  0.5271
 7649SOL    HW134580   1.853   2.898   8.176  0.6031 -0.0423 -2.8373
 7649SOL    HW234581   1.952   2.797   8.137 -1.3939  0.5907 -0.3174
 7650SOL     OW34582   0.786   1.422   2.792  0.0874 -0.0573 -0.1807
 7650SOL    HW134583   0.836   1.430   2.711  1.1147  0.2180  0.4751
 7650SOL    HW234584   0.831   1.345   2.829  2.2575  1.2216 -0.1724
 7651SOL     OW34585   0.240   1.716   6.335 -0.5643  0.5730 -0.0077
 7651SOL    HW134586   0.177   1.719   6.407 -0.1627 -1.1599  0.3972
 7651SOL    HW234587   0.284   1.631   6.340 -2.0360 -0.1188  1.2639
 7652SOL     OW34588   0.801   1.266   6.261 -0.6648 -0.1414  0.3007
 7652SOL    HW134589   0.823   1.256   6.168 -0.8129 -2.7939  0.5644
 7652SOL    HW234590   0.764   1.355   6.265  0.6699  0.4542 -0.5352
 7653SOL     OW34591   2.078   0.403   7.654  0.5483 -0.2570  0.2855
 7653SOL    HW134592   2.152   0.462   7.670  1.9976 -2.0350  0.1856
 7653SOL    HW234593   2.131   0.327   7.632 -1.0207 -0.9999 -0.8876
 7654SOL     OW34594   1.993   4.349   6.544  1.0559  0.3709 -0.2524
 7654SOL    HW134595   2.040   4.290   6.603  1.5703 -0.0181 -1.0431
 7654SOL    HW234596   2.045   4.331   6.466 -0.5843  1.5918 -1.6315
 7655SOL     OW34597   3.204   2.291   7.141  0.0660  0.1003  0.4529
 7655SOL    HW134598   3.226   2.329   7.226  2.4475 -1.8840  0.7298
 7655SOL    HW234599   3.237   2.353   7.076  1.4585 -1.3410 -0.2281
 7656SOL     OW34600   3.555   4.510   6.350  0.1566 -0.2682  0.2326
 7656SOL    HW134601   3.538   4.423   6.387  0.1862 -0.7265 -0.8203
 7656SOL    HW234602   3.570   4.567   6.425 -0.7790 -1.5781  1.4137
 7657SOL     OW34603   4.347   2.869   6.226  0.2054 -0.3755 -0.0656
 7657SOL    HW134604   4.442   2.867   6.220  0.2933  2.8320  0.1676
 7657SOL    HW234605   4.320   2.854   6.317 -1.2916 -1.8963 -0.7615
 7658SOL     OW34606   0.044   2.871  13.010  0.0136  0.0431 -0.0033
 7658SOL    HW134607   4.728   2.815  12.951  0.4758  1.6478 -1.9299
 7658SOL    HW234608   4.709   2.899  13.069  0.9757  0.7742  0.7817
 7659SOL     OW34609   3.572   3.745   9.902 -0.3687 -0.1932 -0.9752
 7659SOL    HW134610   3.556   3.819   9.844 -2.8081  1.3113  1.6337
 7659SOL    HW234611   3.598   3.783   9.985 -2.3108  1.9045 -1.3439
 7660SOL     OW34612   0.115   3.517   3.387  0.4026  0.0678  0.0874
 7660SOL    HW134613   0.054   3.590   3.394  2.9520  2.1449  0.5249
 7660SOL    HW234614   0.119   3.502   3.481  1.4344  1.9015  0.3206
 7661SOL     OW34615   2.131   4.000   5.388 -0.2573 -0.3505  0.0798
 7661SOL    HW134616   2.046   3.957   5.403  0.6655 -2.2793 -0.1972
 7661SOL    HW234617   2.169   3.954   5.314 -0.9085  2.5305 -2.0240
 7662SOL     OW34618   3.295   2.678   4.177  0.3341 -0.4663 -0.5173
 7662SOL    HW134619   3.269   2.588   4.194 -1.7315  0.0932 -0.7252
 7662SOL    HW234620   3.228   2.716   4.121 -2.5517 -2.3445  1.7039
 7663SOL     OW34621   4.140   0.910   8.302  0.0744 -0.4823  0.0734
 7663SOL    HW134622   4.102   0.822   8.305 -0.9301 -0.0727 -0.6009
 7663SOL    HW234623   4.161   0.921   8.209 -0.7019  0.1020 -0.0356
 7664SOL     OW34624   4.270   3.975   1.817  0.3276 -0.2103  0.0423
 7664SOL    HW134625   4.332   4.018   1.758 -0.0713  1.7927  1.0843
 7664SOL    HW234626   4.247   3.895   1.771  2.8477 -0.4543 -0.7692
 7665SOL     OW34627   0.126   0.508  12.197 -1.0882 -0.4053 -0.0395
 7665SOL    HW134628   0.114   0.413  12.208 -2.0119 -0.3505 -0.5555
 7665SOL    HW234629   0.148   0.513  12.104  2.7313  0.1052  0.9049
 7666SOL     OW34630   4.005   1.361  10.850 -0.4772  0.6111  0.1042
 7666SOL    HW134631   3.970   1.450  10.848 -0.7968  0.4856 -0.0114
 7666SOL    HW234632   4.100   1.368  10.843 -0.5471  0.1645 -1.5226
 7667SOL     OW34633   0.529   2.132   3.225 -0.6600  0.2047 -0.1657
 7667SOL    HW134634   0.598   2.153   3.162 -2.9638  1.8626 -2.1107
 7667SOL    HW234635   0.450   2.169   3.186 -0.9436 -2.3423 -2.0005
 7668SOL     OW34636   2.663   0.101   0.648 -0.6278  0.2296  0.3594
 7668SOL    HW134637   2.595   0.153   0.692  0.8551  3.3132 -1.0146
 7668SOL    HW234638   2.605   0.067   0.580  0.3511 -0.4861 -0.1169
 7669SOL     OW34639   2.467   0.838   4.227 -0.2528 -0.1184 -0.0215
 7669SOL    HW134640   2.374   0.822   4.212  0.0455 -1.8807  0.0273
 7669SOL    HW234641   2.490   0.881   4.144 -0.4450 -0.4117 -0.2303
 7670SOL     OW34642   0.305   2.024   0.878 -1.1230  0.2282 -0.0732
 7670SOL    HW134643   0.345   1.951   0.925 -0.6179  0.3176 -0.3630
 7670SOL    HW234644   0.213   1.999   0.891 -0.7788 -0.2999  1.2958
 7671SOL     OW34645   1.220   2.483  13.794 -0.3570 -0.3259  0.0247
 7671SOL    HW134646   1.249   2.550  13.732 -1.6028  0.7640  0.6310
 7671SOL    HW234647   1.174   2.419  13.738  0.6477 -1.8425  0.9428
 7672SOL     OW34648   2.769   1.982   6.708  0.4023 -0.3422 -0.8662
 7672SOL    HW134649   2.824   1.988   6.787  1.7895  1.8022 -2.0022
 7672SOL    HW234650   2.694   1.936   6.746  1.4584 -0.0528  1.5603
 7673SOL     OW34651   3.893   3.964   6.124 -0.3407  0.6918 -0.4642
 7673SOL    HW134652   3.852   4.017   6.056  0.5218 -1.7365 -2.8839
 7673SOL    HW234653   3.982   3.946   6.093 -0.6641  1.6676 -1.9497
 7674SOL     OW34654   3.336   0.605  13.862 -0.5799  0.3038 -0.4802
 7674SOL    HW134655   3.409   0.568  13.911 -0.5851 -0.4088 -1.0101
 7674SOL    HW234656   3.260   0.599  13.919 -0.3397  0.3381 -0.1578
 7675SOL     OW34657   3.861   0.111  13.959 -0.4418 -0.4701 -0.2343
 7675SOL    HW134658   3.902   0.108  14.045 -0.6450 -0.8062 -0.1494
 7675SOL    HW234659   3.937   0.088  13.906  0.1284  0.7484  0.0493
 7676SOL     OW34660   3.098   3.061  11.729 -0.4296 -0.0683  0.1992
 7676SOL    HW134661   3.038   3.034  11.799  0.4317  0.8815  1.3017
 7676SOL    HW234662   3.044   3.122  11.678  0.4572  1.7551  1.4599
 7677SOL     OW34663   4.730   4.447   5.081  0.0777  0.3613 -0.5297
 7677SOL    HW134664   4.714   4.537   5.054 -1.7934  0.3029  0.3530
 7677SOL    HW234665   4.718   4.398   5.000 -0.2653 -2.8330  1.4288
 7678SOL     OW34666   1.258   1.724   6.092  0.1487 -0.3398 -0.4226
 7678SOL    HW134667   1.258   1.814   6.124 -4.6477 -0.4687  0.0201
 7678SOL    HW234668   1.167   1.721   6.061  0.5918  2.7910 -2.0081
 7679SOL     OW34669   2.446   1.148   3.172  0.2726  0.5714 -0.4624
 7679SOL    HW134670   2.393   1.081   3.214  0.7696  1.2315  1.2367
 7679SOL    HW234671   2.523   1.138   3.228  0.6238  1.3749 -0.7917
 7680SOL     OW34672   1.440   0.007  11.803 -0.1903  0.0559 -0.0508
 7680SOL    HW134673   1.355   4.704  11.778 -0.1217 -0.2946  0.2374
 7680SOL    HW234674   1.432   0.020  11.897 -0.0552  0.5586 -0.1131
 7681SOL     OW34675   1.743   3.050  17.032 -0.3974  1.0764  0.3002
 7681SOL    HW134676   1.822   3.077  16.984  0.4076  1.1303  1.6464
 7681SOL    HW234677   1.781   2.991  17.097 -1.3910  1.0697  0.8662
 7682SOL     OW34678   1.506   4.416   6.573  0.3475  0.4959  0.8774
 7682SOL    HW134679   1.543   4.343   6.524 -2.0429 -0.0831 -0.0522
 7682SOL    HW234680   1.487   4.373   6.656 -0.5417 -0.9112 -0.0604
 7683SOL     OW34681   1.970   0.614   5.518 -0.1572  0.2089 -0.1023
 7683SOL    HW134682   1.935   0.698   5.548 -0.9888 -0.2020  0.0898
 7683SOL    HW234683   2.049   0.644   5.472  1.5540 -2.0462  1.3492
 7684SOL     OW34684   2.597   3.816   4.138 -0.8061 -0.6078  0.0544
 7684SOL    HW134685   2.551   3.891   4.101  0.8956  0.6133  0.4069
 7684SOL    HW234686   2.655   3.851   4.205 -0.4841 -0.9402 -0.0477
 7685SOL     OW34687   1.446   3.807   8.460 -0.3325  0.0323  0.2339
 7685SOL    HW134688   1.485   3.761   8.385  1.0254  2.4097 -0.5232
 7685SOL    HW234689   1.356   3.775   8.451 -0.5944  1.2273 -1.4135
 7686SOL     OW34690   2.399   4.199   8.050 -0.4930 -0.0923  0.0312
 7686SOL    HW134691   2.353   4.262   8.105  1.5672 -0.8970  2.7074
 7686SOL    HW234692   2.476   4.256   8.045  0.9875 -2.0167  0.5616
 7687SOL     OW34693   0.364   1.611  12.221 -0.5085 -0.3239  0.0449
 7687SOL    HW134694   0.328   1.652  12.300 -0.5607  2.0569 -1.2158
 7687SOL    HW234695   0.366   1.517  12.240 -0.3750 -0.2571  0.3583
 7688SOL     OW34696   0.372   2.784   7.406 -0.1805  0.1097 -0.1549
 7688SOL    HW134697   0.304   2.851   7.411  0.5561  0.9589 -1.4712
 7688SOL    HW234698   0.419   2.801   7.488 -0.0165  0.3521 -0.2967
 7689SOL     OW34699   4.269   2.833   3.852  0.5441 -0.1459 -0.4731
 7689SOL    HW134700   4.287   2.852   3.944  1.5910  0.3962 -0.7854
 7689SOL    HW234701   4.179   2.802   3.856  0.9411 -1.1631  0.6340
 7690SOL     OW34702   2.097   2.595   4.648 -0.3407  0.7618  0.0919
 7690SOL    HW134703   2.036   2.569   4.579 -0.1772  2.4389 -0.6678
 7690SOL    HW234704   2.162   2.528   4.625 -1.1508  0.3699 -1.0445
 7691SOL     OW34705   1.883   4.054   9.291  0.6244  0.4030 -0.0654
 7691SOL    HW134706   1.792   4.051   9.320  1.2825 -1.1523  1.8476
 7691SOL    HW234707   1.892   3.971   9.244  0.1017  0.3997 -0.1531
 7692SOL     OW34708   0.888   2.144   7.294  0.9364  1.2630  0.0955
 7692SOL    HW134709   0.824   2.192   7.347  0.3400 -0.9502  1.3559
 7692SOL    HW234710   0.968   2.161   7.343 -0.2413  1.7241  1.8655
 7693SOL     OW34711   1.131   3.041   8.744 -0.0385  0.1875 -0.0830
 7693SOL    HW134712   1.055   2.983   8.739  0.3991 -0.3876 -0.0248
 7693SOL    HW234713   1.129   3.087   8.660 -1.7789  0.1195 -0.0901
 7694SOL     OW34714   1.205   1.714   6.468  0.5208  0.0511 -0.2491
 7694SOL    HW134715   1.131   1.654   6.459  0.0907  0.5217  0.1751
 7694SOL    HW234716   1.179   1.792   6.419  1.1629  0.4683  0.0839
 7695SOL     OW34717   2.296   0.338  12.907 -0.4907 -0.4571  0.2094
 7695SOL    HW134718   2.259   0.389  12.834 -1.4855 -1.0874  0.2775
 7695SOL    HW234719   2.215   0.310  12.949  0.5517 -2.3531  0.9268
 7696SOL     OW34720   1.306   3.022  14.601 -0.1794  0.0477  0.3847
 7696SOL    HW134721   1.393   3.043  14.565  0.5383  2.1737  3.3869
 7696SOL    HW234722   1.283   2.936  14.565  1.2409 -0.2165  0.0779
 7697SOL     OW34723   4.724   2.426   7.707 -0.0423  0.3591  0.2445
 7697SOL    HW134724   4.672   2.402   7.784 -1.8526 -1.2575 -1.4943
 7697SOL    HW234725   4.660   2.454   7.643  1.1384  1.9123 -0.2528
 7698SOL     OW34726   2.679   0.311  13.625  0.3931 -0.3011  0.0536
 7698SOL    HW134727   2.595   0.286  13.663 -0.5441  2.7606 -0.0034
 7698SOL    HW234728   2.672   0.276  13.536  0.2799 -0.4707  0.1277
 7699SOL     OW34729   3.233   3.866   1.382  0.2171  0.1651 -0.4855
 7699SOL    HW134730   3.173   3.923   1.430  0.4998 -1.4575  1.8488
 7699SOL    HW234731   3.276   3.828   1.459 -0.2682 -0.1590 -0.3785
 7700SOL     OW34732   3.484   3.002  16.222 -1.0945  0.4006  0.2153
 7700SOL    HW134733   3.459   2.910  16.228  0.5009  0.0593  1.6076
 7700SOL    HW234734   3.529   3.003  16.137  0.4588 -1.8691  1.0065
 7701SOL     OW34735   4.387   4.174  10.902  0.0304  0.0080  0.0301
 7701SOL    HW134736   4.417   4.119  10.975  1.0936  0.4542 -0.0655
 7701SOL    HW234737   4.306   4.210  10.939  0.9787 -0.2950  2.3794
 7702SOL     OW34738   1.053   2.191  11.314  0.2478 -0.6133  0.2459
 7702SOL    HW134739   1.083   2.106  11.280  0.0509 -0.1076 -1.1628
 7702SOL    HW234740   0.970   2.168  11.356  0.5172 -0.1672  1.0366
 7703SOL     OW34741   0.173   2.502   7.506  0.3278  0.2200 -0.4861
 7703SOL    HW134742   0.121   2.479   7.583  0.7995  2.9307  0.6518
 7703SOL    HW234743   0.132   2.584   7.477 -2.4331 -1.0945 -0.3050
 7704SOL     OW34744   0.289   0.579   4.141 -0.2405  0.0891  0.6604
 7704SOL    HW134745   0.369   0.562   4.191 -0.6287 -2.5897  0.3500
 7704SOL    HW234746   0.307   0.513   4.075 -2.5817 -1.7779  1.8759
 7705SOL     OW34747   4.699   1.397  16.099  0.1635 -0.2713  0.1022
 7705SOL    HW134748   0.024   1.464  16.067 -0.9390  0.8744  0.4370
 7705SOL    HW234749   4.691   1.421  16.191 -1.1157  0.2964 -0.1475
 7706SOL     OW34750   3.637   4.013   1.658 -0.1630 -0.1871 -0.2770
 7706SOL    HW134751   3.634   3.924   1.694  0.0972 -0.2238 -0.3478
 7706SOL    HW234752   3.608   4.050   1.741  0.3788  0.0875 -0.2068
 7707SOL     OW34753   1.266   2.932   7.095 -0.9708  0.3080  0.5533
 7707SOL    HW134754   1.178   2.894   7.090 -1.1533  1.0146 -1.7376
 7707SOL    HW234755   1.310   2.850   7.116  1.9423  2.4803  2.6965
 7708SOL     OW34756   3.233   2.498  16.658  0.1590 -0.2141 -0.4907
 7708SOL    HW134757   3.138   2.500  16.655  0.1013  0.7167  1.5230
 7708SOL    HW234758   3.250   2.479  16.751  1.0821  0.3000 -0.5545
 7709SOL     OW34759   1.269   0.283  10.706  0.8678 -0.0833  0.3325
 7709SOL    HW134760   1.337   0.305  10.641  0.6774 -1.6483 -0.4036
 7709SOL    HW234761   1.186   0.281  10.658  1.1742  1.9973 -0.3174
 7710SOL     OW34762   0.149   0.841   7.809 -0.2331  0.0932 -0.1615
 7710SOL    HW134763   0.122   0.804   7.893  1.2222 -1.3916 -0.3483
 7710SOL    HW234764   0.081   0.906   7.793  0.6082  0.6578 -1.4223
 7711SOL     OW34765   0.875   3.342   7.823 -0.1617  0.0415  0.7017
 7711SOL    HW134766   0.947   3.297   7.866 -0.7425  0.1162  1.7591
 7711SOL    HW234767   0.915   3.368   7.740  1.3096 -0.8473  1.1373
 7712SOL     OW34768   2.684   2.039  10.576 -0.1986  0.2655 -0.5727
 7712SOL    HW134769   2.595   2.060  10.604  1.0633 -0.3556  3.8171
 7712SOL    HW234770   2.718   2.005  10.658 -1.5252  1.0537  0.2968
 7713SOL     OW34771   1.368   4.403   8.212  0.1891  0.1800 -0.3112
 7713SOL    HW134772   1.279   4.439   8.212  1.1477  2.5167  0.3988
 7713SOL    HW234773   1.350   4.337   8.278 -0.8841 -0.1488 -0.9247
 7714SOL     OW34774   0.328   0.410   6.397  0.2454 -0.0294  0.0515
 7714SOL    HW134775   0.357   0.387   6.485 -1.5286  0.5797  0.7953
 7714SOL    HW234776   0.341   0.330   6.347  2.5510  0.0495  0.5161
 7715SOL     OW34777   0.392   0.269  13.647 -0.1172  0.3350 -0.0089
 7715SOL    HW134778   0.390   0.191  13.591  4.1230  1.4328 -1.6486
 7715SOL    HW234779   0.308   0.251  13.690  0.0226  1.8729  0.9123
 7716SOL     OW34780   3.081   2.690  17.494 -0.1302  0.4110  0.1192
 7716SOL    HW134781   3.135   2.611  17.497 -1.1912 -0.2673  1.5338
 7716SOL    HW234782   3.153   2.751  17.510  0.9452 -0.8375  0.0028
 7717SOL     OW34783   2.211   0.475   9.326 -0.5433 -0.2223  0.2639
 7717SOL    HW134784   2.242   0.549   9.378 -2.0725 -0.1717  1.0859
 7717SOL    HW234785   2.279   0.473   9.258  0.4412 -0.5393  1.2472
 7718SOL     OW34786   1.322   0.533   2.178 -0.2976 -0.2024 -0.0107
 7718SOL    HW134787   1.378   0.604   2.210 -0.8955  0.3622 -0.2401
 7718SOL    HW234788   1.352   0.520   2.088  1.5299  0.4209  0.5117
 7719SOL     OW34789   2.339   1.815   6.285  0.0444  0.4804 -0.0131
 7719SOL    HW134790   2.301   1.739   6.329  0.3044  0.3361 -0.0364
 7719SOL    HW234791   2.302   1.810   6.197 -0.6212 -1.6938  0.3876
 7720SOL     OW34792   0.886   2.709  17.406  0.4468 -0.2827  0.0812
 7720SOL    HW134793   0.890   2.639  17.341  1.9551  0.2397 -0.4002
 7720SOL    HW234794   0.913   2.660  17.484  0.3220  0.9774  0.9085
 7721SOL     OW34795   0.592   1.303   0.720  0.4177  0.2885  0.4775
 7721SOL    HW134796   0.647   1.234   0.755  0.1810 -0.0146  0.2467
 7721SOL    HW234797   0.523   1.300   0.787  0.0768  0.3328  0.1302
 7722SOL     OW34798   4.087   0.655   9.649  0.0612  0.0982  0.3723
 7722SOL    HW134799   4.102   0.742   9.688 -1.0695  0.5795 -0.2484
 7722SOL    HW234800   3.996   0.654   9.621  0.6882 -1.4586 -1.6261
 7723SOL     OW34801   0.841   3.657   3.890  0.2133  0.2220 -0.4548
 7723SOL    HW134802   0.768   3.646   3.951  0.9706 -0.8376  0.2480
 7723SOL    HW234803   0.794   3.664   3.807  1.0607  2.5123 -0.7502
 7724SOL     OW34804   2.563   1.946   6.319  0.6434  0.0948  0.2185
 7724SOL    HW134805   2.606   1.863   6.297 -0.3558 -1.0110  2.3604
 7724SOL    HW234806   2.474   1.911   6.315  1.3559 -1.6178 -0.6857
 7725SOL     OW34807   3.920   3.888  13.168 -0.4441  0.4387 -0.0925
 7725SOL    HW134808   3.983   3.906  13.098  0.2821  2.0351  0.9951
 7725SOL    HW234809   3.843   3.937  13.141 -0.0419  0.0612 -1.9576
 7726SOL     OW34810   2.203   4.369   8.153  0.3403 -0.1338 -0.1316
 7726SOL    HW134811   2.161   4.317   8.085 -1.0774  1.2388 -0.3135
 7726SOL    HW234812   2.129   4.409   8.200 -0.3298  0.2768 -1.5263
 7727SOL     OW34813   3.845   3.602  11.763  0.3678 -0.0762  0.3350
 7727SOL    HW134814   3.915   3.667  11.767  1.0609 -0.7974 -0.1195
 7727SOL    HW234815   3.842   3.592  11.667  1.3958  0.4868  0.2421
 7728SOL     OW34816   1.213   2.001   8.926 -0.0460 -0.5862  0.5316
 7728SOL    HW134817   1.118   2.009   8.926  0.0485  0.4254 -1.6243
 7728SOL    HW234818   1.218   1.999   8.831  1.3605 -0.0438  0.5943
 7729SOL     OW34819   3.765   2.278  10.352  0.2693 -0.6613  0.2048
 7729SOL    HW134820   3.716   2.345  10.305  0.0419 -1.7021 -1.0284
 7729SOL    HW234821   3.775   2.328  10.433  0.4083 -0.1750 -0.1135
 7730SOL     OW34822   1.487   4.033   8.308  0.0394  0.6108  0.7984
 7730SOL    HW134823   1.581   4.050   8.309  0.3776 -1.1727  0.2081
 7730SOL    HW234824   1.479   3.951   8.357  0.0238 -1.3177 -2.4237
 7731SOL     OW34825   3.558   1.464  16.398  0.1097 -0.1871 -0.2822
 7731SOL    HW134826   3.510   1.383  16.411 -2.2887  1.2537 -0.1371
 7731SOL    HW234827   3.557   1.509  16.483 -0.1419 -1.1633  0.2313
 7732SOL     OW34828   2.820   0.641   7.222 -0.3841  0.2564 -0.9320
 7732SOL    HW134829   2.850   0.559   7.181 -0.5942  0.2487 -1.0686
 7732SOL    HW234830   2.907   0.676   7.243  0.2739 -1.8773 -0.0865
 7733SOL     OW34831   1.014   1.577  13.352  0.2786  0.3572  0.3925
 7733SOL    HW134832   0.943   1.630  13.387 -0.2823 -0.4886  0.5360
 7733SOL    HW234833   1.037   1.532  13.433 -2.0564  0.0715  0.8791
 7734SOL     OW34834   0.353   1.956   0.608  0.9439  0.5767 -0.4196
 7734SOL    HW134835   0.366   1.862   0.624 -1.6389  0.2247 -0.4175
 7734SOL    HW234836   0.341   1.989   0.697  1.4928  1.2936 -0.6125
 7735SOL     OW34837   1.812   3.125   8.695 -0.0475 -0.1379 -0.5200
 7735SOL    HW134838   1.823   3.062   8.766  0.8494 -2.3550 -2.6645
 7735SOL    HW234839   1.732   3.174   8.716  1.0392  1.9444 -1.1849
 7736SOL     OW34840   2.493   0.553   4.808  0.0494 -0.0774  0.2187
 7736SOL    HW134841   2.401   0.581   4.798  0.1977  0.0892 -0.6598
 7736SOL    HW234842   2.495   0.539   4.903  4.5975 -2.2909 -0.2022
 7737SOL     OW34843   4.488   4.030  11.112 -0.2382  0.5849  0.1179
 7737SOL    HW134844   4.567   3.984  11.085 -0.7128  1.0448 -2.0450
 7737SOL    HW234845   4.443   3.951  11.140 -0.3783  0.7143  0.2631
 7738SOL     OW34846   2.230   3.017   9.258 -0.2047 -0.1442 -0.7025
 7738SOL    HW134847   2.249   3.108   9.278 -1.0392  0.0017 -0.6008
 7738SOL    HW234848   2.312   2.980   9.223 -1.0260 -0.7932 -1.9435
 7739SOL     OW34849   4.142   2.062   6.854 -0.2710  0.1735  0.2342
 7739SOL    HW134850   4.132   1.981   6.903 -2.7192 -0.3126 -1.0739
 7739SOL    HW234851   4.053   2.064   6.820 -0.4817 -1.9527  0.6840
 7740SOL     OW34852   4.281   3.273  12.411  0.4610 -0.0957 -0.1740
 7740SOL    HW134853   4.272   3.368  12.417 -2.5480 -0.3361 -0.7135
 7740SOL    HW234854   4.301   3.256  12.503  2.2781  0.9805 -0.3769
 7741SOL     OW34855   2.647   1.981  13.466 -0.5574 -0.8523  0.1598
 7741SOL    HW134856   2.581   1.913  13.481 -2.8154  0.7853 -2.3024
 7741SOL    HW234857   2.703   1.967  13.542  0.5472  4.9238  0.4149
 7742SOL     OW34858   1.211   3.836   0.381 -0.2126  0.7540 -0.3558
 7742SOL    HW134859   1.140   3.871   0.434 -1.6498 -1.9406 -0.5257
 7742SOL    HW234860   1.278   3.808   0.444  1.6836 -0.1172 -2.7446
 7743SOL     OW34861   1.085   0.767   2.709 -0.4110  0.1636  0.3852
 7743SOL    HW134862   1.069   0.839   2.649  0.6689  2.2684  2.6014
 7743SOL    HW234863   1.084   0.821   2.789  0.0252  0.5630  0.1191
 7744SOL     OW34864   4.455   3.523   8.584 -0.2198 -0.5632  0.3203
 7744SOL    HW134865   4.449   3.608   8.541  1.9787 -0.0803  0.9680
 7744SOL    HW234866   4.371   3.488   8.556  0.0792 -0.6783 -0.4157
 7745SOL     OW34867   1.851   1.716   8.526 -0.8605 -0.0923  0.2815
 7745SOL    HW134868   1.915   1.758   8.468 -1.7589  0.0606 -0.6091
 7745SOL    HW234869   1.857   1.631   8.483 -1.7059 -0.6340  1.2457
 7746SOL     OW34870   3.921   1.097   7.535 -0.4996  0.6199 -0.1681
 7746SOL    HW134871   4.015   1.113   7.541 -0.4285 -0.8240  2.9797
 7746SOL    HW234872   3.923   1.001   7.532 -0.4551  0.6004  0.4485
 7747SOL     OW34873   0.111   1.150   7.375 -0.3727 -0.7625 -0.1561
 7747SOL    HW134874   0.061   1.068   7.370  0.4378 -1.2159 -0.7863
 7747SOL    HW234875   0.158   1.143   7.458 -0.4771 -0.0391 -0.0384
 7748SOL     OW34876   4.661   4.249  17.092  0.1149  0.0955 -0.4011
 7748SOL    HW134877   4.656   4.321  17.029  0.6005 -2.2248 -3.1199
 7748SOL    HW234878   4.651   4.299  17.172 -0.1579  2.0744 -1.6785
 7749SOL     OW34879   4.524   0.434  10.676  0.5704  0.1693 -0.4403
 7749SOL    HW134880   4.489   0.516  10.713 -1.9004 -0.8226 -0.5856
 7749SOL    HW234881   4.529   0.441  10.581 -2.0769 -0.7538 -0.6509
 7750SOL     OW34882   3.655   0.938   9.338 -0.3565 -1.1635 -0.2352
 7750SOL    HW134883   3.743   0.900   9.348 -0.7096 -1.3647  2.0008
 7750SOL    HW234884   3.613   0.878   9.400  1.1579  0.8614  2.7338
 7751SOL     OW34885   2.573   0.633   1.925 -0.1809 -0.0879 -0.6029
 7751SOL    HW134886   2.592   0.543   1.899 -1.1770 -0.4744 -0.0228
 7751SOL    HW234887   2.568   0.627   2.021  3.2345 -0.4458 -0.4561
 7752SOL     OW34888   3.815   4.445  12.249 -0.2815  0.6722 -0.1885
 7752SOL    HW134889   3.722   4.423  12.239  0.4148 -1.8711 -1.2233
 7752SOL    HW234890   3.828   4.502  12.325 -1.3411  0.1221  0.4166
 7753SOL     OW34891   2.909   2.032   6.458  0.8255 -0.6598 -0.3436
 7753SOL    HW134892   2.856   2.015   6.536 -0.1667  0.3236 -0.8054
 7753SOL    HW234893   2.934   2.123   6.474 -1.5707 -0.0224 -0.3569
 7754SOL     OW34894   1.921   3.385   6.619 -0.2950 -0.0144 -0.6153
 7754SOL    HW134895   1.965   3.469   6.603  1.6395 -0.6171  1.4183
 7754SOL    HW234896   1.833   3.416   6.599 -0.6474  0.2346  1.3413
 7755SOL     OW34897   4.033   4.236   7.846 -0.1696 -0.4584  0.4330
 7755SOL    HW134898   3.974   4.284   7.904 -0.6246 -1.4407  0.7797
 7755SOL    HW234899   4.116   4.275   7.876 -0.2897 -0.8421  1.2659
 7756SOL     OW34900   1.719   2.417   7.853  0.1376 -0.1430  0.3842
 7756SOL    HW134901   1.637   2.417   7.804  0.6352  4.1373 -0.5025
 7756SOL    HW234902   1.702   2.357   7.926 -0.1055 -1.1298 -0.4895
 7757SOL     OW34903   4.416   4.357   6.219  0.7657  0.1233 -0.2126
 7757SOL    HW134904   4.371   4.431   6.179  0.3616  0.6861  1.3081
 7757SOL    HW234905   4.503   4.361   6.179  1.0978  1.5325  0.6584
 7758SOL     OW34906   1.711   3.566   2.380  0.3924 -0.1827  0.7398
 7758SOL    HW134907   1.761   3.557   2.299 -0.2633  0.6838  0.2409
 7758SOL    HW234908   1.744   3.495   2.435 -0.7559 -0.6602  0.8136
 7759SOL     OW34909   1.960   4.606  13.354 -0.5260  0.5761 -0.3490
 7759SOL    HW134910   2.006   4.653  13.424 -2.8119 -1.9284  2.8718
 7759SOL    HW234911   2.027   4.538  13.340 -0.1810  0.3917  2.1340
 7760SOL     OW34912   3.818   0.651   3.593 -0.2316 -0.2677 -0.6569
 7760SOL    HW134913   3.892   0.599   3.624 -0.6991 -0.6094 -0.1172
 7760SOL    HW234914   3.748   0.640   3.656  0.3128 -1.6388 -0.2825
 7761SOL     OW34915   2.029   1.295   0.661 -0.1684 -0.1258 -0.7018
 7761SOL    HW134916   1.934   1.303   0.667 -0.3239  1.6369 -5.1028
 7761SOL    HW234917   2.039   1.303   0.566 -0.8781  1.8615 -0.6249
 7762SOL     OW34918   1.011   2.386   3.403  0.1285 -0.3202  0.2658
 7762SOL    HW134919   1.087   2.395   3.461  0.6302  1.8734 -0.7375
 7762SOL    HW234920   1.028   2.439   3.326  1.2144 -1.3416 -0.1935
 7763SOL     OW34921   2.102   1.417   8.044 -0.0186  0.2579 -0.2436
 7763SOL    HW134922   2.178   1.373   8.082 -0.1625 -1.0262 -1.4527
 7763SOL    HW234923   2.126   1.510   8.047  0.6699  0.1249 -1.6329
 7764SOL     OW34924   3.308   2.241   4.813  0.1093  0.2004 -0.8462
 7764SOL    HW134925   3.219   2.248   4.849  0.0622 -2.4595 -0.4415
 7764SOL    HW234926   3.344   2.168   4.863 -3.2507  0.5335  2.1025
 7765SOL     OW34927   1.743   0.168  10.342 -0.2829  0.1024  0.4049
 7765SOL    HW134928   1.671   0.230  10.357 -0.8151 -0.0600 -1.5284
 7765SOL    HW234929   1.743   0.108  10.416 -1.8247 -1.1165 -0.5922
 7766SOL     OW34930   3.607   4.260   4.130 -0.3030  0.0013 -0.3954
 7766SOL    HW134931   3.551   4.245   4.055 -1.2720  0.1710  0.2873
 7766SOL    HW234932   3.692   4.289   4.096  0.6617 -0.9097  1.2114
 7767SOL     OW34933   1.419   1.882   7.197 -0.4445  0.2538  0.3136
 7767SOL    HW134934   1.378   1.808   7.153 -0.3824 -0.2341  1.0854
 7767SOL    HW234935   1.511   1.856   7.189  0.4116  2.7712  1.8839
 7768SOL     OW34936   0.588   2.913  12.193 -0.2044  0.6019 -0.3331
 7768SOL    HW134937   0.513   2.953  12.149 -1.0196 -1.7485 -1.0469
 7768SOL    HW234938   0.617   2.871  12.112 -1.3859 -0.1105 -0.3814
 7769SOL     OW34939   2.814   1.009   3.033 -0.1064 -0.0717  0.2310
 7769SOL    HW134940   2.814   1.023   3.128 -2.3966 -2.1848  0.5256
 7769SOL    HW234941   2.847   1.095   3.006  1.4847  0.3454  3.4375
 7770SOL     OW34942   1.328   0.803  15.588  0.5657  0.3116  0.0740
 7770SOL    HW134943   1.343   0.800  15.493 -0.3320  0.4890 -0.0748
 7770SOL    HW234944   1.415   0.773  15.615  0.3061 -0.1782  0.3699
 7771SOL     OW34945   1.259   2.853  14.914 -0.0036  0.5554  0.1423
 7771SOL    HW134946   1.262   2.941  14.876  1.1783  1.4297  2.2358
 7771SOL    HW234947   1.349   2.821  14.912 -0.5057 -0.7196 -2.4425
 7772SOL     OW34948   1.452   2.076   4.694  0.0143 -0.2711 -0.2871
 7772SOL    HW134949   1.543   2.055   4.675  0.2964  0.0524  0.6977
 7772SOL    HW234950   1.450   2.158   4.645  0.7363 -1.1691 -1.8131
 7773SOL     OW34951   2.510   2.760   4.238 -0.8806 -0.9186  0.5131
 7773SOL    HW134952   2.419   2.736   4.258 -0.6385 -2.7633 -0.6142
 7773SOL    HW234953   2.504   2.853   4.260  0.9651  0.1905 -3.7561
 7774SOL     OW34954   2.139   0.228   8.053  0.0811  0.2231 -0.3066
 7774SOL    HW134955   2.102   0.316   8.063  0.9609  0.6948 -1.1507
 7774SOL    HW234956   2.064   0.181   8.087  2.7700 -3.0900  1.0206
 7775SOL     OW34957   0.590   1.709   5.873  0.5275 -0.5349 -0.1616
 7775SOL    HW134958   0.506   1.730   5.831  2.0748  2.1252 -1.9498
 7775SOL    HW234959   0.588   1.614   5.858  1.5834 -0.7053  0.7733
 7776SOL     OW34960   2.873   0.836   2.838  0.0022 -0.6886 -0.3392
 7776SOL    HW134961   2.962   0.871   2.830  0.0314 -0.8624 -0.7850
 7776SOL    HW234962   2.828   0.895   2.899  0.4146  0.6584 -1.3423
 7777SOL     OW34963   1.028   4.661   5.912 -0.5414  0.1029 -0.1716
 7777SOL    HW134964   0.942   4.655   5.954 -0.9582  2.8016 -0.6743
 7777SOL    HW234965   1.031   4.594   5.844 -1.6913  0.8095 -0.9178
 7778SOL     OW34966   3.876   1.189   2.808  0.5727 -0.3363 -0.1729
 7778SOL    HW134967   3.911   1.266   2.764 -0.6233  0.6230  0.5597
 7778SOL    HW234968   3.952   1.133   2.821  0.2223 -0.1988  2.5104
 7779SOL     OW34969   0.072   3.880   8.031  0.0873 -0.2068  0.3171
 7779SOL    HW134970   4.728   3.934   8.025 -0.0970 -0.1871  3.0820
 7779SOL    HW234971   0.084   3.870   7.936 -2.0224 -0.3180  0.0702
 7780SOL     OW34972   4.045   0.835  11.787  0.1120  0.3030  0.2137
 7780SOL    HW134973   3.986   0.910  11.779  1.3063  1.2483  0.2215
 7780SOL    HW234974   3.989   0.766  11.824 -0.7384  0.6926 -0.3504
 7781SOL     OW34975   3.187   4.085   1.654 -0.4711  0.0007  0.5139
 7781SOL    HW134976   3.272   4.119   1.627 -0.1004 -1.0856  0.3291
 7781SOL    HW234977   3.204   4.027   1.728  1.9245 -0.3308 -0.3130
 7782SOL     OW34978   1.423   1.343   5.227  0.5377  0.3526 -0.0719
 7782SOL    HW134979   1.349   1.380   5.179  1.5386  2.3699 -0.0706
 7782SOL    HW234980   1.415   1.384   5.314 -2.8138  1.2923 -0.7855
 7783SOL     OW34981   2.367   3.201   4.914  0.7492 -0.1723  0.2196
 7783SOL    HW134982   2.276   3.174   4.929  0.3251  1.2610  0.2526
 7783SOL    HW234983   2.415   3.119   4.920 -2.3762 -1.9607  0.9550
 7784SOL     OW34984   3.890   2.651   2.264 -0.2881 -0.5237 -0.0702
 7784SOL    HW134985   3.955   2.648   2.334  0.7629  0.7280 -1.0058
 7784SOL    HW234986   3.806   2.632   2.307  0.3481  4.3820  3.2614
 7785SOL     OW34987   0.802   2.829  15.025  0.7563 -0.1144  0.1837
 7785SOL    HW134988   0.753   2.791  14.952  0.5504 -2.1784  1.3785
 7785SOL    HW234989   0.798   2.922  15.005 -1.3459 -0.8630 -2.9570
 7786SOL     OW34990   3.675   3.297  10.735  0.2830  0.3080 -0.5734
 7786SOL    HW134991   3.763   3.328  10.713 -0.0620  1.0559 -0.8970
 7786SOL    HW234992   3.626   3.379  10.728  0.5307  0.5699  0.7065
 7787SOL     OW34993   2.978   4.721   4.391  0.2183 -0.0526 -0.5898
 7787SOL    HW134994   2.916   0.059   4.393  0.0251 -0.1775 -2.0535
 7787SOL    HW234995   3.031   4.731   4.312  2.0167  1.3364  0.8151
 7788SOL     OW34996   0.127   4.023   6.564 -0.0247  0.1904  0.0232
 7788SOL    HW134997   0.191   3.952   6.559 -0.9213 -0.4611 -2.0999
 7788SOL    HW234998   0.048   3.972   6.545  0.3927  0.1459 -1.6242
 7789SOL     OW34999   1.443   3.832   7.715 -0.4983  0.2841 -0.0915
 7789SOL    HW135000   1.369   3.789   7.672 -1.0762  1.1339  0.0602
 7789SOL    HW235001   1.506   3.833   7.643 -1.5783  0.4862 -1.0286
 7790SOL     OW35002   4.210   0.138   1.529 -0.2012  0.5143  0.3688
 7790SOL    HW135003   4.212   0.130   1.625 -0.3414  0.8529  0.4026
 7790SOL    HW235004   4.122   0.116   1.501  0.2753 -3.1705  1.8202
 7791SOL     OW35005   3.450   3.625   1.024  0.0739 -0.0587  0.1512
 7791SOL    HW135006   3.386   3.554   1.036 -0.2925  0.4286  1.0941
 7791SOL    HW235007   3.498   3.620   1.107 -0.6455  1.1883  0.6375
 7792SOL     OW35008   3.618   1.942  14.889 -0.2945  0.3081  0.7385
 7792SOL    HW135009   3.626   1.862  14.940  1.5470  0.3612  0.5231
 7792SOL    HW235010   3.683   1.998  14.929  0.9795 -0.3144 -0.4690
 7793SOL     OW35011   2.966   0.510   3.056 -0.9714  0.0810 -0.2152
 7793SOL    HW135012   2.942   0.496   2.964 -0.8866 -0.5083 -0.1511
 7793SOL    HW235013   2.977   0.605   3.049 -1.2267  0.1493  0.3476
 7794SOL     OW35014   2.373   1.968   3.742 -0.3584 -0.3363  0.0625
 7794SOL    HW135015   2.313   1.919   3.686 -1.3931  2.4427 -1.2962
 7794SOL    HW235016   2.437   2.000   3.679  1.4421 -3.0230  0.5594
 7795SOL     OW35017   2.665   2.452   5.445 -0.2554 -0.7723 -0.5420
 7795SOL    HW135018   2.587   2.414   5.404 -0.9274 -0.6243  0.5996
 7795SOL    HW235019   2.635   2.500   5.522  0.3783 -0.6099 -0.3990
 7796SOL     OW35020   2.014   0.282   4.111  0.5097  0.1281 -0.0144
 7796SOL    HW135021   2.072   0.272   4.036  0.8449  1.8480  0.0188
 7796SOL    HW235022   1.934   0.257   4.065  0.7294  0.1655 -0.4129
 7797SOL     OW35023   3.545   4.159   6.768 -0.0879  0.6741 -0.3365
 7797SOL    HW135024   3.450   4.158   6.780 -0.0977  1.0976 -0.3707
 7797SOL    HW235025   3.563   4.075   6.725  1.1596  1.0282 -0.5166
 7798SOL     OW35026   0.230   3.705   1.198  0.0696 -0.0194 -0.6958
 7798SOL    HW135027   0.325   3.697   1.195  0.1051 -0.0635  0.2705
 7798SOL    HW235028   0.214   3.615   1.171  1.7103 -0.6036  0.2832
 7799SOL     OW35029   4.301   2.578   5.594 -0.2552  0.5714 -0.1022
 7799SOL    HW135030   4.214   2.559   5.629 -1.1002  1.0188 -1.9078
 7799SOL    HW235031   4.291   2.524   5.515  0.9053  0.8809 -0.4616
 7800SOL     OW35032   2.252   4.274   3.951 -0.0174 -0.9521 -0.4356
 7800SOL    HW135033   2.191   4.224   4.006  1.0048 -2.0865 -0.3453
 7800SOL    HW235034   2.256   4.352   4.007  2.1265 -0.9739 -0.5585
 7801SOL     OW35035   1.982   3.308   2.413  0.2477  0.5155  0.7626
 7801SOL    HW135036   1.952   3.236   2.468 -1.4942  0.6880  0.0206
 7801SOL    HW235037   1.913   3.338   2.354  1.4425  1.2305 -0.2594
 7802SOL     OW35038   2.141   4.416  17.378 -0.2605  0.0616 -0.2093
 7802SOL    HW135039   2.232   4.445  17.382  0.1024 -1.0517 -0.2500
 7802SOL    HW235040   2.112   4.449  17.293  1.3655 -2.7960 -1.8848
 7803SOL     OW35041   0.376   2.067  14.648  0.4082  0.1097 -0.1382
 7803SOL    HW135042   0.456   2.094  14.692 -0.6508  0.8050  1.3479
 7803SOL    HW235043   0.381   1.971  14.656  1.3628 -0.0549 -2.7322
 7804SOL     OW35044   0.947   2.807  13.424 -0.3880 -0.3119  0.3743
 7804SOL    HW135045   0.929   2.866  13.497  1.2432  2.0375 -1.1290
 7804SOL    HW235046   0.946   2.725  13.473 -1.2178  1.0550  2.6432
 7805SOL     OW35047   0.712   2.203   3.031 -0.0352 -0.1825 -0.2035
 7805SOL    HW135048   0.770   2.244   2.967  0.3014 -0.1094  0.1481
 7805SOL    HW235049   0.767   2.129   3.054 -0.8297 -1.4430 -2.4275
 7806SOL     OW35050   2.962   0.055  13.479 -0.2516  0.3715 -0.3793
 7806SOL    HW135051   3.016   0.028  13.554 -2.9873  1.2798  1.8777
 7806SOL    HW235052   3.026   0.044  13.408 -0.3660 -1.4171 -0.1938
 7807SOL     OW35053   1.467   1.387   2.891  0.0454 -0.2468  0.4334
 7807SOL    HW135054   1.536   1.454   2.894  0.0883 -0.2550 -0.3000
 7807SOL    HW235055   1.388   1.440   2.883 -0.0223  0.0865  3.4181
 7808SOL     OW35056   1.757   1.848   2.300 -0.6230 -0.0950 -0.4284
 7808SOL    HW135057   1.692   1.778   2.301 -3.1154  2.2326  0.3853
 7808SOL    HW235058   1.700   1.923   2.284 -0.6480 -0.4373 -1.9117
 7809SOL     OW35059   0.750   3.359   3.826  0.5831  0.5590 -0.4636
 7809SOL    HW135060   0.719   3.281   3.871 -0.1942  1.9435  1.4250
 7809SOL    HW235061   0.836   3.357   3.867  1.0247 -0.6688 -1.4535
 7810SOL     OW35062   0.194   0.597   9.230 -0.0810  0.0089 -0.1821
 7810SOL    HW135063   0.209   0.686   9.263 -1.0474 -0.0164  0.3321
 7810SOL    HW235064   0.107   0.622   9.199 -0.3718  2.2809  2.3798
 7811SOL     OW35065   1.587   3.257  12.495 -0.3665  0.2386 -0.6867
 7811SOL    HW135066   1.604   3.163  12.487  0.8007  0.4982 -1.2858
 7811SOL    HW235067   1.491   3.258  12.493 -0.4029 -0.7779  0.6910
 7812SOL     OW35068   0.534   1.417   0.431  0.1238 -0.0116 -0.1926
 7812SOL    HW135069   0.586   1.386   0.357  0.2034  3.6724 -1.7111
 7812SOL    HW235070   0.579   1.376   0.505  1.7118 -1.7043 -2.0768
 7813SOL     OW35071   4.710   0.715   6.678 -0.3854 -0.0392 -0.8018
 7813SOL    HW135072   0.011   0.804   6.674  0.5152 -0.3904 -0.5741
 7813SOL    HW235073   4.706   0.684   6.588  1.2982 -2.2582 -0.1014
 7814SOL     OW35074   4.712   3.051   2.333 -0.1183 -0.6682 -0.4802
 7814SOL    HW135075   4.625   3.014   2.347  0.5941 -1.5995  1.5522
 7814SOL    HW235076   4.697   3.135   2.376 -1.2504 -0.5064 -1.2188
 7815SOL     OW35077   2.452   0.307  10.608  0.3544  0.4027  0.3500
 7815SOL    HW135078   2.409   0.292  10.524 -0.0549 -0.5157  0.7275
 7815SOL    HW235079   2.547   0.306  10.595 -0.0469  0.0468 -2.5177
 7816SOL     OW35080   1.464   0.899   7.695 -0.4027 -0.1958 -0.1499
 7816SOL    HW135081   1.497   0.973   7.644  3.6438 -0.0561  2.6409
 7816SOL    HW235082   1.519   0.829   7.661 -0.0104 -0.1832  0.4585
 7817SOL     OW35083   3.696   1.818   9.798  0.2440  0.1409 -0.2781
 7817SOL    HW135084   3.777   1.845   9.841 -0.5554  1.5286  0.3694
 7817SOL    HW235085   3.656   1.905   9.800  1.4349  0.7111 -1.9078
 7818SOL     OW35086   1.900   1.225   4.250 -0.5617  0.4746  0.2245
 7818SOL    HW135087   1.939   1.156   4.196 -3.9380 -1.4318  0.2281
 7818SOL    HW235088   1.807   1.229   4.229 -1.0671 -1.6353  2.0690
 7819SOL     OW35089   4.255   3.502  15.407 -0.2342 -0.2157 -0.0987
 7819SOL    HW135090   4.216   3.514  15.320 -0.3284  1.2009  0.1492
 7819SOL    HW235091   4.233   3.587  15.443  3.4325  1.5006 -1.9131
 7820SOL     OW35092   1.497   0.747   1.281 -0.1963 -0.1005 -0.6569
 7820SOL    HW135093   1.566   0.715   1.339  0.8873  1.0909 -1.2836
 7820SOL    HW235094   1.437   0.786   1.343  1.3769 -0.6759  1.2208
 7821SOL     OW35095   1.346   3.037   0.383 -0.0200 -0.0783 -0.1454
 7821SOL    HW135096   1.438   3.014   0.399 -0.2175 -0.8103 -0.0646
 7821SOL    HW235097   1.300   2.989   0.453 -0.9150 -1.1835 -1.4909
 7822SOL     OW35098   1.811   0.148   6.932  0.0933 -0.9132 -0.2736
 7822SOL    HW135099   1.837   0.229   6.887 -0.4753 -1.2636 -1.2340
 7822SOL    HW235100   1.807   0.178   7.023  2.2143 -1.7083  0.0824
 7823SOL     OW35101   4.519   0.001   8.224  0.4378  0.1225 -0.1940
 7823SOL    HW135102   4.516   0.031   8.315  0.7347  2.3941 -0.9367
 7823SOL    HW235103   4.437   4.686   8.215  1.2271 -1.1784 -0.1419
 7824SOL     OW35104   4.084   3.197   6.654 -0.3208 -0.3896 -0.1207
 7824SOL    HW135105   3.996   3.159   6.650 -1.1147  1.5447 -0.8253
 7824SOL    HW235106   4.116   3.180   6.742 -0.4950 -2.0076 -0.3721
 7825SOL     OW35107   3.307   4.697   2.771  0.4243  0.5024 -0.0690
 7825SOL    HW135108   3.343   0.009   2.696  0.2169 -1.3528 -1.3331
 7825SOL    HW235109   3.388   4.687   2.821  0.4630 -0.8355 -0.4056
 7826SOL     OW35110   0.351   0.311   8.219 -0.6669  0.7651 -0.0116
 7826SOL    HW135111   0.401   0.281   8.143  1.8308  0.7512  1.6394
 7826SOL    HW235112   0.347   0.231   8.272  0.3266 -0.1513 -1.3240
 7827SOL     OW35113   1.401   2.935   5.035 -0.4099 -0.0290 -0.2158
 7827SOL    HW135114   1.359   2.880   4.969  0.6291 -0.9225 -0.1275
 7827SOL    HW235115   1.357   2.904   5.114  1.1235 -2.4646 -0.3337
 7828SOL     OW35116   4.504   1.715  11.794 -0.1783  0.1071 -0.1550
 7828SOL    HW135117   4.571   1.752  11.737  1.6057 -0.3360  1.6692
 7828SOL    HW235118   4.530   1.623  11.800 -0.0869  0.1023 -0.6290
 7829SOL     OW35119   1.940   4.689   3.877 -0.3270 -0.0148 -0.0664
 7829SOL    HW135120   2.001   4.701   3.804 -0.9220  2.2027 -0.2165
 7829SOL    HW235121   1.998   4.713   3.949 -0.5513  0.0700  0.0855
 7830SOL     OW35122   3.405   0.257   2.811 -0.5705  0.2072 -0.1519
 7830SOL    HW135123   3.371   0.346   2.798  0.9999  1.0541  1.4862
 7830SOL    HW235124   3.373   0.211   2.733  0.6163  1.5503 -1.4526
 7831SOL     OW35125   1.403   3.119  15.042 -0.1470  0.3571  0.0908
 7831SOL    HW135126   1.320   3.077  15.019 -0.9066  1.2814  1.1597
 7831SOL    HW235127   1.435   3.157  14.960  0.5529 -2.8934 -1.1260
 7832SOL     OW35128   3.735   2.220   4.337 -0.2982  0.4376  0.2777
 7832SOL    HW135129   3.799   2.222   4.266  0.2320  2.2634  0.8173
 7832SOL    HW235130   3.668   2.280   4.304 -0.1752 -0.0827 -0.9283
 7833SOL     OW35131   1.554   2.484  11.588 -0.2847 -0.3116 -0.0520
 7833SOL    HW135132   1.620   2.450  11.647  0.3884 -0.3826 -0.8445
 7833SOL    HW235133   1.566   2.578  11.576 -2.6619  0.0482  0.3951
 7834SOL     OW35134   4.535   2.985  12.135 -0.2488  0.0877  0.0601
 7834SOL    HW135135   4.520   2.999  12.228  1.1927  1.7285  0.0390
 7834SOL    HW235136   4.473   3.050  12.100  0.8450  0.4258 -1.2509
 7835SOL     OW35137   1.098   1.948  16.514  0.3582  0.6041  0.1887
 7835SOL    HW135138   1.147   2.030  16.521  1.0637  0.2534 -0.5670
 7835SOL    HW235139   1.154   1.909  16.446 -0.3193 -0.3813  0.1968
 7836SOL     OW35140   3.404   3.514  11.415 -0.2902 -0.1506 -0.8507
 7836SOL    HW135141   3.436   3.558  11.336  0.6008 -0.2069 -0.5135
 7836SOL    HW235142   3.485   3.477  11.448  1.0132  1.0448 -2.7265
 7837SOL     OW35143   1.758   4.400   6.800 -0.7245 -0.5959  0.3893
 7837SOL    HW135144   1.802   4.421   6.883  2.3947 -1.8351 -0.9317
 7837SOL    HW235145   1.786   4.470   6.742  1.5429 -1.7453  0.1019
 7838SOL     OW35146   0.458   0.848   6.348  1.0464  0.8716 -0.1367
 7838SOL    HW135147   0.429   0.924   6.297 -0.7449 -1.1330 -2.1045
 7838SOL    HW235148   0.544   0.886   6.365  1.5771  0.0661 -0.9525
 7839SOL     OW35149   3.865   3.165   1.539 -0.5148  0.1612 -0.9022
 7839SOL    HW135150   3.872   3.105   1.465  0.5675  0.0479 -0.7159
 7839SOL    HW235151   3.788   3.221   1.531 -1.3077 -0.6762  1.0066
 7840SOL     OW35152   0.892   3.441   4.493  0.6234 -0.4957  0.3845
 7840SOL    HW135153   0.923   3.531   4.481 -1.9071  0.2404 -0.6539
 7840SOL    HW235154   0.830   3.437   4.421 -0.1052  2.0387  0.8838
 7841SOL     OW35155   1.694   1.988  11.479 -0.5590 -0.0620  0.2395
 7841SOL    HW135156   1.654   1.957  11.561 -0.3443  0.0391  0.3825
 7841SOL    HW235157   1.775   2.024  11.514 -0.2049 -0.6846  0.0559
 7842SOL     OW35158   1.382   0.031   6.327  0.1407  0.0426 -0.4115
 7842SOL    HW135159   1.295   0.057   6.297 -0.2851  1.3028  1.9234
 7842SOL    HW235160   1.423   4.728   6.249  0.3922 -0.1868 -0.1670
 7843SOL     OW35161   3.113   0.284  11.884 -0.5366 -0.2564  0.4460
 7843SOL    HW135162   3.113   0.354  11.820 -0.7455 -1.1526 -0.5342
 7843SOL    HW235163   3.146   0.327  11.963 -1.4650  1.9270 -0.3636
 7844SOL     OW35164   0.246   0.027   5.236  0.8226  0.3974  0.1836
 7844SOL    HW135165   0.188   0.036   5.311  1.2106 -1.1373  0.6531
 7844SOL    HW235166   0.307   4.693   5.262  1.8231  0.4543 -1.9706
 7845SOL     OW35167   0.376   0.013  13.134  0.3530  0.4234 -0.0321
 7845SOL    HW135168   0.416   0.018  13.047 -1.0230  0.3106 -0.6786
 7845SOL    HW235169   0.425   0.076  13.187 -0.1167 -0.5313  1.5366
 7846SOL     OW35170   0.217   0.029  14.841 -0.4215 -0.5306 -0.1291
 7846SOL    HW135171   0.161   0.107  14.846 -0.2295 -0.3064 -1.6637
 7846SOL    HW235172   0.161   4.700  14.797  1.0239 -0.7289 -1.6890
 7847SOL     OW35173   1.351   1.197   8.515 -0.0383 -0.4177 -0.1886
 7847SOL    HW135174   1.302   1.254   8.457  1.0425  0.1252 -0.5715
 7847SOL    HW235175   1.301   1.117   8.497  1.9180 -1.9911  1.2787
 7848SOL     OW35176   2.374   3.390  12.517 -0.1772 -0.9269  0.0372
 7848SOL    HW135177   2.403   3.411  12.428  0.0169  0.5896  0.4666
 7848SOL    HW235178   2.279   3.387  12.508  0.0048 -2.5682 -1.3447
 7849SOL     OW35179   1.358   0.295   3.996  0.2564  0.1638  0.8930
 7849SOL    HW135180   1.307   0.289   4.076  0.4742 -2.2012  0.8692
 7849SOL    HW235181   1.345   0.207   3.961  0.4100  0.2431  0.6296
 7850SOL     OW35182   0.392   3.911  11.994 -0.5346  0.0103 -0.0877
 7850SOL    HW135183   0.394   3.901  12.089 -2.2124  0.7339  0.0222
 7850SOL    HW235184   0.419   4.003  11.986  0.5388 -0.1059  2.1566
 7851SOL     OW35185   1.513   1.022   8.375 -0.4252 -0.5997 -0.4864
 7851SOL    HW135186   1.465   1.104   8.376  0.6558  0.0474 -1.1377
 7851SOL    HW235187   1.577   1.020   8.304  1.4617  0.1584  1.1621
 7852SOL     OW35188   0.908   1.890   8.573  0.2927 -0.2009 -0.3724
 7852SOL    HW135189   0.909   1.984   8.591 -0.7518 -0.4181  0.8225
 7852SOL    HW235190   0.911   1.884   8.478 -3.6608 -0.1241 -0.5098
 7853SOL     OW35191   2.184   3.629   2.222 -0.0416 -0.5459 -0.0463
 7853SOL    HW135192   2.162   3.581   2.302 -1.2827 -0.1974 -0.1747
 7853SOL    HW235193   2.276   3.651   2.232 -0.0858  0.0253 -0.8370
 7854SOL     OW35194   4.026   3.875   4.972 -0.1332 -0.6120 -0.2845
 7854SOL    HW135195   3.972   3.807   5.012 -1.7685 -0.2200 -1.8147
 7854SOL    HW235196   4.018   3.858   4.878  0.2463  0.7176 -0.5583
 7855SOL     OW35197   0.838   3.558   2.611 -0.3915  0.2041  0.6657
 7855SOL    HW135198   0.839   3.556   2.516 -0.5926 -2.5986  0.7057
 7855SOL    HW235199   0.774   3.630   2.615  0.7097  1.2555 -0.8171
 7856SOL     OW35200   0.238   2.925  17.096  0.6534 -0.7649 -0.2163
 7856SOL    HW135201   0.152   2.940  17.135 -0.8634 -2.1191 -2.9800
 7856SOL    HW235202   0.260   2.844  17.142  0.1526 -0.1719  1.0650
 7857SOL     OW35203   1.153   1.110   8.043  0.9081  0.2566  0.0758
 7857SOL    HW135204   1.197   1.061   7.974 -0.5701  1.6966 -1.8569
 7857SOL    HW235205   1.060   1.097   8.027  0.4436  3.4050  0.2233
 7858SOL     OW35206   2.900   4.344   8.393 -1.0193 -0.1520  0.0997
 7858SOL    HW135207   2.916   4.261   8.348  0.5267 -0.0630  0.4821
 7858SOL    HW235208   2.871   4.324   8.482  0.9977 -1.1790  0.5310
 7859SOL     OW35209   2.306   4.496   9.102  0.2464 -0.4083 -0.3080
 7859SOL    HW135210   2.224   4.520   9.144  0.9223  0.3870  0.5593
 7859SOL    HW235211   2.276   4.419   9.054 -0.6653 -1.2293  1.5918
 7860SOL     OW35212   2.156   4.122   7.231  0.3870  0.5831  0.2672
 7860SOL    HW135213   2.208   4.179   7.288  0.3896  0.5749  0.2729
 7860SOL    HW235214   2.147   4.173   7.151  1.8411  0.6153  0.1263
 7861SOL     OW35215   0.751   3.321   3.567  0.1181  0.7748  0.0182
 7861SOL    HW135216   0.838   3.323   3.529 -0.0911  0.6810 -0.4669
 7861SOL    HW235217   0.762   3.326   3.662 -0.3483 -1.3164  0.1770
 7862SOL     OW35218   3.604   4.497  10.048  0.0844  0.3179  0.3066
 7862SOL    HW135219   3.640   4.570  10.099  0.6400 -0.3569  0.8805
 7862SOL    HW235220   3.512   4.521  10.039  0.5878  2.5207  1.0375
 7863SOL     OW35221   1.865   0.976   2.657  0.0958 -0.1014 -0.1088
 7863SOL    HW135222   1.911   0.911   2.604  0.2931 -1.1587  1.3358
 7863SOL    HW235223   1.935   1.034   2.688 -0.2169 -0.7718  1.9008
 7864SOL     OW35224   0.484   1.308   4.569 -0.0793 -0.0396 -0.1670
 7864SOL    HW135225   0.424   1.236   4.546 -0.2596 -0.2837  1.1001
 7864SOL    HW235226   0.425   1.357   4.627  0.4880 -0.3757  0.6901
 7865SOL     OW35227   4.426   3.112  14.299 -0.0931 -0.1123  0.1140
 7865SOL    HW135228   4.412   3.018  14.311 -0.0610 -0.1521 -0.1595
 7865SOL    HW235229   4.522   3.110  14.295 -0.0007  0.6599  1.6725
 7866SOL     OW35230   3.001   0.030   9.525 -0.4955 -0.1455  0.1698
 7866SOL    HW135231   2.985   4.727   9.612  1.4773  0.8793  0.9869
 7866SOL    HW235232   3.005   0.123   9.549  0.2589  0.1656 -1.1963
 7867SOL     OW35233   0.783   0.599   8.730 -0.4893  0.7312 -1.0921
 7867SOL    HW135234   0.787   0.544   8.808  2.2686  1.1865 -0.9404
 7867SOL    HW235235   0.816   0.684   8.758 -0.6573  1.0428 -1.8314
 7868SOL     OW35236   4.156   1.720   1.802  0.1963 -0.1894  1.0395
 7868SOL    HW135237   4.113   1.645   1.760 -0.7812  0.5223  0.7521
 7868SOL    HW235238   4.092   1.791   1.800  0.7858  0.2962 -0.1264
 7869SOL     OW35239   1.256   3.836   4.033 -0.4259 -0.2742 -0.0062
 7869SOL    HW135240   1.174   3.868   4.070 -0.2009  2.6665 -2.1022
 7869SOL    HW235241   1.234   3.747   4.005 -2.4079  0.0986  0.3958
 7870SOL     OW35242   1.089   1.236   3.272  0.2963 -0.2873 -0.4251
 7870SOL    HW135243   1.011   1.292   3.275  1.1548  0.8418  0.6283
 7870SOL    HW235244   1.047   1.151   3.284  0.9864 -0.6695 -0.7468
 7871SOL     OW35245   0.672   3.612  10.405 -0.3128 -0.1442  0.0534
 7871SOL    HW135246   0.610   3.659  10.461 -1.2298 -3.5222  1.8867
 7871SOL    HW235247   0.655   3.518  10.416 -1.9750 -0.3028 -4.1250
 7872SOL     OW35248   3.048   3.432   5.832 -0.1139 -0.1009  0.2555
 7872SOL    HW135249   3.033   3.385   5.915 -2.4094 -0.6074 -0.4464
 7872SOL    HW235250   3.116   3.492   5.861  2.0407 -1.1042 -2.6841
 7873SOL     OW35251   4.319   0.159   6.726 -0.1326 -0.6069 -0.6183
 7873SOL    HW135252   4.413   0.149   6.739  0.1658  1.1727 -1.4439
 7873SOL    HW235253   4.308   0.224   6.657  0.6893  0.6336  0.4126
 7874SOL     OW35254   2.571   2.869  16.595 -0.5227  0.4292 -0.5425
 7874SOL    HW135255   2.619   2.837  16.672 -0.8555 -0.4851 -0.7119
 7874SOL    HW235256   2.498   2.922  16.627 -0.7064 -0.4203  0.4457
 7875SOL     OW35257   3.549   2.077  10.394 -0.3037 -0.3079  0.0038
 7875SOL    HW135258   3.484   2.136  10.353  1.2899  2.5833  1.6283
 7875SOL    HW235259   3.627   2.088  10.339 -0.9013 -0.9552 -0.9676
 7876SOL     OW35260   3.670   4.655   4.366  0.1633 -0.8750  0.3804
 7876SOL    HW135261   3.590   4.621   4.407  0.2184 -0.2723  0.9960
 7876SOL    HW235262   3.723   4.670   4.444  0.7358  0.2596 -0.2159
 7877SOL     OW35263   3.806   4.415   6.224  0.1736 -0.4491  0.4229
 7877SOL    HW135264   3.722   4.458   6.241 -0.1017 -1.1709  0.8847
 7877SOL    HW235265   3.864   4.491   6.233  1.5800 -1.4220 -0.4865
 7878SOL     OW35266   1.188   2.681   8.777  0.0592 -0.1765  0.0004
 7878SOL    HW135267   1.115   2.676   8.840 -0.8312  2.7842 -0.8185
 7878SOL    HW235268   1.217   2.590   8.782 -1.9514 -0.8098  0.4960
 7879SOL     OW35269   0.909   3.833   1.550 -0.0670  0.3910 -0.5171
 7879SOL    HW135270   0.862   3.872   1.623 -0.8415 -0.3073 -0.6570
 7879SOL    HW235271   0.927   3.748   1.588  2.4273  0.8418 -0.6262
 7880SOL     OW35272   4.725   2.607   6.869 -0.3380  0.2172 -0.0816
 7880SOL    HW135273   0.054   2.638   6.933  1.5737  0.1729 -1.9632
 7880SOL    HW235274   4.669   2.548   6.919  0.6580  1.0361  1.9883
 7881SOL     OW35275   2.561   2.915   6.811  0.3084  0.1838  0.1267
 7881SOL    HW135276   2.568   2.900   6.716  1.8620  2.2624 -0.0965
 7881SOL    HW235277   2.610   2.997   6.818  3.1254 -1.4143 -0.4870
 7882SOL     OW35278   0.384   2.617   0.414  0.8817 -0.1529 -0.0884
 7882SOL    HW135279   0.426   2.691   0.371 -0.8909  2.2208  2.2178
 7882SOL    HW235280   0.454   2.552   0.409  0.2891 -0.7342 -0.8257
 7883SOL     OW35281   1.582   0.920  11.523  0.2546  0.1639  0.3252
 7883SOL    HW135282   1.503   0.973  11.523  1.1262  1.4725  0.0867
 7883SOL    HW235283   1.557   0.854  11.458  2.1774 -1.6597  1.4506
 7884SOL     OW35284   4.629   3.479   6.720 -0.2661  0.2162 -0.1699
 7884SOL    HW135285   4.542   3.440   6.711 -0.0475 -0.3912  0.3323
 7884SOL    HW235286   4.668   3.435   6.796 -1.2157  1.3877  0.9944
 7885SOL     OW35287   3.505   0.869   3.741 -0.2906 -0.2078  0.2139
 7885SOL    HW135288   3.596   0.899   3.747 -0.1680 -0.2504 -1.2953
 7885SOL    HW235289   3.459   0.900   3.819  0.3863  3.1174 -0.7096
 7886SOL     OW35290   2.385   3.259  13.507 -0.3185 -0.2581  0.2485
 7886SOL    HW135291   2.330   3.239  13.583  0.8904  0.1032  1.2281
 7886SOL    HW235292   2.446   3.319  13.550 -2.4835  0.7396  1.9139
 7887SOL     OW35293   2.696   3.479   1.044  0.4561 -0.1792 -0.0165
 7887SOL    HW135294   2.733   3.567   1.041 -1.0696  0.5488  2.6788
 7887SOL    HW235295   2.770   3.426   1.014 -0.9825 -0.1936 -3.5023
 7888SOL     OW35296   0.535   1.918   9.250 -0.1947 -0.0037  0.3002
 7888SOL    HW135297   0.469   1.920   9.320 -0.2392  0.4483  0.2461
 7888SOL    HW235298   0.607   1.868   9.289  0.3807  0.3411 -0.3287
 7889SOL     OW35299   2.459   2.885   7.072 -0.3447  0.0994 -0.1502
 7889SOL    HW135300   2.493   2.798   7.054  3.2975  1.3780  0.6384
 7889SOL    HW235301   2.513   2.937   7.012 -1.0673  0.8211 -0.1775
 7890SOL     OW35302   4.565   3.222   5.514 -0.3185 -0.2988 -0.2657
 7890SOL    HW135303   4.597   3.312   5.524 -2.3176  0.2721  0.9972
 7890SOL    HW235304   4.497   3.225   5.448  0.7451 -0.6523 -1.3747
 7891SOL     OW35305   3.133   0.761   6.999  0.1912  0.0755  0.5298
 7891SOL    HW135306   3.102   0.752   7.089  0.3472  1.9265  0.7585
 7891SOL    HW235307   3.078   0.706   6.943  2.2601 -1.4707  0.0211
 7892SOL     OW35308   4.265   4.316  12.351  0.1170 -0.5191 -0.1410
 7892SOL    HW135309   4.275   4.402  12.392 -2.3844 -0.8534  1.1531
 7892SOL    HW235310   4.279   4.341  12.259 -1.8325 -0.9654 -0.5510
 7893SOL     OW35311   0.368   4.697   6.052 -0.2418  0.1048  0.2385
 7893SOL    HW135312   0.294   4.647   6.018 -0.9917  2.4690 -1.6124
 7893SOL    HW235313   0.406   4.630   6.109  1.0641 -0.1765 -0.9546
 7894SOL     OW35314   0.486   1.698  14.373 -0.0776 -0.3507 -0.1008
 7894SOL    HW135315   0.539   1.718  14.296  1.0172  2.7992  1.4112
 7894SOL    HW235316   0.540   1.735  14.444 -0.1369 -1.4443  0.5111
 7895SOL     OW35317   1.497   4.595   7.049  0.5245 -0.0452  0.5546
 7895SOL    HW135318   1.549   4.636   7.118 -0.2618  1.5748  0.1884
 7895SOL    HW235319   1.524   4.504   7.066  0.1411 -0.3515 -0.4987
 7896SOL     OW35320   3.641   4.456   5.726 -0.9032  0.1800  0.3855
 7896SOL    HW135321   3.699   4.412   5.665 -0.3891  0.5636  0.6047
 7896SOL    HW235322   3.621   4.530   5.669 -2.0119  0.2138  0.8122
 7897SOL     OW35323   0.576   3.232   7.203  0.2132  0.1464  0.3900
 7897SOL    HW135324   0.582   3.197   7.292  1.4605  1.3278  0.7873
 7897SOL    HW235325   0.665   3.265   7.189  0.5461 -0.7391  0.4002
 7898SOL     OW35326   2.678   2.577   0.044  0.0040  0.5270 -0.1064
 7898SOL    HW135327   2.641   2.600   0.130  1.7576 -2.1214  1.3794
 7898SOL    HW235328   2.698   2.664   0.011 -0.3813  0.7479  0.2302
 7899SOL     OW35329   2.545   0.856   7.438  0.4447 -0.0818  0.4131
 7899SOL    HW135330   2.639   0.844   7.447  0.4038  0.9019  2.0060
 7899SOL    HW235331   2.514   0.798   7.507 -0.9092 -0.6673 -0.6569
 7900SOL     OW35332   0.858   0.920  16.109 -0.3056  0.1686  0.0944
 7900SOL    HW135333   0.807   0.920  16.029 -1.1489 -1.3142  0.6221
 7900SOL    HW235334   0.785   0.896  16.166 -0.3069  0.2807  0.1399
 7901SOL     OW35335   0.874   3.878   3.204 -0.7794  0.7165  0.0864
 7901SOL    HW135336   0.812   3.833   3.261  1.7019 -0.1320  2.1276
 7901SOL    HW235337   0.938   3.897   3.273 -0.4462  0.9668 -0.2911
 7902SOL     OW35338   4.583   2.379  16.717 -0.5395 -0.5189  0.3899
 7902SOL    HW135339   4.666   2.414  16.750 -0.8985  0.5342  0.1770
 7902SOL    HW235340   4.603   2.372  16.624 -0.8347 -1.0728  0.3686
 7903SOL     OW35341   2.973   0.095  14.284 -0.8483 -0.1764  0.0428
 7903SOL    HW135342   3.001   0.006  14.263  1.8359  0.1646  2.0476
 7903SOL    HW235343   2.984   0.090  14.379 -1.4760 -0.3969  0.0995
 7904SOL     OW35344   3.831   0.903   4.877  0.0889  0.3797 -0.3612
 7904SOL    HW135345   3.787   0.932   4.797 -1.1564  0.5331  0.3811
 7904SOL    HW235346   3.869   0.817   4.858 -0.2168 -0.0346  0.9070
 7905SOL     OW35347   1.922   1.058   8.093 -0.0928 -0.0448 -0.1061
 7905SOL    HW135348   1.847   1.069   8.153 -0.3723  0.9761 -0.6454
 7905SOL    HW235349   1.993   1.027   8.149  0.0243 -1.0987 -0.8287
 7906SOL     OW35350   1.890   3.516  13.878 -0.1898 -0.6207  0.1859
 7906SOL    HW135351   1.949   3.508  13.952  0.8841  1.5625 -0.4187
 7906SOL    HW235352   1.948   3.528  13.803 -1.9240  1.2766 -0.8645
 7907SOL     OW35353   4.684   0.399   6.520 -0.1566  0.0106 -0.2038
 7907SOL    HW135354   4.593   0.419   6.497  0.1819 -1.1934 -2.5929
 7907SOL    HW235355   4.721   0.379   6.434 -0.5375  0.6084 -0.5085
 7908SOL     OW35356   0.825   1.740   6.437 -0.1288 -0.1629  0.0388
 7908SOL    HW135357   0.839   1.813   6.376 -0.9157 -0.6800 -0.7642
 7908SOL    HW235358   0.846   1.776   6.523 -1.2505 -2.2196  1.1690
 7909SOL     OW35359   0.077   1.123   2.646 -0.2938  0.3110 -0.4521
 7909SOL    HW135360   0.087   1.043   2.594  0.8628  0.3935 -0.3545
 7909SOL    HW235361   0.024   1.095   2.721 -0.1646 -1.1137 -0.8768
 7910SOL     OW35362   4.494   2.633   2.560  0.0170  0.5027 -0.1680
 7910SOL    HW135363   4.558   2.600   2.497 -1.3479 -1.9725 -0.2700
 7910SOL    HW235364   4.426   2.645   2.494  1.0016  0.0688 -1.2711
 7911SOL     OW35365   3.417   4.044  11.925 -0.1052  0.0727 -0.1568
 7911SOL    HW135366   3.429   3.953  11.900 -0.7555 -0.2658  0.7586
 7911SOL    HW235367   3.416   4.035  12.020 -0.3831 -1.0712 -0.2733
 7912SOL     OW35368   1.856   1.357   8.754  0.0349  0.6910  0.2698
 7912SOL    HW135369   1.762   1.373   8.749  0.1779  1.8139  1.3180
 7912SOL    HW235370   1.886   1.446   8.736  0.5855 -0.2326 -3.4193
 7913SOL     OW35371   1.380   3.184   9.229  0.0846  0.8121 -0.1007
 7913SOL    HW135372   1.290   3.178   9.197 -1.2201  1.4546  3.4738
 7913SOL    HW235373   1.423   3.121   9.171 -1.2654 -0.8810  0.7475
 7914SOL     OW35374   1.081   2.813   1.468  0.3940 -0.1147  0.2300
 7914SOL    HW135375   1.085   2.789   1.375  1.0904  2.3835 -0.3794
 7914SOL    HW235376   1.047   2.902   1.460 -0.3374 -0.3449  0.8157
 7915SOL     OW35377   0.791   4.074   7.816 -0.0236  0.4872  0.2611
 7915SOL    HW135378   0.869   4.079   7.760 -0.1906  2.8315  0.2588
 7915SOL    HW235379   0.808   3.992   7.862 -2.1168  1.5709  2.8819
 7916SOL     OW35380   1.639   4.361   8.243  0.5233 -0.2414 -0.2600
 7916SOL    HW135381   1.668   4.450   8.264  2.1044 -1.0098  0.7053
 7916SOL    HW235382   1.544   4.373   8.233  0.0464 -1.4969  2.8229
 7917SOL     OW35383   0.057   2.911   9.933 -0.3967  0.4478 -0.5378
 7917SOL    HW135384   0.021   2.848   9.871 -0.1908 -0.9783  0.7612
 7917SOL    HW235385   0.004   2.990   9.928 -1.0310  0.1392  1.0290
 7918SOL     OW35386   0.288   0.123   3.893  0.0362 -0.0481  0.2298
 7918SOL    HW135387   0.362   0.068   3.917  0.0493 -1.4309 -2.9164
 7918SOL    HW235388   0.284   0.092   3.802  0.6542  2.1468 -0.5504
 7919SOL     OW35389   0.375   4.031  17.196 -0.3604 -0.3093  0.5611
 7919SOL    HW135390   0.285   4.034  17.164  0.3540 -0.3524 -1.5116
 7919SOL    HW235391   0.351   4.015  17.287 -2.5548 -1.8623 -0.2889
 7920SOL     OW35392   0.027   1.389   1.427 -0.6881 -0.3267 -0.4795
 7920SOL    HW135393   0.091   1.371   1.496 -1.1824  2.0319  0.5884
 7920SOL    HW235394   0.046   1.318   1.366  0.8927 -2.6980  2.8101
 7921SOL     OW35395   0.779   3.280  13.296 -0.3834  0.2232  0.0848
 7921SOL    HW135396   0.721   3.318  13.230  0.2862  3.4499  1.3534
 7921SOL    HW235397   0.782   3.185  13.280 -1.6421  0.1250  0.4366
 7922SOL     OW35398   4.569   4.318   6.590  0.0106 -0.4099  0.7019
 7922SOL    HW135399   4.503   4.278   6.648  0.3323 -0.3733  1.0939
 7922SOL    HW235400   4.512   4.390   6.564  1.1189 -0.6112 -2.2438
 7923SOL     OW35401   1.359   3.401   3.356  0.2548  0.1059  0.0965
 7923SOL    HW135402   1.348   3.419   3.449  2.6206 -1.4828  0.6925
 7923SOL    HW235403   1.433   3.341   3.357  0.4314  0.2919 -1.1958
 7924SOL     OW35404   3.637   4.025  12.618  0.0958 -0.5495 -0.2950
 7924SOL    HW135405   3.680   3.940  12.631 -1.7783 -1.9551 -3.4800
 7924SOL    HW235406   3.613   4.017  12.526 -1.8958 -0.9105  0.2541
 7925SOL     OW35407   2.066   2.609  15.856  0.2377  0.3860  0.2858
 7925SOL    HW135408   2.154   2.617  15.819  1.2305  0.3307  2.5788
 7925SOL    HW235409   2.074   2.516  15.874  2.4275  0.2066 -1.5744
 7926SOL     OW35410   4.578   4.395   0.408  0.0975 -0.1002 -0.7284
 7926SOL    HW135411   4.551   4.304   0.411 -0.0860  0.0471  2.4806
 7926SOL    HW235412   4.496   4.441   0.389  0.5159  0.7769 -0.4311
 7927SOL     OW35413   0.619   2.496   7.970  0.5744 -0.1867 -0.7776
 7927SOL    HW135414   0.687   2.561   7.953 -0.3940  0.6847 -1.2660
 7927SOL    HW235415   0.546   2.538   7.925  0.2835 -0.7860 -0.8687
 7928SOL     OW35416   3.098   2.233  17.617  0.4450 -0.0236  0.3738
 7928SOL    HW135417   3.014   2.262  17.582 -0.5378  1.0540  3.5551
 7928SOL    HW235418   3.072   2.150  17.657  0.3980 -1.1989 -2.1359
 7929SOL     OW35419   2.766   4.515   7.515 -0.3090 -0.3141 -0.2524
 7929SOL    HW135420   2.717   4.573   7.574 -2.4076  0.0673 -2.3907
 7929SOL    HW235421   2.818   4.579   7.468 -1.0528 -0.6668 -1.5673
 7930SOL     OW35422   2.077   0.599   2.129  0.2181 -0.0173 -0.1091
 7930SOL    HW135423   2.008   0.663   2.111 -0.3216 -0.2882  1.0199
 7930SOL    HW235424   2.138   0.653   2.180 -1.4448  2.4354 -0.7693
 7931SOL     OW35425   0.171   2.594  10.115 -0.1884 -0.0499  0.5262
 7931SOL    HW135426   0.212   2.655  10.054  1.1304 -0.8549  0.6061
 7931SOL    HW235427   0.212   2.614  10.199 -0.2721  0.4030  0.4592
 7932SOL     OW35428   2.563   2.308   7.136 -0.2614 -0.4767  0.0473
 7932SOL    HW135429   2.482   2.291   7.088  0.4388  0.8215 -1.5993
 7932SOL    HW235430   2.622   2.241   7.104  1.7984 -0.2056  3.2677
 7933SOL     OW35431   0.130   0.059   5.487 -0.0894  0.2060  0.2964
 7933SOL    HW135432   0.194   0.003   5.529  0.2967  0.7740  0.4646
 7933SOL    HW235433   0.067   0.088   5.553  1.2391  3.6844  0.0626
 7934SOL     OW35434   1.001   2.637  16.751 -0.2536 -0.4661  0.4245
 7934SOL    HW135435   0.983   2.583  16.674 -1.9053 -1.8011  1.7466
 7934SOL    HW235436   1.081   2.687  16.734 -0.6191  0.0362  0.2056
 7935SOL     OW35437   3.851   2.712   0.824  0.2024  0.5254 -0.1637
 7935SOL    HW135438   3.922   2.761   0.864  1.0141  0.1272 -1.1004
 7935SOL    HW235439   3.820   2.774   0.758 -3.0363 -0.2779  0.5956
 7936SOL     OW35440   4.050   3.278   5.888  0.4861 -0.0888  0.5620
 7936SOL    HW135441   4.006   3.363   5.882 -0.4517 -0.5663  0.6647
 7936SOL    HW235442   4.033   3.258   5.980  2.9745  0.2924  1.1264
 7937SOL     OW35443   1.934   2.867   7.774 -0.1367 -0.1447 -0.3682
 7937SOL    HW135444   1.952   2.818   7.854  1.7414  0.1515 -0.6074
 7937SOL    HW235445   1.848   2.836   7.745  0.4799  0.7424 -3.1624
 7938SOL     OW35446   1.490   4.658   7.924 -0.1687  0.0485  0.3246
 7938SOL    HW135447   1.495   4.619   7.837 -0.0635 -0.6247  0.6349
 7938SOL    HW235448   1.407   4.631   7.965  0.2772  0.1427  1.2851
 7939SOL     OW35449   3.058   3.371   3.800 -0.8654  0.1122 -0.4343
 7939SOL    HW135450   3.086   3.436   3.736 -1.6231  0.8711  0.0077
 7939SOL    HW235451   2.968   3.403   3.800 -1.1819 -0.7697 -0.0113
 7940SOL     OW35452   2.305   4.364   7.295  0.0726  0.4699 -0.4000
 7940SOL    HW135453   2.372   4.332   7.235 -0.9152 -0.8373 -0.7896
 7940SOL    HW235454   2.293   4.457   7.276 -1.0805  0.0392 -1.7272
 7941SOL     OW35455   1.130   2.673   7.069  0.1195  0.6086 -0.5835
 7941SOL    HW135456   1.084   2.688   7.152 -0.4391 -2.3580 -0.3715
 7941SOL    HW235457   1.170   2.586   7.069 -0.8305  0.1742 -1.0934
 7942SOL     OW35458   2.407   2.566   3.939 -0.0255 -0.7126  0.0429
 7942SOL    HW135459   2.405   2.610   3.854  0.5823  1.3555  1.1014
 7942SOL    HW235460   2.501   2.558   3.951  0.3501  2.1890 -0.9178
 7943SOL     OW35461   0.015   1.947   1.631 -0.3000 -0.7116  0.1047
 7943SOL    HW135462   4.709   1.909   1.709  1.2345 -2.4614  0.0560
 7943SOL    HW235463   0.030   2.038   1.657 -1.0306 -0.5707  0.0124
 7944SOL     OW35464   3.512   3.002   8.650 -0.2199 -0.8374  0.0959
 7944SOL    HW135465   3.540   2.940   8.582 -1.5124 -0.6991 -0.5616
 7944SOL    HW235466   3.440   2.945   8.676 -0.7748  0.2976  1.0346
 7945SOL     OW35467   4.235   3.817   1.599  0.1079 -0.8526  0.1008
 7945SOL    HW135468   4.207   3.898   1.558 -1.0752 -0.4234  1.7601
 7945SOL    HW235469   4.195   3.758   1.535  0.3077  0.1724 -0.9568
 7946SOL     OW35470   2.535   0.879   2.909 -0.0522  0.4466 -0.2897
 7946SOL    HW135471   2.627   0.884   2.934 -0.2025  2.3825 -0.1476
 7946SOL    HW235472   2.499   0.964   2.935  2.8763  1.0696  1.7422
 7947SOL     OW35473   4.595   4.345   0.674  0.6942  0.7932  0.5554
 7947SOL    HW135474   4.592   4.390   0.589  0.3968 -1.1156 -0.4668
 7947SOL    HW235475   4.632   4.407   0.736  4.2716 -0.6170 -0.1485
 7948SOL     OW35476   3.405   2.866   2.120  0.1784 -0.0469  0.0396
 7948SOL    HW135477   3.460   2.916   2.060 -0.6205  2.5730  1.4609
 7948SOL    HW235478   3.473   2.812   2.158  0.0932  0.1202  0.4280
 7949SOL     OW35479   2.924   0.724   4.978  0.1658 -0.2990  0.2599
 7949SOL    HW135480   2.943   0.812   4.949 -1.5562 -0.7472 -2.2493
 7949SOL    HW235481   2.987   0.674   4.926 -0.8196  0.1000 -1.2974
 7950SOL     OW35482   0.832   3.420   0.001 -0.2035  0.0876 -0.0762
 7950SOL    HW135483   0.915   3.377   0.022  0.7031  0.7860 -2.1613
 7950SOL    HW235484   0.786   3.426   0.084 -0.8090 -0.1589 -0.3965
 7951SOL     OW35485   3.610   2.344   7.702 -0.4650 -0.4775  0.5936
 7951SOL    HW135486   3.571   2.272   7.751  1.3415 -0.5574  1.8887
 7951SOL    HW235487   3.701   2.344   7.729  0.5651 -0.0762 -2.8316
 7952SOL     OW35488   1.419   1.361  11.964 -0.0106  0.2943 -0.0085
 7952SOL    HW135489   1.352   1.297  11.990  0.3637 -0.5589 -1.1177
 7952SOL    HW235490   1.389   1.440  12.008 -1.1423 -0.6874  0.9838
 7953SOL     OW35491   2.596   3.087  12.509 -0.3574  0.5729  0.2109
 7953SOL    HW135492   2.652   3.113  12.582  1.3434  1.0118 -1.2292
 7953SOL    HW235493   2.566   3.169  12.469 -1.6903  0.2538  0.5715
 7954SOL     OW35494   4.452   0.744   3.420 -0.0023 -0.2329  0.2491
 7954SOL    HW135495   4.468   0.694   3.500 -1.9184  0.0215  0.7767
 7954SOL    HW235496   4.356   0.743   3.414 -0.0508  0.7747  0.9379
 7955SOL     OW35497   2.596   3.788   5.484 -0.1169  0.0535 -0.7402
 7955SOL    HW135498   2.604   3.731   5.407  0.1646 -1.2342  0.2373
 7955SOL    HW235499   2.513   3.761   5.522  1.6006 -0.5369  2.6480
 7956SOL     OW35500   0.403   0.308   7.772  0.3026 -0.2007 -0.1009
 7956SOL    HW135501   0.409   0.402   7.786  0.8675 -0.4312  1.1221
 7956SOL    HW235502   0.453   0.288   7.692  1.6338  1.6037  0.2838
 7957SOL     OW35503   1.572   1.368  11.101 -0.5004 -0.0904  0.7764
 7957SOL    HW135504   1.481   1.342  11.084 -0.1591 -1.0116  0.4141
 7957SOL    HW235505   1.571   1.464  11.092 -1.7040 -0.2092 -0.3215
 7958SOL     OW35506   3.865   2.442  10.582 -0.2575 -0.1458 -0.1393
 7958SOL    HW135507   3.870   2.526  10.536 -1.1692  0.6055  1.1120
 7958SOL    HW235508   3.951   2.447  10.624 -0.4544 -1.8862  0.4514
 7959SOL     OW35509   3.729   3.028   4.585  0.5228  0.4624  0.1948
 7959SOL    HW135510   3.751   3.101   4.644 -2.6432 -0.5227  2.6040
 7959SOL    HW235511   3.644   3.047   4.545 -0.0632 -0.9699  0.7453
 7960SOL     OW35512   0.708   3.211   2.327  0.0628 -0.2778 -0.0340
 7960SOL    HW135513   0.748   3.143   2.381 -1.3690 -2.0279 -1.1951
 7960SOL    HW235514   0.644   3.152   2.287  0.4571 -0.1032 -0.9278
 7961SOL     OW35515   4.458   1.826   1.454 -0.4229 -0.3137 -0.6800
 7961SOL    HW135516   4.509   1.745   1.449 -2.4904 -1.5842 -1.4513
 7961SOL    HW235517   4.457   1.825   1.549 -3.6924  5.0805 -0.6516
 7962SOL     OW35518   4.449   3.034  12.404 -0.2985 -0.3646  0.5105
 7962SOL    HW135519   4.401   3.114  12.427 -1.6295 -0.4864 -1.8436
 7962SOL    HW235520   4.371   2.982  12.389 -0.6428  0.0650  0.7763
 7963SOL     OW35521   0.727   3.445  16.557 -0.1403  0.1245 -0.2927
 7963SOL    HW135522   0.699   3.421  16.645 -0.6287 -0.4367 -0.6052
 7963SOL    HW235523   0.785   3.372  16.532  0.3932  0.5571 -0.3124
 7964SOL     OW35524   2.813   2.008   5.480 -0.0242 -0.1933  0.1576
 7964SOL    HW135525   2.833   1.925   5.436  1.7174  0.8660 -1.0745
 7964SOL    HW235526   2.903   2.041   5.474  0.3193 -1.0275  0.6646
 7965SOL     OW35527   4.028   4.451   2.762  0.6857 -0.2324 -0.1681
 7965SOL    HW135528   4.008   4.519   2.827  0.8450 -1.4650  1.1813
 7965SOL    HW235529   4.108   4.408   2.793 -0.4373 -1.7501  0.6122
 7966SOL     OW35530   4.612   2.092   5.377 -0.2612  0.6338  0.0300
 7966SOL    HW135531   4.531   2.053   5.409  0.7211 -3.0172 -1.9563
 7966SOL    HW235532   4.586   2.179   5.348  1.7762  1.3294  0.2802
 7967SOL     OW35533   0.551   4.136  15.378  0.9163  0.1995 -0.0708
 7967SOL    HW135534   0.475   4.176  15.420  3.6151  0.5176  4.4245
 7967SOL    HW235535   0.516   4.096  15.298  0.9256  0.5492 -0.2524
 7968SOL     OW35536   0.103   2.110  14.725  0.2316 -0.2993  0.3626
 7968SOL    HW135537   0.090   2.165  14.647 -0.0761  0.4591  0.9473
 7968SOL    HW235538   0.198   2.109  14.728  0.0857 -1.8717  3.4407
 7969SOL     OW35539   0.937   3.272   8.258 -0.2183 -0.2671 -0.2348
 7969SOL    HW135540   0.899   3.359   8.269  1.1889 -0.0220  2.7617
 7969SOL    HW235541   0.875   3.224   8.314 -1.2035  0.2944 -0.8316
 7970SOL     OW35542   2.754   0.860   9.510 -0.2289  0.3754 -0.3658
 7970SOL    HW135543   2.819   0.930   9.508 -0.6711  0.7763 -0.6887
 7970SOL    HW235544   2.696   0.882   9.583 -0.5766  3.0692 -1.4520
 7971SOL     OW35545   3.906   1.425  10.152 -0.1329 -0.0213  0.3314
 7971SOL    HW135546   3.954   1.500  10.188  0.4819 -1.2701  2.1316
 7971SOL    HW235547   3.895   1.379  10.235  0.6461  1.5792  1.3282
 7972SOL     OW35548   0.070   0.114  12.781 -0.6934  0.0464 -0.2899
 7972SOL    HW135549   0.130   0.057  12.732  1.7649  1.6624  0.8483
 7972SOL    HW235550   0.086   0.088  12.872 -0.6893 -2.1380 -0.9067
 7973SOL     OW35551   1.827   3.369   3.387  0.0437  0.0436  0.5153
 7973SOL    HW135552   1.887   3.357   3.314 -1.0646  0.3925 -0.4548
 7973SOL    HW235553   1.819   3.464   3.390  3.0338  0.2326  2.3450
 7974SOL     OW35554   3.882   4.318   8.782  0.6220 -0.3596  0.2208
 7974SOL    HW135555   3.906   4.408   8.802 -0.0853  0.0687 -0.8599
 7974SOL    HW235556   3.788   4.315   8.797  0.6299 -0.7000  0.1986
 7975SOL     OW35557   0.425   3.072   1.670  0.2553  0.3371  0.2764
 7975SOL    HW135558   0.403   2.989   1.626  0.0766  0.0467  0.9088
 7975SOL    HW235559   0.354   3.071   1.734  0.1679 -0.7225  0.1745
 7976SOL     OW35560   3.854   3.892  11.915  0.1312  0.0359 -0.7072
 7976SOL    HW135561   3.798   3.963  11.883 -1.2435  0.6986  3.2247
 7976SOL    HW235562   3.916   3.868  11.845 -1.4463  0.1278 -2.1312
 7977SOL     OW35563   2.680   4.443   6.434  0.1691  0.1711  0.0293
 7977SOL    HW135564   2.635   4.370   6.477 -0.2767 -0.4712 -1.5003
 7977SOL    HW235565   2.669   4.411   6.344  0.9392  0.7670 -0.2728
 7978SOL     OW35566   3.449   4.234   2.449 -0.1839  0.3070  0.0927
 7978SOL    HW135567   3.527   4.289   2.440  0.7982 -0.8300  1.7962
 7978SOL    HW235568   3.430   4.240   2.542  1.0260 -0.0673  0.3664
 7979SOL     OW35569   1.907   3.041  14.574  0.6887 -0.4686 -0.0661
 7979SOL    HW135570   1.979   3.028  14.513  0.7233 -0.1824 -0.0859
 7979SOL    HW235571   1.916   2.963  14.630  2.0339  0.0268  0.4021
 7980SOL     OW35572   2.849   0.146   8.236  0.2697  0.3363  0.0236
 7980SOL    HW135573   2.866   0.060   8.196  0.7196 -0.0346  1.0123
 7980SOL    HW235574   2.938   0.182   8.233  0.5105 -0.2406  0.1190
 7981SOL     OW35575   1.523   3.914  16.540  0.7248  0.2377  0.5610
 7981SOL    HW135576   1.447   3.907  16.481  0.1785  0.5318  1.2295
 7981SOL    HW235577   1.515   3.839  16.599 -1.6999 -1.9950 -2.6023
 7982SOL     OW35578   2.034   3.204  16.626 -0.1503 -0.7488  0.5116
 7982SOL    HW135579   1.954   3.257  16.622  2.1180  2.6146  0.3265
 7982SOL    HW235580   2.037   3.170  16.536 -2.6947 -2.7067  1.1601
 7983SOL     OW35581   3.823   3.642  16.004 -0.0286  0.2674 -0.1021
 7983SOL    HW135582   3.869   3.646  15.920 -0.5375  2.8824 -0.2665
 7983SOL    HW235583   3.858   3.555  16.023  0.9752  0.6149 -0.3466
 7984SOL     OW35584   2.920   0.442   9.117 -0.0142 -0.5233  0.4619
 7984SOL    HW135585   2.911   0.532   9.085  0.8888 -0.5418  0.1649
 7984SOL    HW235586   2.853   0.406   9.059  0.5234  0.1294 -0.5590
 7985SOL     OW35587   2.217   2.152   9.534 -0.1264 -0.2048 -0.3935
 7985SOL    HW135588   2.157   2.146   9.608  1.5642 -1.6673  0.8528
 7985SOL    HW235589   2.294   2.103   9.566 -0.0443  0.9298  1.1589
 7986SOL     OW35590   0.105   3.959   9.942 -0.1350  0.3299  0.2458
 7986SOL    HW135591   0.164   3.960  10.017  3.5624 -1.4838 -2.6095
 7986SOL    HW235592   0.166   3.963   9.868 -1.0067 -1.6027 -0.5780
 7987SOL     OW35593   2.361   1.069   8.211  0.0287  0.0471  0.0414
 7987SOL    HW135594   2.399   1.050   8.125 -2.6264 -0.9327 -0.9125
 7987SOL    HW235595   2.339   1.162   8.199  0.5247 -0.0635 -1.7072
 7988SOL     OW35596   3.691   1.638   3.155  0.5176 -0.4283  0.6580
 7988SOL    HW135597   3.597   1.634   3.136  0.5490 -0.7136  0.5600
 7988SOL    HW235598   3.721   1.565   3.100 -0.0718 -0.6517  0.6224
 7989SOL     OW35599   1.212   2.641   4.651  0.1489  0.4999 -0.1042
 7989SOL    HW135600   1.143   2.614   4.590  0.6113 -0.5084 -0.1797
 7989SOL    HW235601   1.287   2.673   4.600 -0.7400  1.5426 -0.7550
 7990SOL     OW35602   3.062   0.586   9.814 -0.5405 -0.1409  0.3117
 7990SOL    HW135603   3.146   0.625   9.788 -0.3748 -0.2993  0.6071
 7990SOL    HW235604   2.999   0.627   9.755  2.0418  0.3816 -2.0467
 7991SOL     OW35605   0.785   3.139   8.422  0.4710  1.2304 -0.1705
 7991SOL    HW135606   0.834   3.137   8.504  1.0109 -0.3794 -0.5544
 7991SOL    HW235607   0.719   3.071   8.428  1.2080  0.5331 -0.0001
 7992SOL     OW35608   0.384   4.269   4.961 -0.1555 -0.6832  0.6290
 7992SOL    HW135609   0.450   4.330   4.994 -0.1828 -0.3665  0.0957
 7992SOL    HW235610   0.362   4.316   4.881 -0.1146  0.8701  1.5371
 7993SOL     OW35611   3.504   3.875   7.051  0.2428 -0.4391  0.3161
 7993SOL    HW135612   3.420   3.832   7.066  0.1594 -0.8583 -1.3358
 7993SOL    HW235613   3.483   3.964   7.023 -4.0134 -0.7625  2.4717
 7994SOL     OW35614   3.984   2.942   2.177 -0.5075  0.2184  0.0164
 7994SOL    HW135615   3.967   2.848   2.170 -0.0951  0.1740 -0.3662
 7994SOL    HW235616   3.941   2.956   2.261  0.2003  1.2580  0.1981
 7995SOL     OW35617   1.426   0.694   5.996  0.7576 -0.1828  0.5699
 7995SOL    HW135618   1.459   0.656   6.078 -2.2392  2.8849  3.2136
 7995SOL    HW235619   1.369   0.763   6.031 -1.8932 -1.4846 -1.1925
 7996SOL     OW35620   1.361   1.364  10.072  0.1949  0.0335  0.5925
 7996SOL    HW135621   1.353   1.408   9.987  0.1469 -1.6050 -0.2430
 7996SOL    HW235622   1.334   1.273  10.061 -1.5347  0.5657  0.4445
 7997SOL     OW35623   2.954   2.314   3.895  0.3334  0.1187  0.0594
 7997SOL    HW135624   3.013   2.304   3.970 -0.0321 -2.3046  0.0030
 7997SOL    HW235625   2.985   2.395   3.853 -1.6058  1.2680  0.8687
 7998SOL     OW35626   0.623   4.450   6.297  0.6674 -0.8800 -0.0362
 7998SOL    HW135627   0.701   4.403   6.328  1.0705  0.2157  0.6230
 7998SOL    HW235628   0.551   4.404   6.341  0.4625 -1.2391 -0.7573
 7999SOL     OW35629   2.415   3.414   3.008 -0.4791 -0.2153  0.2613
 7999SOL    HW135630   2.493   3.398   2.955 -0.0430  3.3439 -0.2135
 7999SOL    HW235631   2.397   3.504   2.981  0.8247  0.2855  1.0227
 8000SOL     OW35632   4.710   3.344   8.473  0.0517  0.0229 -0.4424
 8000SOL    HW135633   4.666   3.412   8.422 -0.5971 -0.6036 -0.7091
 8000SOL    HW235634   0.061   3.337   8.429  0.3129 -1.0396  0.2313
 8001SOL     OW35635   0.720   4.247   7.613  0.8387 -0.0927  0.1922
 8001SOL    HW135636   0.725   4.193   7.691  0.3202  1.9543  1.6444
 8001SOL    HW235637   0.661   4.315   7.646 -0.1001  0.3756 -2.3908
 8002SOL     OW35638   2.847   2.722  10.340  0.2726  0.2279 -0.4635
 8002SOL    HW135639   2.900   2.796  10.370 -1.2426  1.1547 -0.0483
 8002SOL    HW235640   2.877   2.648  10.392  1.2832  1.0972  0.1980
 8003SOL     OW35641   1.495   1.074   3.585  0.2466 -0.5117  1.2173
 8003SOL    HW135642   1.490   1.101   3.493 -3.7304 -1.0902  1.2760
 8003SOL    HW235643   1.511   0.980   3.583  1.3047 -0.3034 -0.6500
 8004SOL     OW35644   4.419   1.123  12.451  0.3123  0.1193  0.1117
 8004SOL    HW135645   4.492   1.090  12.399 -0.4202 -1.2545 -0.0564
 8004SOL    HW235646   4.374   1.043  12.480 -0.8300  0.0290 -1.9190
 8005SOL     OW35647   4.230   3.262   4.440 -0.3423 -0.2083 -0.2869
 8005SOL    HW135648   4.254   3.345   4.481  0.0850 -0.2573 -0.4420
 8005SOL    HW235649   4.187   3.216   4.512 -1.0862  0.5113 -0.2669
 8006SOL     OW35650   3.527   2.735  14.421 -0.2483 -0.1032  0.2719
 8006SOL    HW135651   3.431   2.727  14.413 -0.5270  3.8027 -0.2183
 8006SOL    HW235652   3.548   2.735  14.328  0.2430  2.1819  0.3723
 8007SOL     OW35653   1.119   1.460   7.258 -0.2266 -0.0338  0.7085
 8007SOL    HW135654   1.104   1.483   7.166  0.1514  2.0982  1.1778
 8007SOL    HW235655   1.173   1.383   7.238  1.7711  1.0533  1.8479
 8008SOL     OW35656   4.000   3.111  10.652  0.1729 -0.1684  0.4425
 8008SOL    HW135657   3.984   3.195  10.609  3.0570 -1.3506 -2.9182
 8008SOL    HW235658   4.069   3.077  10.595 -0.1338  1.2417 -0.7800
 8009SOL     OW35659   3.040   2.881   4.970 -0.0280  0.6466 -0.1710
 8009SOL    HW135660   3.017   2.970   4.996  2.5836  0.7166  1.9516
 8009SOL    HW235661   3.131   2.885   5.000 -0.0029 -1.0476 -0.0089
 8010SOL     OW35662   1.327   1.040  11.181 -0.3077 -0.3098 -0.5818
 8010SOL    HW135663   1.239   1.031  11.217  0.1746 -1.1004  0.4150
 8010SOL    HW235664   1.372   0.964  11.218 -0.7363  0.9211  2.4668
 8011SOL     OW35665   0.812   1.767   3.725 -0.0158  0.5446  0.3796
 8011SOL    HW135666   0.718   1.763   3.743 -0.3004 -0.1111 -1.2866
 8011SOL    HW235667   0.857   1.801   3.802  1.6915  0.2799 -0.5162
 8012SOL     OW35668   3.650   1.052   2.768  0.5053  0.5896  0.3758
 8012SOL    HW135669   3.690   0.966   2.753  2.1948  1.8201 -2.1747
 8012SOL    HW235670   3.719   1.115   2.787  0.7274  0.1430  1.0364
 8013SOL     OW35671   0.039   4.673   2.310  0.5606 -0.7149 -0.1389
 8013SOL    HW135672   4.716   0.006   2.345  0.9940 -0.4623  0.0812
 8013SOL    HW235673   0.122   4.715   2.290  2.0556 -2.2653  2.7986
 8014SOL     OW35674   3.759   4.135  12.098  0.6481  0.7259  0.0143
 8014SOL    HW135675   3.837   4.097  12.058  1.1831 -0.5172  2.2873
 8014SOL    HW235676   3.741   4.201  12.030 -0.6107 -0.5488 -0.8892
 8015SOL     OW35677   3.918   0.253   5.680 -0.3048 -0.3885  0.0138
 8015SOL    HW135678   3.864   0.206   5.743  0.5376 -0.2452  0.8551
 8015SOL    HW235679   4.004   0.238   5.719  0.3794  0.5631 -1.1222
 8016SOL     OW35680   2.803   1.798   3.300 -0.0534  0.2376  0.7271
 8016SOL    HW135681   2.873   1.843   3.347  2.3187  0.0787 -2.6632
 8016SOL    HW235682   2.752   1.870   3.262  0.7018  0.2723 -0.2075
 8017SOL     OW35683   3.950   2.248   3.404 -0.0080  0.3690  0.4553
 8017SOL    HW135684   3.889   2.321   3.409 -1.9175 -1.2705  0.9508
 8017SOL    HW235685   4.037   2.281   3.381 -0.5427 -0.0853 -2.2052
 8018SOL     OW35686   0.497   1.950   5.471  0.7475  0.1504 -0.0515
 8018SOL    HW135687   0.421   1.893   5.464  1.2619 -0.7153  1.4309
 8018SOL    HW235688   0.483   2.013   5.542 -4.2232 -1.5311  0.4748
 8019SOL     OW35689   1.255   3.145  13.978  0.0531  0.8253 -0.2806
 8019SOL    HW135690   1.320   3.159  14.047 -0.0768  0.6369 -0.1193
 8019SOL    HW235691   1.184   3.178  14.033 -0.7872 -1.7546  0.1940
 8020SOL     OW35692   2.024   0.494   4.819 -0.0534  0.0709 -0.0243
 8020SOL    HW135693   2.041   0.562   4.884 -2.7670  0.6008  0.1077
 8020SOL    HW235694   2.059   0.424   4.874  0.8585  0.4749 -0.0839
 8021SOL     OW35695   3.290   0.995  11.794  0.2005 -0.2287  0.3301
 8021SOL    HW135696   3.211   0.958  11.754  1.5752 -2.1444 -0.6156
 8021SOL    HW235697   3.305   1.067  11.733  0.5522 -0.0426  0.6416
 8022SOL     OW35698   4.265   1.207   5.731 -0.2417 -0.2556 -0.1165
 8022SOL    HW135699   4.231   1.284   5.686  0.5457 -0.7705 -1.5869
 8022SOL    HW235700   4.349   1.236   5.768 -0.9389  0.5878  0.7879
 8023SOL     OW35701   3.878   4.618  16.839  0.0162  0.4549  0.1554
 8023SOL    HW135702   3.876   4.528  16.806 -0.6719  0.5159  0.0206
 8023SOL    HW235703   3.893   4.664  16.757 -0.5793 -0.5061 -0.4900
 8024SOL     OW35704   3.920   4.229   9.602 -0.0794 -0.1488  0.0152
 8024SOL    HW135705   3.993   4.240   9.542  0.3650 -1.7199  0.2822
 8024SOL    HW235706   3.917   4.311   9.652 -0.3756  0.2464 -0.6441
 8025SOL     OW35707   1.649   2.702  16.973 -0.4362  0.5494  0.8852
 8025SOL    HW135708   1.586   2.694  17.044 -2.0079  0.6693 -0.5026
 8025SOL    HW235709   1.645   2.616  16.931  2.6987  1.2215 -0.8204
 8026SOL     OW35710   1.414   4.198   4.907  0.5295 -0.3766  0.6731
 8026SOL    HW135711   1.332   4.241   4.930  0.7133  0.6806 -0.6288
 8026SOL    HW235712   1.420   4.197   4.811 -0.9908 -1.9599  0.6011
 8027SOL     OW35713   3.530   0.740   6.242  0.0543  0.1518  0.0485
 8027SOL    HW135714   3.597   0.797   6.205  0.0996 -0.1777 -0.3821
 8027SOL    HW235715   3.509   0.787   6.322 -2.1587 -0.9520  0.1105
 8028SOL     OW35716   4.329   1.201  16.157  0.1751 -0.2013 -0.3798
 8028SOL    HW135717   4.278   1.205  16.238  0.9846 -0.1844  0.1276
 8028SOL    HW235718   4.338   1.295  16.137  0.1297 -0.6707 -2.5796
 8029SOL     OW35719   0.891   3.808  14.594 -0.0542  0.1296  0.5752
 8029SOL    HW135720   0.857   3.893  14.621  3.5415  1.8203 -0.2654
 8029SOL    HW235721   0.855   3.786  14.508  0.1550 -3.5289  1.4149
 8030SOL     OW35722   2.436   3.326   6.923  0.2331 -0.3338  0.6432
 8030SOL    HW135723   2.361   3.304   6.868  0.3558 -1.6472  1.0001
 8030SOL    HW235724   2.396   3.383   6.989  0.4351  0.1272  0.3688
 8031SOL     OW35725   1.258   2.445   0.046  0.5282  0.3509 -0.3452
 8031SOL    HW135726   1.243   2.519  17.725  1.0089  0.7160 -0.0154
 8031SOL    HW235727   1.208   2.381  17.735 -0.2717 -0.2635  1.2637
 8032SOL     OW35728   0.859   2.162   3.698 -0.0255  0.0565  0.2301
 8032SOL    HW135729   0.871   2.253   3.670  2.1070 -1.7801 -4.8456
 8032SOL    HW235730   0.820   2.172   3.785  0.3696  0.9619  0.3084
 8033SOL     OW35731   0.987   3.521   0.370 -0.1629 -0.4781  0.4189
 8033SOL    HW135732   1.010   3.607   0.405  1.0045  0.1090 -1.8315
 8033SOL    HW235733   1.013   3.531   0.278  0.5178  0.2871  0.6906
 8034SOL     OW35734   2.129   2.366  10.138  0.2929 -0.3867 -0.0091
 8034SOL    HW135735   2.062   2.435  10.130  4.3565  3.2371 -2.7041
 8034SOL    HW235736   2.079   2.287  10.118 -0.5681 -0.2945  1.7869
 8035SOL     OW35737   3.790   1.704   4.386 -0.2203  0.5781  0.6037
 8035SOL    HW135738   3.767   1.683   4.477 -0.3961 -0.0661  0.4128
 8035SOL    HW235739   3.839   1.786   4.391 -0.6702  0.9163 -0.8191
 8036SOL     OW35740   0.729   3.172  11.989 -0.3819  0.0703 -0.7425
 8036SOL    HW135741   0.771   3.203  12.069  2.2608 -1.7441 -1.4100
 8036SOL    HW235742   0.782   3.092  11.980 -0.7694 -0.0049 -2.3531
 8037SOL     OW35743   0.074   0.238   4.028 -0.0235  0.0899 -0.3926
 8037SOL    HW135744   0.166   0.222   4.009  0.3839  2.2101 -0.1165
 8037SOL    HW235745   0.045   0.148   4.044 -0.6901  0.0490 -1.8115
 8038SOL     OW35746   0.324   0.262   0.534 -0.7027 -0.0082  0.4046
 8038SOL    HW135747   0.387   0.334   0.536  1.7253 -2.0562 -2.6563
 8038SOL    HW235748   0.255   0.295   0.476  1.2110  2.4431 -0.4752
 8039SOL     OW35749   1.918   4.640   1.754 -0.2415 -0.5815  0.2688
 8039SOL    HW135750   1.981   4.691   1.703 -2.1025  2.4051  0.9280
 8039SOL    HW235751   1.847   4.703   1.766  1.2975  1.7199 -2.5916
 8040SOL     OW35752   3.544   0.635   8.746 -0.3134  0.1373  0.7062
 8040SOL    HW135753   3.576   0.544   8.749 -0.3484  0.1253  0.7180
 8040SOL    HW235754   3.625   0.677   8.718  0.1903 -0.6183  1.0191
 8041SOL     OW35755   1.354   2.366   5.039  0.1430  0.1195 -0.1355
 8041SOL    HW135756   1.349   2.363   4.944 -1.7082 -1.1498 -0.0016
 8041SOL    HW235757   1.281   2.305   5.048  0.2128  0.0612  0.0385
 8042SOL     OW35758   4.004   2.905  14.818 -0.6946 -0.4886  0.7948
 8042SOL    HW135759   3.940   2.859  14.764  0.2351 -0.3693 -0.3939
 8042SOL    HW235760   4.031   2.839  14.881  1.4841 -0.6171 -0.2726
 8043SOL     OW35761   3.734   4.562   6.844  0.4184  0.4308  0.3309
 8043SOL    HW135762   3.820   4.533   6.872  1.5967  1.5095 -2.1728
 8043SOL    HW235763   3.755   4.570   6.751 -0.7139  2.7347  0.2782
 8044SOL     OW35764   2.075   1.261   0.396  0.0868  0.1760 -0.0475
 8044SOL    HW135765   2.021   1.191   0.359  0.2189  1.2486 -2.2775
 8044SOL    HW235766   2.095   1.307   0.314  0.3139 -1.2366 -0.7975
 8045SOL     OW35767   0.935   4.561   1.394  0.2250  0.0772 -0.0421
 8045SOL    HW135768   0.945   4.506   1.317 -1.8614 -0.9994  0.4432
 8045SOL    HW235769   0.985   4.641   1.380  1.2218 -0.7729 -1.2785
 8046SOL     OW35770   3.528   0.282   2.421  0.5046 -0.2091 -0.5114
 8046SOL    HW135771   3.602   0.318   2.372  0.5802 -0.1993 -0.3885
 8046SOL    HW235772   3.458   0.347   2.426  1.8600  1.4535 -2.8556
 8047SOL     OW35773   3.826   2.668   4.808  0.4974  0.2514 -0.5132
 8047SOL    HW135774   3.896   2.604   4.819 -0.2659 -0.6047 -0.6045
 8047SOL    HW235775   3.874   2.743   4.774 -1.0164  2.0432  1.2325
 8048SOL     OW35776   3.848   3.313   6.366 -0.3261  0.6141 -0.2908
 8048SOL    HW135777   3.897   3.366   6.428 -0.5586  0.8443 -0.3013
 8048SOL    HW235778   3.851   3.227   6.407  0.7979  0.2767 -1.0904
 8049SOL     OW35779   0.525   3.098  11.377  0.2690 -0.1471 -0.0880
 8049SOL    HW135780   0.491   3.185  11.397  0.4656 -0.0746 -0.0679
 8049SOL    HW235781   0.480   3.046  11.444  1.2215  3.2624  3.1781
 8050SOL     OW35782   4.467   0.153   9.673 -0.3383 -0.1053 -0.1084
 8050SOL    HW135783   4.400   0.176   9.608 -1.0130 -1.8297 -0.0304
 8050SOL    HW235784   4.409   0.146   9.749  0.9748 -0.6847  0.8461
 8051SOL     OW35785   2.870   0.614   4.218 -0.1768 -0.3236  0.0216
 8051SOL    HW135786   2.929   0.575   4.283 -0.3545  2.2555  1.7291
 8051SOL    HW235787   2.806   0.544   4.233 -1.4199  0.4040 -1.8963
 8052SOL     OW35788   2.608   3.900   6.893 -0.1097 -0.1506  0.2269
 8052SOL    HW135789   2.528   3.951   6.909 -0.8697 -0.9288 -1.0958
 8052SOL    HW235790   2.658   3.921   6.971  0.7719 -1.7016  0.0629
 8053SOL     OW35791   4.070   2.537   5.201 -0.0584 -0.0361 -0.2061
 8053SOL    HW135792   4.003   2.477   5.170 -0.4815  0.5273 -0.3723
 8053SOL    HW235793   4.105   2.564   5.117 -2.2092  0.8561 -0.8123
 8054SOL     OW35794   0.202   3.092   8.312 -0.0540  0.0588  0.1187
 8054SOL    HW135795   0.239   3.124   8.394 -0.6361 -1.2209  0.8915
 8054SOL    HW235796   0.216   3.167   8.254 -0.8411  0.9989  1.1482
 8055SOL     OW35797   1.530   0.474   5.587 -0.0607 -0.0191 -0.1483
 8055SOL    HW135798   1.453   0.445   5.635  1.3959 -0.5102  1.8798
 8055SOL    HW235799   1.561   0.545   5.644  0.6414  0.4965 -1.1652
 8056SOL     OW35800   0.109   4.686   4.346 -0.1282 -0.4156  0.4548
 8056SOL    HW135801   0.113   4.621   4.417 -1.4672 -1.0496 -0.0559
 8056SOL    HW235802   0.056   0.018   4.389  1.2886 -0.2289  1.8849
 8057SOL     OW35803   4.151   4.620   4.787 -0.0813 -0.8281  0.3511
 8057SOL    HW135804   4.187   4.684   4.848 -1.8098  0.2942  0.1711
 8057SOL    HW235805   4.078   4.591   4.841 -1.8402  1.1980 -0.9332
 8058SOL     OW35806   3.758   1.343   5.117 -0.6572  0.6118  0.0491
 8058SOL    HW135807   3.700   1.419   5.106 -2.1651 -0.6734 -0.9264
 8058SOL    HW235808   3.808   1.371   5.194 -1.0039 -0.1244  0.5347
 8059SOL     OW35809   0.516   2.386   2.870  0.8655  0.1234  0.1240
 8059SOL    HW135810   0.537   2.362   2.960  0.4473 -2.3189 -0.4475
 8059SOL    HW235811   0.599   2.372   2.823  0.1377 -3.2313 -0.1510
 8060SOL     OW35812   3.716   0.091  15.507  0.2057  0.2943 -0.0092
 8060SOL    HW135813   3.754   0.004  15.523 -0.4626  0.2568  1.4147
 8060SOL    HW235814   3.788   0.149  15.532  1.1778 -0.4615 -1.0472
 8061SOL     OW35815   4.657   2.120   7.536 -0.1690  0.0368 -0.7604
 8061SOL    HW135816   4.673   2.124   7.442  1.3923 -2.4723 -0.5825
 8061SOL    HW235817   0.003   2.160   7.570 -0.8305  1.5278 -0.9473
 8062SOL     OW35818   3.940   1.506   6.771  0.4451 -0.1029  0.0218
 8062SOL    HW135819   4.015   1.476   6.719  0.6221 -1.1804  0.9025
 8062SOL    HW235820   3.950   1.463   6.855  1.5437 -0.3271 -0.2252
 8063SOL     OW35821   0.614   3.986  11.577  0.4864 -0.9571  0.1676
 8063SOL    HW135822   0.594   4.001  11.484 -0.3365  2.1036  0.8508
 8063SOL    HW235823   0.569   4.062  11.614 -0.7701 -1.9277  0.6234
 8064SOL     OW35824   1.490   4.615   8.773 -0.6498  0.0214 -0.4701
 8064SOL    HW135825   1.523   4.672   8.843  0.4108 -0.0063 -0.9431
 8064SOL    HW235826   1.398   4.607   8.799  0.0041 -0.5508  1.7333
 8065SOL     OW35827   1.215   2.922  13.582  0.0989 -0.3537  0.1615
 8065SOL    HW135828   1.201   2.997  13.524  2.6369  1.5334  1.9891
 8065SOL    HW235829   1.310   2.923  13.593 -0.0239  1.1175  1.0786
 8066SOL     OW35830   3.616   3.446   5.033 -0.0806  0.5484 -0.8147
 8066SOL    HW135831   3.659   3.479   4.954  0.7934  2.2860  0.3608
 8066SOL    HW235832   3.595   3.527   5.081 -0.6221 -1.3011  2.0662
 8067SOL     OW35833   4.112   4.483   9.927  0.6895  0.1180  0.4477
 8067SOL    HW135834   4.167   4.468   9.850 -1.1590 -0.8559 -0.6935
 8067SOL    HW235835   4.137   4.410   9.984  2.1873 -0.3027 -0.7430
 8068SOL     OW35836   0.731   2.218   8.280  0.4287 -0.2333  0.2373
 8068SOL    HW135837   0.653   2.265   8.251  0.6767  0.4352  0.6550
 8068SOL    HW235838   0.704   2.127   8.286 -0.7359  0.1759  1.2034
 8069SOL     OW35839   4.158   3.306   2.431 -0.0363  0.0260  0.3688
 8069SOL    HW135840   4.207   3.314   2.513  1.7787  1.5916 -0.8667
 8069SOL    HW235841   4.072   3.269   2.453  0.1144 -0.1031  0.7397
 8070SOL     OW35842   4.131   3.385   7.093 -0.5831 -0.0341  0.0756
 8070SOL    HW135843   4.059   3.438   7.061 -1.2221  0.0636  1.6847
 8070SOL    HW235844   4.132   3.414   7.184 -0.5278 -1.3745  0.5075
 8071SOL     OW35845   0.257   2.931   0.058  0.8192 -0.4995  0.3673
 8071SOL    HW135846   0.185   2.924   0.120  0.1038 -1.1586 -0.5466
 8071SOL    HW235847   0.243   2.859  17.735  0.8905 -1.8605  1.9493
 8072SOL     OW35848   1.726   1.118  14.118 -0.2662 -0.0380 -0.3576
 8072SOL    HW135849   1.761   1.192  14.069 -0.3566  0.3648  0.1862
 8072SOL    HW235850   1.649   1.090  14.068  1.0791 -0.3376 -2.2874
 8073SOL     OW35851   1.774   4.136   8.232 -0.1531  0.0454  0.8203
 8073SOL    HW135852   1.715   4.211   8.229 -0.5212 -0.3605 -1.8048
 8073SOL    HW235853   1.843   4.174   8.177  0.6475 -1.8038  0.5337
 8074SOL     OW35854   0.323   0.366   3.486 -0.1770 -0.4302  0.5428
 8074SOL    HW135855   0.378   0.325   3.553 -0.1928 -1.1568  0.1034
 8074SOL    HW235856   0.377   0.440   3.458  0.4882 -0.6878  1.1329
 8075SOL     OW35857   2.172   1.084   6.803  0.6545 -0.9364  0.0571
 8075SOL    HW135858   2.220   1.134   6.869 -0.8351  0.4465  0.0907
 8075SOL    HW235859   2.250   1.061   6.752  1.4075  2.5052 -0.3409
 8076SOL     OW35860   4.537   1.382   6.092 -0.0627 -0.6445  0.2930
 8076SOL    HW135861   4.628   1.392   6.121  0.1452  0.0292 -0.5758
 8076SOL    HW235862   4.518   1.292   6.120  1.3927 -2.1346 -3.3883
 8077SOL     OW35863   4.028   3.549  12.328 -0.2141  0.2506 -0.3228
 8077SOL    HW135864   3.978   3.614  12.280 -0.4671  0.2055 -0.1178
 8077SOL    HW235865   4.115   3.552  12.288 -0.0880 -1.1673 -0.1751
 8078SOL     OW35866   0.011   4.239   6.407  0.0056 -0.0422 -0.7543
 8078SOL    HW135867   0.051   4.161   6.444 -0.2069  0.1651 -0.0834
 8078SOL    HW235868   4.675   4.257   6.469  1.7431  1.0121  0.9281
 8079SOL     OW35869   2.984   1.738   5.899 -0.3089  0.0460  0.2603
 8079SOL    HW135870   3.016   1.688   5.974 -0.2519 -0.8296 -0.3444
 8079SOL    HW235871   2.986   1.679   5.824 -0.9961  1.0038 -0.5058
 8080SOL     OW35872   4.300   2.659  12.247  0.3904 -0.2182 -0.3010
 8080SOL    HW135873   4.226   2.638  12.190  1.3263  0.8349 -1.9115
 8080SOL    HW235874   4.276   2.747  12.277 -2.3103 -0.9024 -0.4639
 8081SOL     OW35875   4.562   2.554   4.146  0.0454  0.6598  0.1968
 8081SOL    HW135876   4.553   2.465   4.114  2.2574  0.6894 -0.5328
 8081SOL    HW235877   4.611   2.543   4.228  2.1935  0.2953 -1.1187
 8082SOL     OW35878   0.645   0.721  16.679  0.3425 -0.2631 -0.1559
 8082SOL    HW135879   0.583   0.693  16.746 -0.2924 -0.0716 -0.6540
 8082SOL    HW235880   0.677   0.640  16.638  1.5303  0.2494 -0.2436
 8083SOL     OW35881   1.721   2.317   9.019 -0.2619 -0.2824 -0.2670
 8083SOL    HW135882   1.685   2.369   9.090 -0.7473  0.1560 -0.8378
 8083SOL    HW235883   1.713   2.383   8.950 -0.0321 -0.2720 -0.2841
 8084SOL     OW35884   0.917   2.859  14.464 -0.6086 -0.3019 -0.1835
 8084SOL    HW135885   0.921   2.934  14.404  0.8623 -0.4659 -0.2841
 8084SOL    HW235886   1.004   2.822  14.448 -0.1306  1.1681 -1.0018
 8085SOL     OW35887   1.705   2.938   9.645  0.0326 -0.1738  0.0874
 8085SOL    HW135888   1.760   3.010   9.617 -1.0156 -0.0263 -1.6112
 8085SOL    HW235889   1.685   2.883   9.569 -1.9438  0.5189  0.1139
 8086SOL     OW35890   2.966   4.114   7.763 -0.5049 -0.0379 -0.9833
 8086SOL    HW135891   2.977   4.155   7.677  1.8684  1.0165 -0.1799
 8086SOL    HW235892   3.039   4.054   7.748  0.5533  1.0655 -0.2421
 8087SOL     OW35893   4.451   1.551   5.375  0.3888  0.3532  0.0402
 8087SOL    HW135894   4.441   1.646   5.386  0.0174  0.4818 -1.4130
 8087SOL    HW235895   4.474   1.516   5.461 -0.9776 -1.0978 -0.1925
 8088SOL     OW35896   2.800   3.104   3.001  0.5383 -0.8929  0.1991
 8088SOL    HW135897   2.863   3.089   2.932  1.8097 -1.1444  1.4170
 8088SOL    HW235898   2.852   3.155   3.063 -2.0830 -0.7722  2.2985
 8089SOL     OW35899   3.306   4.196   4.972 -0.1145 -0.7514 -0.6501
 8089SOL    HW135900   3.311   4.256   5.047  0.1706 -0.2434 -1.0716
 8089SOL    HW235901   3.223   4.158   5.000 -0.3679  1.0067  0.9526
 8090SOL     OW35902   0.869   2.243   2.783 -0.1732  0.4399 -0.1344
 8090SOL    HW135903   0.811   2.307   2.741 -0.5012  0.5393  0.4687
 8090SOL    HW235904   0.938   2.295   2.824 -1.1872 -0.5567  2.8676
 8091SOL     OW35905   1.762   4.165  16.948 -0.5149 -0.0219 -0.5902
 8091SOL    HW135906   1.723   4.078  16.956 -2.7708  1.1047  0.5907
 8091SOL    HW235907   1.749   4.202  17.035  0.2836  1.5772 -1.1620
 8092SOL     OW35908   1.114   3.376  12.206  0.2182  0.3601  0.2923
 8092SOL    HW135909   1.068   3.309  12.257  0.9926  0.1864  0.7603
 8092SOL    HW235910   1.076   3.355  12.121 -1.1948  2.6141  0.3680
 8093SOL     OW35911   0.562   4.477  13.328 -0.1284 -0.1791 -0.9916
 8093SOL    HW135912   0.618   4.405  13.299 -1.7651 -1.0122 -2.0779
 8093SOL    HW235913   0.577   4.481  13.423  3.0044 -1.5958 -1.4376
 8094SOL     OW35914   2.889   0.123   0.813 -0.2354 -0.0858 -0.5050
 8094SOL    HW135915   2.818   0.128   0.749 -0.7831 -2.7776 -0.1230
 8094SOL    HW235916   2.963   0.158   0.764  0.5862 -1.4391 -0.2389
 8095SOL     OW35917   3.210   2.635  12.449 -0.0237 -0.5572  0.1406
 8095SOL    HW135918   3.135   2.579  12.471 -0.0924 -1.2827 -1.9672
 8095SOL    HW235919   3.213   2.652  12.355  0.3634 -0.7763  0.1122
 8096SOL     OW35920   4.641   0.135   3.355  0.5649 -0.0561 -0.5316
 8096SOL    HW135921   4.716   0.189   3.329  0.4883 -0.3121 -1.2726
 8096SOL    HW235922   4.662   0.043   3.336  1.8515  0.1545 -0.1095
 8097SOL     OW35923   4.122   2.602   6.769 -0.1304  0.6891  0.4856
 8097SOL    HW135924   4.153   2.693   6.766  1.3049  0.3007  3.2759
 8097SOL    HW235925   4.186   2.565   6.830  0.4358 -0.8742 -1.0550
 8098SOL     OW35926   4.141   2.276   4.931  0.2517 -0.2857 -0.0027
 8098SOL    HW135927   4.218   2.331   4.947 -1.0359  1.9984 -1.6331
 8098SOL    HW235928   4.176   2.212   4.869 -1.1443 -2.2129  1.2077
 8099SOL     OW35929   4.408   2.364  12.578 -0.1258 -0.1542 -0.6678
 8099SOL    HW135930   4.497   2.386  12.603  0.2002 -1.7361 -0.4727
 8099SOL    HW235931   4.373   2.454  12.578  0.7826  0.1873 -3.7780
 8100SOL     OW35932   1.827   3.416   2.994  0.1124 -0.3409  0.2763
 8100SOL    HW135933   1.891   3.471   3.039  0.0087  1.3236 -1.5935
 8100SOL    HW235934   1.843   3.328   3.029  0.5894 -1.7253 -3.4608
 8101SOL     OW35935   3.882   2.136   9.133 -0.0730  0.1008  0.4259
 8101SOL    HW135936   3.957   2.110   9.186  0.1036  0.1427  0.1968
 8101SOL    HW235937   3.846   2.172   9.214 -2.1580 -0.5630 -0.1812
 8102SOL     OW35938   2.682   3.512   5.370 -0.1202 -0.0404 -0.2148
 8102SOL    HW135939   2.684   3.453   5.445  0.7844 -0.1834 -0.3526
 8102SOL    HW235940   2.776   3.508   5.350 -0.0238  0.3659  0.1558
 8103SOL     OW35941   2.874   4.276   7.529  0.1498 -0.2749 -0.6901
 8103SOL    HW135942   2.848   4.367   7.545  1.2465  0.0203 -0.5775
 8103SOL    HW235943   2.825   4.260   7.448 -1.4661 -1.4339  0.5131
 8104SOL     OW35944   3.880   2.672  10.399 -0.8340  0.0280  0.3215
 8104SOL    HW135945   3.974   2.678  10.385 -0.9077 -0.5918 -0.4392
 8104SOL    HW235946   3.870   2.751  10.452  1.6191 -0.5391  1.6287
 8105SOL     OW35947   1.823   3.050  11.924 -0.3341 -0.0640  0.0666
 8105SOL    HW135948   1.875   3.094  11.991 -0.5875  1.6258 -0.8351
 8105SOL    HW235949   1.773   2.995  11.984 -1.0921  2.3044  1.5806
 8106SOL     OW35950   2.490   4.069   5.783 -0.1650 -0.1436 -0.2938
 8106SOL    HW135951   2.564   4.010   5.776  0.1458  0.3354 -1.0089
 8106SOL    HW235952   2.533   4.155   5.789 -0.3963 -0.1437  1.6253
 8107SOL     OW35953   3.142   3.009   3.253  0.1195 -0.0286 -0.2278
 8107SOL    HW135954   3.073   2.945   3.232 -0.1103  0.4990 -1.0522
 8107SOL    HW235955   3.221   2.957   3.267 -0.1205 -0.4897 -0.5588
 8108SOL     OW35956   1.053   1.580   7.577  0.4175  0.7298  0.6039
 8108SOL    HW135957   0.993   1.510   7.552 -0.3542  1.5315  0.1784
 8108SOL    HW235958   1.129   1.524   7.591 -0.9939 -2.2157 -3.4819
 8109SOL     OW35959   3.604   2.800  14.938 -0.2230  0.0766 -0.0560
 8109SOL    HW135960   3.552   2.858  14.994 -1.2996  0.0488 -1.0341
 8109SOL    HW235961   3.584   2.832  14.850  1.6613  1.7419  0.1123
 8110SOL     OW35962   3.609   3.290   7.971  0.1021  0.2163 -0.1182
 8110SOL    HW135963   3.567   3.351   8.032 -3.1663 -1.0941 -1.0503
 8110SOL    HW235964   3.644   3.352   7.907 -0.5183 -1.7651 -2.3779
 8111SOL     OW35965   4.243   0.418  16.365  0.1179 -0.4229  0.2169
 8111SOL    HW135966   4.226   0.364  16.288 -1.8686 -0.5462  0.7492
 8111SOL    HW235967   4.339   0.418  16.361  0.1614 -0.7377  1.3683
 8112SOL     OW35968   2.232   1.565   6.351 -0.3596 -0.7907 -0.1174
 8112SOL    HW135969   2.140   1.573   6.329 -0.0464 -0.6692 -1.3827
 8112SOL    HW235970   2.228   1.560   6.447  2.6738  1.9461  0.1730
 8113SOL     OW35971   4.496   4.734  11.663 -0.3070  0.3853 -0.3946
 8113SOL    HW135972   4.558   0.067  11.634  2.4648 -1.1107  1.9984
 8113SOL    HW235973   4.436   0.009  11.590 -0.5057 -0.2374 -0.3131
 8114SOL     OW35974   2.926   3.133   6.372 -0.0494  0.2724 -0.3679
 8114SOL    HW135975   2.895   3.125   6.462  2.6935 -0.2280  0.5291
 8114SOL    HW235976   2.842   3.133   6.325 -0.1157  0.4978 -0.2469
 8115SOL     OW35977   1.276   2.996   5.545 -0.0847  0.2376 -0.3623
 8115SOL    HW135978   1.188   2.997   5.583  0.4921  0.5710  0.9864
 8115SOL    HW235979   1.323   2.918   5.575 -0.3624  0.0348 -0.4503
 8116SOL     OW35980   1.331   2.487  10.046  0.3338 -0.7500 -0.5880
 8116SOL    HW135981   1.261   2.506   9.984  0.3716  1.0029 -0.1194
 8116SOL    HW235982   1.284   2.425  10.101  1.4837 -1.0894  0.0062
 8117SOL     OW35983   4.546   4.201  12.147  0.0920  0.0220  0.5557
 8117SOL    HW135984   4.537   4.225  12.055 -0.2722 -1.6033  0.1692
 8117SOL    HW235985   4.640   4.184  12.153 -0.0606 -1.2185 -0.7260
 8118SOL     OW35986   3.813   2.155   5.208 -0.8685 -0.0205 -0.3640
 8118SOL    HW135987   3.844   2.245   5.196 -1.4215  0.2337  0.0864
 8118SOL    HW235988   3.767   2.144   5.124  1.2882  0.8715 -1.6516
 8119SOL     OW35989   4.034   3.727  12.828 -0.2953 -0.3981 -0.1994
 8119SOL    HW135990   4.037   3.820  12.848 -2.3466 -0.4459  0.4386
 8119SOL    HW235991   4.111   3.688  12.869 -0.2501  0.2431  0.3349
 8120SOL     OW35992   2.531   0.080  15.266 -0.1646 -0.0715 -0.1835
 8120SOL    HW135993   2.535   0.164  15.220  1.6899  0.6716  1.3059
 8120SOL    HW235994   2.580   0.109  15.343 -1.4992  0.5296  0.4292
 8121SOL     OW35995   0.036   4.266  12.409 -0.1183  0.1981  0.0132
 8121SOL    HW135996   0.127   4.293  12.421  0.8654 -2.9714 -0.4379
 8121SOL    HW235997   4.721   4.348  12.416  0.7002  0.6836  0.1307
 8122SOL     OW35998   2.416   4.082   9.039 -0.4063  0.2760  0.6309
 8122SOL    HW135999   2.338   4.128   9.009 -0.5097 -0.1471  0.2546
 8122SOL    HW236000   2.477   4.138   9.087 -1.0909 -1.4742  3.5691
 8123SOL     OW36001   0.177   1.539   3.618 -0.2124 -0.0363 -0.2758
 8123SOL    HW136002   0.245   1.601   3.591 -1.5431  2.5873  2.3676
 8123SOL    HW236003   0.204   1.468   3.560 -1.5848 -1.8543  1.3154
 8124SOL     OW36004   4.283   0.643   8.940 -0.6257  0.3163 -1.0207
 8124SOL    HW136005   4.232   0.562   8.948  0.8412 -0.5553 -0.6144
 8124SOL    HW236006   4.339   0.628   9.016 -0.1154  2.1175 -1.0394
 8125SOL     OW36007   2.426   0.257  15.568 -0.0608  0.4308  0.4519
 8125SOL    HW136008   2.381   0.310  15.502  0.6514 -1.9376 -1.9406
 8125SOL    HW236009   2.509   0.260  15.520  1.2022 -2.0861  2.4717
 8126SOL     OW36010   2.490   4.717   0.498  1.1350  0.0011 -0.5231
 8126SOL    HW136011   2.510   4.721   0.405 -0.3361  0.1333 -0.8400
 8126SOL    HW236012   2.396   4.699   0.497  1.6469 -2.4962 -2.1346
 8127SOL     OW36013   4.654   1.624   7.021  0.7373  0.0806  0.0344
 8127SOL    HW136014   4.699   1.700   7.059 -0.1641 -0.0001  1.2760
 8127SOL    HW236015   4.660   1.640   6.927 -0.7790  1.9035  0.2308
 8128SOL     OW36016   1.556   3.503   6.664 -0.3168 -0.1002 -0.8022
 8128SOL    HW136017   1.463   3.484   6.673 -0.1618 -1.0353 -1.1764
 8128SOL    HW236018   1.555   3.597   6.683 -2.5775 -0.2604 -0.1357
 8129SOL     OW36019   1.622   4.641   6.678 -0.0431 -0.0645  0.1666
 8129SOL    HW136020   1.694   4.625   6.617 -1.3502 -1.6845 -0.9743
 8129SOL    HW236021   1.587   4.553   6.660 -0.5623  0.3981 -1.0931
 8130SOL     OW36022   0.421   0.720  16.851  0.6321  0.2815 -0.2404
 8130SOL    HW136023   0.382   0.681  16.929  1.3145 -1.3279 -0.6887
 8130SOL    HW236024   0.347   0.772  16.819 -0.4200 -1.6045 -0.9370
 8131SOL     OW36025   4.441   2.090  15.516 -0.4354 -0.3410 -0.2475
 8131SOL    HW136026   4.386   2.048  15.450  0.9565 -0.8808 -1.0551
 8131SOL    HW236027   4.420   2.183  15.506  0.1725 -0.1704  0.0980
 8132SOL     OW36028   4.241   0.549   1.842  0.3043  0.6143  0.4793
 8132SOL    HW136029   4.258   0.643   1.828 -2.4534  1.1687  0.8232
 8132SOL    HW236030   4.148   0.548   1.865 -0.0629 -0.7083 -1.0748
 8133SOL     OW36031   1.330   0.018   1.773 -0.6414  0.2735  0.5145
 8133SOL    HW136032   1.283   0.100   1.758  0.0543  0.3205 -1.4829
 8133SOL    HW236033   1.297   4.698   1.702 -0.7182  0.0403  0.7326
 8134SOL     OW36034   4.671   1.305   3.281  0.6267 -0.1468 -0.8278
 8134SOL    HW136035   4.677   1.386   3.332  0.7651  1.2900 -3.1146
 8134SOL    HW236036   4.684   1.233   3.343 -0.2025 -0.0916 -0.6000
 8135SOL     OW36037   1.627   3.211   7.642 -0.1886  0.2671  0.6356
 8135SOL    HW136038   1.605   3.270   7.570 -1.5060  1.4515  2.0326
 8135SOL    HW236039   1.702   3.166   7.601 -0.9513 -1.0712  0.6930
 8136SOL     OW36040   0.586   0.857  17.083  0.0430  0.3253 -0.2434
 8136SOL    HW136041   0.563   0.814  17.001 -1.7236  2.0986 -0.6836
 8136SOL    HW236042   0.503   0.847  17.128 -0.2638 -1.5714 -1.2462
 8137SOL     OW36043   1.622   1.403  15.135  0.1001 -0.1341  0.3822
 8137SOL    HW136044   1.620   1.454  15.216 -1.3082  0.2518  0.1057
 8137SOL    HW236045   1.696   1.449  15.097 -1.6987  1.0905 -1.6164
 8138SOL     OW36046   0.317   3.553   2.189 -0.2199 -0.4263 -0.9330
 8138SOL    HW136047   0.363   3.497   2.253  0.2430  1.4161  0.3362
 8138SOL    HW236048   0.350   3.511   2.109 -2.5877  0.8324 -2.5685
 8139SOL     OW36049   4.336   3.004   4.777  0.0671 -0.3846  0.2800
 8139SOL    HW136050   4.367   3.018   4.867  1.4596  2.0735 -0.5934
 8139SOL    HW236051   4.408   3.041   4.726 -0.6023 -0.5786 -0.7995
 8140SOL     OW36052   2.504   4.010  17.185 -0.3711 -0.3163 -0.0328
 8140SOL    HW136053   2.467   4.096  17.205 -0.1069  0.1413 -1.5216
 8140SOL    HW236054   2.433   3.975  17.131 -1.4232  2.2276 -0.2980
 8141SOL     OW36055   1.922   4.636   2.959  0.0880  0.5269 -0.2572
 8141SOL    HW136056   1.938   4.730   2.961 -2.4400  0.9594 -0.9810
 8141SOL    HW236057   1.901   4.621   2.867  0.6997 -3.3438  0.2285
 8142SOL     OW36058   0.377   1.431  16.484  0.2975  0.0198 -0.5957
 8142SOL    HW136059   0.302   1.403  16.432  0.9367  1.0282 -2.0555
 8142SOL    HW236060   0.353   1.393  16.569 -1.9244 -2.1562 -2.2045
 8143SOL     OW36061   1.051   2.060   8.218  0.0839  0.2317  0.1446
 8143SOL    HW136062   1.017   2.015   8.296  0.4791  1.0451  0.7872
 8143SOL    HW236063   1.104   2.131   8.254 -0.3143  1.3154 -1.4037
 8144SOL     OW36064   2.463   0.823   3.936  0.7645 -0.3856  0.0514
 8144SOL    HW136065   2.465   0.729   3.949  4.3328 -0.7336 -3.2935
 8144SOL    HW236066   2.382   0.835   3.987  0.4531 -1.2016 -0.2525
 8145SOL     OW36067   2.656   1.061   2.691 -0.3545  0.4554  0.1507
 8145SOL    HW136068   2.578   1.007   2.687  1.2079 -1.6482 -2.0878
 8145SOL    HW236069   2.645   1.113   2.771  1.6763 -0.5117  1.0850
 8146SOL     OW36070   0.741   4.505   0.505 -0.1098 -0.0603  0.2733
 8146SOL    HW136071   0.670   4.567   0.519  0.5386  0.9694 -0.9325
 8146SOL    HW236072   0.803   4.522   0.577 -1.0842  0.3266  1.0228
 8147SOL     OW36073   4.724   1.337   5.696 -0.3335 -0.5012 -0.4115
 8147SOL    HW136074   0.040   1.273   5.746  0.4447  1.6514  1.5401
 8147SOL    HW236075   0.037   1.419   5.706 -1.7625  0.5175 -1.8941
 8148SOL     OW36076   2.262   0.272   2.796 -0.2094  0.4942 -0.3211
 8148SOL    HW136077   2.292   0.203   2.736 -0.0553 -0.5692  0.9720
 8148SOL    HW236078   2.234   0.212   2.865  0.8948  2.2724  1.6486
 8149SOL     OW36079   1.503   4.565   2.781 -0.7005 -0.0570  0.0697
 8149SOL    HW136080   1.478   4.551   2.689 -1.6766 -1.3347  0.5169
 8149SOL    HW236081   1.578   4.624   2.776  0.9844 -2.1846 -0.0863
 8150SOL     OW36082   3.491   3.074  10.370  0.4311  0.0408  0.1475
 8150SOL    HW136083   3.454   3.140  10.429 -0.2430 -0.7419  0.5924
 8150SOL    HW236084   3.433   3.086  10.295 -0.1841 -0.0940  0.5991
 8151SOL     OW36085   3.218   0.681   3.759 -0.3395 -0.0462  0.5408
 8151SOL    HW136086   3.243   0.769   3.729  0.9017 -0.7962 -0.6201
 8151SOL    HW236087   3.258   0.619   3.698 -0.2121  1.3890 -0.8466
 8152SOL     OW36088   0.360   0.581   4.533  1.2798  0.2843  0.1137
 8152SOL    HW136089   0.408   0.537   4.463 -1.0566 -0.1185 -1.2307
 8152SOL    HW236090   0.419   0.656   4.541  0.4379  0.5995  3.3567
 8153SOL     OW36091   1.476   1.343   3.721  0.0784 -0.6241 -0.7649
 8153SOL    HW136092   1.388   1.354   3.684  0.2922  0.8449 -0.8440
 8153SOL    HW236093   1.492   1.273   3.659 -0.7836  0.0685 -1.7804
 8154SOL     OW36094   2.252   3.800  13.510  0.5353  0.7906 -0.1058
 8154SOL    HW136095   2.286   3.860  13.443  1.7758 -1.7274 -1.7408
 8154SOL    HW236096   2.212   3.856  13.576 -0.4886 -0.8135  0.6200
 8155SOL     OW36097   2.678   4.592   8.240 -0.1318  0.2816  0.1381
 8155SOL    HW136098   2.768   4.562   8.251 -0.5516 -1.3591 -0.8909
 8155SOL    HW236099   2.654   4.631   8.324 -1.4578 -0.7884  0.2638
 8156SOL     OW36100   4.041   1.717   0.720 -0.4303 -0.0967  0.7600
 8156SOL    HW136101   4.119   1.706   0.666 -0.7268  0.1128  0.2902
 8156SOL    HW236102   4.071   1.790   0.774  1.2463 -1.0096  1.0832
 8157SOL     OW36103   1.296   2.676   5.886 -0.5011 -0.1196  0.3123
 8157SOL    HW136104   1.351   2.598   5.883 -2.2002 -1.4081  2.2571
 8157SOL    HW236105   1.361   2.727   5.935  2.2780 -0.7881 -2.7679
 8158SOL     OW36106   3.957   1.437   0.877 -0.3289  0.3529  0.0749
 8158SOL    HW136107   3.993   1.393   0.800  0.3938 -0.8022  1.0785
 8158SOL    HW236108   3.895   1.489   0.825 -0.3412  0.7860  0.5182
 8159SOL     OW36109   2.830   3.573   2.787 -0.1817  0.0646  0.1387
 8159SOL    HW136110   2.749   3.553   2.833 -0.1542 -0.5014 -0.0554
 8159SOL    HW236111   2.798   3.636   2.723  0.7120  0.5344  0.1575
 8160SOL     OW36112   1.926   0.528   8.681 -0.3364 -0.2949  0.2939
 8160SOL    HW136113   1.903   0.448   8.634 -1.3567 -0.1377  0.5140
 8160SOL    HW236114   1.903   0.590   8.612  0.0363 -0.0530  0.3840
 8161SOL     OW36115   2.806   0.853   6.007 -0.0331  0.4661  0.3934
 8161SOL    HW136116   2.838   0.920   6.067  2.9849  2.2708 -3.1908
 8161SOL    HW236117   2.830   0.772   6.051 -0.2596 -0.8001 -1.7892
 8162SOL     OW36118   0.074   2.179   1.932  0.1929  0.0174 -0.3738
 8162SOL    HW136119   0.089   2.264   1.973  1.5881 -0.2509 -0.3349
 8162SOL    HW236120   0.067   2.201   1.839 -1.7407 -0.6851 -0.4000
 8163SOL     OW36121   3.714   0.914   2.069 -0.0507  0.6013 -0.4514
 8163SOL    HW136122   3.755   0.959   2.143  0.8886  0.1484 -0.6945
 8163SOL    HW236123   3.725   0.983   2.004 -0.3087  1.8023  0.7684
 8164SOL     OW36124   0.511   3.617   2.570  0.1726 -0.6208 -0.1395
 8164SOL    HW136125   0.573   3.599   2.499 -0.6426  1.2226 -1.3330
 8164SOL    HW236126   0.547   3.696   2.610 -2.9073 -0.4400  2.1803
 8165SOL     OW36127   2.440   3.067   4.233  0.4491 -0.2913  0.3412
 8165SOL    HW136128   2.427   3.077   4.139  1.4063  0.1359  0.2577
 8165SOL    HW236129   2.358   3.112   4.257 -0.8394 -0.4134 -3.8410
 8166SOL     OW36130   2.798   0.575  12.834  0.2090  0.2671 -0.2437
 8166SOL    HW136131   2.828   0.494  12.791 -0.7786  0.9816 -2.2805
 8166SOL    HW236132   2.709   0.541  12.843 -0.1829  1.4804  0.4407
 8167SOL     OW36133   4.377   3.322   0.404  0.1203  0.1724  0.2652
 8167SOL    HW136134   4.428   3.363   0.335 -0.0857  0.3031  0.1898
 8167SOL    HW236135   4.443   3.324   0.474  0.0951 -0.1168  0.2952
 8168SOL     OW36136   4.337   4.022   8.250  0.6744 -0.2598  0.2918
 8168SOL    HW136137   4.289   4.085   8.304 -0.3890 -0.2241 -0.6937
 8168SOL    HW236138   4.420   4.069   8.255  0.2765  0.7550 -2.5865
 8169SOL     OW36139   4.493   4.460   7.649  0.6006 -1.0653 -0.9512
 8169SOL    HW136140   4.560   4.511   7.694 -3.2232  1.3553  2.0704
 8169SOL    HW236141   4.503   4.488   7.558 -0.9732  1.6138 -0.3038
 8170SOL     OW36142   1.086   2.066  11.009  0.1184 -0.3431 -0.5893
 8170SOL    HW136143   1.127   2.152  11.002  2.7038 -1.5472 -0.1569
 8170SOL    HW236144   0.994   2.093  11.001  1.0954  3.4790  1.4471
 8171SOL     OW36145   1.427   2.537  14.833  0.5443  0.5088 -0.2276
 8171SOL    HW136146   1.461   2.450  14.855 -1.4881 -0.4593 -0.9489
 8171SOL    HW236147   1.334   2.516  14.841  0.8742 -1.1675 -0.8268
 8172SOL     OW36148   3.351   1.593   6.980  0.1751 -0.0647  0.0798
 8172SOL    HW136149   3.326   1.570   6.890  0.9086 -0.3084 -0.0628
 8172SOL    HW236150   3.434   1.546   6.989 -0.4700 -1.2505 -0.2113
 8173SOL     OW36151   3.333   2.973   0.420 -0.6500  0.3752  0.2066
 8173SOL    HW136152   3.366   2.915   0.351  1.7005  0.8118  0.9647
 8173SOL    HW236153   3.265   3.027   0.379 -0.3335 -0.5769 -1.5761
 8174SOL     OW36154   3.087   4.109  11.303 -0.5300  0.4895  0.5514
 8174SOL    HW136155   3.106   4.070  11.388  0.7887 -1.6807 -0.7309
 8174SOL    HW236156   3.015   4.167  11.327 -0.3761  0.2047  1.7091
 8175SOL     OW36157   3.710   4.573   2.610 -0.0923 -0.5134 -0.1461
 8175SOL    HW136158   3.649   4.602   2.679  0.3456 -0.0651  0.0475
 8175SOL    HW236159   3.753   4.497   2.649 -0.3868 -0.5266  0.1616
 8176SOL     OW36160   3.840   3.965   7.030 -0.3395  0.2723  0.8319
 8176SOL    HW136161   3.792   4.045   7.007 -0.7085  0.2529  1.5355
 8176SOL    HW236162   3.883   3.993   7.111 -0.7617  0.7652  0.8889
 8177SOL     OW36163   0.900   2.032   5.219  0.2705  0.3395  0.4760
 8177SOL    HW136164   0.958   1.967   5.181 -0.8930 -0.1260 -0.4998
 8177SOL    HW236165   0.833   1.967   5.240 -0.0692  0.1580 -1.1468
 8178SOL     OW36166   0.161   0.198   7.824  0.1995 -0.4859  0.0875
 8178SOL    HW136167   0.244   0.241   7.804 -0.0567 -0.0439 -0.0136
 8178SOL    HW236168   0.122   0.218   7.739 -1.5237  0.6272  1.1443
 8179SOL     OW36169   4.648   2.702  11.562  0.0716  0.0012  0.0521
 8179SOL    HW136170   4.593   2.774  11.591 -0.3497 -0.4153  0.2928
 8179SOL    HW236171   4.590   2.626  11.564  1.0018 -0.6903  1.2984
 8180SOL     OW36172   3.622   1.701   8.789  0.0180 -0.6380  0.3880
 8180SOL    HW136173   3.598   1.616   8.755 -0.6577  0.1429 -1.0821
 8180SOL    HW236174   3.580   1.707   8.875  0.6217  5.2862  0.3050
 8181SOL     OW36175   1.749   1.320   0.646  0.0181  0.3542 -0.0317
 8181SOL    HW136176   1.666   1.363   0.628 -0.7158 -0.8963  0.3891
 8181SOL    HW236177   1.721   1.285   0.730  1.0117  0.3308  0.2941
 8182SOL     OW36178   0.481   3.328  14.660 -0.0663  0.6526  0.4177
 8182SOL    HW136179   0.462   3.325  14.754 -2.0078  1.1904  0.0366
 8182SOL    HW236180   0.390   3.310  14.638 -0.2585  0.3918  1.4221
 8183SOL     OW36181   1.028   3.051   1.981  0.0156 -0.5477 -0.3514
 8183SOL    HW136182   1.054   3.072   2.071  1.5939 -1.9211 -0.4855
 8183SOL    HW236183   1.116   3.054   1.941  0.9710 -2.5259  1.6087
 8184SOL     OW36184   4.608   2.429   0.051  0.0682  0.4676  0.3539
 8184SOL    HW136185   4.552   2.467  17.721 -0.5751  1.6223  1.5164
 8184SOL    HW236186   4.571   2.459   0.134  0.3533  2.4931 -0.2437
 8185SOL     OW36187   1.081   1.431   4.751  0.2091  0.1226  0.2820
 8185SOL    HW136188   1.016   1.377   4.795  1.0084 -1.4573 -0.4825
 8185SOL    HW236189   1.053   1.407   4.662  1.6208  1.4637 -0.5164
 8186SOL     OW36190   0.759   2.360  12.759 -0.1426 -0.0191 -0.3188
 8186SOL    HW136191   0.801   2.276  12.739  0.7131  0.2513  0.3203
 8186SOL    HW236192   0.709   2.375  12.678 -1.3716  2.6077  0.9410
 8187SOL     OW36193   4.718   1.733   3.351  0.1030  0.5305  0.1275
 8187SOL    HW136194   4.671   1.664   3.398  0.4716  1.2893  1.6267
 8187SOL    HW236195   4.680   1.709   3.266 -0.8967  1.1748  0.3902
 8188SOL     OW36196   1.935   2.530  15.003 -0.1612  0.0096  0.3955
 8188SOL    HW136197   1.872   2.515  15.074 -2.8063  0.1900 -1.8737
 8188SOL    HW236198   2.013   2.479  15.024  0.9213  2.0364  1.2331
 8189SOL     OW36199   3.475   2.987   6.092 -0.2899  0.3238 -0.2595
 8189SOL    HW136200   3.465   3.079   6.069  2.1941  0.5174 -0.4928
 8189SOL    HW236201   3.567   2.981   6.118  0.1509  0.8681 -1.7301
 8190SOL     OW36202   1.976   3.441   2.750 -0.1562  0.1447 -0.0093
 8190SOL    HW136203   1.994   3.534   2.768  2.2614 -0.3183  0.0271
 8190SOL    HW236204   1.930   3.417   2.830 -0.5365 -2.1022 -0.9270
 8191SOL     OW36205   2.549   2.636   8.277 -0.5213  0.0112 -0.6854
 8191SOL    HW136206   2.551   2.617   8.371  0.8608 -0.7746 -0.8751
 8191SOL    HW236207   2.543   2.553   8.230 -0.2300  0.3283 -1.2819
 8192SOL     OW36208   3.470   2.364   5.600  0.2182  0.4864 -0.1485
 8192SOL    HW136209   3.451   2.458   5.596 -0.7727  0.3499  1.3912
 8192SOL    HW236210   3.511   2.344   5.516  3.4275 -1.2656  1.8226
 8193SOL     OW36211   0.188   3.015   7.324 -0.0518 -0.0650  0.4438
 8193SOL    HW136212   0.151   3.044   7.241 -0.1539 -0.6323  0.2892
 8193SOL    HW236213   0.236   3.090   7.359  1.2806 -0.4814 -0.4619
 8194SOL     OW36214   0.091   2.720  10.888  0.8605  0.2971  0.7601
 8194SOL    HW136215   0.179   2.686  10.872  0.2954  0.9573 -3.9230
 8194SOL    HW236216   0.069   2.675  10.969  1.2436 -2.6029 -0.7735
 8195SOL     OW36217   3.890   2.320   7.782  0.4160  0.4081 -0.0689
 8195SOL    HW136218   3.933   2.282   7.858  0.5892 -3.0804 -1.8649
 8195SOL    HW236219   3.882   2.244   7.724  1.0407  0.1688  0.1660
 8196SOL     OW36220   0.373   1.890   6.934  0.4542 -0.5379  0.1785
 8196SOL    HW136221   0.343   1.911   7.022  1.3832  2.3902 -0.2338
 8196SOL    HW236222   0.422   1.809   6.953  0.9103 -0.4768 -0.6838
 8197SOL     OW36223   1.680   3.410   6.424 -0.1703 -0.1283  0.0088
 8197SOL    HW136224   1.654   3.496   6.391 -2.0614 -0.1195  1.5604
 8197SOL    HW236225   1.618   3.420   6.497  1.0586  3.1272  0.6276
 8198SOL     OW36226   0.213   4.664   8.856  0.0647 -0.3547  0.0095
 8198SOL    HW136227   0.148   4.713   8.805  0.5901 -0.0639 -0.3731
 8198SOL    HW236228   0.151   4.648   8.928 -0.1823 -0.5984 -0.2557
 8199SOL     OW36229   0.988   4.296  13.496  0.4176  0.5180 -0.2211
 8199SOL    HW136230   0.938   4.327  13.420  0.0181 -0.2673 -0.2829
 8199SOL    HW236231   1.074   4.310  13.457  1.7518  0.7794  2.8675
 8200SOL     OW36232   1.805   0.469   8.918 -0.0060 -0.1515 -0.5331
 8200SOL    HW136233   1.844   0.503   8.838 -4.0712  1.6694 -1.7334
 8200SOL    HW236234   1.873   0.494   8.980  1.1377 -0.2129 -1.7627
 8201SOL     OW36235   1.971   4.415   2.440 -0.3996  0.5929  0.2583
 8201SOL    HW136236   1.915   4.339   2.422 -1.5400  1.3435  0.6896
 8201SOL    HW236237   2.057   4.376   2.426 -0.0423  1.8207 -0.9712
 8202SOL     OW36238   0.881   0.410   4.292  0.4327 -0.1288  0.5403
 8202SOL    HW136239   0.862   0.453   4.375 -0.2720  0.0192  0.3009
 8202SOL    HW236240   0.835   0.464   4.227  3.4409 -0.4884 -1.9463
 8203SOL     OW36241   1.345   1.886   2.463 -0.7935 -0.3734  0.2837
 8203SOL    HW136242   1.316   1.974   2.441 -0.3732 -0.5549 -0.9421
 8203SOL    HW236243   1.260   1.849   2.438  0.3607 -1.3783 -2.1101
 8204SOL     OW36244   1.077   3.972   4.238  0.3242 -0.1565  0.3079
 8204SOL    HW136245   1.063   4.066   4.226  1.0437  0.2451  2.6190
 8204SOL    HW236246   1.139   3.975   4.311 -1.8071 -2.0859  2.2085
 8205SOL     OW36247   0.826   3.778   6.816 -0.9843  0.0181  0.4082
 8205SOL    HW136248   0.881   3.828   6.875 -0.7972  0.7953 -0.4237
 8205SOL    HW236249   0.823   3.841   6.744 -0.7640  0.3937  0.7334
 8206SOL     OW36250   1.495   1.731  13.439  0.5534 -0.1066 -0.2885
 8206SOL    HW136251   1.571   1.679  13.413  0.5597 -0.0960 -0.2915
 8206SOL    HW236252   1.435   1.663  13.468 -1.0792  1.5224  0.1155
 8207SOL     OW36253   1.387   2.143   0.358  0.3390  0.5529  0.7408
 8207SOL    HW136254   1.365   2.199   0.432 -0.7700  1.5093 -0.3079
 8207SOL    HW236255   1.421   2.207   0.295  0.1211 -1.3267 -1.2748
 8208SOL     OW36256   2.626   4.010   6.588  0.5117  0.8071 -0.3440
 8208SOL    HW136257   2.626   3.923   6.549 -0.4099  0.4572  0.4484
 8208SOL    HW236258   2.607   3.977   6.675  0.4372  0.8806 -0.3321
 8209SOL     OW36259   0.456   1.247   3.974  1.0830 -0.5135  0.0698
 8209SOL    HW136260   0.499   1.254   3.888 -1.5836 -0.2634 -1.2464
 8209SOL    HW236261   0.426   1.338   3.973 -2.6392 -1.7579  1.1770
 8210SOL     OW36262   3.213   1.263  11.387  0.1943 -0.1543  0.0038
 8210SOL    HW136263   3.247   1.336  11.438  0.8515 -1.7253  1.7967
 8210SOL    HW236264   3.225   1.184  11.440 -0.0844  1.4024  2.3718
 8211SOL     OW36265   2.711   2.393   6.343 -0.3843  0.3097 -0.3343
 8211SOL    HW136266   2.704   2.454   6.417  0.6235 -0.5095  0.4373
 8211SOL    HW236267   2.635   2.344   6.374 -0.6129 -0.4673 -2.1886
 8212SOL     OW36268   1.867   2.821  12.111 -0.7180  0.4165 -0.3065
 8212SOL    HW136269   1.936   2.830  12.045 -0.0110  3.9789  0.9285
 8212SOL    HW236270   1.808   2.754  12.076 -0.8974  1.0732 -1.2758
 8213SOL     OW36271   2.863   3.649   8.607  0.9147 -0.0477  0.1519
 8213SOL    HW136272   2.818   3.587   8.664 -0.2581 -0.7831 -1.5843
 8213SOL    HW236273   2.874   3.719   8.672  0.2923  1.4738 -1.3837
 8214SOL     OW36274   3.702   0.475   6.528 -0.7319 -0.2286  0.7752
 8214SOL    HW136275   3.738   0.448   6.613  0.6588  0.6166  0.4478
 8214SOL    HW236276   3.771   0.464   6.462 -0.8971 -0.5635  0.6602
 8215SOL     OW36277   0.039   4.224  10.112  0.0310  0.0381 -0.5069
 8215SOL    HW136278   0.073   4.192  10.196 -0.1991 -0.7298 -0.7021
 8215SOL    HW236279   0.090   4.176  10.046 -0.5189  0.2032 -1.0495
 8216SOL     OW36280   3.543   3.351   7.555  0.1071 -0.3088  0.2515
 8216SOL    HW136281   3.462   3.378   7.597  1.3789  1.7093  1.4549
 8216SOL    HW236282   3.569   3.285   7.619  1.0754 -0.5823 -0.4238
 8217SOL     OW36283   1.764   3.937   3.744 -0.5765  0.5087 -0.0996
 8217SOL    HW136284   1.721   3.852   3.747  0.6453 -0.1149 -0.1450
 8217SOL    HW236285   1.856   3.912   3.743 -1.0303 -1.0778 -2.0381
 8218SOL     OW36286   3.919   1.254   1.810  0.2644  0.1221 -0.2215
 8218SOL    HW136287   3.847   1.206   1.850  0.2854 -0.5237 -0.9610
 8218SOL    HW236288   3.934   1.206   1.728  1.2851  1.1319 -0.6209
 8219SOL     OW36289   3.239   0.944   7.377 -0.2149  0.3281  0.3984
 8219SOL    HW136290   3.226   1.022   7.430  0.0422  0.5254  0.1705
 8219SOL    HW236291   3.329   0.947   7.343 -0.7197  0.2854 -0.9160
 8220SOL     OW36292   1.923   4.395  17.547  0.2815 -0.3565  0.0758
 8220SOL    HW136293   2.003   4.370  17.501 -0.0707 -0.5262 -0.4541
 8220SOL    HW236294   1.901   4.476  17.501  0.4860  0.8352  2.0624
 8221SOL     OW36295   3.354   0.011   5.738 -0.6187 -0.2544 -0.0317
 8221SOL    HW136296   3.265   4.711   5.740 -1.2695  1.5164  1.3985
 8221SOL    HW236297   3.339   0.099   5.702  1.9629 -0.3365 -1.3122
 8222SOL     OW36298   1.859   3.144  11.670  0.1618  0.6683  0.4549
 8222SOL    HW136299   1.863   3.114  11.761  0.3880  1.7081  0.7852
 8222SOL    HW236300   1.887   3.235  11.681 -0.8841  1.2753 -1.7809
 8223SOL     OW36301   1.025   3.333   8.898 -0.6749  0.4508  0.6708
 8223SOL    HW136302   1.091   3.391   8.860  1.4504 -1.2444  1.7939
 8223SOL    HW236303   0.957   3.398   8.913 -2.5665 -1.6182  1.1698
 8224SOL     OW36304   4.491   3.038   9.095 -0.1087  0.3455 -0.0898
 8224SOL    HW136305   4.451   3.072   9.015 -0.4060  2.4661  0.9727
 8224SOL    HW236306   4.500   3.116   9.148 -1.3837 -0.3693  1.1911
 8225SOL     OW36307   2.368   1.107   3.882 -0.1807  0.0310 -0.4763
 8225SOL    HW136308   2.279   1.073   3.879 -0.2715 -0.1116  4.2813
 8225SOL    HW236309   2.423   1.034   3.908 -0.4468  0.5629  1.6340
 8226SOL     OW36310   1.672   3.573  12.196 -0.8658 -0.1778  0.0323
 8226SOL    HW136311   1.626   3.605  12.273  2.9356  2.3346  1.2788
 8226SOL    HW236312   1.653   3.646  12.136 -0.2590 -0.5846 -0.6562
 8227SOL     OW36313   3.017   3.710  13.924 -0.6552  0.6353  0.3175
 8227SOL    HW136314   2.985   3.620  13.934 -4.0200  1.9281  1.3002
 8227SOL    HW236315   3.089   3.689  13.865 -1.9040 -0.4717 -0.8365
 8228SOL     OW36316   0.459   0.023   5.025  0.2180  0.8462 -0.6375
 8228SOL    HW136317   0.476   0.082   4.952 -1.4820  1.7116 -0.3502
 8228SOL    HW236318   0.367   0.034   5.052  0.5132  2.4582 -0.2607
 8229SOL     OW36319   3.594   0.945   7.050 -0.5892 -0.8127 -0.0054
 8229SOL    HW136320   3.601   1.030   7.008  0.5383 -0.7725  0.2711
 8229SOL    HW236321   3.584   0.887   6.975  2.0628 -0.7704 -0.3765
 8230SOL     OW36322   0.504   3.918   7.339  0.2885 -0.6132 -0.3969
 8230SOL    HW136323   0.572   3.871   7.291  0.5438 -2.2310  1.5293
 8230SOL    HW236324   0.429   3.859   7.333 -2.3372  2.5532  1.3551
 8231SOL     OW36325   1.158   2.489  14.839  0.1789  0.2096  0.7045
 8231SOL    HW136326   1.081   2.518  14.790 -0.0787 -1.9018 -0.1704
 8231SOL    HW236327   1.122   2.491  14.928  0.9045  2.4024  0.9337
 8232SOL     OW36328   1.655   4.574  13.397 -0.0053 -0.0585 -0.5264
 8232SOL    HW136329   1.692   4.496  13.438 -1.9519  0.0392  1.4247
 8232SOL    HW236330   1.725   4.601  13.337  2.3990 -4.1296  0.4763
 8233SOL     OW36331   0.050   0.988   2.917  0.1377  0.1160 -0.0291
 8233SOL    HW136332   0.105   0.911   2.927  0.9965  0.8154  0.6820
 8233SOL    HW236333   4.701   0.944   2.920  0.4877 -0.5198  0.3109
 8234SOL     OW36334   3.783   0.253  12.847  0.3652 -0.2424  0.3659
 8234SOL    HW136335   3.861   0.267  12.901  1.5883 -0.4604 -1.3181
 8234SOL    HW236336   3.745   0.339  12.864  0.7114  0.1130 -0.6758
 8235SOL     OW36337   0.481   0.189   8.667  0.1495  0.3781 -0.2279
 8235SOL    HW136338   0.487   0.275   8.626 -0.4518 -0.2723 -1.6687
 8235SOL    HW236339   0.400   0.201   8.716  1.5463 -0.9939  2.4599
 8236SOL     OW36340   2.964   3.951  10.880 -0.2274  0.1011 -0.1366
 8236SOL    HW136341   2.900   3.987  10.941 -3.1030  0.2668 -3.2544
 8236SOL    HW236342   3.040   3.981  10.930 -0.8230  3.7964 -1.4532
 8237SOL     OW36343   1.365   3.510   9.990 -0.1571 -0.0540 -0.2780
 8237SOL    HW136344   1.431   3.499  10.059 -0.7426 -0.7344  0.1676
 8237SOL    HW236345   1.296   3.538  10.049 -0.4437  1.0754 -1.1351
 8238SOL     OW36346   3.088   3.320   2.006 -0.1118  0.1685  0.0610
 8238SOL    HW136347   3.101   3.305   1.912  0.5998  0.5332  0.1018
 8238SOL    HW236348   3.127   3.407   2.012  0.5304 -0.2550  1.8353
 8239SOL     OW36349   1.191   3.974   2.033 -0.4490 -0.8942  0.3578
 8239SOL    HW136350   1.096   3.966   2.034 -0.5943  0.7678 -0.7385
 8239SOL    HW236351   1.215   3.886   2.063 -0.0304 -0.9977 -0.2597
 8240SOL     OW36352   0.349   0.588   2.494 -0.2741 -0.2423  0.0319
 8240SOL    HW136353   0.437   0.565   2.466  0.0831  1.7642 -0.5015
 8240SOL    HW236354   0.344   0.662   2.433  1.1994 -1.1905 -1.2281
 8241SOL     OW36355   3.378   2.613   5.545 -0.5708 -0.1272  0.5625
 8241SOL    HW136356   3.337   2.700   5.541  1.1685  0.6190 -0.9966
 8241SOL    HW236357   3.393   2.598   5.452  1.7880 -0.3876  1.0040
 8242SOL     OW36358   3.118   3.999   3.165 -0.0186 -0.2067  0.3612
 8242SOL    HW136359   3.052   4.039   3.221 -1.4529 -0.0136 -1.4779
 8242SOL    HW236360   3.080   3.917   3.134 -0.3598 -0.4320  1.3507
 8243SOL     OW36361   3.749   0.783   8.673  0.0188 -0.3512 -0.4005
 8243SOL    HW136362   3.734   0.872   8.641 -1.3040 -0.6881 -0.7197
 8243SOL    HW236363   3.835   0.794   8.713  0.2890 -1.3713 -0.7059
 8244SOL     OW36364   3.031   2.102   0.348  0.5500 -0.3215 -0.4975
 8244SOL    HW136365   2.944   2.062   0.342  1.5586 -2.7233  0.8934
 8244SOL    HW236366   3.039   2.137   0.437 -5.2802 -1.1086  0.3525
 8245SOL     OW36367   0.275   3.782   7.255 -0.0994  0.1450 -0.2656
 8245SOL    HW136368   0.270   3.726   7.333 -1.6877  1.2211  0.3904
 8245SOL    HW236369   0.258   3.714   7.190  1.1219 -1.3751  0.9953
 8246SOL     OW36370   1.896   2.203  11.483 -0.0775  0.2714  0.4450
 8246SOL    HW136371   1.941   2.255  11.550  0.3850  1.5153 -0.8175
 8246SOL    HW236372   1.906   2.124  11.535 -1.2686 -1.9165 -2.6696
 8247SOL     OW36373   4.152   0.010   1.762  0.1383 -0.4664 -0.3293
 8247SOL    HW136374   4.208   4.669   1.778  1.2658  0.3885 -0.2412
 8247SOL    HW236375   4.075   4.711   1.808 -0.7708  2.3769  0.2156
 8248SOL     OW36376   2.597   3.264   3.576 -0.5555 -0.8644  0.6075
 8248SOL    HW136377   2.534   3.202   3.538 -1.2232  0.1892  0.0176
 8248SOL    HW236378   2.627   3.213   3.652  2.4328 -0.7535 -0.5251
 8249SOL     OW36379   0.746   4.692   1.691 -0.0912 -0.2810 -0.4536
 8249SOL    HW136380   0.701   0.007   1.759  1.0605 -0.8508  0.7013
 8249SOL    HW236381   0.715   4.602   1.699 -1.4329  0.5647  3.7041
 8250SOL     OW36382   3.526   2.685  12.817  0.0215  0.6581 -0.2339
 8250SOL    HW136383   3.501   2.607  12.768 -1.4610 -0.2051  1.9018
 8250SOL    HW236384   3.610   2.661  12.856 -1.2318 -0.4659  1.7327
 8251SOL     OW36385   3.130   3.166   5.097  0.1155 -0.0405  0.0118
 8251SOL    HW136386   3.183   3.110   5.153  0.5554  1.8288  1.4625
 8251SOL    HW236387   3.195   3.227   5.061  0.9626 -2.2975 -2.3243
 8252SOL     OW36388   1.938   0.551   0.484 -0.7021  0.3080 -0.3999
 8252SOL    HW136389   1.862   0.538   0.427 -0.2026  0.3880 -1.0799
 8252SOL    HW236390   1.894   0.565   0.567 -0.9300 -2.6765 -0.0199
 8253SOL     OW36391   1.836   1.207  14.907  0.3334 -0.2728  0.3739
 8253SOL    HW136392   1.800   1.267  14.973  2.6856  2.2342 -0.6168
 8253SOL    HW236393   1.797   1.248  14.830 -0.2012 -0.1391  0.7176
 8254SOL     OW36394   3.492   3.969   8.582  0.0044 -0.3673  0.5950
 8254SOL    HW136395   3.463   3.888   8.540  2.0693 -1.1212  0.5846
 8254SOL    HW236396   3.416   3.988   8.637  0.1357 -1.6603  1.2364
 8255SOL     OW36397   3.809   4.225   3.673  0.0247  0.4588  0.2802
 8255SOL    HW136398   3.765   4.184   3.748  1.3553 -0.7459  0.3848
 8255SOL    HW236399   3.805   4.159   3.604  0.1239 -0.1155  0.8254
 8256SOL     OW36400   4.354   1.833   8.539 -0.4857  0.4926  0.7600
 8256SOL    HW136401   4.272   1.799   8.575  0.5943 -0.3927  2.3816
 8256SOL    HW236402   4.356   1.921   8.577  0.2658  1.3115 -1.1591
 8257SOL     OW36403   1.520   3.218  14.813  0.2712 -0.7363  0.0952
 8257SOL    HW136404   1.477   3.248  14.733 -0.0965  1.4649  1.1324
 8257SOL    HW236405   1.545   3.303  14.848 -2.0348 -1.0451  2.5187
 8258SOL     OW36406   0.200   1.439   3.157 -0.0998  0.0907  0.3157
 8258SOL    HW136407   0.122   1.494   3.167  0.0639  0.2646  0.6273
 8258SOL    HW236408   0.165   1.371   3.099 -0.2856  1.2868 -0.9778
 8259SOL     OW36409   1.703   2.355  11.341 -0.2163  0.0258 -0.3178
 8259SOL    HW136410   1.765   2.305  11.393  1.3316  1.1557 -1.0671
 8259SOL    HW236411   1.632   2.292  11.352 -1.8110  1.7073 -1.1197
 8260SOL     OW36412   3.788   2.022   3.980 -0.1267 -0.2681  0.8435
 8260SOL    HW136413   3.798   2.099   4.036 -0.7050  1.0301 -0.8344
 8260SOL    HW236414   3.865   1.968   3.997  1.3549  1.0647 -1.7198
 8261SOL     OW36415   1.555   0.568   1.494  0.1413 -0.4349  0.8813
 8261SOL    HW136416   1.647   0.543   1.497  1.2664  3.5943 -0.6698
 8261SOL    HW236417   1.555   0.613   1.578  1.5948 -1.2601  1.3154
 8262SOL     OW36418   4.211   3.235   7.399  0.8604  0.4458 -0.2206
 8262SOL    HW136419   4.204   3.293   7.474 -0.9887  0.8893 -0.7327
 8262SOL    HW236420   4.164   3.157   7.428 -1.5035  0.8212 -3.0484
 8263SOL     OW36421   1.945   3.063  16.843 -0.2719 -0.6097 -0.2511
 8263SOL    HW136422   1.995   2.982  16.844 -0.0170 -0.4538 -0.4897
 8263SOL    HW236423   1.977   3.093  16.759  0.5740 -1.6658 -0.3020
 8264SOL     OW36424   3.702   0.584   1.727  0.4081  0.0929  0.4895
 8264SOL    HW136425   3.698   0.488   1.725  1.0660  0.0484  1.0300
 8264SOL    HW236426   3.623   0.611   1.774 -1.9248 -0.7320 -3.0178
 8265SOL     OW36427   4.007   2.905   3.449 -0.2821 -0.2521  0.0683
 8265SOL    HW136428   4.006   2.967   3.375 -2.8560  0.4745  0.7287
 8265SOL    HW236429   4.055   2.964   3.507 -2.2130  0.0955  1.3030
 8266SOL     OW36430   1.540   1.137   7.568 -0.5175  0.1343 -0.0850
 8266SOL    HW136431   1.595   1.211   7.596  0.5053 -1.2966  1.6962
 8266SOL    HW236432   1.474   1.186   7.519 -2.2390 -0.8044  1.3328
 8267SOL     OW36433   1.607   3.790   6.710 -0.2759  0.0153 -0.5475
 8267SOL    HW136434   1.685   3.845   6.699  1.1673 -2.3301 -2.1541
 8267SOL    HW236435   1.574   3.812   6.623  0.5494  0.1826 -0.8212
 8268SOL     OW36436   4.186   3.439   6.126 -0.0639 -0.3343 -0.1228
 8268SOL    HW136437   4.139   3.356   6.133 -1.7115  0.6347  0.1131
 8268SOL    HW236438   4.264   3.391   6.155  0.4029  0.9297  0.6977
 8269SOL     OW36439   1.734   3.874  16.864  0.3092 -0.2354  0.0862
 8269SOL    HW136440   1.709   3.827  16.943  2.0410 -2.9581 -0.9892
 8269SOL    HW236441   1.657   3.850  16.813  0.5913 -0.4451 -0.2431
 8270SOL     OW36442   2.820   0.873   4.344  0.4952  0.2278  0.0193
 8270SOL    HW136443   2.726   0.856   4.339  0.8652 -1.1547 -2.1081
 8270SOL    HW236444   2.852   0.827   4.266  0.8383 -1.0518  0.9096
 8271SOL     OW36445   2.941   1.540   6.415  0.1921  0.0176  0.2059
 8271SOL    HW136446   2.932   1.446   6.432  0.2411 -0.0751 -0.2814
 8271SOL    HW236447   3.012   1.563   6.475  0.8629 -2.4939  0.3863
 8272SOL     OW36448   1.739   2.925   6.569  0.3867  0.2141  0.2400
 8272SOL    HW136449   1.740   2.933   6.665 -2.1774 -2.2407  0.4993
 8272SOL    HW236450   1.736   3.013   6.532 -1.2362  0.2367  0.4006
 8273SOL     OW36451   4.186   1.679   3.761 -0.6332  0.4423  0.0536
 8273SOL    HW136452   4.232   1.648   3.683 -1.2941  1.1109 -0.6012
 8273SOL    HW236453   4.238   1.634   3.828 -0.3614  0.2752 -0.2647
 8274SOL     OW36454   0.394   1.064  14.875 -0.0702 -0.0158 -0.3449
 8274SOL    HW136455   0.319   1.068  14.935  1.5850 -0.0959  1.7448
 8274SOL    HW236456   0.377   1.136  14.814 -2.6657  0.3705  0.8309
 8275SOL     OW36457   4.430   2.632   3.741 -0.1020  0.5028  0.1911
 8275SOL    HW136458   4.416   2.674   3.656  2.8227 -0.1934 -0.6136
 8275SOL    HW236459   4.389   2.707   3.784  1.8891  0.9357  1.3408
 8276SOL     OW36460   3.273   1.398   4.241  0.0577  0.5888  0.1315
 8276SOL    HW136461   3.256   1.492   4.240  1.3246  0.8131  0.2750
 8276SOL    HW236462   3.369   1.396   4.247  0.0091  1.2667  1.0659
 8277SOL     OW36463   1.282   1.226   9.131  0.6120  0.0832 -0.1064
 8277SOL    HW136464   1.187   1.232   9.120  0.9200  0.9451 -2.2063
 8277SOL    HW236465   1.303   1.133   9.120  0.2073  0.1083 -1.0614
 8278SOL     OW36466   2.493   0.056  16.595  0.8134 -0.1986  0.1173
 8278SOL    HW136467   2.566   0.091  16.645  1.6224 -0.7559 -0.6801
 8278SOL    HW236468   2.525   4.700  16.598  1.5740  0.0930  0.7669
 8279SOL     OW36469   4.711   1.630   7.470  0.1864  0.2391  0.1363
 8279SOL    HW136470   0.029   1.649   7.392 -2.4726 -1.5302 -2.1278
 8279SOL    HW236471   4.692   1.710   7.518 -0.7576  0.0431  0.0762
 8280SOL     OW36472   1.042   0.781  14.137  0.8701  0.4028  0.2111
 8280SOL    HW136473   1.117   0.768  14.195  2.1562  1.3994 -1.2714
 8280SOL    HW236474   1.079   0.728  14.067 -0.0770  2.7338 -2.0462
 8281SOL     OW36475   2.396   3.959   3.118  0.5463  0.4382  0.5227
 8281SOL    HW136476   2.459   3.980   3.050 -1.1051 -0.9704 -1.4111
 8281SOL    HW236477   2.413   4.019   3.191 -0.1195  1.1448  0.0976
 8282SOL     OW36478   2.473   3.981   9.615 -0.0899 -0.2175 -0.2843
 8282SOL    HW136479   2.412   3.918   9.655  0.6169 -0.1995  0.8138
 8282SOL    HW236480   2.436   3.997   9.529  1.8455 -1.1386 -1.2741
 8283SOL     OW36481   3.093   0.348  10.214  0.0924  0.4834  0.2565
 8283SOL    HW136482   3.170   0.313  10.259  0.2062 -0.8756 -1.0059
 8283SOL    HW236483   3.020   0.320  10.268  1.7073 -1.9532  1.1840
 8284SOL     OW36484   3.483   3.932   6.278 -0.1773 -0.1080 -0.0409
 8284SOL    HW136485   3.441   3.858   6.322  1.8444 -1.0940  0.2303
 8284SOL    HW236486   3.521   3.887   6.203 -1.6720  1.9002 -1.9827
 8285SOL     OW36487   1.073   4.472  16.355 -0.5747 -0.4884 -0.2680
 8285SOL    HW136488   1.101   4.426  16.435 -2.3423 -2.0976 -0.5940
 8285SOL    HW236489   1.124   4.552  16.368 -1.6767  0.1580  0.0681
 8286SOL     OW36490   3.707   1.825   9.125  0.1352  0.4047  0.1357
 8286SOL    HW136491   3.641   1.755   9.116 -0.2079  0.6793  0.4927
 8286SOL    HW236492   3.728   1.811   9.218 -0.5060 -1.6580 -0.0306
 8287SOL     OW36493   2.546   4.152   5.054  0.1305 -0.2031  0.0034
 8287SOL    HW136494   2.580   4.207   5.125  1.0235 -2.6033  1.4127
 8287SOL    HW236495   2.567   4.066   5.089 -1.2757 -1.1077 -1.3519
 8288SOL     OW36496   3.629   3.497   6.840  0.0592 -0.2754  0.5609
 8288SOL    HW136497   3.539   3.488   6.807  1.1080 -3.9636 -1.3620
 8288SOL    HW236498   3.682   3.467   6.766 -0.1007  0.3179  0.2115
 8289SOL     OW36499   1.925   3.992   7.302  0.1027  0.1140 -0.1530
 8289SOL    HW136500   1.994   4.047   7.264 -0.2463 -0.5131 -1.6977
 8289SOL    HW236501   1.930   3.922   7.236 -0.0050 -1.4943  1.5470
 8290SOL     OW36502   0.330   1.413   3.404  0.3493 -0.6159 -0.2973
 8290SOL    HW136503   0.328   1.321   3.429  1.1592 -0.7859 -0.8355
 8290SOL    HW236504   0.287   1.416   3.318 -1.1686 -3.0065  0.4048
 8291SOL     OW36505   0.973   3.260  15.914  0.0450 -0.2552  0.8830
 8291SOL    HW136506   0.932   3.204  15.848 -0.6262  2.4215 -0.9595
 8291SOL    HW236507   1.062   3.267  15.881 -0.5860 -0.2217 -0.8044
 8292SOL     OW36508   4.593   0.225  17.598  0.7646 -0.0124 -0.1507
 8292SOL    HW136509   4.624   0.298  17.652 -1.0803 -0.2963  1.2511
 8292SOL    HW236510   4.525   0.279  17.558  0.4055  1.6213  2.6455
 8293SOL     OW36511   2.866   2.766  10.996  0.8695  0.3204  0.3298
 8293SOL    HW136512   2.913   2.774  11.078 -0.9635 -1.8371  1.5976
 8293SOL    HW236513   2.815   2.847  11.000 -0.1436 -0.2929 -0.1169
 8294SOL     OW36514   0.468   1.491   6.251  0.4647 -0.5863  0.2835
 8294SOL    HW136515   0.522   1.567   6.274  1.9855 -0.4216 -3.6548
 8294SOL    HW236516   0.517   1.428   6.303  1.1327  0.8899  1.4418
 8295SOL     OW36517   4.118   3.535  10.189  0.1351  0.3250  0.3998
 8295SOL    HW136518   4.046   3.524  10.252  0.6051  2.0737  1.2397
 8295SOL    HW236519   4.102   3.462  10.129  1.4715 -0.8269  1.4683
 8296SOL     OW36520   0.731   3.144  15.234  0.0689  0.3565 -0.0537
 8296SOL    HW136521   0.766   3.158  15.146  0.9765 -0.5652  0.1647
 8296SOL    HW236522   0.673   3.220  15.237  0.6606  0.8000  0.0859
 8297SOL     OW36523   3.640   3.314  16.644  0.0031 -0.6666  0.1638
 8297SOL    HW136524   3.638   3.385  16.708  1.3281 -1.7319  1.3549
 8297SOL    HW236525   3.552   3.276  16.653 -0.5811  0.5127 -0.5038
 8298SOL     OW36526   3.613   2.666   4.589 -0.0471 -0.1009  0.1613
 8298SOL    HW136527   3.701   2.680   4.624 -0.0043  0.7656 -0.2804
 8298SOL    HW236528   3.619   2.691   4.496  0.9321 -0.0945  0.2220
 8299SOL     OW36529   1.531   1.531   3.287 -0.0612 -0.3392 -0.5614
 8299SOL    HW136530   1.441   1.507   3.268 -0.8585  0.0337  2.7734
 8299SOL    HW236531   1.512   1.571   3.372  0.5517  1.0699 -1.0967
 8300SOL     OW36532   2.193   3.141   0.364 -0.1828 -0.1547 -0.0221
 8300SOL    HW136533   2.124   3.135   0.431 -0.5624  2.9456 -0.1356
 8300SOL    HW236534   2.262   3.182   0.417  0.9902 -3.8401  1.2546
 8301SOL     OW36535   0.694   4.026   5.310  0.3742 -0.1082 -0.6342
 8301SOL    HW136536   0.787   4.046   5.320  0.1032  0.7008  0.2592
 8301SOL    HW236537   0.660   4.055   5.395  1.9552 -0.6689  0.2050
 8302SOL     OW36538   4.674   3.264   4.928  0.5403 -0.1113 -0.0712
 8302SOL    HW136539   4.684   3.357   4.949 -1.1376 -0.1034  0.6496
 8302SOL    HW236540   0.032   3.243   4.934  0.5160 -0.1003  0.3228
 8303SOL     OW36541   3.350   4.647   6.983 -0.1665  0.0176 -0.0488
 8303SOL    HW136542   3.410   4.607   6.920 -1.5399 -1.2705 -0.5589
 8303SOL    HW236543   3.317   4.572   7.034  0.8889  0.7900  1.7674
 8304SOL     OW36544   4.116   1.698   5.291  0.0505 -0.5848 -0.1082
 8304SOL    HW136545   4.185   1.739   5.343 -0.0526  1.2058 -1.3613
 8304SOL    HW236546   4.094   1.768   5.229  3.3514 -0.5906 -1.2996
 8305SOL     OW36547   1.652   1.697   7.297 -0.0270  0.1579  0.2073
 8305SOL    HW136548   1.692   1.642   7.364 -0.3055 -0.4515 -0.1278
 8305SOL    HW236549   1.560   1.704   7.323  0.2451  2.5864  0.5929
 8306SOL     OW36550   4.038   1.710   2.087 -0.0311  0.0398  0.4841
 8306SOL    HW136551   4.024   1.616   2.080  0.7074 -0.1795  1.9846
 8306SOL    HW236552   4.121   1.701   2.134  0.4943 -1.5924 -0.7663
 8307SOL     OW36553   3.035   0.780  11.220  0.2905 -0.0064  0.3732
 8307SOL    HW136554   3.024   0.861  11.268 -1.0813 -0.8008  1.3958
 8307SOL    HW236555   3.004   0.796  11.131 -3.1524 -3.6005  0.9257
 8308SOL     OW36556   0.542   0.363  13.857  0.0170 -0.2577 -0.7555
 8308SOL    HW136557   0.498   0.354  13.773  0.6229  2.0888 -1.3033
 8308SOL    HW236558   0.515   0.448  13.892 -0.9902 -0.7553 -0.3080
 8309SOL     OW36559   2.949   3.984   2.463  0.9339  0.8362  0.0514
 8309SOL    HW136560   3.004   4.029   2.527  0.0055  2.3186 -0.2155
 8309SOL    HW236561   2.977   3.893   2.477  0.3200  0.4937 -0.9820
 8310SOL     OW36562   0.937   0.250   9.347  0.8151 -0.1012  0.1827
 8310SOL    HW136563   0.919   0.156   9.341  0.1086  0.0101  0.4667
 8310SOL    HW236564   1.030   0.245   9.328  0.7027  0.2791 -0.4680
 8311SOL     OW36565   3.993   0.723   2.199  0.1128 -0.5156 -0.5043
 8311SOL    HW136566   4.071   0.752   2.153 -1.4814  2.1583 -1.5284
 8311SOL    HW236567   3.982   0.791   2.265  1.2761  0.1709 -1.0183
 8312SOL     OW36568   1.611   4.405   1.178  0.0047  0.8623  0.5787
 8312SOL    HW136569   1.606   4.314   1.207 -0.9515  0.1946 -1.6522
 8312SOL    HW236570   1.600   4.396   1.083 -0.9623  1.4680  0.6333
 8313SOL     OW36571   1.734   3.296   4.494 -0.0741  0.1287  0.1925
 8313SOL    HW136572   1.640   3.299   4.477 -0.4363 -0.8185  1.9995
 8313SOL    HW236573   1.725   3.307   4.589  0.8377  2.1350  0.0366
 8314SOL     OW36574   2.953   2.186  12.682 -0.0773  0.5093 -0.2116
 8314SOL    HW136575   2.926   2.254  12.621  1.1478 -1.6295 -3.1360
 8314SOL    HW236576   2.877   2.184  12.740  0.3642 -3.2019  0.2861
 8315SOL     OW36577   4.662   4.649   7.504  0.3742  1.3770 -0.4957
 8315SOL    HW136578   4.670   4.670   7.598  2.0666  0.4999 -0.4472
 8315SOL    HW236579   4.583   4.688   7.467  1.3449  2.7183 -1.1649
 8316SOL     OW36580   1.342   0.315  14.611  0.1088 -0.4563  0.6381
 8316SOL    HW136581   1.317   0.270  14.530 -0.6238  0.5767  0.3004
 8316SOL    HW236582   1.257   0.335  14.649  0.2258  0.3872  0.4481
 8317SOL     OW36583   4.079   2.839   2.799 -0.8469 -0.2528  0.2476
 8317SOL    HW136584   4.069   2.805   2.888 -0.4028 -2.0397 -0.4076
 8317SOL    HW236585   3.991   2.821   2.766 -1.1047  0.5037  0.5208
 8318SOL     OW36586   2.221   0.583  10.211 -0.3366 -0.1139  0.2507
 8318SOL    HW136587   2.169   0.648  10.163  0.2066  1.3816  1.6956
 8318SOL    HW236588   2.258   0.525  10.143 -1.7339 -1.6224  0.7833
 8319SOL     OW36589   4.192   2.377   3.392 -0.2721  0.5950 -0.0173
 8319SOL    HW136590   4.203   2.371   3.297  1.6347  0.1044  0.2470
 8319SOL    HW236591   4.254   2.448   3.410  3.1901 -1.8561 -2.3332
 8320SOL     OW36592   0.702   2.427   3.512  0.1504  0.3908  0.4098
 8320SOL    HW136593   0.776   2.480   3.484 -1.5779  1.2814 -2.4480
 8320SOL    HW236594   0.666   2.482   3.581 -1.7738  1.5301 -1.5343
 8321SOL     OW36595   3.416   2.192   1.629 -0.2110 -0.0171 -0.3820
 8321SOL    HW136596   3.501   2.169   1.592 -0.6544 -2.1562 -0.0369
 8321SOL    HW236597   3.406   2.288   1.625  1.2855  0.1420  0.0823
 8322SOL     OW36598   1.388   2.997   9.676  0.2870 -0.0511 -0.6443
 8322SOL    HW136599   1.446   3.003   9.601  0.5996  0.5440 -0.3545
 8322SOL    HW236600   1.424   2.915   9.711  0.5946  0.5734  0.4972
 8323SOL     OW36601   0.224   4.706   3.650  0.1485 -0.0754  1.0513
 8323SOL    HW136602   0.171   0.050   3.637 -0.0890 -0.2705  0.8277
 8323SOL    HW236603   0.156   4.640   3.636  2.0381 -0.9252 -4.1386
 8324SOL     OW36604   0.086   2.939   4.295 -0.2418  0.0471  0.4523
 8324SOL    HW136605   0.130   2.877   4.352  1.1048 -0.0559 -0.7053
 8324SOL    HW236606   0.057   2.878   4.227  0.0433 -1.3467  1.5875
 8325SOL     OW36607   3.124   0.125  12.405 -0.0454 -0.6114  0.4085
 8325SOL    HW136608   3.147   0.197  12.462  0.1002 -0.6446  0.3906
 8325SOL    HW236609   3.061   0.077  12.460  0.4956 -2.6658 -0.7477
 8326SOL     OW36610   2.929   3.595   1.641  0.3193 -0.5839  0.1549
 8326SOL    HW136611   2.844   3.587   1.598  0.6257  0.4554 -0.6487
 8326SOL    HW236612   2.908   3.619   1.731  0.7346  0.5339 -0.0472
 8327SOL     OW36613   1.425   3.935   3.193 -0.0967  0.3620 -0.1565
 8327SOL    HW136614   1.446   4.022   3.159 -0.4700  0.1330 -0.9707
 8327SOL    HW236615   1.407   3.879   3.117 -0.8540 -1.1873  1.1683
 8328SOL     OW36616   1.033   2.406   2.332 -0.6704  0.2215 -0.4161
 8328SOL    HW136617   0.949   2.438   2.364 -0.8741 -0.6370 -0.0758
 8328SOL    HW236618   1.042   2.320   2.374  2.7080  0.7591 -0.0973
 8329SOL     OW36619   0.528   3.553   3.784  0.2642  0.1105  0.6190
 8329SOL    HW136620   0.546   3.628   3.727 -2.7516  0.4974  0.1869
 8329SOL    HW236621   0.621   3.533   3.796  0.3250 -0.2170 -0.3843
 8330SOL     OW36622   3.275   1.344   3.626  0.6541  0.4404 -0.2840
 8330SOL    HW136623   3.198   1.391   3.657  1.0697 -0.5214  2.1953
 8330SOL    HW236624   3.338   1.411   3.650  1.4735 -0.7999  1.0347
 8331SOL     OW36625   3.839   4.020   8.433 -0.1450  0.1712  0.3195
 8331SOL    HW136626   3.912   3.961   8.414 -0.3856 -0.2494  0.7077
 8331SOL    HW236627   3.785   3.988   8.360  1.8253 -0.6653 -0.7681
 8332SOL     OW36628   1.102   0.573   6.189 -0.0404 -0.0675  0.1664
 8332SOL    HW136629   1.126   0.605   6.102  2.4537  3.0090  2.0177
 8332SOL    HW236630   1.139   0.485   6.192  0.6266  0.1775 -0.9193
 8333SOL     OW36631   3.838   4.293  11.365  0.4455  0.5628  0.3956
 8333SOL    HW136632   3.848   4.249  11.449 -2.5890  0.3683  0.6757
 8333SOL    HW236633   3.754   4.336  11.380 -0.3325 -0.5325 -0.8126
 8334SOL     OW36634   3.606   3.281   1.555  0.1028  0.9004  0.0401
 8334SOL    HW136635   3.585   3.306   1.465  0.5004 -0.2128 -0.3557
 8334SOL    HW236636   3.522   3.258   1.595 -0.2820  1.3352 -0.5131
 8335SOL     OW36637   1.089   3.626   6.581 -0.0709  0.8430  0.0269
 8335SOL    HW136638   1.129   3.679   6.650  0.9095 -0.2924  0.3376
 8335SOL    HW236639   1.053   3.696   6.527  0.9912 -1.7472 -3.9856
 8336SOL     OW36640   4.520   3.381  14.392 -0.0370 -0.3847  0.3464
 8336SOL    HW136641   4.600   3.400  14.440 -0.5444 -0.6632  1.3127
 8336SOL    HW236642   4.528   3.287  14.376  0.6517 -0.5027  1.3511
 8337SOL     OW36643   4.480   2.674  11.870  0.4780 -0.8066  0.2174
 8337SOL    HW136644   4.425   2.752  11.865  0.3582 -1.0579 -2.6156
 8337SOL    HW236645   4.515   2.689  11.958  0.4038 -0.3430  0.1682
 8338SOL     OW36646   3.742   2.264  10.736 -0.2865 -0.2580  0.4746
 8338SOL    HW136647   3.666   2.319  10.757  0.6787  1.7510 -1.2497
 8338SOL    HW236648   3.794   2.331  10.691  1.6834 -0.9272  1.7465
 8339SOL     OW36649   0.389   1.569   8.358 -0.2623 -0.3778 -0.3040
 8339SOL    HW136650   0.480   1.598   8.368 -0.3971 -0.1924  0.3867
 8339SOL    HW236651   0.395   1.475   8.369  2.5438  0.0564  2.0065
 8340SOL     OW36652   2.007   4.685   2.060  0.9589 -0.4021  0.6256
 8340SOL    HW136653   1.992   0.027   2.005 -1.4313 -0.1437  1.6847
 8340SOL    HW236654   2.049   4.628   1.994  1.2456  0.3426  0.1614
 8341SOL     OW36655   2.279   0.432   6.127  0.4216  0.2877  0.3017
 8341SOL    HW136656   2.329   0.466   6.052  0.2939 -2.5258 -1.0481
 8341SOL    HW236657   2.347   0.422   6.193  0.0659  1.9884  0.9201
 8342SOL     OW36658   2.736   1.184   8.238  0.2155 -0.3316  0.6505
 8342SOL    HW136659   2.716   1.268   8.278 -0.2044  0.2745 -0.8111
 8342SOL    HW236660   2.675   1.182   8.164 -0.5029 -0.1378  1.2441
 8343SOL     OW36661   2.521   3.725   1.836 -0.3541  0.1134 -0.5239
 8343SOL    HW136662   2.447   3.754   1.783 -1.7274 -3.6816 -0.6519
 8343SOL    HW236663   2.482   3.643   1.867  1.1945 -0.6744 -0.6985
 8344SOL     OW36664   3.620   0.502   4.678  0.2349 -0.4299  0.3672
 8344SOL    HW136665   3.623   0.565   4.606 -1.1246 -0.1620  0.5520
 8344SOL    HW236666   3.639   0.425   4.625 -1.3146  1.0459 -2.3414
 8345SOL     OW36667   4.540   3.790  14.403  0.0912  0.0032  0.2286
 8345SOL    HW136668   4.445   3.778  14.411  0.1420 -1.5599 -1.6753
 8345SOL    HW236669   4.561   3.881  14.426 -0.1480 -0.4968  2.3761
 8346SOL     OW36670   3.029   0.643   7.563  0.1534 -0.2805 -0.0072
 8346SOL    HW136671   3.082   0.584   7.508  1.5418  2.6959 -1.8623
 8346SOL    HW236672   3.082   0.658   7.641 -1.1668  0.7281  0.6883
 8347SOL     OW36673   2.483   0.110   3.688  0.0857  0.2885  0.7001
 8347SOL    HW136674   2.540   0.066   3.624 -0.6776 -1.7965  1.4478
 8347SOL    HW236675   2.454   0.184   3.635  0.9986 -0.2042 -0.4919
 8348SOL     OW36676   3.961   3.548   7.617 -0.3269 -0.5785  0.2417
 8348SOL    HW136677   3.867   3.562   7.605 -0.6742 -1.2561  2.2570
 8348SOL    HW236678   3.969   3.581   7.706 -1.3290 -0.0045  0.1227
 8349SOL     OW36679   2.788   0.361   8.065  0.6868 -0.1856 -0.0547
 8349SOL    HW136680   2.701   0.394   8.043 -0.5580 -3.3203  0.1920
 8349SOL    HW236681   2.781   0.299   8.137 -2.0780 -0.3843 -0.5019
 8350SOL     OW36682   1.008   3.885   2.263  0.3469  0.5117 -0.1935
 8350SOL    HW136683   0.927   3.914   2.306  0.4061  0.5373 -0.0985
 8350SOL    HW236684   0.999   3.928   2.178  1.0404  0.9404 -0.0561
 8351SOL     OW36685   3.549   2.024   9.044  0.2308  0.4000  0.2443
 8351SOL    HW136686   3.615   1.955   9.055 -0.7176 -0.7101 -1.0713
 8351SOL    HW236687   3.471   1.974   9.067  0.1324 -0.3278 -1.6621
 8352SOL     OW36688   0.080   1.180   2.118 -1.0941  0.5137  0.4205
 8352SOL    HW136689   0.071   1.145   2.029 -1.6545  2.6266 -0.3595
 8352SOL    HW236690   0.067   1.273   2.098 -1.6588  0.2378 -0.5482
 8353SOL     OW36691   4.081   2.956   6.174 -0.0355  0.1993 -0.3917
 8353SOL    HW136692   4.064   2.863   6.189  1.4419 -0.1685 -0.9171
 8353SOL    HW236693   4.177   2.954   6.179 -0.1767 -2.2846  1.2266
 8354SOL     OW36694   2.192   3.695   7.308  0.1657 -0.4501  0.2388
 8354SOL    HW136695   2.217   3.766   7.367 -0.6140  1.0993 -1.2706
 8354SOL    HW236696   2.125   3.736   7.253 -0.6739  0.0660  1.6369
 8355SOL     OW36697   4.170   1.721   6.088 -0.2458 -0.2990 -0.6977
 8355SOL    HW136698   4.165   1.626   6.080 -2.0798 -0.7335  5.5687
 8355SOL    HW236699   4.144   1.735   5.997 -2.6787  1.6526  0.3062
 8356SOL     OW36700   2.963   3.449   5.326 -0.3205  0.2809  0.0805
 8356SOL    HW136701   3.054   3.470   5.301  0.3314 -2.2322  0.3895
 8356SOL    HW236702   2.975   3.438   5.420 -2.0388 -0.1159  0.2519
 8357SOL     OW36703   3.676   4.252  13.303  0.1933  0.3680 -0.3350
 8357SOL    HW136704   3.615   4.198  13.353  0.2256 -1.3335 -2.1425
 8357SOL    HW236705   3.635   4.244  13.217 -1.3281  0.9979  0.3217
 8358SOL     OW36706   0.822   3.268   7.489  0.4062 -0.0049 -0.6077
 8358SOL    HW136707   0.876   3.331   7.536 -2.0165  1.5648  0.0688
 8358SOL    HW236708   0.741   3.271   7.539  0.4798 -0.7369 -0.4378
 8359SOL     OW36709   0.806   2.624   5.688 -0.5531 -0.4568  0.5722
 8359SOL    HW136710   0.795   2.538   5.729 -0.8321  0.1301  1.7387
 8359SOL    HW236711   0.722   2.640   5.645 -0.5591  2.1751  1.5677
 8360SOL     OW36712   2.673   0.192   6.101  0.6011  0.2843  0.1691
 8360SOL    HW136713   2.631   0.109   6.125 -2.4735  1.8967  0.2377
 8360SOL    HW236714   2.738   0.198   6.171  1.5462 -1.3536 -0.5543
 8361SOL     OW36715   4.539   1.348   6.784  0.4393  0.0097  0.2635
 8361SOL    HW136716   4.465   1.296   6.816 -0.0603  1.2984  1.1946
 8361SOL    HW236717   4.597   1.357   6.859 -1.7726  2.1345  1.7201
 8362SOL     OW36718   0.505   3.942   0.581  0.6355  0.0466  0.3289
 8362SOL    HW136719   0.566   3.990   0.524 -1.6906  0.4008 -1.8521
 8362SOL    HW236720   0.428   3.944   0.524  1.2543  2.4061 -0.4353
 8363SOL     OW36721   1.010   3.473  13.200  0.2408  0.3161 -0.2112
 8363SOL    HW136722   1.043   3.467  13.111  1.6344 -1.6290  0.4529
 8363SOL    HW236723   0.943   3.406  13.207  0.5871 -0.0923 -0.9101
 8364SOL     OW36724   3.229   2.699  12.178 -0.5776  0.1322  0.6103
 8364SOL    HW136725   3.212   2.782  12.133 -0.3054  0.2708  0.7629
 8364SOL    HW236726   3.222   2.631  12.112 -0.1958  2.3544 -1.7192
 8365SOL     OW36727   3.948   3.346  10.541 -0.7100 -0.5684  0.2906
 8365SOL    HW136728   3.906   3.363  10.456 -0.3332 -1.7250 -0.1340
 8365SOL    HW236729   3.981   3.427  10.579 -1.9895 -0.0511  0.2877
 8366SOL     OW36730   3.551   2.431   3.614  0.4728  0.0457 -0.0956
 8366SOL    HW136731   3.513   2.368   3.553  0.3390 -0.6070  0.6709
 8366SOL    HW236732   3.641   2.402   3.627  0.6250 -0.2173 -1.8104
 8367SOL     OW36733   4.213   4.300   1.634 -0.0341  0.5940 -0.2036
 8367SOL    HW136734   4.134   4.266   1.677 -0.9175  1.4562 -1.1382
 8367SOL    HW236735   4.188   4.311   1.542  2.1622 -0.6847 -0.9627
 8368SOL     OW36736   1.376   1.624   7.419 -0.1927  0.1076  0.0724
 8368SOL    HW136737   1.411   1.694   7.474  0.8384  0.3863 -0.9247
 8368SOL    HW236738   1.293   1.659   7.388  0.1628  1.0323  0.1680
 8369SOL     OW36739   4.590   2.241   6.792 -0.1163 -0.6498 -0.0479
 8369SOL    HW136740   4.558   2.238   6.702  2.4434 -1.4793 -0.9350
 8369SOL    HW236741   4.681   2.257   6.767 -0.6469  0.2695 -1.3602
 8370SOL     OW36742   3.998   4.598   7.865 -0.1614  0.4335  0.7763
 8370SOL    HW136743   3.979   4.562   7.778  0.9589 -1.1488  1.1845
 8370SOL    HW236744   3.926   4.659   7.880 -0.2283  0.2950  1.0345
 8371SOL     OW36745   1.938   0.954  11.363  0.5707 -0.0841  0.3439
 8371SOL    HW136746   2.028   0.924  11.349  0.5635 -0.5734  1.3114
 8371SOL    HW236747   1.950   1.047  11.383  0.9608 -0.0634  0.0054
 8372SOL     OW36748   1.425   2.053  10.188 -0.0299 -0.0735 -0.1551
 8372SOL    HW136749   1.358   2.101  10.140  0.4142  0.2788 -0.4275
 8372SOL    HW236750   1.377   1.972  10.206  1.9671 -1.2160 -0.0098
 8373SOL     OW36751   1.020   1.844   5.484  0.4050 -0.6046 -0.5754
 8373SOL    HW136752   0.929   1.873   5.482  0.1667 -1.2825  0.7369
 8373SOL    HW236753   1.065   1.912   5.534 -1.8902  1.4273 -1.2854
 8374SOL     OW36754   3.218   3.616  13.743 -0.5525  0.7096  0.3264
 8374SOL    HW136755   3.196   3.550  13.677 -0.0547  0.0419  0.8189
 8374SOL    HW236756   3.267   3.676  13.686  0.4820 -0.2509  0.1914
 8375SOL     OW36757   3.859   2.769  14.633 -0.4150  0.0995  0.0691
 8375SOL    HW136758   3.936   2.727  14.595 -1.1070 -0.8356 -0.2836
 8375SOL    HW236759   3.799   2.696  14.643  0.0095 -0.0128  1.8973
 8376SOL     OW36760   4.231   2.559   9.219 -0.0630  0.0731 -0.4292
 8376SOL    HW136761   4.190   2.483   9.178 -1.7553  0.8272 -0.1390
 8376SOL    HW236762   4.201   2.639   9.175 -0.2107  1.9941  3.0956
 8377SOL     OW36763   3.543   1.020   2.467 -0.2547 -0.2014  0.5353
 8377SOL    HW136764   3.479   1.088   2.488 -0.4412  0.2591 -1.5290
 8377SOL    HW236765   3.561   0.988   2.555  1.3777 -1.1418 -0.1341
 8378SOL     OW36766   1.702   0.482   2.133 -0.2830 -0.1511  0.1890
 8378SOL    HW136767   1.670   0.520   2.051  0.1629 -2.2182 -0.9504
 8378SOL    HW236768   1.657   0.398   2.141 -0.0517 -0.4864 -2.0783
 8379SOL     OW36769   2.233   2.679   7.386 -0.1050  0.2957  0.5409
 8379SOL    HW136770   2.168   2.724   7.439 -0.2415 -0.7294  1.2392
 8379SOL    HW236771   2.281   2.760   7.373 -0.2933 -0.0830 -2.7351
 8380SOL     OW36772   0.472   2.353  13.720  0.0055 -0.5415 -0.3326
 8380SOL    HW136773   0.491   2.289  13.789 -1.0866 -2.8425 -2.1692
 8380SOL    HW236774   0.529   2.327  13.649  0.4770 -1.9622  0.5599
 8381SOL     OW36775   3.767   3.220   5.017  0.2372  0.3912  1.0170
 8381SOL    HW136776   3.704   3.177   4.959 -1.5421  0.9271  2.5630
 8381SOL    HW236777   3.728   3.308   5.018 -1.7442 -0.5015  1.4512
 8382SOL     OW36778   2.456   4.359   7.046  0.2508  0.0405  0.0015
 8382SOL    HW136779   2.490   4.443   7.077 -1.3647  1.2513 -1.5129
 8382SOL    HW236780   2.437   4.385   6.956  0.3115 -0.4389 -0.1529
 8383SOL     OW36781   1.593   1.963  11.728 -0.2065 -0.3021 -0.4273
 8383SOL    HW136782   1.632   1.962  11.816 -1.1640  2.5958  0.0193
 8383SOL    HW236783   1.524   2.028  11.739  1.5608  0.9889  3.0552
 8384SOL     OW36784   0.241   0.961   4.814 -0.4345  0.1690 -0.1204
 8384SOL    HW136785   0.298   1.027   4.775 -1.7183  1.9284  0.9759
 8384SOL    HW236786   0.185   0.944   4.738 -0.2596  0.2521 -0.2664
 8385SOL     OW36787   3.194   2.224   1.964 -0.0208 -0.3171 -0.4165
 8385SOL    HW136788   3.157   2.200   2.048 -0.0339 -1.7573 -0.8345
 8385SOL    HW236789   3.177   2.318   1.964 -0.3570 -0.3762 -0.5213
 8386SOL     OW36790   4.600   0.222   1.621  0.3507  0.1108 -0.1076
 8386SOL    HW136791   4.541   0.291   1.591 -2.8497 -2.6304 -0.0492
 8386SOL    HW236792   4.549   0.145   1.597 -2.9969  2.2801  0.0548
 8387SOL     OW36793   1.740   3.724  15.106 -0.1825  0.2830 -0.0634
 8387SOL    HW136794   1.694   3.687  15.181 -0.9372 -0.0268 -0.6794
 8387SOL    HW236795   1.658   3.747  15.062  0.1154  2.4490  0.5175
 8388SOL     OW36796   4.574   3.145   8.262 -0.1729 -0.0284  0.1068
 8388SOL    HW136797   4.578   3.175   8.352  1.3596  2.4007 -0.7670
 8388SOL    HW236798   4.613   3.222   8.221 -0.2558  0.3108  0.6651
 8389SOL     OW36799   0.163   0.300  13.764 -0.1388  0.2319 -0.1890
 8389SOL    HW136800   0.077   0.258  13.760 -0.2190  0.4494 -0.8310
 8389SOL    HW236801   0.172   0.317  13.857  1.3869 -0.7081 -0.1712
 8390SOL     OW36802   0.358   0.763   2.055 -0.8107 -0.6200 -0.1722
 8390SOL    HW136803   0.442   0.772   2.100 -0.2391  0.6347 -1.4936
 8390SOL    HW236804   0.378   0.817   1.979 -0.7808 -2.0918 -1.2134
 8391SOL     OW36805   2.992   1.607   5.614  0.2805  0.0787 -0.4113
 8391SOL    HW136806   2.898   1.618   5.595  0.6613  0.0750 -2.2917
 8391SOL    HW236807   3.002   1.514   5.632  0.2298  0.1624  0.0543
 8392SOL     OW36808   4.566   4.267   4.895 -0.4779  0.2874 -0.4254
 8392SOL    HW136809   4.618   4.187   4.908  0.8680  1.3447  0.6716
 8392SOL    HW236810   4.525   4.259   4.809  0.9561 -0.0173 -1.0918
 8393SOL     OW36811   3.082   1.106  16.737 -0.6207 -0.4029  0.1967
 8393SOL    HW136812   3.008   1.073  16.686 -0.0403  0.4163 -1.1601
 8393SOL    HW236813   3.084   1.194  16.700  0.0313 -0.4928  0.0284
 8394SOL     OW36814   4.057   0.123   2.525  0.0309 -0.0783  0.1710
 8394SOL    HW136815   3.993   0.174   2.476  0.2438 -0.3498 -0.3824
 8394SOL    HW236816   4.000   0.093   2.596 -0.1652  5.4197  2.3685
 8395SOL     OW36817   0.070   4.135   8.837 -0.4529  0.5006 -0.1883
 8395SOL    HW136818   0.071   4.215   8.890 -1.4668  0.3457  0.0486
 8395SOL    HW236819   0.010   4.172   8.772 -0.0846 -0.5856 -1.1417
 8396SOL     OW36820   0.456   1.139   3.289  0.1602 -0.9422 -0.1757
 8396SOL    HW136821   0.476   1.154   3.196  1.4411 -1.7705 -0.0237
 8396SOL    HW236822   0.545   1.137   3.323 -0.6722 -3.4671  1.8502
 8397SOL     OW36823   1.827   3.628   5.876 -0.2767  0.5439 -0.0527
 8397SOL    HW136824   1.772   3.585   5.942 -0.2565  0.4781 -0.0783
 8397SOL    HW236825   1.792   3.716   5.862 -2.0348 -0.6343 -3.1428
 8398SOL     OW36826   3.628   3.386  15.993 -0.4921  0.9458  0.1810
 8398SOL    HW136827   3.584   3.423  16.069 -2.8116 -1.4842  0.0269
 8398SOL    HW236828   3.614   3.451  15.924  0.8744 -0.3907 -1.3573
 8399SOL     OW36829   2.153   1.085   7.710 -0.4501 -0.1314 -0.0665
 8399SOL    HW136830   2.223   1.149   7.695  0.2375 -0.8466  0.0883
 8399SOL    HW236831   2.077   1.118   7.662 -0.1385  0.5234 -0.1000
 8400SOL     OW36832   4.184   0.813  10.953 -0.4157  0.5040 -0.3867
 8400SOL    HW136833   4.213   0.862  10.876  0.2690  1.6686  0.6039
 8400SOL    HW236834   4.250   0.835  11.019 -1.8799  2.0132  0.5770
 8401SOL     OW36835   4.492   2.474   2.775 -0.6543  0.1949  0.4733
 8401SOL    HW136836   4.483   2.531   2.699 -0.7537  0.1411  0.4441
 8401SOL    HW236837   4.548   2.536   2.822  1.2375  1.0849 -2.8955
 8402SOL     OW36838   3.336   4.296   8.613 -0.0018 -0.0709 -0.5274
 8402SOL    HW136839   3.262   4.348   8.644  0.0395 -0.3689  0.0590
 8402SOL    HW236840   3.330   4.330   8.523  2.0753  1.4780 -0.0875
 8403SOL     OW36841   4.714   2.526   6.602  0.3672  0.3432  0.6951
 8403SOL    HW136842   4.701   2.553   6.693  1.9941 -0.1660  1.1003
 8403SOL    HW236843   0.073   2.504   6.601 -0.0307 -1.4319  1.3635
 8404SOL     OW36844   3.602   4.734   7.598  0.1915  0.6663  0.6336
 8404SOL    HW136845   3.509   0.005   7.619  0.8221 -0.0714  3.6769
 8404SOL    HW236846   3.607   0.071   7.535  2.3578  2.5191  2.9140
 8405SOL     OW36847   4.304   2.271   2.699  0.3075  0.0536  0.1609
 8405SOL    HW136848   4.373   2.337   2.706  0.9702 -0.4878 -1.2336
 8405SOL    HW236849   4.357   2.192   2.707  1.7061  1.1467  1.5352
 8406SOL     OW36850   0.789   3.194  14.265 -0.5747 -0.5323 -0.3790
 8406SOL    HW136851   0.856   3.206  14.332 -1.7147  2.2685  0.2723
 8406SOL    HW236852   0.788   3.288  14.247  0.4742 -0.6398 -0.9604
 8407SOL     OW36853   3.693   0.409   8.729 -0.1935  0.1393 -0.0726
 8407SOL    HW136854   3.721   0.326   8.767  1.1785 -0.4991 -2.4478
 8407SOL    HW236855   3.778   0.452   8.734 -0.8989  1.5580 -0.3376
 8408SOL     OW36856   4.260   4.050   3.635  0.1870  0.6477 -0.3082
 8408SOL    HW136857   4.181   4.025   3.683  1.0199  0.1938  0.8054
 8408SOL    HW236858   4.267   4.144   3.650 -1.2578  0.7049  0.0312
 8409SOL     OW36859   0.918   3.218   3.246 -0.1615  0.2855 -0.1343
 8409SOL    HW136860   0.943   3.290   3.187 -0.8172 -0.1525 -0.9555
 8409SOL    HW236861   0.965   3.144   3.208  2.2004  1.2969  0.8103
 8410SOL     OW36862   4.517   3.067   7.666 -0.1626  0.1326 -0.2384
 8410SOL    HW136863   4.459   3.018   7.607  0.5087  0.2983 -1.0269
 8410SOL    HW236864   4.520   3.154   7.627 -0.5848 -0.2185 -1.0539
 8411SOL     OW36865   2.853   4.150   0.249 -0.1883  0.8754 -0.0370
 8411SOL    HW136866   2.820   4.203   0.177 -1.1891  1.2880  0.7278
 8411SOL    HW236867   2.771   4.124   0.291  0.9507 -1.9664  0.4659
 8412SOL     OW36868   4.722   2.520   4.825  0.0231 -0.0426 -0.1624
 8412SOL    HW136869   4.654   2.582   4.851 -0.6301 -1.4207  1.4186
 8412SOL    HW236870   0.037   2.539   4.904 -0.5297  1.3750 -0.1605
 8413SOL     OW36871   4.083   1.049   6.000 -0.3591  0.1197 -0.1043
 8413SOL    HW136872   4.063   1.064   5.908  1.9367 -1.6993 -0.8844
 8413SOL    HW236873   3.999   1.076   6.038 -0.4889 -0.6903  0.1894
 8414SOL     OW36874   4.731   4.243   3.035 -0.7656 -0.1185  0.2199
 8414SOL    HW136875   4.651   4.224   3.082  0.2127  2.7659  3.0222
 8414SOL    HW236876   4.718   4.338   3.032 -0.8882 -0.1931 -1.7733
 8415SOL     OW36877   1.330   0.487   5.807 -0.2772  0.0309 -0.1044
 8415SOL    HW136878   1.262   0.551   5.784 -1.2491 -1.8604 -2.4697
 8415SOL    HW236879   1.361   0.523   5.890 -0.1913  0.4187 -0.3038
 8416SOL     OW36880   3.609   0.134   4.837  0.1352  0.1712  0.1565
 8416SOL    HW136881   3.669   0.191   4.789  2.6416 -1.8496  0.9039
 8416SOL    HW236882   3.661   0.057   4.857  0.5953  0.9402  1.9722
 8417SOL     OW36883   2.970   1.667   6.862 -0.2551 -0.7550 -0.2270
 8417SOL    HW136884   2.971   1.753   6.820 -2.6464 -0.8613 -0.5171
 8417SOL    HW236885   2.880   1.666   6.895  0.1018  1.0183  0.7747
 8418SOL     OW36886   1.224   0.613  16.679  0.0488  0.6698  0.1467
 8418SOL    HW136887   1.304   0.653  16.711  1.4177  0.6087 -3.1360
 8418SOL    HW236888   1.258   0.525  16.664 -0.4664  0.3026  1.1160
 8419SOL     OW36889   1.585   4.549   1.913 -0.0786  0.1338 -0.1015
 8419SOL    HW136890   1.583   4.472   1.856  1.0080 -1.5867  2.1668
 8419SOL    HW236891   1.557   4.507   1.994 -1.1972 -1.7369 -1.4617
 8420SOL     OW36892   2.761   1.197   3.547  0.0122 -0.2646  0.1061
 8420SOL    HW136893   2.821   1.259   3.507 -2.6895  1.7451 -0.8049
 8420SOL    HW236894   2.824   1.143   3.596  2.2777 -0.5860 -3.1660
 8421SOL     OW36895   2.333   4.686  17.629 -0.3341 -0.4230  0.5257
 8421SOL    HW136896   2.329   4.591  17.623 -2.2378 -0.3404  0.3061
 8421SOL    HW236897   2.296   4.712  17.544 -3.6161 -1.4036  1.6437
 8422SOL     OW36898   2.961   3.003   8.559  0.3530  0.4922 -0.5387
 8422SOL    HW136899   2.965   3.059   8.637  1.5116 -0.8164  0.3523
 8422SOL    HW236900   3.054   2.980   8.548  0.8020  1.5549  1.0509
 8423SOL     OW36901   2.233   4.698   4.836 -0.0368 -0.1977 -0.1899
 8423SOL    HW136902   2.219   4.623   4.894 -2.4562 -1.3473 -2.2655
 8423SOL    HW236903   2.295   4.659   4.776 -0.5406  2.4263 -2.4302
 8424SOL     OW36904   1.292   2.278   0.977 -0.3177  0.4236 -0.4820
 8424SOL    HW136905   1.294   2.192   0.935  3.1046 -0.6031  1.7099
 8424SOL    HW236906   1.385   2.296   0.988 -0.7202  0.7085  2.4299
 8425SOL     OW36907   1.944   3.548   4.703 -0.1316  0.2924  0.0992
 8425SOL    HW136908   1.996   3.628   4.713  1.4671 -0.9620  1.7019
 8425SOL    HW236909   2.006   3.484   4.737 -1.1475 -1.3829 -1.1933
 8426SOL     OW36910   0.129   0.017  13.035  0.1767 -0.6457 -1.2794
 8426SOL    HW136911   0.208   0.029  13.088 -2.2882 -3.0854  2.9042
 8426SOL    HW236912   0.130   4.660  13.008  0.8063 -1.1734  0.5373
 8427SOL     OW36913   2.828   1.369   4.638  0.0416  0.2890 -0.3242
 8427SOL    HW136914   2.879   1.401   4.563  0.4919  2.2986  0.8572
 8427SOL    HW236915   2.815   1.274   4.636 -0.5787  0.3511  0.6785
 8428SOL     OW36916   0.687   4.055   4.037  0.0047  0.1722 -0.2323
 8428SOL    HW136917   0.605   4.105   4.030  0.4082  0.9882  0.9229
 8428SOL    HW236918   0.670   3.977   3.983 -0.6740  0.5917 -0.6217
 8429SOL     OW36919   2.825   3.866   3.045 -0.3382 -0.4672 -0.1059
 8429SOL    HW136920   2.780   3.794   3.089  0.3888  0.6701  2.5154
 8429SOL    HW236921   2.761   3.935   3.059  0.4105  0.2788 -0.3483
 8430SOL     OW36922   1.642   3.211   7.142 -0.2597 -0.1671 -0.5709
 8430SOL    HW136923   1.673   3.129   7.180 -2.3409 -0.3995  0.6397
 8430SOL    HW236924   1.553   3.193   7.172  0.5084 -0.9844  1.2091
 8431SOL     OW36925   3.373   0.768   0.886 -0.0611 -0.1623 -0.2578
 8431SOL    HW136926   3.416   0.852   0.867  1.5726 -1.2774 -1.4758
 8431SOL    HW236927   3.289   0.784   0.844 -0.0758  0.3306 -0.0392
 8432SOL     OW36928   0.354   2.127   1.529  0.5624  0.2592 -0.1806
 8432SOL    HW136929   0.364   2.055   1.467 -0.6999 -1.2869  1.4123
 8432SOL    HW236930   0.399   2.086   1.603  0.5850 -1.3005 -1.0574
 8433SOL     OW36931   3.034   4.527   3.752  0.4521 -0.3144 -0.3779
 8433SOL    HW136932   2.940   4.542   3.751  0.4764 -0.1914 -1.3203
 8433SOL    HW236933   3.039   4.497   3.842 -0.7273  1.5933  0.3326
 8434SOL     OW36934   4.391   4.585   2.773 -0.3134  0.1080  0.0420
 8434SOL    HW136935   4.330   4.628   2.713 -3.1675 -2.2410  1.2731
 8434SOL    HW236936   4.344   4.505   2.797  0.9540 -0.5596  0.3064
 8435SOL     OW36937   1.936   0.694  14.417  0.0832 -0.4209 -0.0146
 8435SOL    HW136938   1.967   0.784  14.410  0.0030 -0.4203 -0.4068
 8435SOL    HW236939   1.993   0.659  14.485  0.7323  0.4562 -0.1071
 8436SOL     OW36940   4.545   3.357   7.904 -0.0243  0.7680 -0.5039
 8436SOL    HW136941   4.473   3.323   7.956 -1.3102  2.7067 -1.0214
 8436SOL    HW236942   4.540   3.314   7.818 -0.1287 -1.9403  0.8614
 8437SOL     OW36943   4.252   4.170   2.576  0.0038  0.0974 -0.3588
 8437SOL    HW136944   4.318   4.155   2.508  0.3236 -1.2155  0.2259
 8437SOL    HW236945   4.224   4.080   2.594 -3.2966  0.9348 -1.2936
 8438SOL     OW36946   2.215   4.072  13.318  0.0379 -0.7221 -0.1215
 8438SOL    HW136947   2.304   4.047  13.343 -0.3563 -0.4758  1.5107
 8438SOL    HW236948   2.202   4.032  13.232 -0.1700  0.5012 -0.6728
 8439SOL     OW36949   0.615   4.512   4.999  0.2157 -0.6738 -0.2653
 8439SOL    HW136950   0.590   4.491   4.909 -0.1794  1.8382 -0.7344
 8439SOL    HW236951   0.568   4.593   5.018  2.5861  0.4361  0.9215
 8440SOL     OW36952   0.944   1.244   5.381 -0.0959 -0.2845 -0.0619
 8440SOL    HW136953   0.908   1.171   5.433 -1.2086 -0.8040 -1.5657
 8440SOL    HW236954   1.035   1.239   5.409 -0.6054  0.8628  1.7965
 8441SOL     OW36955   3.881   3.210   5.466 -0.2082  0.3117 -0.1375
 8441SOL    HW136956   3.920   3.165   5.541  0.0588 -0.5708 -0.8004
 8441SOL    HW236957   3.787   3.203   5.482 -0.2090  0.7777  0.0622
 8442SOL     OW36958   3.641   0.521   7.284  0.4309 -0.7561  0.4117
 8442SOL    HW136959   3.585   0.518   7.362 -2.4217 -0.3791 -1.6559
 8442SOL    HW236960   3.655   0.616   7.279 -0.0832 -0.5771  2.1167
 8443SOL     OW36961   3.480   0.606   5.936 -0.2168 -0.3854  0.3642
 8443SOL    HW136962   3.465   0.592   5.842  0.4207  1.8643 -0.0732
 8443SOL    HW236963   3.470   0.701   5.938  0.2360 -0.3259 -0.2505
 8444SOL     OW36964   2.330   2.858   7.654  0.3433 -0.1186 -0.4090
 8444SOL    HW136965   2.325   2.942   7.699  1.5134 -0.1272 -0.2510
 8444SOL    HW236966   2.240   2.829   7.661  0.6817 -0.8781  0.7681
 8445SOL     OW36967   4.552   2.676  14.020 -0.2660 -0.0164  0.0677
 8445SOL    HW136968   4.534   2.624  13.942  0.5801 -1.1220  0.6207
 8445SOL    HW236969   4.482   2.640  14.074 -0.2555 -0.3862 -0.1661
 8446SOL     OW36970   3.470   0.660   1.849 -0.0516 -0.1374  0.7655
 8446SOL    HW136971   3.379   0.632   1.840  0.1763 -0.6801  0.1515
 8446SOL    HW236972   3.482   0.660   1.944 -1.4007  1.4639  0.9321
 8447SOL     OW36973   3.761   0.387  10.154  0.0693 -0.2164 -0.1172
 8447SOL    HW136974   3.835   0.341  10.193 -0.0688 -0.2320  0.1265
 8447SOL    HW236975   3.698   0.366  10.223 -1.7479 -0.1983 -1.7830
 8448SOL     OW36976   1.466   0.013   3.336  0.0562  0.0033 -0.1017
 8448SOL    HW136977   1.499   0.095   3.373 -1.2851  0.5068 -0.0099
 8448SOL    HW236978   1.543   4.702   3.303 -0.5591 -0.4370 -0.9479
 8449SOL     OW36979   4.670   4.538   2.997 -0.2853 -0.7439  0.1388
 8449SOL    HW136980   4.603   4.590   3.042  0.3288  0.5740 -0.4658
 8449SOL    HW236981   4.709   4.595   2.931  1.2863 -2.8282 -0.7285
 8450SOL     OW36982   2.124   3.277   7.330  0.2105 -0.3146  0.6682
 8450SOL    HW136983   2.128   3.182   7.322 -0.3693 -0.2248 -0.6998
 8450SOL    HW236984   2.206   3.300   7.374  1.7435 -0.3799 -2.1061
 8451SOL     OW36985   1.843   3.486  17.172 -0.3077  0.1824  0.0434
 8451SOL    HW136986   1.753   3.458  17.155  0.1678 -0.9409 -0.6738
 8451SOL    HW236987   1.878   3.427  17.239  0.8174  0.5087 -0.2440
 8452SOL     OW36988   2.891   4.560   3.449  0.2391  0.3234  0.1872
 8452SOL    HW136989   2.976   4.532   3.414  0.1574 -0.5020  0.6483
 8452SOL    HW236990   2.880   4.650   3.418  0.2524 -0.0356 -0.8771
 8453SOL     OW36991   4.012   3.637   4.537  0.2151 -0.6711 -0.0048
 8453SOL    HW136992   4.082   3.584   4.577  2.6474  1.5990 -1.2423
 8453SOL    HW236993   3.984   3.566   4.479 -0.6678 -0.4025  0.1095
 8454SOL     OW36994   0.084   1.110  10.612  0.3801  0.0247 -0.5368
 8454SOL    HW136995   0.096   1.138  10.702 -0.2792  0.9066 -0.7219
 8454SOL    HW236996   0.087   1.015  10.626  0.0523  0.0426 -0.3391
 8455SOL     OW36997   4.264   0.492   2.737  0.7305 -0.5763  0.1360
 8455SOL    HW136998   4.336   0.533   2.689  1.3261 -1.7659  0.0117
 8455SOL    HW236999   4.262   0.413   2.684  1.8065 -1.0290  0.7688
 8456SOL     OW37000   3.755   3.893   4.070 -0.1145 -0.0605 -0.0847
 8456SOL    HW137001   3.729   3.840   4.146  1.6780 -0.1224  0.4992
 8456SOL    HW237002   3.813   3.833   4.023  0.5927  1.2317 -0.8544
 8457SOL     OW37003   0.887   2.046  14.777 -0.3730 -0.1539 -0.3276
 8457SOL    HW137004   0.912   1.987  14.705 -0.5963 -0.0785 -0.4667
 8457SOL    HW237005   0.968   2.089  14.803  0.0322 -0.0303 -1.7750
 8458SOL     OW37006   3.157   1.911  15.607 -1.3757 -0.2764 -0.3304
 8458SOL    HW137007   3.144   2.005  15.618 -0.5766 -0.1792 -0.2278
 8458SOL    HW237008   3.156   1.903  15.512 -0.7207 -0.9932 -0.2763
 8459SOL     OW37009   4.604   2.394  14.619  0.4571  0.4007  0.1021
 8459SOL    HW137010   4.562   2.340  14.552  0.4731  0.6509 -0.1109
 8459SOL    HW237011   4.653   2.457  14.567 -0.7204  0.5319 -0.8503
 8460SOL     OW37012   2.934   1.382   4.143  0.2264 -0.2085  0.0421
 8460SOL    HW137013   2.919   1.326   4.219 -2.0773 -0.7004 -0.7874
 8460SOL    HW237014   2.928   1.470   4.180  2.5988 -0.3067  0.6600
 8461SOL     OW37015   3.107   0.662   8.997  0.5510 -0.5948  0.5153
 8461SOL    HW137016   3.115   0.722   9.071  1.7685 -1.4185  1.0430
 8461SOL    HW237017   3.184   0.692   8.948  0.0476  0.0519  0.1127
 8462SOL     OW37018   0.658   1.972  14.143  0.2301 -0.2109  0.5140
 8462SOL    HW137019   0.688   1.982  14.233 -1.0657  0.7683  0.8431
 8462SOL    HW237020   0.635   1.879  14.136  0.4766 -0.2273 -0.0630
 8463SOL     OW37021   3.194   3.401   9.614 -0.4673 -0.3999  0.2646
 8463SOL    HW137022   3.245   3.428   9.690  0.2259  2.4935 -1.2528
 8463SOL    HW237023   3.208   3.476   9.556  0.1445 -1.1829 -0.5921
 8464SOL     OW37024   1.525   0.422  14.228 -0.0353  0.4263  0.2404
 8464SOL    HW137025   1.558   0.488  14.289  2.8609 -1.2998  0.5133
 8464SOL    HW237026   1.453   0.378  14.273  1.7999 -2.4888  0.3309
 8465SOL     OW37027   0.725   3.923   6.572 -0.4481  0.0815  0.2207
 8465SOL    HW137028   0.650   3.935   6.514  0.4519  1.5571 -0.6327
 8465SOL    HW237029   0.700   3.983   6.642 -2.3481 -1.0802  0.5455
 8466SOL     OW37030   0.416   2.071   2.014  0.4073  0.2439 -0.2490
 8466SOL    HW137031   0.370   1.987   2.013  1.7854 -0.5355  2.1056
 8466SOL    HW237032   0.354   2.132   1.974 -2.1328 -0.3908  2.7315
 8467SOL     OW37033   0.193   1.741   2.245  0.3797  0.5141  0.3000
 8467SOL    HW137034   0.267   1.759   2.303  0.0293 -0.7604  1.1593
 8467SOL    HW237035   0.200   1.645   2.249  2.7806  0.6102 -1.9627
 8468SOL     OW37036   3.944   4.086   1.103 -0.1792 -0.4443 -0.0055
 8468SOL    HW137037   3.917   4.169   1.063 -2.9276 -0.7656  1.1880
 8468SOL    HW237038   3.897   4.015   1.059  1.3208 -1.5245  0.1339
 8469SOL     OW37039   3.699   3.727   4.297  0.3679 -0.0244  0.1934
 8469SOL    HW137040   3.611   3.692   4.284  0.1474 -0.1361  1.9674
 8469SOL    HW237041   3.682   3.807   4.348  1.3207 -0.9527  1.9845
 8470SOL     OW37042   3.977   2.458   6.604  0.0530  0.4356  0.4332
 8470SOL    HW137043   4.042   2.392   6.580 -0.9916  0.2029 -1.7310
 8470SOL    HW237044   4.035   2.512   6.658  0.1712  1.0117 -0.2706
 8471SOL     OW37045   1.776   1.625  13.054  0.0501  0.5452  0.0306
 8471SOL    HW137046   1.854   1.569  13.055  0.9028  1.7623  0.6730
 8471SOL    HW237047   1.754   1.620  12.961  2.8731 -1.4001 -0.5420
 8472SOL     OW37048   4.432   4.611   4.600  0.7358  0.0232  0.1861
 8472SOL    HW137049   4.377   4.607   4.522 -0.6885 -2.9093  1.3157
 8472SOL    HW237050   4.390   4.679   4.652  0.4532  1.3654 -1.8278
 8473SOL     OW37051   1.392   2.933  13.084 -0.0511 -0.2411 -0.1124
 8473SOL    HW137052   1.405   2.840  13.067  2.4024  0.2358 -0.9268
 8473SOL    HW237053   1.327   2.932  13.154 -1.0891  3.3504 -1.0353
 8474SOL     OW37054   1.799   4.731  13.152 -0.2960  0.1302  0.5772
 8474SOL    HW137055   1.786   4.650  13.104  0.9258 -0.1034  0.6376
 8474SOL    HW237056   1.873   4.695  13.201 -1.1834 -4.8561 -1.7357
 8475SOL     OW37057   2.359   0.143   9.452 -0.2030 -0.5248  0.2155
 8475SOL    HW137058   2.307   0.126   9.530 -1.1365 -1.7947 -0.6848
 8475SOL    HW237059   2.443   0.103   9.476 -1.1684 -2.3779  0.5332
 8476SOL     OW37060   0.374   2.769  11.223  0.3488  0.1186 -0.8800
 8476SOL    HW137061   0.357   2.688  11.271  1.4614 -1.1674 -2.6929
 8476SOL    HW237062   0.335   2.835  11.280 -1.3549 -1.3511 -0.3309
 8477SOL     OW37063   1.690   1.443   5.023  0.1901  0.2382  0.1556
 8477SOL    HW137064   1.662   1.526   5.061 -0.1188  0.0833  0.2655
 8477SOL    HW237065   1.678   1.383   5.097 -0.5714  0.0575 -0.1119
 8478SOL     OW37066   1.069   2.152   6.023  0.1444  0.1085 -0.6416
 8478SOL    HW137067   0.986   2.135   5.978  0.4652 -2.5059 -0.2726
 8478SOL    HW237068   1.038   2.204   6.097 -3.5497 -2.2914 -0.4714
 8479SOL     OW37069   2.182   4.485   4.971  0.2013  0.2165  0.6685
 8479SOL    HW137070   2.232   4.423   5.024 -1.0588 -1.8912 -0.6146
 8479SOL    HW237071   2.137   4.420   4.917  1.8827  1.1489 -1.8739
 8480SOL     OW37072   0.524   0.583   2.854  0.6481  0.1392 -0.7142
 8480SOL    HW137073   0.469   0.525   2.801  1.5386 -1.0968 -0.2960
 8480SOL    HW237074   0.566   0.522   2.915  0.0164  0.1493 -0.2630
 8481SOL     OW37075   2.900   2.089   5.071 -0.4206  0.1681 -0.8087
 8481SOL    HW137076   2.880   2.006   5.113  1.2410  1.4011  2.4437
 8481SOL    HW237077   2.814   2.131   5.081 -0.0812  0.7034 -0.1243
 8482SOL     OW37078   2.523   0.675   2.202  0.4031 -0.6304  0.1400
 8482SOL    HW137079   2.441   0.645   2.240  1.7580 -2.5034  1.6204
 8482SOL    HW237080   2.575   0.711   2.273  0.2759  1.5828 -0.8738
 8483SOL     OW37081   0.287   1.891  16.802 -0.3490  0.6197 -0.3899
 8483SOL    HW137082   0.317   1.874  16.713  0.3684 -0.3489  0.0267
 8483SOL    HW237083   0.352   1.838  16.849  0.1024  4.3768  3.2514
 8484SOL     OW37084   0.797   2.706   7.160 -0.8646  0.2895 -0.2404
 8484SOL    HW137085   0.870   2.747   7.206 -0.6742  1.3770 -1.5055
 8484SOL    HW237086   0.822   2.614   7.152  0.1991  0.5807 -0.2665
 8485SOL     OW37087   4.378   4.011  15.148 -0.3667  0.0800 -0.2034
 8485SOL    HW137088   4.366   4.024  15.242  0.3497  0.1409 -0.1247
 8485SOL    HW237089   4.455   4.065  15.132 -1.7293  2.3872  1.0448
 8486SOL     OW37090   4.034   1.557   8.092 -0.0741 -0.1413  0.1797
 8486SOL    HW137091   4.014   1.465   8.106  1.0151 -0.5900 -1.2355
 8486SOL    HW237092   4.063   1.570   8.182  1.5607 -0.9376 -0.2307
 8487SOL     OW37093   3.873   3.427   2.093 -0.0550  0.2859  0.2824
 8487SOL    HW137094   3.958   3.458   2.060  0.0278 -0.0932  0.1276
 8487SOL    HW237095   3.877   3.438   2.188  0.3906  1.0578  0.1695
 8488SOL     OW37096   2.485   4.469   4.248 -0.1004 -0.4312 -0.1209
 8488SOL    HW137097   2.551   4.413   4.207  1.0418  2.4210 -2.1821
 8488SOL    HW237098   2.416   4.462   4.182 -1.1294 -1.9115  1.1241
 8489SOL     OW37099   4.207   0.419   5.924 -0.2571 -0.0576  0.2347
 8489SOL    HW137100   4.183   0.459   5.841 -0.9446 -0.1324  0.3934
 8489SOL    HW237101   4.166   0.334   5.911 -0.3756  0.4656 -2.8259
 8490SOL     OW37102   0.774   4.192  17.172  0.2283 -0.5361  0.3540
 8490SOL    HW137103   0.856   4.189  17.221  0.0914 -0.7054  0.5760
 8490SOL    HW237104   0.805   4.231  17.091 -0.3360  0.4414  0.6158
 8491SOL     OW37105   2.315   2.003   5.959  0.5232 -0.2363 -0.2060
 8491SOL    HW137106   2.287   1.914   5.978  0.0008 -0.3558 -1.4902
 8491SOL    HW237107   2.411   2.002   5.956  0.5228  0.4808 -0.5010
 8492SOL     OW37108   2.478   2.382   8.215 -0.4085  0.1702 -0.2898
 8492SOL    HW137109   2.544   2.314   8.206  0.9963  1.3591  1.0526
 8492SOL    HW237110   2.446   2.372   8.305  2.9112  0.6069  0.9047
 8493SOL     OW37111   0.024   1.014  16.381  0.3383  0.0129  0.0602
 8493SOL    HW137112   4.685   1.005  16.442  0.2585  3.9797  0.5744
 8493SOL    HW237113   4.715   1.053  16.306 -1.5267  0.2775  1.2692
 8494SOL     OW37114   4.116   3.547   7.349  0.2239  0.0972 -0.8212
 8494SOL    HW137115   4.111   3.565   7.443  1.3835 -1.2664 -0.4938
 8494SOL    HW237116   4.141   3.634   7.318  0.7318  0.2667  0.0623
 8495SOL     OW37117   4.618   0.868  17.643 -0.0391  0.1481 -0.1460
 8495SOL    HW137118   4.548   0.803  17.641  1.7973 -1.8288 -0.0870
 8495SOL    HW237119   4.667   0.833  17.716 -0.5671 -1.2419 -0.4630
 8496SOL     OW37120   0.316   2.285   3.151  0.2412 -0.3668  0.3216
 8496SOL    HW137121   0.239   2.292   3.206  0.7552  0.2412  0.9732
 8496SOL    HW237122   0.287   2.251   3.067 -2.0288  1.2158  0.4625
 8497SOL     OW37123   2.616   2.622   3.649  0.1700 -0.1545 -0.1987
 8497SOL    HW137124   2.562   2.695   3.680 -1.0497 -1.9626  1.9916
 8497SOL    HW237125   2.699   2.638   3.693  0.1051  1.2209 -0.5941
 8498SOL     OW37126   3.419   2.439  11.938  0.0948  0.2890 -0.4321
 8498SOL    HW137127   3.422   2.503  11.867 -0.7399  0.7345 -0.0615
 8498SOL    HW237128   3.472   2.370  11.898 -1.4402 -0.9191 -0.3522
 8499SOL     OW37129   2.839   0.910   7.729 -0.2894 -0.0055 -0.3755
 8499SOL    HW137130   2.832   0.977   7.797  0.0332 -0.4431  0.0825
 8499SOL    HW237131   2.839   0.833   7.785  2.3260  1.3383  1.4572
 8500SOL     OW37132   2.155   3.022  14.405  0.2357 -0.8797  0.3858
 8500SOL    HW137133   2.244   3.056  14.412  0.0558 -0.5809  1.2408
 8500SOL    HW237134   2.110   3.066  14.332  1.5444 -1.0772 -0.5362
 8501SOL     OW37135   2.695   3.223   4.617 -0.4479 -0.3674  0.5311
 8501SOL    HW137136   2.656   3.149   4.571  1.3326 -0.8680 -0.2113
 8501SOL    HW237137   2.725   3.285   4.550  0.8554  0.6496  2.0489
 8502SOL     OW37138   0.476   3.713  17.111 -0.1659 -0.6047  0.2923
 8502SOL    HW137139   0.539   3.643  17.092  0.7058  0.1806  0.3275
 8502SOL    HW237140   0.410   3.699  17.043 -0.0663  0.7988 -0.0959
 8503SOL     OW37141   4.117   0.849   5.146  0.2987  0.8036 -0.1106
 8503SOL    HW137142   4.041   0.802   5.113  0.0975 -0.3823  2.0865
 8503SOL    HW237143   4.107   0.933   5.100  0.9667  0.0448 -1.6351
 8504SOL     OW37144   1.115   0.830   7.545  0.5324  0.0455  0.3984
 8504SOL    HW137145   1.206   0.817   7.519 -0.7621 -0.8375 -3.5488
 8504SOL    HW237146   1.092   0.774   7.620 -2.5125  0.9512  0.1095
 8505SOL     OW37147   2.401   0.128   3.177  0.3068 -0.0191  0.6634
 8505SOL    HW137148   2.487   0.144   3.138  0.7977 -1.0252  1.3216
 8505SOL    HW237149   2.369   0.217   3.193  0.4047  0.3928 -1.5237
 8506SOL     OW37150   3.581   1.576   9.031 -0.2161 -0.7544 -0.0872
 8506SOL    HW137151   3.588   1.566   9.126  1.2231 -1.3243 -0.2631
 8506SOL    HW237152   3.570   1.486   9.000 -3.3634 -0.4984  0.2386
 8507SOL     OW37153   4.113   0.379   9.641  0.1509  0.2273  0.0428
 8507SOL    HW137154   4.111   0.472   9.619 -1.1918  0.0429 -0.6271
 8507SOL    HW237155   4.086   0.351   9.553  0.6098 -0.8851  0.2481
 8508SOL     OW37156   0.360   0.268   6.679 -0.3923 -0.3423  0.3778
 8508SOL    HW137157   0.286   0.323   6.702  0.3815  0.9481 -0.2317
 8508SOL    HW237158   0.427   0.301   6.739  0.6050  0.2156 -1.0568
 8509SOL     OW37159   3.266   2.953   2.425 -0.2004 -0.0884  0.1332
 8509SOL    HW137160   3.355   2.962   2.389 -0.3063  0.8662  0.1279
 8509SOL    HW237161   3.244   2.863   2.400 -2.6053  0.7819 -0.8164
 8510SOL     OW37162   2.287   0.505   4.318  0.0701 -0.1981 -0.0566
 8510SOL    HW137163   2.323   0.584   4.277  0.9262  0.4475  1.9584
 8510SOL    HW237164   2.345   0.495   4.393  1.8517 -2.2529 -1.7195
 8511SOL     OW37165   1.439   0.387  11.393  0.8576 -0.8978  0.3595
 8511SOL    HW137166   1.395   0.302  11.402 -1.6672  0.5836  1.7722
 8511SOL    HW237167   1.517   0.380  11.449  0.9091 -0.9302  0.2837
 8512SOL     OW37168   1.199   0.063   6.070  0.1209  0.4526 -0.4082
 8512SOL    HW137169   1.291   0.044   6.051  0.6296  0.6436  1.8999
 8512SOL    HW237170   1.170   4.712   6.039 -1.7766  0.4970  1.2830
 8513SOL     OW37171   3.157   0.018  13.690 -0.1525 -0.0207 -0.2662
 8513SOL    HW137172   3.187   0.096  13.643 -1.3768 -0.0028 -1.0018
 8513SOL    HW237173   3.105   0.063  13.756  0.7434  0.4332  0.1399
 8514SOL     OW37174   4.253   3.776   6.709  0.3158 -0.2967 -0.6391
 8514SOL    HW137175   4.182   3.739   6.762  1.0527 -0.7353  0.0311
 8514SOL    HW237176   4.207   3.850   6.670  3.0418  0.7258 -1.9094
 8515SOL     OW37177   1.820   1.217   1.911  0.1450  0.3713  0.2439
 8515SOL    HW137178   1.796   1.256   1.827 -0.8711  0.9733  0.7983
 8515SOL    HW237179   1.831   1.123   1.900 -0.1611  0.1989  1.3374
 8516SOL     OW37180   0.503   0.578  17.377  0.2869 -0.1688  0.2213
 8516SOL    HW137181   0.510   0.666  17.341 -0.5543 -0.5491 -0.8529
 8516SOL    HW237182   0.555   0.525  17.317  0.9306 -0.9265  1.4387
 8517SOL     OW37183   1.840   1.698   5.828 -0.1916 -0.7547  0.0542
 8517SOL    HW137184   1.891   1.760   5.881 -1.4154  0.4496 -0.1832
 8517SOL    HW237185   1.757   1.744   5.817  1.8756  2.8556 -0.6159
 8518SOL     OW37186   1.822   4.188   4.651 -0.0850 -0.3378 -0.3466
 8518SOL    HW137187   1.824   4.093   4.638  0.8949 -0.4956  0.9914
 8518SOL    HW237188   1.902   4.220   4.609  0.2425 -0.8930 -0.1476
 8519SOL     OW37189   0.685   1.876  14.897 -0.0677  0.0980 -0.3338
 8519SOL    HW137190   0.748   1.944  14.873 -1.1442  1.6867  1.3519
 8519SOL    HW237191   0.717   1.842  14.981  1.5056  1.3638 -0.4340
 8520SOL     OW37192   3.690   1.243   5.624  0.6241  0.4440  0.2057
 8520SOL    HW137193   3.740   1.193   5.688 -0.4610 -3.2501 -1.8452
 8520SOL    HW237194   3.763   1.256   5.563 -0.9820  2.4946 -1.2953
 8521SOL     OW37195   3.342   2.808   7.060 -0.1392 -0.4391 -0.3419
 8521SOL    HW137196   3.274   2.838   7.120  1.3349  1.0509  0.5775
 8521SOL    HW237197   3.400   2.883   7.072 -0.1362 -0.7752  1.7563
 8522SOL     OW37198   2.964   0.209   4.134 -0.0934  0.0884  0.1368
 8522SOL    HW137199   3.026   0.162   4.190 -0.9249 -0.1636  0.8603
 8522SOL    HW237200   3.017   0.243   4.062  1.7311  1.1506  1.9939
 8523SOL     OW37201   0.421   3.691  13.735 -0.4407 -0.3392  0.2762
 8523SOL    HW137202   0.338   3.736  13.753  0.1817  0.8947  0.1091
 8523SOL    HW237203   0.383   3.621  13.682 -0.3730 -1.1072  1.2540
 8524SOL     OW37204   2.709   2.893   7.964  0.0112  0.3841 -0.2778
 8524SOL    HW137205   2.732   2.946   8.040  0.9849  1.5437 -1.3735
 8524SOL    HW237206   2.710   2.809   8.009  0.4636  0.7332  0.3652
 8525SOL     OW37207   4.112   3.248  10.065 -0.1240  0.1122 -0.5022
 8525SOL    HW137208   4.178   3.240  10.135  0.2952  0.4790 -0.8601
 8525SOL    HW237209   4.163   3.223   9.988  0.6350 -0.0685  0.0599
 8526SOL     OW37210   2.574   2.492   4.797  0.3219  0.2426 -0.2736
 8526SOL    HW137211   2.610   2.558   4.855 -0.1248 -0.3930  0.7157
 8526SOL    HW237212   2.518   2.446   4.859 -2.4486 -0.0981 -2.9904
 8527SOL     OW37213   2.215   2.441  16.541  0.1120 -0.0100  0.6787
 8527SOL    HW137214   2.177   2.482  16.464  1.5514  0.0845  0.0262
 8527SOL    HW237215   2.276   2.503  16.582  0.4549  0.6466 -0.8512
 8528SOL     OW37216   1.202   0.004   8.105  0.1772 -0.0870  0.0486
 8528SOL    HW137217   1.162   4.685   8.174 -0.2210  1.1199  0.7504
 8528SOL    HW237218   1.243   0.077   8.151 -0.8995  0.6929 -0.2336
 8529SOL     OW37219   0.352   4.322   7.430  0.4746 -0.1223 -0.7012
 8529SOL    HW137220   0.322   4.236   7.460 -2.9132  1.0904 -0.6323
 8529SOL    HW237221   0.404   4.346   7.506  0.8693  0.8603 -1.2801
 8530SOL     OW37222   2.203   2.186   8.771  0.0087 -0.5333 -0.2214
 8530SOL    HW137223   2.182   2.205   8.680 -1.1040  1.2404  0.4123
 8530SOL    HW237224   2.139   2.224   8.832 -0.3079 -0.9012 -0.3255
 8531SOL     OW37225   1.133   2.099   3.348  0.2276 -1.0357  0.3805
 8531SOL    HW137226   1.093   2.057   3.424 -1.4215  0.7803  0.5347
 8531SOL    HW237227   1.101   2.189   3.356  2.7514  0.0995 -2.2523
 8532SOL     OW37228   1.955   1.969   6.433 -0.1378 -0.7108  0.6602
 8532SOL    HW137229   1.990   1.916   6.362 -1.0441 -0.4813  0.0413
 8532SOL    HW237230   1.917   1.909   6.498 -0.0305  0.2221  1.5954
 8533SOL     OW37231   2.072   0.106   6.631  0.0927 -0.2527 -0.0838
 8533SOL    HW137232   2.161   0.073   6.621  0.8948  1.8867  0.1213
 8533SOL    HW237233   2.087   0.148   6.716  1.1217  0.2087 -0.4950
 8534SOL     OW37234   1.357   3.395   7.076 -0.0519  0.3734  0.5740
 8534SOL    HW137235   1.285   3.335   7.094  0.5766 -1.0665 -1.7596
 8534SOL    HW237236   1.437   3.358   7.113  0.3032  1.5783  1.0342
 8535SOL     OW37237   2.719   0.551   6.807 -0.1208  0.8028  0.2894
 8535SOL    HW137238   2.769   0.472   6.785  0.0150  1.2502 -1.0602
 8535SOL    HW237239   2.687   0.530   6.894 -2.0889  0.4478 -0.5122
 8536SOL     OW37240   3.038   1.311   1.494  0.0407 -0.5925  0.7766
 8536SOL    HW137241   3.023   1.300   1.588  0.5732 -0.3956  0.8850
 8536SOL    HW237242   3.132   1.293   1.502 -0.6737 -4.2738  0.8615
 8537SOL     OW37243   1.287   2.793   4.322 -0.5379 -0.1560 -0.3108
 8537SOL    HW137244   1.324   2.858   4.382 -1.5870  0.0246  0.1462
 8537SOL    HW237245   1.354   2.775   4.255 -0.1956  0.0612 -0.0241
 8538SOL     OW37246   3.775   2.008  16.449  0.0620  0.1219 -0.0656
 8538SOL    HW137247   3.844   2.067  16.478 -0.6028  1.0549 -0.3859
 8538SOL    HW237248   3.702   2.030  16.508  0.6949  0.4511  0.5937
 8539SOL     OW37249   3.157   1.634  16.898 -0.1695  0.1496  0.5735
 8539SOL    HW137250   3.207   1.604  16.822 -2.6403 -3.4159  0.3177
 8539SOL    HW237251   3.073   1.652  16.856  0.5889 -0.5558 -1.2700
 8540SOL     OW37252   2.838   3.862  12.631  0.1970  0.0607 -0.0894
 8540SOL    HW137253   2.764   3.813  12.666 -1.0827  1.6217 -0.6071
 8540SOL    HW237254   2.809   3.950  12.656 -1.4966 -0.6023  0.2737
 8541SOL     OW37255   1.971   2.789  16.036  0.1584 -0.1119  0.6425
 8541SOL    HW137256   1.880   2.760  16.031 -0.4903  1.8912  0.9769
 8541SOL    HW237257   2.011   2.724  15.978 -2.2096 -3.0873  2.2935
 8542SOL     OW37258   3.882   0.136  10.399 -0.6129 -0.3667  0.1087
 8542SOL    HW137259   3.921   0.140  10.312 -0.5499 -0.4885  0.1311
 8542SOL    HW237260   3.920   0.052  10.426 -0.6622 -0.2244  0.6236
 8543SOL     OW37261   3.625   3.898   4.819 -0.6515 -0.2766 -0.5346
 8543SOL    HW137262   3.601   3.884   4.911 -2.3243  1.8989 -0.6419
 8543SOL    HW237263   3.673   3.982   4.817 -0.4929 -0.4043 -2.1362
 8544SOL     OW37264   0.190   3.923   8.277  0.2581 -0.3991  0.1807
 8544SOL    HW137265   0.262   3.987   8.275 -1.0897  1.1667  1.5735
 8544SOL    HW237266   0.183   3.894   8.186 -0.2628  1.7145 -0.4417
 8545SOL     OW37267   3.289   2.030   2.258 -0.7098  0.3419 -0.6066
 8545SOL    HW137268   3.230   1.993   2.192  0.0505 -1.6161 -0.1912
 8545SOL    HW237269   3.242   2.107   2.289  1.3042 -0.2145  3.8491
 8546SOL     OW37270   4.590   0.533   6.859 -0.1135 -0.0305  0.7615
 8546SOL    HW137271   4.617   0.584   6.783 -3.6774  0.1112 -0.4261
 8546SOL    HW237272   4.658   0.467   6.866  0.1848  0.2286  0.2898
 8547SOL     OW37273   3.335   1.255   3.032 -0.7155  0.6031 -0.4009
 8547SOL    HW137274   3.254   1.287   2.993 -2.0326 -1.1123  0.9354
 8547SOL    HW237275   3.391   1.247   2.954 -0.2365 -0.1482  0.0133
 8548SOL     OW37276   1.178   4.139  14.720 -0.6213  0.5762  0.7251
 8548SOL    HW137277   1.241   4.115  14.789 -1.6865 -3.3929  0.3432
 8548SOL    HW237278   1.225   4.212  14.680  2.6593 -0.1754  3.1371
 8549SOL     OW37279   0.146   1.084   6.328  0.6840  0.2456 -0.0231
 8549SOL    HW137280   0.051   1.075   6.326  0.6519  0.2015  1.2142
 8549SOL    HW237281   0.164   1.028   6.404 -0.6639 -2.0580 -1.4181
 8550SOL     OW37282   4.230   1.553   3.490 -0.3829 -0.2186  0.1986
 8550SOL    HW137283   4.270   1.531   3.406 -0.8838 -3.0546  0.7071
 8550SOL    HW237284   4.164   1.486   3.508 -1.2973  0.8380  0.8066
 8551SOL     OW37285   2.627   4.125   3.646 -0.0355  0.7270 -0.3001
 8551SOL    HW137286   2.673   4.178   3.580 -0.1080 -1.2859 -1.9777
 8551SOL    HW237287   2.697   4.110   3.709  0.9251  4.7058 -0.4364
 8552SOL     OW37288   2.623   1.541  13.213 -0.1096 -0.0662  0.0895
 8552SOL    HW137289   2.633   1.520  13.120 -2.8992  0.3071 -0.2790
 8552SOL    HW237290   2.715   1.548  13.238 -1.0334 -0.3005  3.5634
 8553SOL     OW37291   3.661   3.008   0.294  0.3385 -0.1309 -0.0460
 8553SOL    HW137292   3.632   3.075   0.356 -1.1632 -2.2138  1.5035
 8553SOL    HW237293   3.668   3.064   0.217  0.3772 -1.0777 -0.7403
 8554SOL     OW37294   1.206   2.552  14.375 -0.6431 -0.7924  0.0744
 8554SOL    HW137295   1.183   2.489  14.444 -2.3172 -1.4747 -1.1020
 8554SOL    HW237296   1.192   2.486  14.307  1.1704 -2.0126  0.8742
 8555SOL     OW37297   1.251   3.196   0.701 -0.3226  0.3726  0.1689
 8555SOL    HW137298   1.191   3.136   0.747  0.4291  1.4818  2.6178
 8555SOL    HW237299   1.203   3.231   0.627  1.5208  1.9713 -0.2775
 8556SOL     OW37300   0.579   4.140  17.433  0.0907 -0.2252  0.3585
 8556SOL    HW137301   0.527   4.135  17.513 -0.6977  2.7032  0.0411
 8556SOL    HW237302   0.651   4.077  17.444  0.2779 -0.2489 -1.0571
 8557SOL     OW37303   2.292   0.395   3.173 -0.4753  0.3460 -0.2925
 8557SOL    HW137304   2.327   0.483   3.160 -0.4965  0.7020  2.1102
 8557SOL    HW237305   2.201   0.418   3.192 -0.6506 -0.0697 -0.6213
 8558SOL     OW37306   3.760   1.240   4.468  0.1440  0.2369  0.2546
 8558SOL    HW137307   3.755   1.264   4.561 -0.8783  0.2225  0.2023
 8558SOL    HW237308   3.803   1.154   4.468 -1.9995 -0.8509  0.5504
 8559SOL     OW37309   3.641   4.050  11.351  0.5154  0.6399 -0.1324
 8559SOL    HW137310   3.584   4.126  11.367  0.2675  0.7465 -1.5426
 8559SOL    HW237311   3.707   4.066  11.418 -0.0765  1.2635  0.3140
 8560SOL     OW37312   0.937   0.820  10.319  0.1658 -0.5297  0.4203
 8560SOL    HW137313   0.934   0.803  10.225  0.3438  3.1404 -0.2244
 8560SOL    HW237314   0.922   0.914  10.318  1.0306 -0.4204 -1.7031
 8561SOL     OW37315   0.277   2.985  10.089 -0.3243 -0.1271  0.4751
 8561SOL    HW137316   0.219   2.967  10.015 -1.4498  0.6282  1.1697
 8561SOL    HW237317   0.221   3.052  10.128  0.5114  0.6469  0.3312
 8562SOL     OW37318   2.519   0.847   6.143  0.2691  1.1634  0.2580
 8562SOL    HW137319   2.488   0.906   6.211 -1.1361  0.0623  0.5783
 8562SOL    HW237320   2.605   0.881   6.118 -0.2383  2.2402 -0.0001
 8563SOL     OW37321   3.563   0.553   5.442 -0.4950  0.2697  0.4448
 8563SOL    HW137322   3.518   0.476   5.408  0.3183  0.0232 -0.0639
 8563SOL    HW237323   3.588   0.524   5.530 -1.1751 -0.5289  0.3725
 8564SOL     OW37324   3.203   1.323   7.765 -0.5987  0.2209  0.4468
 8564SOL    HW137325   3.187   1.285   7.679 -2.6075 -1.0371  1.3789
 8564SOL    HW237326   3.140   1.275   7.819  0.4012  0.2587  1.6546
 8565SOL     OW37327   2.986   2.087  12.404 -0.0790  0.3864  0.6017
 8565SOL    HW137328   2.971   2.121  12.316 -2.7030  0.2796  1.0157
 8565SOL    HW237329   3.054   2.149  12.432  0.1908  0.0407  0.7172
 8566SOL     OW37330   0.464   0.821   5.470 -0.2915  0.8719  0.1044
 8566SOL    HW137331   0.386   0.875   5.483 -2.0440 -2.2642  2.5677
 8566SOL    HW237332   0.422   0.762   5.407  0.8388  1.3479 -1.0983
 8567SOL     OW37333   3.403   4.545  10.997  0.1441  0.0171 -0.0945
 8567SOL    HW137334   3.417   4.640  10.995 -0.6187  0.1385  0.0732
 8567SOL    HW237335   3.359   4.540  11.083  1.4314  2.0576  0.6866
 8568SOL     OW37336   2.284   2.560   9.170 -0.0772  0.0814 -0.0704
 8568SOL    HW137337   2.370   2.536   9.205 -0.6452  0.0898  1.3291
 8568SOL    HW237338   2.248   2.616   9.239  0.5459 -0.3358  0.5902
 8569SOL     OW37339   0.931   3.842   7.060  0.0887  0.3442  0.1639
 8569SOL    HW137340   0.882   3.921   7.084 -0.3144  0.0471  0.3181
 8569SOL    HW237341   1.018   3.870   7.088  0.4449  0.6014 -1.2138
 8570SOL     OW37342   0.075   4.683   2.805 -0.4510  0.0306  0.3988
 8570SOL    HW137343   0.133   4.613   2.776 -0.8014 -1.1501  2.5264
 8570SOL    HW237344   0.128   0.022   2.775 -1.2297  0.8856  1.0962
 8571SOL     OW37345   3.169   1.306  17.610  0.3095  0.0062 -0.1852
 8571SOL    HW137346   3.115   1.230  17.632  1.3101 -0.8868 -0.8262
 8571SOL    HW237347   3.109   1.370  17.573 -0.2290  0.4024  1.3769
 8572SOL     OW37348   2.460   1.170   2.919  0.5060 -0.5069 -0.6208
 8572SOL    HW137349   2.442   1.161   3.013  1.5852  0.2181 -0.3533
 8572SOL    HW237350   2.372   1.153   2.885 -0.6701  2.6840  0.7709
 8573SOL     OW37351   1.067   0.757   1.965 -0.0998  0.3418  0.3996
 8573SOL    HW137352   1.155   0.783   1.937 -0.3526  0.2756 -0.4457
 8573SOL    HW237353   1.057   0.664   1.945  2.2392  0.0587  0.5726
 8574SOL     OW37354   2.674   3.624   1.403 -0.1178  0.0332 -0.4003
 8574SOL    HW137355   2.674   3.602   1.496 -1.4209 -0.4601 -0.5239
 8574SOL    HW237356   2.667   3.543   1.352  0.9141 -0.0959 -0.3421
 8575SOL     OW37357   3.441   1.760   7.815 -0.4844  0.3011 -0.5993
 8575SOL    HW137358   3.382   1.719   7.752  0.3514 -1.1558 -0.4527
 8575SOL    HW237359   3.486   1.684   7.852 -1.9095  0.6927  1.9562
 8576SOL     OW37360   2.333   0.722   9.416  0.7186 -0.3640  0.1663
 8576SOL    HW137361   2.404   0.776   9.382 -0.3017 -0.1672 -1.6299
 8576SOL    HW237362   2.268   0.791   9.431  0.8365 -0.3444  0.5866
 8577SOL     OW37363   1.698   2.620   8.184  0.8117 -0.1912 -0.6124
 8577SOL    HW137364   1.637   2.563   8.137  0.7509  1.0210 -2.0098
 8577SOL    HW237365   1.720   2.551   8.246 -0.8161 -1.9336 -1.9581
 8578SOL     OW37366   3.733   2.532  16.615  0.0974  0.2568 -0.1999
 8578SOL    HW137367   3.660   2.470  16.624  0.2886  0.1028  0.2667
 8578SOL    HW237368   3.683   2.601  16.657 -2.3513  0.4916 -3.4781
 8579SOL     OW37369   1.011   2.891   1.221  0.3111  0.7993  0.0090
 8579SOL    HW137370   0.969   2.832   1.159 -0.1997  1.4225 -0.2440
 8579SOL    HW237371   0.940   2.955   1.230  1.5304  1.8935  1.9672
 8580SOL     OW37372   2.180   1.300   3.793  0.6958 -0.2493 -0.5750
 8580SOL    HW137373   2.213   1.352   3.720  1.5250  1.5870  1.0817
 8580SOL    HW237374   2.267   1.264   3.813  0.1367 -0.7017  1.0646
 8581SOL     OW37375   2.240   4.714   4.378 -0.4151  0.3880  0.0666
 8581SOL    HW137376   2.292   4.675   4.448  0.4264  0.8651 -0.2911
 8581SOL    HW237377   2.172   0.027   4.425 -1.4466  0.1844 -1.2259
 8582SOL     OW37378   0.231   4.322   3.350 -0.0870  0.4044  0.3531
 8582SOL    HW137379   0.243   4.401   3.298 -0.7103 -0.0844 -0.5389
 8582SOL    HW237380   0.157   4.349   3.404  0.1928  0.2525  0.8117
 8583SOL     OW37381   2.224   2.450   2.841  0.3466 -0.5160  0.0468
 8583SOL    HW137382   2.270   2.516   2.789 -1.2243  1.5505  1.2708
 8583SOL    HW237383   2.216   2.508   2.917  0.5918 -0.6916  0.2056
 8584SOL     OW37384   1.382   3.634  16.473  0.2921  0.7274  0.3587
 8584SOL    HW137385   1.417   3.671  16.392 -1.2898  1.0846 -0.1734
 8584SOL    HW237386   1.292   3.620  16.443  1.0011 -0.6749 -1.1680
 8585SOL     OW37387   4.516   2.259   4.317 -0.2589 -0.1175  0.1685
 8585SOL    HW137388   4.596   2.307   4.294  1.0426 -1.3128  2.1869
 8585SOL    HW237389   4.553   2.214   4.393  3.6004  0.3500 -1.4398
 8586SOL     OW37390   3.930   4.551   5.359  0.6866  0.3306 -0.4052
 8586SOL    HW137391   4.017   4.591   5.359  1.0557 -0.4961  1.0026
 8586SOL    HW237392   3.932   4.483   5.291  0.6628  1.8529 -1.9380
 8587SOL     OW37393   0.180   0.841   8.653 -0.2979 -0.1380 -0.3039
 8587SOL    HW137394   0.086   0.822   8.656 -0.0808 -1.0402  0.6456
 8587SOL    HW237395   0.190   0.932   8.678 -3.8689  0.8027 -2.2926
 8588SOL     OW37396   4.449   0.748   3.126  0.2928 -0.0445 -0.1285
 8588SOL    HW137397   4.396   0.769   3.204  0.4452  0.0724 -0.0565
 8588SOL    HW237398   4.529   0.710   3.163  1.2836 -0.5061 -2.7615
 8589SOL     OW37399   0.637   0.215   2.263 -0.2652 -0.4328  0.3843
 8589SOL    HW137400   0.579   0.291   2.252  0.2114 -0.4633 -2.2993
 8589SOL    HW237401   0.626   0.210   2.358 -2.4273 -1.9217  0.0674
 8590SOL     OW37402   4.253   3.569  13.957 -0.6048  1.1984  0.2158
 8590SOL    HW137403   4.305   3.517  14.017  0.2019  2.4596  0.6195
 8590SOL    HW237404   4.163   3.543  13.978 -0.0319 -0.5260  0.4437
 8591SOL     OW37405   2.812   3.195  15.756 -0.4086 -0.0660 -0.0681
 8591SOL    HW137406   2.759   3.220  15.831  1.1175  0.6491  0.7780
 8591SOL    HW237407   2.800   3.270  15.698 -0.4988  0.3839  0.5361
 8592SOL     OW37408   1.261   4.672   7.434 -0.5211 -0.0848  0.0726
 8592SOL    HW137409   1.254   4.589   7.481  0.6292 -0.9378 -1.2270
 8592SOL    HW237410   1.183   4.715   7.466 -1.5746 -1.5966 -0.4432
 8593SOL     OW37411   3.584   0.695   9.017 -0.5619  0.1233  0.0168
 8593SOL    HW137412   3.521   0.765   9.038  0.2719  0.8681  0.0067
 8593SOL    HW237413   3.599   0.707   8.923 -2.0783  0.8373 -0.1441
 8594SOL     OW37414   0.550   0.181   4.197 -0.4080 -0.4139 -0.4059
 8594SOL    HW137415   0.455   0.179   4.199 -0.2959 -1.1485  5.2214
 8594SOL    HW237416   0.580   0.131   4.273 -0.9724 -0.9939 -0.5709
 8595SOL     OW37417   3.836   1.273  11.475 -0.2365  0.4143  0.2621
 8595SOL    HW137418   3.753   1.254  11.431 -0.5835  1.5650  0.4361
 8595SOL    HW237419   3.908   1.255  11.415 -0.5039  0.7929 -0.1633
 8596SOL     OW37420   2.158   1.596   4.246  0.1236  0.3801 -1.2710
 8596SOL    HW137421   2.168   1.551   4.330 -1.7296  0.8598 -0.7886
 8596SOL    HW237422   2.125   1.535   4.179 -2.0545 -0.8498  0.9166
 8597SOL     OW37423   2.170   2.594   8.522  0.6296 -0.1751  0.4290
 8597SOL    HW137424   2.256   2.636   8.524 -0.2377  1.6363 -0.0877
 8597SOL    HW237425   2.114   2.663   8.486  0.1341 -1.0826 -0.5294
 8598SOL     OW37426   1.053   1.556   3.131  0.1085 -0.7412  0.1941
 8598SOL    HW137427   1.002   1.596   3.061 -0.0851  0.2194  0.8801
 8598SOL    HW237428   0.985   1.517   3.186  0.0551  1.8344  1.9486
 8599SOL     OW37429   3.199   2.853  15.398 -0.3408  0.4092 -0.3867
 8599SOL    HW137430   3.175   2.809  15.479 -1.2807  2.9158  0.7010
 8599SOL    HW237431   3.241   2.930  15.436 -1.8171  2.3063 -2.5412
 8600SOL     OW37432   3.065   2.567   6.185  0.1967  0.2117  0.2158
 8600SOL    HW137433   3.042   2.624   6.259  1.6507 -1.4458  1.9068
 8600SOL    HW237434   3.153   2.536   6.204  0.6053  1.5974  0.5913
 8601SOL     OW37435   0.496   0.501   0.586 -0.6574 -0.2578 -0.1485
 8601SOL    HW137436   0.449   0.582   0.605  0.9233  0.2980  1.3633
 8601SOL    HW237437   0.586   0.532   0.576 -1.0683  0.5289 -1.4179
 8602SOL     OW37438   0.538   1.992   4.361  0.0587 -0.0155 -0.6409
 8602SOL    HW137439   0.542   2.059   4.292  0.0926 -1.3999 -1.9741
 8602SOL    HW237440   0.621   2.001   4.407  0.7089 -0.6151 -1.6866
 8603SOL     OW37441   3.450   0.375   6.432  0.1798  0.4306  0.2974
 8603SOL    HW137442   3.452   0.383   6.337  2.0749 -1.1523  0.1845
 8603SOL    HW237443   3.522   0.430   6.462  0.1233  0.0817  1.0963
 8604SOL     OW37444   3.567   0.566  17.397 -0.9055 -0.4757  0.3459
 8604SOL    HW137445   3.604   0.509  17.329 -0.2005  1.5140 -0.9490
 8604SOL    HW237446   3.547   0.645  17.346  1.5938  0.0001  0.0945
 8605SOL     OW37447   4.700   0.769   4.701 -0.2123 -0.4943  0.3436
 8605SOL    HW137448   4.717   0.696   4.760  0.3227  0.8549  1.8553
 8605SOL    HW237449   4.610   0.756   4.670  0.2934 -2.6139 -0.2667
 8606SOL     OW37450   4.037   1.358  13.338 -0.0339  0.4464  0.0045
 8606SOL    HW137451   4.127   1.325  13.327 -0.2420  0.6823 -2.5596
 8606SOL    HW237452   4.042   1.405  13.420  0.3730 -2.1518  1.4863
 8607SOL     OW37453   2.217   4.041   0.181  0.0992  0.2197 -0.1111
 8607SOL    HW137454   2.121   4.040   0.174 -0.0356 -0.2066  1.8829
 8607SOL    HW237455   2.234   3.983   0.255 -3.3153  2.9657  2.8601
 8608SOL     OW37456   1.735   4.259   8.741 -0.6524 -0.2627 -0.2673
 8608SOL    HW137457   1.807   4.201   8.765  0.5717  0.7348 -1.5085
 8608SOL    HW237458   1.762   4.275   8.650 -1.6767 -0.3785 -0.5830
 8609SOL     OW37459   2.256   1.747  10.751 -0.1756 -0.2013 -0.2778
 8609SOL    HW137460   2.210   1.684  10.695  1.9136 -1.0951 -0.9553
 8609SOL    HW237461   2.344   1.714  10.765 -0.5564 -1.1017  0.0084
 8610SOL     OW37462   4.645   3.149   9.921  0.1019  0.2292 -0.0418
 8610SOL    HW137463   4.571   3.197   9.956 -0.9942 -0.8338 -0.8786
 8610SOL    HW237464   4.645   3.191   9.835 -0.5817  2.0629  0.8756
 8611SOL     OW37465   1.017   3.164  17.509  0.0126  0.0512  0.0109
 8611SOL    HW137466   0.949   3.096  17.508 -0.0206  0.0968 -0.4970
 8611SOL    HW237467   1.093   3.106  17.511 -0.1238 -0.0860  1.5234
 8612SOL     OW37468   3.329   0.451   9.635  0.1805  0.2788 -0.2563
 8612SOL    HW137469   3.358   0.527   9.585 -1.0330  1.2360  0.5104
 8612SOL    HW237470   3.378   0.466   9.715 -0.7816  0.8692  0.2245
 8613SOL     OW37471   0.335   3.218   7.385 -0.2374  0.3777 -0.1061
 8613SOL    HW137472   0.412   3.177   7.424  0.9227  1.7904 -0.9333
 8613SOL    HW237473   0.366   3.308   7.377  1.7420 -0.5276 -2.6573
 8614SOL     OW37474   3.381   0.688   6.899 -0.6766  0.1921 -0.0144
 8614SOL    HW137475   3.297   0.723   6.926 -1.0137 -0.7115  0.1329
 8614SOL    HW237476   3.356   0.595   6.900 -0.1416  0.0472 -0.0695
 8615SOL     OW37477   4.463   0.111   2.692 -0.2465  0.3560  0.4960
 8615SOL    HW137478   4.544   0.086   2.649  0.3646  2.4344  0.4798
 8615SOL    HW237479   4.434   0.025   2.724  0.9732 -0.2901 -0.1198
 8616SOL     OW37480   1.876   2.376   2.079 -0.3652  0.6148 -0.4662
 8616SOL    HW137481   1.846   2.345   2.165  0.9354 -1.7240 -0.8440
 8616SOL    HW237482   1.834   2.461   2.087 -0.1179  0.5556  1.4577
 8617SOL     OW37483   1.320   4.675   2.034  0.3443  0.2537 -0.7495
 8617SOL    HW137484   1.365   4.692   1.952 -1.1878 -2.8780 -2.2427
 8617SOL    HW237485   1.282   4.590   2.015  0.1646  0.0884  0.3735
 8618SOL     OW37486   1.369   1.506   9.856  1.0470  0.1535  0.3058
 8618SOL    HW137487   1.403   1.592   9.882 -0.4372  0.1769  2.2345
 8618SOL    HW237488   1.402   1.503   9.767 -1.3742 -0.2074 -0.5841
 8619SOL     OW37489   2.877   1.397   6.764 -0.3024 -0.0755  0.3685
 8619SOL    HW137490   2.896   1.477   6.813  0.6994  0.3508 -0.7343
 8619SOL    HW237491   2.940   1.412   6.695  1.0446  2.5358  2.1682
 8620SOL     OW37492   4.041   0.760   6.526 -0.7963  0.0835 -0.3993
 8620SOL    HW137493   4.021   0.677   6.483 -2.7048 -0.2003  1.0494
 8620SOL    HW237494   4.115   0.803   6.481 -0.7613 -1.1393 -1.5253
 8621SOL     OW37495   0.577   0.655   4.920  0.2869 -0.6222 -0.7086
 8621SOL    HW137496   0.619   0.729   4.877  0.9575 -1.6700 -1.8721
 8621SOL    HW237497   0.504   0.707   4.953  3.2501  0.9168  3.3612
 8622SOL     OW37498   0.553   3.662   6.438  0.2750 -0.4458  0.5823
 8622SOL    HW137499   0.565   3.637   6.530  1.3032  0.8481  0.8095
 8622SOL    HW237500   0.460   3.683   6.430  0.6141  0.5466 -0.7571
 8623SOL     OW37501   0.702   0.764  15.665  0.1738 -0.2540  0.0898
 8623SOL    HW137502   0.668   0.782  15.577 -0.4008  0.6934  0.4996
 8623SOL    HW237503   0.630   0.735  15.720 -0.3716 -1.5026 -1.2899
 8624SOL     OW37504   1.583   0.711   7.515  0.2689  0.2373 -0.3161
 8624SOL    HW137505   1.595   0.616   7.516 -1.2599  0.0462  0.6687
 8624SOL    HW237506   1.517   0.713   7.447  1.1493 -2.0202 -1.2311
 8625SOL     OW37507   2.851   0.812   2.553 -0.1175 -0.2540  0.1466
 8625SOL    HW137508   2.824   0.812   2.644 -0.8327 -0.1093 -0.0622
 8625SOL    HW237509   2.888   0.900   2.551 -1.4083  0.3324  2.3228
 8626SOL     OW37510   1.164   1.964  12.445  0.2716  0.4704 -0.3371
 8626SOL    HW137511   1.247   2.011  12.444  0.7244 -0.3047  0.4745
 8626SOL    HW237512   1.206   1.878  12.451 -1.0918 -0.2687 -1.5025
 8627SOL     OW37513   1.487   1.456   0.604  0.0643 -0.3180 -0.1114
 8627SOL    HW137514   1.433   1.513   0.549 -1.3712  0.0347  1.6917
 8627SOL    HW237515   1.423   1.390   0.629 -1.3975  0.0501 -2.8747
 8628SOL     OW37516   2.293   2.883   6.758 -0.5610  0.3064  0.5375
 8628SOL    HW137517   2.304   2.823   6.684 -2.2927 -0.8918  1.2512
 8628SOL    HW237518   2.386   2.884   6.780 -0.3830 -1.5002 -0.1240
 8629SOL     OW37519   2.248   4.105   8.699 -0.0730  0.1635  0.0447
 8629SOL    HW137520   2.220   4.122   8.789 -0.3771 -2.1740  0.3888
 8629SOL    HW237521   2.236   4.010   8.699 -0.0610  0.1598 -1.1710
 8630SOL     OW37522   1.920   4.637   2.617  0.4361 -0.3659 -0.2894
 8630SOL    HW137523   1.919   4.550   2.576  1.0731  0.2480 -1.5905
 8630SOL    HW237524   2.002   4.671   2.581  0.2193  1.1239  0.6438
 8631SOL     OW37525   3.415   1.664   3.079  0.5220 -0.0679 -0.0761
 8631SOL    HW137526   3.400   1.654   3.173  0.0767 -1.1220 -0.2652
 8631SOL    HW237527   3.347   1.607   3.046  0.3909 -0.2294  0.4740
 8632SOL     OW37528   4.167   1.551  12.277  0.2160  0.7744  0.3435
 8632SOL    HW137529   4.242   1.511  12.320 -0.9438 -1.1242  0.5867
 8632SOL    HW237530   4.201   1.583  12.193  1.8257 -2.1248 -0.1224
 8633SOL     OW37531   2.323   3.220   8.729  0.0957 -0.4079  0.3281
 8633SOL    HW137532   2.377   3.161   8.782  2.3767 -0.4215 -2.0658
 8633SOL    HW237533   2.340   3.303   8.773  0.0585 -1.4382  2.3034
 8634SOL     OW37534   1.024   2.314   7.866  0.5534  0.7206 -0.3915
 8634SOL    HW137535   0.960   2.360   7.811  1.3544  0.0057 -1.9227
 8634SOL    HW237536   0.968   2.279   7.936  0.5000 -0.0297 -0.8125
 8635SOL     OW37537   4.272   0.778   4.852  0.3176 -0.3450 -0.5211
 8635SOL    HW137538   4.351   0.819   4.886  1.4341 -0.6614 -2.7863
 8635SOL    HW237539   4.237   0.846   4.795  1.2005  0.1425 -0.4806
 8636SOL     OW37540   1.912   0.963   6.756  0.3510  0.2837  0.6587
 8636SOL    HW137541   1.999   1.002   6.768  0.7301  0.1875 -1.8425
 8636SOL    HW237542   1.934   0.895   6.692  1.0337  0.1485  1.0413
 8637SOL     OW37543   4.317   0.471   8.356  0.1955  0.3946 -0.5317
 8637SOL    HW137544   4.276   0.457   8.271 -0.3281 -1.6685  0.0540
 8637SOL    HW237545   4.403   0.490   8.319  0.7274 -2.6309 -0.8898
 8638SOL     OW37546   3.084   2.201  16.716 -1.0914  0.4695  0.5897
 8638SOL    HW137547   3.030   2.131  16.754 -2.1929  1.3314  0.6186
 8638SOL    HW237548   3.033   2.278  16.741  2.3330  2.8894 -0.0542
 8639SOL     OW37549   2.079   3.962   6.469  0.5179 -0.3294  0.4542
 8639SOL    HW137550   2.020   3.889   6.452 -0.6590  0.8246 -0.4005
 8639SOL    HW237551   2.071   4.007   6.385  0.8367 -2.7137 -0.8511
 8640SOL     OW37552   1.729   4.078  16.484  0.0999  0.0720  0.2834
 8640SOL    HW137553   1.707   4.159  16.530 -0.9232 -1.0870  1.8393
 8640SOL    HW237554   1.658   4.022  16.516 -0.6942  0.0371 -1.5765
 8641SOL     OW37555   4.281   3.291   2.175 -0.3415  0.1652 -0.4192
 8641SOL    HW137556   4.245   3.279   2.263 -1.4131  0.7563 -0.7772
 8641SOL    HW237557   4.221   3.229   2.131 -1.0385 -0.5280  1.5091
 8642SOL     OW37558   0.978   1.748   8.791  0.7625  0.3127 -0.1157
 8642SOL    HW137559   0.947   1.789   8.711  0.0103  1.3053  0.6863
 8642SOL    HW237560   0.954   1.818   8.851  0.1338  0.3517 -0.4134
 8643SOL     OW37561   1.749   1.187   0.875  0.2241  0.2461 -0.7416
 8643SOL    HW137562   1.804   1.211   0.949  1.2051  1.3605 -1.8370
 8643SOL    HW237563   1.672   1.153   0.922 -0.5414  2.8929 -0.0790
 8644SOL     OW37564   2.931   2.708   8.190 -0.9510  0.3333 -0.3245
 8644SOL    HW137565   2.953   2.716   8.097  1.7072  0.8439  0.3293
 8644SOL    HW237566   2.940   2.798   8.222 -2.8242  1.0777 -1.9802
 8645SOL     OW37567   3.862   2.551   9.290 -0.4959 -0.1180 -0.3841
 8645SOL    HW137568   3.908   2.629   9.261  1.1408 -1.0160 -0.2133
 8645SOL    HW237569   3.913   2.487   9.240  0.5108  0.2656  0.1544
 8646SOL     OW37570   3.997   2.603   5.457 -0.3435 -0.4984  0.3288
 8646SOL    HW137571   4.037   2.690   5.462 -1.3564 -0.1048  1.8528
 8646SOL    HW237572   4.025   2.581   5.369 -2.7221  0.5118 -0.6978
 8647SOL     OW37573   0.722   1.779   3.285 -0.0037  0.7603 -0.3471
 8647SOL    HW137574   0.686   1.695   3.314  0.5375  0.9203  0.7597
 8647SOL    HW237575   0.692   1.773   3.194 -0.1937 -0.3795 -0.2044
 8648SOL     OW37576   3.097   1.562   7.071 -0.1992  0.0914 -0.6443
 8648SOL    HW137577   3.182   1.586   7.034  0.5079  0.8534  1.5165
 8648SOL    HW237578   3.041   1.594   7.001 -0.0350 -1.5418 -1.5419
 8649SOL     OW37579   2.378   0.325  16.950  0.0792 -0.3423  0.2782
 8649SOL    HW137580   2.388   0.240  16.909 -0.3457 -1.4000  2.3230
 8649SOL    HW237581   2.352   0.378  16.875 -0.5568 -2.2487 -0.8302
 8650SOL     OW37582   0.817   1.011   2.993  0.3992 -0.3819 -0.6706
 8650SOL    HW137583   0.744   0.957   2.964  0.3664 -0.0930 -1.1240
 8650SOL    HW237584   0.886   0.950   3.020  2.0634 -0.2645 -4.6629
 8651SOL     OW37585   4.178   0.368   1.177 -0.3155 -0.1477 -0.0362
 8651SOL    HW137586   4.102   0.316   1.199 -0.2185 -0.7966 -1.2562
 8651SOL    HW237587   4.175   0.372   1.082  0.7164 -1.3931 -0.1231
 8652SOL     OW37588   3.290   4.694   6.371  0.5679 -0.1233 -0.6213
 8652SOL    HW137589   3.251   4.617   6.414 -0.9897  2.2629  2.2521
 8652SOL    HW237590   3.283   4.663   6.281  4.4386 -1.0748 -0.5974
 8653SOL     OW37591   2.611   1.175   8.793  0.3328 -0.3243  0.1403
 8653SOL    HW137592   2.618   1.154   8.700  0.2151  0.8015 -0.1327
 8653SOL    HW237593   2.517   1.184   8.808  0.0852 -1.3790 -0.7776
 8654SOL     OW37594   1.150   1.802   3.171  0.4250 -0.0532  0.2289
 8654SOL    HW137595   1.105   1.721   3.147  0.7544  0.1306 -0.9730
 8654SOL    HW237596   1.101   1.856   3.108  0.0603  0.4097  0.9025
 8655SOL     OW37597   0.012   4.011  17.719 -0.6541  0.1390  0.4778
 8655SOL    HW137598   0.058   4.073  17.662 -1.1471  0.4417  0.4126
 8655SOL    HW237599   4.716   4.062   0.055  1.2467  1.2357  0.5297
 8656SOL     OW37600   3.476   1.615   8.093  0.1381 -0.0974 -0.4807
 8656SOL    HW137601   3.479   1.524   8.064  1.0309 -0.4854  0.7952
 8656SOL    HW237602   3.404   1.615   8.156  1.1590 -0.2993  0.6842
 8657SOL     OW37603   2.067   2.733   6.550 -0.0072 -0.5523  0.3300
 8657SOL    HW137604   2.062   2.822   6.514 -3.3189 -0.5931  0.6531
 8657SOL    HW237605   2.070   2.680   6.471  0.1045 -0.4802  0.2857
 8658SOL     OW37606   3.564   3.942   2.717  0.0147 -0.1631  0.2413
 8658SOL    HW137607   3.577   4.030   2.683 -2.9620  0.2517  0.1425
 8658SOL    HW237608   3.586   3.942   2.811 -0.5689 -0.9122  0.3783
 8659SOL     OW37609   2.267   0.335  10.054 -0.1565  0.3333  0.6732
 8659SOL    HW137610   2.246   0.243  10.072  1.6183 -0.5239 -1.6917
 8659SOL    HW237611   2.182   0.343  10.010  0.7300 -0.0192 -1.0969
 8660SOL     OW37612   2.285   0.831   9.898  0.0644  0.1766  0.1672
 8660SOL    HW137613   2.221   0.824   9.970  0.4969 -0.6887  0.4696
 8660SOL    HW237614   2.248   0.910   9.860  0.9571 -0.2255 -1.5304
 8661SOL     OW37615   0.128   2.275   6.822  0.1065  0.0765  0.3175
 8661SOL    HW137616   0.190   2.269   6.894  1.4088  0.3234 -0.7853
 8661SOL    HW237617   0.184   2.327   6.764 -0.9602  0.9122  0.0429
 8662SOL     OW37618   0.371   1.671  16.976  0.0705  0.5388 -0.2038
 8662SOL    HW137619   0.465   1.667  16.958  0.4961 -0.3150  2.1360
 8662SOL    HW237620   0.364   1.577  16.992 -1.0111  0.3795 -1.6707
 8663SOL     OW37621   0.720   4.599  17.239 -0.3565 -0.3085 -0.4587
 8663SOL    HW137622   0.695   4.541  17.312 -1.6661 -2.1725 -2.3702
 8663SOL    HW237623   0.647   4.595  17.177  1.1395  0.4590 -2.2244
 8664SOL     OW37624   2.650   4.570  10.025 -0.3043 -0.2568  0.5615
 8664SOL    HW137625   2.586   4.511   9.986 -0.3125 -1.1338  1.8872
 8664SOL    HW237626   2.623   4.650   9.982 -0.5472 -0.7662 -0.2260
 8665SOL     OW37627   0.974   3.367   1.980  0.1533 -0.1574  0.0412
 8665SOL    HW137628   0.885   3.365   1.945 -0.1924 -1.5203  0.9903
 8665SOL    HW237629   0.987   3.273   1.991 -0.5207 -0.2257  0.2440
 8666SOL     OW37630   0.837   0.105   8.160  0.4222  0.9366 -0.0143
 8666SOL    HW137631   0.830   0.180   8.101  0.0173  0.3728 -0.6846
 8666SOL    HW237632   0.822   0.148   8.244 -0.5266  0.1723  0.2056
 8667SOL     OW37633   3.257   2.335   5.915 -0.4261 -0.0926 -0.5019
 8667SOL    HW137634   3.235   2.270   5.848 -0.6685  0.1147 -0.6207
 8667SOL    HW237635   3.204   2.409   5.886  3.1466  2.4295 -0.5368
 8668SOL     OW37636   0.982   2.900   9.438 -0.1088  0.4584  0.2611
 8668SOL    HW137637   0.992   2.880   9.531  1.2270  0.2033  0.0641
 8668SOL    HW237638   0.996   2.817   9.392 -1.0871  0.0142  0.7443
 8669SOL     OW37639   0.867   1.992   3.222 -0.7249 -0.0018 -0.0940
 8669SOL    HW137640   0.843   2.063   3.281  1.5641  0.9828 -0.3564
 8669SOL    HW237641   0.815   1.917   3.252 -0.0327  0.1830  1.5713
 8670SOL     OW37642   2.904   2.143   2.657 -0.3564  0.1991  0.7929
 8670SOL    HW137643   2.830   2.153   2.598  0.5160 -2.8405 -0.8195
 8670SOL    HW237644   2.928   2.235   2.662  2.8745 -0.6760  1.2527
 8671SOL     OW37645   1.802   4.475   4.798  0.1212 -0.1384 -0.0353
 8671SOL    HW137646   1.717   4.507   4.830  0.4460  0.9390 -0.2542
 8671SOL    HW237647   1.783   4.472   4.704  1.0190  0.7375 -0.2420
 8672SOL     OW37648   1.536   3.149   6.839 -0.6008  0.1737 -0.2019
 8672SOL    HW137649   1.456   3.097   6.845 -1.0031  0.7212 -0.7442
 8672SOL    HW237650   1.601   3.083   6.864 -0.8912 -0.1093 -0.1885
 8673SOL     OW37651   3.335   4.337   7.642  0.2633  0.2147 -0.2155
 8673SOL    HW137652   3.369   4.284   7.714  2.1414  0.7944 -0.6655
 8673SOL    HW237653   3.415   4.380   7.612  1.0346 -1.5511 -0.6940
 8674SOL     OW37654   3.899   0.202   9.080 -0.3800 -0.0726 -0.4925
 8674SOL    HW137655   3.890   0.241   8.994  0.7175 -2.6760 -1.7880
 8674SOL    HW237656   3.890   0.107   9.070 -3.0406  0.2822 -1.2917
 8675SOL     OW37657   2.679   3.092   1.688 -0.5373  0.5881  0.8573
 8675SOL    HW137658   2.667   3.140   1.607  1.0514 -1.6107 -0.7069
 8675SOL    HW237659   2.732   3.149   1.744  1.3486  0.0052 -0.3092
 8676SOL     OW37660   1.065   4.298   8.076 -0.6045 -0.2575 -0.3282
 8676SOL    HW137661   1.044   4.391   8.067 -2.3171 -0.5177  1.0363
 8676SOL    HW237662   0.988   4.270   8.125 -1.1872  2.1493  0.1140
 8677SOL     OW37663   4.733   3.917   9.016 -0.2386 -0.3061  0.0516
 8677SOL    HW137664   4.734   3.985   8.947 -0.9598 -2.1631 -1.7832
 8677SOL    HW237665   0.055   3.850   8.978 -0.6957 -0.2852 -0.6812
 8678SOL     OW37666   3.920   4.085  13.383  0.1004  0.2952 -0.4059
 8678SOL    HW137667   3.913   4.006  13.328 -1.4910  1.5387 -2.0117
 8678SOL    HW237668   3.842   4.132  13.352 -0.1078 -0.0073 -0.3486
 8679SOL     OW37669   3.230   1.679   1.349  0.0187  0.0944 -0.4431
 8679SOL    HW137670   3.277   1.716   1.424  0.6964  1.3105 -1.4757
 8679SOL    HW237671   3.309   1.659   1.298 -0.0241  1.6344 -1.1144
 8680SOL     OW37672   1.211   3.130  14.823 -0.6321  0.1123  0.2259
 8680SOL    HW137673   1.170   3.214  14.803 -0.1870  0.2151 -0.2431
 8680SOL    HW237674   1.249   3.100  14.741  0.3654  1.8670  0.0429
 8681SOL     OW37675   2.550   2.957   2.160 -0.1584 -0.1241 -0.7238
 8681SOL    HW137676   2.605   2.920   2.091  1.5124  0.3261  0.3622
 8681SOL    HW237677   2.531   2.887   2.222  1.6152  0.2988  0.3347
 8682SOL     OW37678   4.348   3.773   8.480 -0.3192 -0.5876 -0.4525
 8682SOL    HW137679   4.379   3.826   8.554  2.3369 -1.8702 -0.6339
 8682SOL    HW237680   4.420   3.798   8.422 -0.5129  0.1960 -0.3618
 8683SOL     OW37681   1.816   1.625   4.344  0.3943 -0.4609  0.0947
 8683SOL    HW137682   1.822   1.565   4.270 -0.5049  0.0016 -0.3622
 8683SOL    HW237683   1.877   1.692   4.312  1.6090 -1.4556  0.3458
 8684SOL     OW37684   1.550   1.947   6.061 -0.4297 -0.4934 -0.0714
 8684SOL    HW137685   1.462   1.980   6.077  0.1748  0.4254  1.2986
 8684SOL    HW237686   1.603   2.025   6.075  1.9764 -2.3346  1.0156
 8685SOL     OW37687   0.639   2.910   2.651 -0.0959  0.0218  0.1143
 8685SOL    HW137688   0.665   2.948   2.735 -0.4695 -1.9985  1.1352
 8685SOL    HW237689   0.553   2.949   2.632 -0.5425 -2.0235 -2.1777
 8686SOL     OW37690   0.396   2.562   2.542 -0.5630  0.7631 -0.6332
 8686SOL    HW137691   0.480   2.587   2.504  0.0628  2.1901  1.6348
 8686SOL    HW237692   0.410   2.604   2.627  0.2520  1.8266 -1.2907
 8687SOL     OW37693   1.917   4.459   7.370  0.1535  0.3890  0.5204
 8687SOL    HW137694   1.861   4.439   7.295  1.3359  0.2968 -0.3463
 8687SOL    HW237695   1.888   4.547   7.394  0.4574  0.2085  1.5548
 8688SOL     OW37696   3.115   2.138   6.737 -0.9337  0.3347  0.2455
 8688SOL    HW137697   3.068   2.195   6.676  1.7555  1.9332 -0.3445
 8688SOL    HW237698   3.099   2.191   6.815  1.0724  1.4404 -0.0938
 8689SOL     OW37699   3.453   2.573   6.204  0.1794  0.3655 -0.1585
 8689SOL    HW137700   3.396   2.647   6.226 -0.9986 -0.1994 -1.2859
 8689SOL    HW237701   3.467   2.587   6.110 -0.7529 -0.4587 -0.4232
 8690SOL     OW37702   3.271   3.176   7.031  0.0443 -0.4428 -0.0021
 8690SOL    HW137703   3.353   3.131   7.050  0.8936  0.8626 -0.5377
 8690SOL    HW237704   3.250   3.138   6.946 -0.7183  0.2845 -0.1414
 8691SOL     OW37705   1.139   2.177   1.955  0.1407  0.9049  0.6483
 8691SOL    HW137706   1.202   2.164   1.884  0.1139 -0.7691  0.9178
 8691SOL    HW237707   1.172   2.254   2.001 -1.8683  2.5358 -0.6227
 8692SOL     OW37708   2.236   4.140   7.586 -0.3861 -0.1313 -0.0152
 8692SOL    HW137709   2.198   4.227   7.570  1.7560  1.0081  1.0912
 8692SOL    HW237710   2.228   4.138   7.681 -0.4684 -1.1647 -0.0426
 8693SOL     OW37711   3.832   0.571   4.196  0.7164  0.2263  0.1103
 8693SOL    HW137712   3.849   0.508   4.126  3.5544 -0.1550  1.1161
 8693SOL    HW237713   3.752   0.537   4.234  1.7558 -1.0097  1.1859
 8694SOL     OW37714   1.883   2.009   4.448 -0.3596  0.2697 -0.0751
 8694SOL    HW137715   1.933   1.932   4.421  0.1202  1.4223 -2.4512
 8694SOL    HW237716   1.849   1.985   4.534  2.0726 -3.3152 -0.1131
 8695SOL     OW37717   1.062   1.324   8.660  0.4781 -0.0711 -0.3605
 8695SOL    HW137718   1.013   1.361   8.586  1.8174 -1.2527 -1.8486
 8695SOL    HW237719   1.018   1.375   8.728 -1.5493 -1.2585 -0.7808
 8696SOL     OW37720   0.304   0.514   3.056  0.3804  0.5930  0.0084
 8696SOL    HW137721   0.386   0.472   3.031  0.2163  0.2121  0.1257
 8696SOL    HW237722   0.235   0.469   3.007  1.0267 -0.0858 -0.2623
 8697SOL     OW37723   0.905   4.151   6.158  0.0037  0.0269  0.0100
 8697SOL    HW137724   0.937   4.143   6.248 -0.2070 -0.4026  0.0452
 8697SOL    HW237725   0.827   4.096   6.163 -0.9811  1.4764  0.5205
 8698SOL     OW37726   0.801   4.732  10.157 -0.2742  0.2195  0.1890
 8698SOL    HW137727   0.893   0.024  10.160  0.2047 -1.2108 -2.2009
 8698SOL    HW237728   0.761   0.077  10.193  0.3470 -0.5880  2.7123
 8699SOL     OW37729   0.675   3.977   4.737  0.4124 -0.1412  0.6653
 8699SOL    HW137730   0.700   3.887   4.755  1.0557 -0.1531 -0.3300
 8699SOL    HW237731   0.685   4.006   4.828 -0.5467  1.3086  0.3209
 8700SOL     OW37732   1.559   0.963  17.678  0.1080 -0.2269  0.0803
 8700SOL    HW137733   1.618   0.965  17.602 -1.1989 -0.5098 -0.9488
 8700SOL    HW237734   1.511   0.882  17.659  0.4436 -0.1739 -1.0177
 8701SOL     OW37735   2.890   3.060   7.496 -0.2536 -0.6383  0.1732
 8701SOL    HW137736   2.896   3.013   7.579 -1.4724  0.1844  0.7242
 8701SOL    HW237737   2.795   3.062   7.496 -0.2435  0.0279  3.4639
 8702SOL     OW37738   0.117   4.650   9.139  0.6221  0.2793 -0.7056
 8702SOL    HW137739   0.069   4.695   9.208 -0.2224 -0.2779 -0.9345
 8702SOL    HW237740   0.069   4.568   9.126 -0.3262  0.4121  2.1123
 8703SOL     OW37741   4.029   0.717   5.893  0.5141  0.2309 -0.6238
 8703SOL    HW137742   3.970   0.652   5.931  0.0794  0.9269 -0.1011
 8703SOL    HW237743   4.010   0.705   5.800 -0.8830 -1.3613 -0.1342
 8704SOL     OW37744   1.038   3.885   0.059  0.0733  0.0925  0.3240
 8704SOL    HW137745   0.951   3.920   0.078 -0.4206 -1.2570  0.4980
 8704SOL    HW237746   1.021   3.852  17.709  0.4706 -1.1533  0.7213
 8705SOL     OW37747   1.573   4.324   6.992 -0.4756  0.1405 -0.1557
 8705SOL    HW137748   1.643   4.351   6.932  0.2150  1.9655  1.4674
 8705SOL    HW237749   1.627   4.272   7.051 -0.2890  0.4781 -0.0248
 8706SOL     OW37750   0.645   3.591  15.040 -0.2766  0.2190  0.3486
 8706SOL    HW137751   0.670   3.623  14.953 -0.5741 -0.8781 -0.1345
 8706SOL    HW237752   0.714   3.632  15.091  1.1731  1.8952 -2.9391
 8707SOL     OW37753   1.524   3.428   4.962 -0.0978  0.4972  0.6847
 8707SOL    HW137754   1.455   3.473   5.011 -1.6838  1.1074 -2.0965
 8707SOL    HW237755   1.599   3.420   5.021  0.1108  1.5181  0.5536
 8708SOL     OW37756   1.801   1.074   9.163 -0.3075 -0.4031  0.2304
 8708SOL    HW137757   1.793   1.118   9.248 -1.4154 -0.8225  0.3519
 8708SOL    HW237758   1.823   1.147   9.105  1.8320 -3.8123 -3.1954
 8709SOL     OW37759   3.770   4.047   9.806  0.3818 -0.0257 -0.5271
 8709SOL    HW137760   3.679   4.015   9.805  0.3166  0.1569 -0.2973
 8709SOL    HW237761   3.753   4.141   9.799 -0.7154 -0.1186  0.7484
 8710SOL     OW37762   3.672   2.285   1.576 -0.2003  0.1555 -0.1218
 8710SOL    HW137763   3.634   2.358   1.527 -0.3622  0.0387 -0.1705
 8710SOL    HW237764   3.703   2.229   1.505  0.9831  3.0303 -1.8813
 8711SOL     OW37765   2.797   1.634   3.058  0.4374 -0.2593 -0.2188
 8711SOL    HW137766   2.753   1.714   3.030  0.3273 -0.6924 -1.2868
 8711SOL    HW237767   2.833   1.659   3.144  2.3474  2.1713 -1.7138
 8712SOL     OW37768   1.196   4.504   2.637 -0.3537  0.0010  0.4523
 8712SOL    HW137769   1.227   4.581   2.684 -2.9260  0.2071  1.8206
 8712SOL    HW237770   1.275   4.483   2.587 -0.1038 -1.2698  1.3819
 8713SOL     OW37771   0.001   1.032   4.925  0.5051  0.2308  0.1778
 8713SOL    HW137772   0.084   0.993   4.898  1.3455  0.7426  2.0138
 8713SOL    HW237773   0.024   1.043   5.018  2.2281 -0.8992 -0.1218
 8714SOL     OW37774   4.461   0.046   5.638  0.3847 -0.4609  0.1944
 8714SOL    HW137775   4.524   0.023   5.706  1.8839  0.1295 -0.9917
 8714SOL    HW237776   4.449   0.140   5.651 -2.9702 -0.8453 -0.1878
 8715SOL     OW37777   0.975   1.886   2.653 -0.4591 -0.2929  0.2673
 8715SOL    HW137778   0.889   1.857   2.683 -0.7389 -0.8558 -1.0676
 8715SOL    HW237779   0.980   1.827   2.578 -0.2256  0.6760 -0.4754
 8716SOL     OW37780   1.626   1.562  17.542 -0.4579  0.3784 -0.1909
 8716SOL    HW137781   1.685   1.493  17.512 -0.8263  1.7526 -4.1110
 8716SOL    HW237782   1.550   1.560  17.484 -0.2197 -3.5136 -0.3676
 8717SOL     OW37783   1.124   3.655  10.465 -0.1231 -0.3560  0.9054
 8717SOL    HW137784   1.197   3.608  10.505  0.4446 -0.5316 -0.3438
 8717SOL    HW237785   1.154   3.746  10.457  0.9027 -0.8697 -1.0488
 8718SOL     OW37786   0.108   3.989   7.344  0.2371 -0.1470 -0.2496
 8718SOL    HW137787   0.168   3.915   7.337 -2.0536 -1.9110 -0.9874
 8718SOL    HW237788   0.158   4.047   7.402 -1.0909  1.9246 -1.1557
 8719SOL     OW37789   2.750   4.263  13.228 -0.0437 -0.0149  0.0671
 8719SOL    HW137790   2.740   4.358  13.232 -0.1717 -0.0325  0.1459
 8719SOL    HW237791   2.679   4.236  13.285  0.8582 -1.4084  0.5194
 8720SOL     OW37792   1.308   0.070  12.377 -0.4915  0.3542 -0.1316
 8720SOL    HW137793   1.331   0.110  12.293 -0.5962  1.8353  0.5512
 8720SOL    HW237794   1.374   0.003  12.394  0.5323  0.8336 -2.2157
 8721SOL     OW37795   0.177   3.517  14.708 -0.3141 -0.0524  0.1328
 8721SOL    HW137796   0.252   3.503  14.765  0.0463  0.0810 -0.3114
 8721SOL    HW237797   0.206   3.585  14.648  1.0619  0.7215  1.6871
 8722SOL     OW37798   0.089   3.795   4.305 -0.2011 -0.4731 -0.2264
 8722SOL    HW137799   0.082   3.817   4.212  1.8510  0.1091 -0.2338
 8722SOL    HW237800   0.003   3.824   4.335 -1.2878 -2.1145 -1.7403
 8723SOL     OW37801   3.678   0.589  10.717 -0.3635 -0.9961  0.3351
 8723SOL    HW137802   3.770   0.613  10.731 -0.3838 -1.3961  1.1459
 8723SOL    HW237803   3.678   0.558  10.807  0.4666 -2.2205 -0.0882
 8724SOL     OW37804   1.243   1.052  16.149 -0.2624 -0.0246 -0.3790
 8724SOL    HW137805   1.292   1.001  16.085 -0.9864  0.7581 -1.5467
 8724SOL    HW237806   1.312   1.080  16.209 -2.6717  0.8406  1.9907
 8725SOL     OW37807   1.848   2.081   6.745  0.2847 -0.1286 -0.6246
 8725SOL    HW137808   1.779   2.021   6.773 -0.0259  1.3757  1.7677
 8725SOL    HW237809   1.928   2.028   6.745 -1.1486 -2.3047 -2.5346
 8726SOL     OW37810   1.651   1.546  15.369  0.1188  0.2095  0.4883
 8726SOL    HW137811   1.710   1.515  15.437  1.4801  1.2776 -0.2081
 8726SOL    HW237812   1.584   1.593  15.419 -1.8667 -0.2026 -1.7536
 8727SOL     OW37813   4.081   1.340   0.649  0.0091  0.5420  0.1217
 8727SOL    HW137814   4.162   1.366   0.604 -0.4196  1.1978 -0.2652
 8727SOL    HW237815   4.021   1.360   0.577  3.1442  1.7099 -2.1951
 8728SOL     OW37816   0.016   1.489   3.951 -0.6965  0.6280  0.3629
 8728SOL    HW137817   4.710   1.405   3.932  2.2997 -1.0824  1.5513
 8728SOL    HW237818   4.676   1.548   3.956 -0.5146  0.7336  1.7256
 8729SOL     OW37819   2.658   4.697   4.653 -0.2674 -0.0440  0.3653
 8729SOL    HW137820   2.668   4.661   4.565 -1.6248 -0.1765  0.2693
 8729SOL    HW237821   2.656   4.617   4.706 -2.3057  1.2285  2.2247
 8730SOL     OW37822   2.950   0.476   3.310  0.2354  0.2092 -0.3333
 8730SOL    HW137823   2.965   0.490   3.216  2.5023 -2.8194 -0.4205
 8730SOL    HW237824   3.002   0.544   3.352  1.1072  0.2858 -1.5290
 8731SOL     OW37825   0.585   4.160   2.758  0.0889  0.4249  0.0874
 8731SOL    HW137826   0.613   4.121   2.841  2.1148  1.7171  0.0233
 8731SOL    HW237827   0.494   4.133   2.748  0.3583 -0.4605 -0.0397
 8732SOL     OW37828   4.234   2.382   9.742  0.5778  0.0705 -0.0167
 8732SOL    HW137829   4.153   2.410   9.698  0.6116 -0.8991 -0.6954
 8732SOL    HW237830   4.252   2.473   9.767  1.5526  0.8049 -3.3267
 8733SOL     OW37831   3.188   0.337  12.574  0.3877  0.1563  0.1294
 8733SOL    HW137832   3.110   0.390  12.589 -1.4784 -2.5431 -0.0892
 8733SOL    HW237833   3.236   0.344  12.657 -1.0762  1.8752  0.8481
 8734SOL     OW37834   2.402   4.188   6.276  0.4776  0.0821 -0.1473
 8734SOL    HW137835   2.325   4.210   6.224  0.1982 -0.6589 -0.0341
 8734SOL    HW237836   2.458   4.263   6.256 -0.1798 -0.0844 -2.5841
 8735SOL     OW37837   0.268   3.715   1.467 -0.2029 -0.1957  0.3396
 8735SOL    HW137838   0.258   3.805   1.500 -1.6569  0.4494 -1.8368
 8735SOL    HW237839   0.211   3.718   1.390  2.1327 -0.8087 -1.4300
 8736SOL     OW37840   3.225   3.177  12.277 -0.0429  0.3088 -0.1089
 8736SOL    HW137841   3.276   3.186  12.196 -0.4385  0.2101 -0.3671
 8736SOL    HW237842   3.301   3.176  12.335  0.1752  0.1098 -0.3944
 8737SOL     OW37843   0.281   1.749   7.637  0.4449  0.2636 -0.4827
 8737SOL    HW137844   0.342   1.712   7.573  0.8133  1.7294 -0.9929
 8737SOL    HW237845   0.258   1.827   7.587 -0.5411  1.2234  1.4562
 8738SOL     OW37846   2.153   1.188   5.316 -0.3810 -0.2395  0.2380
 8738SOL    HW137847   2.195   1.272   5.331 -1.1935 -0.2504  2.5751
 8738SOL    HW237848   2.067   1.217   5.285 -0.2492 -1.0254 -0.8654
 8739SOL     OW37849   0.081   1.343   6.301  0.0452  0.1954  0.2347
 8739SOL    HW137850   0.103   1.251   6.284  0.7051  0.2159  0.9665
 8739SOL    HW237851   0.105   1.391   6.222  0.7618 -1.0909 -0.3259
 8740SOL     OW37852   0.045   2.234   0.131 -0.0784 -0.2580 -0.2248
 8740SOL    HW137853   0.055   2.163   0.068  1.3153 -0.7686  0.5842
 8740SOL    HW237854   4.713   2.291   0.092 -0.5690 -1.1828 -0.7442
 8741SOL     OW37855   3.557   2.191   3.397 -0.4109 -0.2159  0.3193
 8741SOL    HW137856   3.593   2.121   3.452  1.6260 -0.0145 -0.7504
 8741SOL    HW237857   3.561   2.136   3.318  1.4279 -0.9150  0.9042
 8742SOL     OW37858   3.519   2.351   7.430 -0.0169  0.1678 -0.3983
 8742SOL    HW137859   3.557   2.332   7.515  0.2236  0.1370 -0.5128
 8742SOL    HW237860   3.471   2.432   7.442  0.0239  0.3730 -1.5557
 8743SOL     OW37861   2.826   1.382   2.671 -0.6761  0.1390 -0.3962
 8743SOL    HW137862   2.732   1.368   2.666 -0.4114 -2.0940  0.8472
 8743SOL    HW237863   2.828   1.389   2.766  2.9900  1.1521 -0.5479
 8744SOL     OW37864   0.652   2.656   2.520  0.0365 -0.5292  0.2064
 8744SOL    HW137865   0.740   2.623   2.501  0.8998  1.2252  1.1489
 8744SOL    HW237866   0.677   2.746   2.542  2.2128 -1.3428  1.0256
 8745SOL     OW37867   1.544   0.391   8.879 -0.1241 -0.1506 -0.0499
 8745SOL    HW137868   1.515   0.473   8.839  1.1578 -0.0252 -0.7069
 8745SOL    HW237869   1.637   0.410   8.888 -0.1488 -0.0512  0.0011
 8746SOL     OW37870   2.175   1.449   2.784  0.0176  0.1283  0.1387
 8746SOL    HW137871   2.098   1.506   2.784  0.5897  0.9025 -1.2364
 8746SOL    HW237872   2.230   1.511   2.831 -3.6298  1.1107  3.1296
 8747SOL     OW37873   2.572   2.564   5.719 -0.0519  0.7194 -0.2728
 8747SOL    HW137874   2.603   2.482   5.756  1.3019  2.2146  1.9397
 8747SOL    HW237875   2.507   2.591   5.784 -0.9490 -1.6778 -0.1758
 8748SOL     OW37876   3.429   2.150   8.562 -0.0298  0.0978 -0.3429
 8748SOL    HW137877   3.470   2.073   8.523  1.7494  0.2029  1.3283
 8748SOL    HW237878   3.488   2.161   8.637 -1.3526  0.6289  0.6059
 8749SOL     OW37879   4.691   3.285  11.847  0.4725 -0.1959 -0.2051
 8749SOL    HW137880   4.656   3.360  11.801 -0.2747 -0.4810 -0.0917
 8749SOL    HW237881   4.726   3.239  11.770  1.0920  1.7854 -1.1004
 8750SOL     OW37882   1.255   2.193   3.753 -0.0273  0.3518 -0.1701
 8750SOL    HW137883   1.279   2.101   3.757  0.3424  0.4444 -0.2911
 8750SOL    HW237884   1.277   2.219   3.843  1.5642  1.7780 -0.9694
 8751SOL     OW37885   0.986   2.427   8.595 -0.0464  0.1224 -0.0212
 8751SOL    HW137886   0.936   2.489   8.649  0.8953 -0.1282  1.1399
 8751SOL    HW237887   1.055   2.402   8.656 -0.3304  1.9367  1.0532
 8752SOL     OW37888   0.760   1.295   5.991  0.0118 -0.0823 -0.2061
 8752SOL    HW137889   0.687   1.349   6.020 -0.5813 -0.8416 -0.2785
 8752SOL    HW237890   0.814   1.361   5.946  1.0162 -0.2580  0.7380
 8753SOL     OW37891   1.776   0.711  11.290 -0.4003 -0.4477  0.4461
 8753SOL    HW137892   1.785   0.806  11.285 -1.0142 -0.4099  0.1126
 8753SOL    HW237893   1.846   0.686  11.351 -0.5026 -1.1284  0.2829
 8754SOL     OW37894   0.983   3.486  15.051  0.2173 -0.1215  0.8125
 8754SOL    HW137895   0.924   3.519  15.118  0.9952 -0.4170  1.6320
 8754SOL    HW237896   1.069   3.486  15.093  0.0242  0.6155  1.2095
 8755SOL     OW37897   3.652   0.785   6.811 -0.1044  0.0221 -0.2079
 8755SOL    HW137898   3.581   0.740   6.765 -2.1289  1.3790  1.6034
 8755SOL    HW237899   3.704   0.798   6.731 -0.2810  1.0406 -0.1507
 8756SOL     OW37900   2.895   2.141   9.328 -0.2038 -0.1251 -0.5382
 8756SOL    HW137901   2.880   2.211   9.392 -1.8782 -1.2887  0.3497
 8756SOL    HW237902   2.870   2.180   9.245  0.2253  0.2785 -0.4771
 8757SOL     OW37903   2.089   3.503  15.895  0.2019 -0.7872 -0.2980
 8757SOL    HW137904   2.017   3.554  15.932  0.2995 -2.7383  2.5814
 8757SOL    HW237905   2.104   3.530  15.804  1.9608  0.3999  0.3612
 8758SOL     OW37906   3.994   4.510   3.340 -0.5133 -0.9133  0.0125
 8758SOL    HW137907   3.965   4.427   3.377 -1.9166  0.0569  1.1248
 8758SOL    HW237908   3.930   4.518   3.269  0.1846  2.3331 -0.2627
 8759SOL     OW37909   2.219   2.097   6.195 -0.1028  0.0159  0.1480
 8759SOL    HW137910   2.243   2.021   6.249 -0.1035 -0.9683 -1.2310
 8759SOL    HW237911   2.214   2.065   6.105 -0.6394 -2.1245  0.9336
 8760SOL     OW37912   4.403   2.355   8.506 -0.3594 -1.1434 -0.2151
 8760SOL    HW137913   4.325   2.393   8.545 -0.2048  0.0006 -1.0256
 8760SOL    HW237914   4.387   2.262   8.523 -4.5730  0.2291  3.2094
 8761SOL     OW37915   3.565   1.630  13.883 -0.0212  0.2797  0.4539
 8761SOL    HW137916   3.524   1.558  13.931 -0.3015  0.8937  1.1327
 8761SOL    HW237917   3.519   1.618  13.800  1.9731  0.0985 -0.6445
 8762SOL     OW37918   2.794   2.003   3.902  0.3741  0.5786  0.9774
 8762SOL    HW137919   2.758   2.054   3.829  2.6071  0.7259 -0.0256
 8762SOL    HW237920   2.854   2.067   3.940  1.1379  0.3477  0.1636
 8763SOL     OW37921   3.737   0.656   2.073  0.2297  0.3571  0.3093
 8763SOL    HW137922   3.690   0.738   2.056 -1.4034 -0.4870  0.7174
 8763SOL    HW237923   3.802   0.683   2.138 -1.9336  3.5720  1.1772
 8764SOL     OW37924   2.572   2.682   1.284  0.6201 -0.8728 -0.3702
 8764SOL    HW137925   2.524   2.651   1.361  1.1811  0.6454  0.6069
 8764SOL    HW237926   2.642   2.729   1.330  0.8385  1.6276 -3.2949
 8765SOL     OW37927   1.935   1.812   5.541 -0.0834  0.2589  0.4754
 8765SOL    HW137928   1.900   1.862   5.615 -0.7902 -0.5687  0.6955
 8765SOL    HW237929   1.973   1.738   5.587 -0.3405  0.3930  0.9005
 8766SOL     OW37930   0.336   3.495   2.895  0.3838 -0.2184  0.5973
 8766SOL    HW137931   0.399   3.537   2.953  1.8107 -1.1073 -0.3254
 8766SOL    HW237932   0.260   3.489   2.953 -0.9335 -1.2022 -1.2067
 8767SOL     OW37933   3.875   3.975   9.546  0.6384 -0.0899  0.0744
 8767SOL    HW137934   3.833   3.925   9.616  0.5399 -3.8481 -2.6615
 8767SOL    HW237935   3.855   4.065   9.570  0.3970  0.6753 -2.9774
 8768SOL     OW37936   0.043   0.121  13.423 -0.2934  0.1065 -0.1333
 8768SOL    HW137937   0.026   0.027  13.431  0.1090 -0.0607 -1.3039
 8768SOL    HW237938   0.135   0.121  13.400  0.0299 -2.2678  1.1157
 8769SOL     OW37939   4.411   3.586   6.858  0.0476  0.3455  0.1203
 8769SOL    HW137940   4.345   3.600   6.789  1.3882  2.1302 -0.7861
 8769SOL    HW237941   4.439   3.677   6.866 -0.4934  0.8791 -4.1198
 8770SOL     OW37942   0.995   0.512   2.643  0.0150  0.3442  0.1810
 8770SOL    HW137943   1.068   0.456   2.666  0.1358 -0.1136 -1.2970
 8770SOL    HW237944   1.037   0.598   2.647  0.2256  0.2378  0.2312
 8771SOL     OW37945   4.240   4.622   4.385  0.0649 -0.1259 -0.0180
 8771SOL    HW137946   4.146   4.629   4.405  0.8735 -0.4227  3.8437
 8771SOL    HW237947   4.242   4.553   4.318 -2.4944 -0.6848  0.4749
 8772SOL     OW37948   4.186   3.327   3.069 -0.1132  0.0152 -0.2175
 8772SOL    HW137949   4.157   3.307   2.980  1.7613  0.8711 -1.0240
 8772SOL    HW237950   4.185   3.241   3.111  1.4320 -0.7802 -1.8209
 8773SOL     OW37951   1.884   1.430   7.283 -0.5223  0.0020 -0.8228
 8773SOL    HW137952   1.839   1.451   7.365  1.5886  0.1827  0.2809
 8773SOL    HW237953   1.816   1.387   7.231 -1.6288 -2.8585  2.9214
 8774SOL     OW37954   2.142   3.774   5.654 -0.2848 -1.2059  0.1402
 8774SOL    HW137955   2.061   3.816   5.624  0.4815  1.7120  2.0899
 8774SOL    HW237956   2.104   3.690   5.678  0.3028 -2.4061 -3.1512
 8775SOL     OW37957   1.094   3.422   6.354  0.6369 -0.0901 -0.5055
 8775SOL    HW137958   1.074   3.501   6.405 -1.0200 -1.9053  1.6138
 8775SOL    HW237959   1.013   3.375   6.336  1.7682 -3.2538  2.6896
 8776SOL     OW37960   3.438   1.636   6.683  0.4612 -0.1475  0.2447
 8776SOL    HW137961   3.425   1.730   6.668  1.9316 -0.0391 -0.4233
 8776SOL    HW237962   3.534   1.631   6.691  0.4714  0.9739  0.9745
 8777SOL     OW37963   3.438   3.721   8.484 -0.1760 -0.1217 -0.4425
 8777SOL    HW137964   3.451   3.723   8.389  0.3449 -1.0394 -0.3978
 8777SOL    HW237965   3.365   3.659   8.486 -0.9332  0.7678 -0.4052
 8778SOL     OW37966   4.247   2.423   5.383  0.6991  0.6018  0.3461
 8778SOL    HW137967   4.188   2.455   5.314 -1.5641 -0.2461  1.8654
 8778SOL    HW237968   4.189   2.376   5.443 -1.0660 -0.6651 -2.3221
 8779SOL     OW37969   4.465   3.843   7.026  0.2053 -0.8689 -0.2965
 8779SOL    HW137970   4.380   3.886   7.014 -0.8450 -2.9464 -0.2641
 8779SOL    HW237971   4.516   3.892   6.961 -0.0545  2.5235  2.0351
 8780SOL     OW37972   2.096   0.260   6.868  0.3024  0.4602  0.3732
 8780SOL    HW137973   2.014   0.309   6.868 -0.1909 -0.3609  1.5803
 8780SOL    HW237974   2.156   0.333   6.884 -0.6467  1.1622  0.7617
 8781SOL     OW37975   3.134   0.532   5.823  0.0419  0.3199  0.5776
 8781SOL    HW137976   3.207   0.535   5.761  0.6957  1.0889  1.3707
 8781SOL    HW237977   3.068   0.592   5.788  0.8867  1.4250  0.8399
 8782SOL     OW37978   0.512   3.180   1.245  0.2851 -0.0319 -0.4254
 8782SOL    HW137979   0.544   3.116   1.309 -0.9741 -1.0289 -0.8007
 8782SOL    HW237980   0.592   3.230   1.233  0.0173  0.3126 -0.7799
 8783SOL     OW37981   3.592   1.783   2.680 -0.7138  0.4984  0.4041
 8783SOL    HW137982   3.534   1.816   2.612 -0.8099  1.7714  1.1012
 8783SOL    HW237983   3.555   1.695   2.683  1.5059 -0.4926 -1.3381
 8784SOL     OW37984   3.824   0.220   4.694  0.8126 -0.5548  0.1807
 8784SOL    HW137985   3.882   0.209   4.619 -1.4034  2.2481 -1.9606
 8784SOL    HW237986   3.880   0.235   4.770  0.5305  0.2526  0.2314
 8785SOL     OW37987   0.724   3.479   3.324 -0.0469 -0.3990 -0.2777
 8785SOL    HW137988   0.793   3.545   3.322  1.9858 -2.5667 -0.7988
 8785SOL    HW237989   0.709   3.488   3.418 -0.1126  2.2944 -0.5502
 8786SOL     OW37990   0.598   2.334   5.966  0.1411 -0.1428  0.3298
 8786SOL    HW137991   0.625   2.376   6.048 -1.0548  0.2708  0.5162
 8786SOL    HW237992   0.511   2.370   5.945  0.7356  1.0030 -0.2082
 8787SOL     OW37993   3.486   4.166  12.784  0.2825 -0.5296  0.4836
 8787SOL    HW137994   3.546   4.102  12.746 -1.0297 -0.9167 -0.9397
 8787SOL    HW237995   3.447   4.202  12.704 -0.3839 -1.1868  0.5231
 8788SOL     OW37996   3.469   0.110   8.622  0.4149  0.5037  0.1960
 8788SOL    HW137997   3.506   0.091   8.708 -0.6542 -0.3022  0.4842
 8788SOL    HW237998   3.441   0.202   8.620 -0.2122  0.2978 -0.5706
 8789SOL     OW37999   1.634   4.690   4.402  0.3075 -0.4722 -0.5054
 8789SOL    HW138000   1.568   4.721   4.339 -1.9704  0.8591  2.5794
 8789SOL    HW238001   1.658   0.044   4.430 -1.8167 -0.3413  0.8866
 8790SOL     OW38002   2.528   2.740  16.353 -0.0624 -0.0249  0.3239
 8790SOL    HW138003   2.589   2.763  16.424  0.7435 -0.6965 -0.1539
 8790SOL    HW238004   2.456   2.794  16.386 -1.5432 -0.7885 -1.7142
 8791SOL     OW38005   2.272   0.249   8.292 -0.4112 -0.5204 -0.0674
 8791SOL    HW138006   2.286   0.160   8.324  0.8982  0.1557  1.2486
 8791SOL    HW238007   2.273   0.242   8.196  1.6364 -0.5107 -0.0519
 8792SOL     OW38008   1.811   0.422   8.220 -0.1470 -0.2100  0.7015
 8792SOL    HW138009   1.801   0.503   8.269  0.6781  2.0855 -2.9513
 8792SOL    HW238010   1.745   0.432   8.152  1.6792 -0.3206 -1.0760
 8793SOL     OW38011   0.840   2.754   5.931  0.2192 -0.3205 -0.4480
 8793SOL    HW138012   0.751   2.784   5.946  0.1319 -1.1123  0.5317
 8793SOL    HW238013   0.842   2.712   5.845  1.7869 -0.9293 -0.1146
 8794SOL     OW38014   0.670   1.055  10.685  0.3394 -0.3969  0.5510
 8794SOL    HW138015   0.583   1.089  10.708 -0.6504 -0.3162 -3.2632
 8794SOL    HW238016   0.647   0.963  10.674  0.6084 -0.4342  0.3053
 8795SOL     OW38017   2.866   4.076   6.974  0.5411  0.3544  0.4434
 8795SOL    HW138018   2.865   4.021   7.053 -0.1348  1.4126  1.1649
 8795SOL    HW238019   2.918   4.019   6.916 -0.3514 -0.8365  0.8106
 8796SOL     OW38020   2.403   2.022   9.143 -0.2311 -0.2459  0.4974
 8796SOL    HW138021   2.347   2.099   9.131  0.2324  0.1485  0.8494
 8796SOL    HW238022   2.375   1.966   9.071  2.6986  0.1047 -0.9173
 8797SOL     OW38023   4.166   1.662   7.527  0.0199  0.0853  0.7713
 8797SOL    HW138024   4.249   1.687   7.486 -0.4507 -0.8100 -0.7525
 8797SOL    HW238025   4.196   1.628   7.611 -0.6850 -4.8563 -1.0198
 8798SOL     OW38026   2.535   2.177   6.653  1.0948  0.8213  0.0297
 8798SOL    HW138027   2.509   2.130   6.733 -0.1407  0.6079 -0.4898
 8798SOL    HW238028   2.625   2.203   6.672  1.5385 -0.5820 -0.1458
 8799SOL     OW38029   0.748   1.467   0.087  0.2016  0.0294 -0.1276
 8799SOL    HW138030   0.777   1.558   0.098  0.3873  0.0127 -0.4666
 8799SOL    HW238031   0.822   1.420   0.126 -0.1532  0.3275  0.9101
 8800SOL     OW38032   1.446   0.461   4.446 -0.5760  0.4438  0.1536
 8800SOL    HW138033   1.474   0.530   4.507  1.4946 -1.6568  1.5498
 8800SOL    HW238034   1.527   0.453   4.395 -0.9643 -1.6921 -0.1163
 8801SOL     OW38035   2.636   1.257   2.077 -0.1958 -0.8130 -0.2986
 8801SOL    HW138036   2.580   1.191   2.117 -1.3174  1.3258  1.6967
 8801SOL    HW238037   2.674   1.275   2.163  0.5968  3.4935 -1.5464
 8802SOL     OW38038   4.681   0.462   0.015  0.1051  0.1365 -0.0876
 8802SOL    HW138039   4.635   0.476   0.098 -0.0578  0.6052 -0.2573
 8802SOL    HW238040   4.637   0.524  17.694  0.4970  0.3514 -0.1545
 8803SOL     OW38041   1.851   2.118  12.231  0.4041 -0.2367 -0.1009
 8803SOL    HW138042   1.906   2.181  12.277  2.5984 -1.1377 -1.4913
 8803SOL    HW238043   1.900   2.040  12.256 -0.5831 -1.3241 -1.4895
 8804SOL     OW38044   4.151   4.561  11.169  0.0996  0.8422  0.2780
 8804SOL    HW138045   4.201   4.642  11.178 -1.1209  1.6289  0.0584
 8804SOL    HW238046   4.065   4.601  11.182  0.3713  1.8697 -1.0189
 8805SOL     OW38047   3.658   1.816   8.161  0.2520 -0.2041  0.5070
 8805SOL    HW138048   3.741   1.768   8.163 -0.6675 -1.7715  0.9182
 8805SOL    HW238049   3.597   1.750   8.127  2.7982 -0.9565 -2.6037
 8806SOL     OW38050   4.142   2.723   7.153 -0.3135 -0.2134 -0.2788
 8806SOL    HW138051   4.089   2.769   7.219 -1.7117 -1.5238 -0.4937
 8806SOL    HW238052   4.070   2.682   7.105  0.9039 -0.5396 -1.8120
 8807SOL     OW38053   3.065   1.157  14.956  0.7057 -0.3130 -0.5445
 8807SOL    HW138054   3.159   1.141  14.951  0.6594 -0.4841 -0.8832
 8807SOL    HW238055   3.032   1.069  14.978  2.0014 -1.2478 -2.3317
 8808SOL     OW38056   1.909   3.719   3.952  0.4932 -0.1810 -0.1896
 8808SOL    HW138057   1.905   3.690   3.860 -1.8266 -1.1839  0.2236
 8808SOL    HW238058   1.976   3.654   3.972  0.8837  0.0359 -0.7735
 8809SOL     OW38059   2.442   2.642   4.617 -0.2036  0.4693 -0.4585
 8809SOL    HW138060   2.495   2.587   4.674 -1.1195  0.2143  0.1627
 8809SOL    HW238061   2.362   2.590   4.607 -0.0987  0.1182  0.5330
 8810SOL     OW38062   0.562   1.174   6.334  0.1840  0.1476  0.0034
 8810SOL    HW138063   0.574   1.207   6.423 -0.0160  0.2532 -0.0083
 8810SOL    HW238064   0.653   1.163   6.307 -0.1121 -1.6819 -0.2192
 8811SOL     OW38065   1.863   1.015   6.310 -0.2203  0.7077  0.3535
 8811SOL    HW138066   1.905   0.929   6.309  1.3292  1.4477  1.7977
 8811SOL    HW238067   1.893   1.048   6.225  0.1516 -2.0674 -0.5782
 8812SOL     OW38068   2.458   2.327   9.410  0.1091 -0.2635 -0.3491
 8812SOL    HW138069   2.481   2.247   9.457  0.1543  0.7064  1.2540
 8812SOL    HW238070   2.382   2.355   9.461  1.3125 -1.6641  2.1826
 8813SOL     OW38071   2.969   2.068  16.393 -0.3736 -0.0727 -0.0481
 8813SOL    HW138072   2.953   2.147  16.445  0.7543 -1.3886  2.3004
 8813SOL    HW238073   2.954   2.003  16.461 -1.4063 -0.0914 -0.3014
 8814SOL     OW38074   4.462   0.121   3.589  0.2472 -0.1266  0.1972
 8814SOL    HW138075   4.537   0.141   3.533 -0.7334  0.9459 -0.7319
 8814SOL    HW238076   4.426   0.209   3.594 -1.0687 -0.6877  0.7147
 8815SOL     OW38077   2.247   2.863   3.901  0.0154  0.0118 -0.1351
 8815SOL    HW138078   2.181   2.862   3.971 -0.0009 -0.2782 -0.1536
 8815SOL    HW238079   2.201   2.811   3.834 -2.3719  1.7687  0.1460
 8816SOL     OW38080   3.938   4.410  15.418  0.1217 -0.6218 -0.4729
 8816SOL    HW138081   4.018   4.385  15.372  0.4449 -0.9496  0.2580
 8816SOL    HW238082   3.897   4.325  15.407 -1.7147  0.4130 -1.5701
 8817SOL     OW38083   2.523   2.881  13.346  0.1749  0.6095 -0.0577
 8817SOL    HW138084   2.564   2.901  13.262  1.2321  0.6180  0.4637
 8817SOL    HW238085   2.449   2.943  13.343 -1.0863 -0.8950 -0.0985
 8818SOL     OW38086   4.683   3.090  10.507  0.6486 -0.3741  0.3322
 8818SOL    HW138087   4.708   3.135  10.588 -0.5698  1.8271 -0.5253
 8818SOL    HW238088   0.023   3.033  10.487  0.4527  0.1209 -1.7154
 8819SOL     OW38089   2.714   3.950  11.307  0.9418 -0.3593  0.5601
 8819SOL    HW138090   2.723   3.975  11.399  0.6053  0.6550  0.3076
 8819SOL    HW238091   2.742   4.027  11.258  1.7238  0.4200  2.2184
 8820SOL     OW38092   1.208   1.447   2.582  0.3839  0.2509 -0.5876
 8820SOL    HW138093   1.199   1.513   2.651  1.4322  0.1837 -0.3801
 8820SOL    HW238094   1.284   1.477   2.532 -0.3337  0.3198 -1.6307
 8821SOL     OW38095   4.626   3.680  17.303  0.1070  0.1788  0.2594
 8821SOL    HW138096   4.586   3.733  17.233  2.4765 -0.8672 -1.8670
 8821SOL    HW238097   4.561   3.671  17.373  0.1857  2.5573  0.6426
 8822SOL     OW38098   2.089   1.128  13.020 -0.9090  0.1039  0.0146
 8822SOL    HW138099   2.033   1.098  12.948 -0.3650  2.0143 -1.1940
 8822SOL    HW238100   2.180   1.123  12.993 -0.6975 -0.1390  0.7689
 8823SOL     OW38101   2.901   3.952  15.247 -0.2458 -0.2172  0.5427
 8823SOL    HW138102   2.919   4.034  15.202  0.8340 -0.5764  0.3166
 8823SOL    HW238103   2.927   3.976  15.336  1.9188  0.4851 -0.2841
 8824SOL     OW38104   3.817   0.703  11.309  0.7371 -0.1728 -0.0002
 8824SOL    HW138105   3.780   0.786  11.338  0.3155 -0.3495 -0.0433
 8824SOL    HW238106   3.741   0.648  11.328  0.8868 -0.6739 -0.8603
 8825SOL     OW38107   3.389   3.703   6.394 -0.6098  0.5247  0.2710
 8825SOL    HW138108   3.312   3.659   6.359  2.0205 -1.2518 -3.3364
 8825SOL    HW238109   3.453   3.634   6.376  0.7551  1.4436  1.5389
 8826SOL     OW38110   1.624   4.654   3.592 -0.2945 -0.2189  0.0472
 8826SOL    HW138111   1.618   4.670   3.686 -0.4711  0.9531 -0.1614
 8826SOL    HW238112   1.532   4.661   3.565  0.5067  1.9710 -2.2408
 8827SOL     OW38113   1.253   4.417   4.995 -0.0174  0.3307 -0.2748
 8827SOL    HW138114   1.174   4.386   5.039  1.7823 -2.8520  0.7377
 8827SOL    HW238115   1.234   4.509   4.977 -0.1495  0.1636 -0.9767
 8828SOL     OW38116   4.705   3.482   0.192  0.2592  0.3919 -0.3750
 8828SOL    HW138117   0.008   3.564   0.224 -3.5213  2.1063 -0.3410
 8828SOL    HW238118   4.674   3.510   0.106  0.5383  0.7617 -0.3586
 8829SOL     OW38119   1.844   0.615   2.318  0.2743 -0.3786  0.2114
 8829SOL    HW138120   1.789   0.591   2.244  1.2464 -0.5227 -0.4672
 8829SOL    HW238121   1.911   0.547   2.309  0.8137  0.2554 -0.5273
 8830SOL     OW38122   0.331   2.466  10.368  0.3011  0.5742 -0.4193
 8830SOL    HW138123   0.255   2.468  10.425  0.6469  0.2587  0.0522
 8830SOL    HW238124   0.363   2.379  10.390 -0.2555  0.9874  1.9294
 8831SOL     OW38125   4.292   1.042   1.606  0.4572  0.3782  0.7761
 8831SOL    HW138126   4.386   1.058   1.594 -0.2587  2.8599 -1.5157
 8831SOL    HW238127   4.275   0.948   1.599 -1.9653  0.7752  1.3782
 8832SOL     OW38128   3.918   2.407   8.717  0.2522 -1.0659  0.2080
 8832SOL    HW138129   4.000   2.440   8.680 -0.8537  0.4434 -0.9251
 8832SOL    HW238130   3.854   2.425   8.647 -1.1399 -2.0653  1.2191
 8833SOL     OW38131   2.061   1.411   4.070  0.1657  0.3575  0.1084
 8833SOL    HW138132   2.004   1.341   4.101 -0.2460  1.0693  0.9736
 8833SOL    HW238133   2.084   1.369   3.987 -0.6968 -1.4248  0.7858
 8834SOL     OW38134   1.384   1.305   5.963 -0.2110 -0.0243 -0.0468
 8834SOL    HW138135   1.289   1.296   5.959 -0.1766 -0.4385  0.0895
 8834SOL    HW238136   1.383   1.398   5.983 -0.7483 -0.3157  1.2705
 8835SOL     OW38137   1.009   0.141   5.057  0.0413 -0.1064  0.0553
 8835SOL    HW138138   0.994   0.225   5.100 -3.1739  0.3584 -1.9385
 8835SOL    HW238139   0.938   0.140   4.992  2.0403  2.8048 -2.1657
 8836SOL     OW38140   2.701   2.898   8.581 -0.2268  0.5154  0.3962
 8836SOL    HW138141   2.793   2.919   8.563  0.0607 -0.9760  0.1342
 8836SOL    HW238142   2.662   2.968   8.529  0.5593  1.3493  0.9163
 8837SOL     OW38143   1.457   3.343   2.850 -0.3591 -0.0833 -0.0854
 8837SOL    HW138144   1.382   3.401   2.859  0.7082  1.5966 -2.0385
 8837SOL    HW238145   1.534   3.401   2.846  0.5078 -1.1199  1.4362
 8838SOL     OW38146   2.113   0.466   8.400 -0.1866 -0.4810 -0.2958
 8838SOL    HW138147   2.164   0.393   8.366  0.2749 -0.8753  1.2261
 8838SOL    HW238148   2.162   0.545   8.377  0.5137 -0.6168  0.7373
 8839SOL     OW38149   1.508   3.350   1.403  0.0275  0.6537 -0.0668
 8839SOL    HW138150   1.452   3.376   1.476 -1.3048 -1.5212 -0.2913
 8839SOL    HW238151   1.437   3.327   1.343 -0.2289 -1.1038  0.8886
 8840SOL     OW38152   2.650   0.493   5.921  0.6007 -0.6726  0.3104
 8840SOL    HW138153   2.605   0.494   6.006  0.2687  1.5050  0.0877
 8840SOL    HW238154   2.722   0.553   5.938 -1.7498  2.2713 -0.1061
 8841SOL     OW38155   4.504   4.310   3.180  0.2199  0.6953  0.4278
 8841SOL    HW138156   4.410   4.289   3.171 -0.0126  0.6497  3.1442
 8841SOL    HW238157   4.506   4.363   3.259 -0.4866  0.7588  0.4051
 8842SOL     OW38158   2.023   1.736   4.555  0.5077 -0.3478  0.2521
 8842SOL    HW138159   1.959   1.665   4.556  2.5387 -2.1839 -0.7721
 8842SOL    HW238160   2.078   1.707   4.627  2.9039 -0.7531 -1.7311
 8843SOL     OW38161   4.058   4.516   7.229 -0.1533 -0.0836 -0.3621
 8843SOL    HW138162   4.000   4.503   7.154 -1.2446  4.1361 -0.2822
 8843SOL    HW238163   4.071   4.610   7.220  2.2621 -0.4324 -0.3301
 8844SOL     OW38164   2.663   3.262   4.234 -0.0130  0.4730  0.4960
 8844SOL    HW138165   2.625   3.175   4.246 -0.9118  0.5374 -1.8617
 8844SOL    HW238166   2.602   3.313   4.286 -0.2236  0.9099 -0.1787
 8845SOL     OW38167   4.673   3.040  11.380 -0.0076 -0.1373  0.8342
 8845SOL    HW138168   4.581   3.032  11.405 -0.7565 -0.6950 -2.0959
 8845SOL    HW238169   4.660   3.111  11.316 -0.2305  0.0872  1.1292
 8846SOL     OW38170   4.494   1.326   8.615  0.5275  0.4196 -0.2450
 8846SOL    HW138171   4.589   1.322   8.617  0.5064  0.0425  0.0741
 8846SOL    HW238172   4.480   1.418   8.593 -0.9995  0.0809 -0.7198
 8847SOL     OW38173   0.087   0.020   6.416  0.1789 -0.1836  0.3366
 8847SOL    HW138174   0.102   0.037   6.509  1.6319  0.0879  0.0427
 8847SOL    HW238175   0.061   4.664   6.405 -0.1785 -0.0047 -0.3194
 8848SOL     OW38176   3.441   4.244   7.356  0.1315  0.8105 -0.2877
 8848SOL    HW138177   3.427   4.338   7.362  0.9169  0.8357  1.0677
 8848SOL    HW238178   3.361   4.214   7.399  0.7852  1.0241  1.0749
 8849SOL     OW38179   2.759   1.946   7.395 -0.6961  0.3161 -0.3203
 8849SOL    HW138180   2.812   2.022   7.369 -2.4955  1.5491 -0.3590
 8849SOL    HW238181   2.699   2.001   7.446 -0.9945 -1.7536  1.5507
 8850SOL     OW38182   0.012   3.613   1.345  0.1270  0.1422  0.0969
 8850SOL    HW138183   0.049   3.553   1.280 -0.1705 -1.2438  1.2089
 8850SOL    HW238184   4.704   3.683   1.294 -2.1980 -0.4823  1.2175
 8851SOL     OW38185   2.147   4.690  13.543  0.2167 -0.1782 -0.0859
 8851SOL    HW138186   2.232   4.721  13.511 -0.3680  1.5037 -0.0105
 8851SOL    HW238187   2.157   4.699  13.638  0.1447  1.1887 -0.2082
 8852SOL     OW38188   3.118   1.811   1.846  0.4644 -0.3602  0.0990
 8852SOL    HW138189   3.168   1.731   1.833 -0.6006 -0.8948 -0.7106
 8852SOL    HW238190   3.084   1.843   1.763  0.1086  0.8132  0.6887
 8853SOL     OW38191   4.031   3.864   8.656  0.1096  0.0864  0.4065
 8853SOL    HW138192   3.944   3.842   8.689  0.5272 -0.6880  1.0019
 8853SOL    HW238193   4.089   3.827   8.722  2.6674 -0.0463 -1.9024
 8854SOL     OW38194   1.455   2.353   0.206  0.2473 -0.2845 -0.3485
 8854SOL    HW138195   1.407   2.383   0.128  0.3226 -0.2531 -0.3822
 8854SOL    HW238196   1.531   2.408   0.224 -1.5199  1.9330  0.2949
 8855SOL     OW38197   1.398   1.813  12.235  0.0798  0.0941  0.5099
 8855SOL    HW138198   1.452   1.876  12.283 -0.0992 -0.6399  1.6828
 8855SOL    HW238199   1.348   1.774  12.307 -0.9822  1.6976  0.6443
 8856SOL     OW38200   4.402   0.100   5.947  0.5736  0.7847  0.4990
 8856SOL    HW138201   4.403   0.122   6.040  0.1539 -1.5748  1.0603
 8856SOL    HW238202   4.451   0.175   5.913 -1.0600  0.1037 -3.3530
 8857SOL     OW38203   3.107   3.558  12.471  0.0812  0.5744  0.2710
 8857SOL    HW138204   3.168   3.584  12.540  1.9684  1.1988 -1.6187
 8857SOL    HW238205   3.171   3.559  12.399 -0.2798  0.4701 -0.0541
 8858SOL     OW38206   2.411   3.719   7.663 -0.0283 -0.7034  0.6653
 8858SOL    HW138207   2.467   3.777   7.613 -0.7068 -0.6056  0.0202
 8858SOL    HW238208   2.477   3.655   7.689  1.2045 -0.3843 -1.7747
 8859SOL     OW38209   3.105   1.711   3.348  0.7056  0.1128 -0.1325
 8859SOL    HW138210   3.199   1.693   3.345  0.4312 -1.3213  0.0243
 8859SOL    HW238211   3.104   1.747   3.437 -0.0751  2.5958 -1.1251
 8860SOL     OW38212   2.441   0.435  15.304  0.1810  0.3124  0.3059
 8860SOL    HW138213   2.435   0.472  15.215  2.4387 -1.6036 -0.6593
 8860SOL    HW238214   2.509   0.487  15.346  1.0474  1.5712 -2.6060
 8861SOL     OW38215   3.661   4.087  11.763  0.4325  0.3790 -0.1624
 8861SOL    HW138216   3.575   4.073  11.803  0.7980 -2.1083 -0.2715
 8861SOL    HW238217   3.678   4.181  11.768 -1.8314  0.7382  0.8152
 8862SOL     OW38218   3.614   2.478   7.204 -0.9137 -0.2842  0.4742
 8862SOL    HW138219   3.588   2.418   7.273  1.7883 -0.0185  1.7335
 8862SOL    HW238220   3.524   2.503   7.183 -1.0589  1.1658  2.8938
 8863SOL     OW38221   4.694   0.104   6.056 -0.9155  0.0728  0.9582
 8863SOL    HW138222   0.011   0.120   5.977 -0.8299  2.2565  1.4488
 8863SOL    HW238223   4.645   0.025   6.033 -2.8995  2.0739 -1.6755
 8864SOL     OW38224   2.029   1.217  11.329 -0.3709 -0.0184  0.5114
 8864SOL    HW138225   2.075   1.213  11.245 -1.3813 -0.0566 -0.0540
 8864SOL    HW238226   1.945   1.250  11.295  0.2506 -0.1190 -1.1289
 8865SOL     OW38227   1.587   1.659   0.782 -0.8208  0.3892  0.3553
 8865SOL    HW138228   1.571   1.571   0.747  0.6902 -0.8035  2.6218
 8865SOL    HW238229   1.520   1.708   0.735  0.8743  1.5078 -0.8646
 8866SOL     OW38230   1.572   1.089   9.031  0.0806 -0.0659  0.3466
 8866SOL    HW138231   1.629   1.056   9.101 -0.5317 -1.8575 -0.0049
 8866SOL    HW238232   1.573   1.182   9.055 -2.3338  0.4851 -1.7135
 8867SOL     OW38233   1.325   2.181   8.617 -0.3122 -0.3688  0.2200
 8867SOL    HW138234   1.286   2.094   8.608 -0.4094 -0.3085  0.0720
 8867SOL    HW238235   1.312   2.212   8.528 -1.5767  3.6517  1.7983
 8868SOL     OW38236   3.009   2.963   1.371  0.3730  0.3354 -0.8318
 8868SOL    HW138237   3.087   2.920   1.336  1.3470  3.0709 -1.9993
 8868SOL    HW238238   2.960   2.889   1.408  1.0562 -0.9879 -2.5431
 8869SOL     OW38239   3.639   1.829   6.144  0.5976  0.2035 -0.0416
 8869SOL    HW138240   3.582   1.781   6.084 -0.4829  0.8169  0.4872
 8869SOL    HW238241   3.639   1.910   6.093 -1.4132  0.8223  0.9242
 8870SOL     OW38242   1.376   3.315   7.746  0.4424  0.7635  0.0974
 8870SOL    HW138243   1.464   3.283   7.730  0.6812  1.9770 -1.0098
 8870SOL    HW238244   1.345   3.349   7.662  1.0651  1.5154  0.1674
 8871SOL     OW38245   1.366   2.145  12.074  0.0534  0.8246 -1.2601
 8871SOL    HW138246   1.417   2.193  12.009  0.6704 -1.5512 -2.5239
 8871SOL    HW238247   1.438   2.107  12.124 -0.4486  0.0186 -1.1413
 8872SOL     OW38248   1.342   2.232   3.159  0.1184 -0.0167  0.0568
 8872SOL    HW138249   1.335   2.172   3.084  2.0409 -0.3393  0.1247
 8872SOL    HW238250   1.371   2.179   3.233 -0.4948  0.4390  0.6121
 8873SOL     OW38251   3.697   1.611   1.968 -0.3035 -0.5107 -0.0805
 8873SOL    HW138252   3.781   1.657   1.967 -0.4299 -0.2675  0.8657
 8873SOL    HW238253   3.656   1.668   1.902 -1.5064 -0.8343  0.3868
 8874SOL     OW38254   2.402   4.409  17.600  0.3441  0.2140  0.1105
 8874SOL    HW138255   2.463   4.430  17.529 -0.1938 -0.9444 -0.6798
 8874SOL    HW238256   2.383   4.316  17.589  0.8980 -0.1155  2.0162
 8875SOL     OW38257   1.386   4.450   1.339 -0.1182 -0.2044  0.2354
 8875SOL    HW138258   1.479   4.437   1.317 -0.5404 -0.0404 -1.6473
 8875SOL    HW238259   1.338   4.423   1.261  0.1032 -0.3886  0.1637
 8876SOL     OW38260   4.704   0.175   2.082  0.1438  0.0493  0.1518
 8876SOL    HW138261   0.038   0.218   2.133  0.9865 -1.0564 -0.0753
 8876SOL    HW238262   0.014   0.135   2.008  1.9988 -1.4371  2.0697
 8877SOL     OW38263   2.791   0.732  12.606  0.3796 -0.2954  0.4073
 8877SOL    HW138264   2.742   0.671  12.550 -2.9542  1.8576  0.9375
 8877SOL    HW238265   2.775   0.692  12.691 -2.1094 -0.4852 -0.1264
 8878SOL     OW38266   2.343   4.128  17.599 -0.2909 -0.2958  0.3174
 8878SOL    HW138267   2.251   4.118  17.573 -0.8684 -0.6313  2.4472
 8878SOL    HW238268   2.345   4.035  17.623  1.6725  0.1452  1.7951
 8879SOL     OW38269   0.892   4.219   8.611  0.1550  0.1262 -0.4492
 8879SOL    HW138270   0.804   4.254   8.594  0.0119 -1.5283 -3.1410
 8879SOL    HW238271   0.878   4.176   8.695 -0.3799 -3.3606 -2.3350
 8880SOL     OW38272   3.371   0.047   5.071  0.2391  0.3107 -0.0349
 8880SOL    HW138273   3.337   0.052   4.982  2.6948 -0.3668 -0.9978
 8880SOL    HW238274   3.289   0.024   5.115  0.2926  0.3518  0.0866
 8881SOL     OW38275   1.621   2.892   5.780 -0.2402 -0.3736  0.3189
 8881SOL    HW138276   1.533   2.868   5.754  0.6139  0.0666 -2.9405
 8881SOL    HW238277   1.658   2.917   5.696 -1.5608 -1.7525 -0.6613
 8882SOL     OW38278   2.446   4.689   9.258 -0.1285 -0.0962 -0.0657
 8882SOL    HW138279   2.392   4.616   9.226  1.9091 -1.4799 -0.3462
 8882SOL    HW238280   2.375   4.733   9.305  0.2468  2.2518 -1.7561
 8883SOL     OW38281   2.839   0.033   7.152 -0.6629 -0.0405 -0.2337
 8883SOL    HW138282   2.830   0.057   7.244 -1.5661 -1.7271  0.1044
 8883SOL    HW238283   2.931   0.061   7.143 -1.5518  2.5490 -1.2171
 8884SOL     OW38284   0.499   2.106   0.441 -0.0454 -0.6586 -0.1924
 8884SOL    HW138285   0.538   2.065   0.364 -1.1984  2.1723 -2.2736
 8884SOL    HW238286   0.453   2.041   0.494  2.3145 -2.6667 -0.5661
 8885SOL     OW38287   1.717   0.966   7.446  0.2646  0.1089 -0.1173
 8885SOL    HW138288   1.645   1.027   7.465  0.3911  0.3661 -0.4778
 8885SOL    HW238289   1.680   0.884   7.480  2.2889 -0.7598 -0.0255
 8886SOL     OW38290   2.907   0.530   8.310  0.5459 -0.1478  0.3142
 8886SOL    HW138291   2.833   0.552   8.366  1.7741  3.2890  0.6013
 8886SOL    HW238292   2.967   0.493   8.375 -1.1952 -2.4617  0.5932
 8887SOL     OW38293   0.804   0.384   2.490  0.3801  0.2464 -0.1861
 8887SOL    HW138294   0.875   0.354   2.434  1.2761 -1.9036  2.0884
 8887SOL    HW238295   0.865   0.436   2.544 -0.0965  1.9083 -1.2456
 8888SOL     OW38296   0.401   3.392   8.387 -0.3515 -0.5496  0.8907
 8888SOL    HW138297   0.378   3.480   8.415  1.5142 -0.1022  0.9991
 8888SOL    HW238298   0.336   3.377   8.319  1.2425 -2.1155 -0.3087
 8889SOL     OW38299   4.050   0.514   7.673 -0.0684 -0.4168 -0.7613
 8889SOL    HW138300   3.967   0.558   7.652  0.5577  0.5812 -1.1437
 8889SOL    HW238301   4.028   0.456   7.746  2.1535 -1.3993 -0.8911
 8890SOL     OW38302   2.897   1.582   5.124  0.1000  0.0484  0.0296
 8890SOL    HW138303   2.970   1.532   5.161  0.4007  0.2716 -0.2574
 8890SOL    HW238304   2.883   1.521   5.051 -0.5993  0.9845 -0.6193
 8891SOL     OW38305   0.919   0.551   4.748  0.5097 -0.4303  0.1219
 8891SOL    HW138306   0.981   0.557   4.676  1.2033  2.2328  0.9239
 8891SOL    HW238307   0.980   0.501   4.803  0.8814  0.4351  0.4957
 8892SOL     OW38308   3.475   0.969   1.417 -0.2985  0.5817 -0.5202
 8892SOL    HW138309   3.514   1.055   1.406  0.7393  0.4132  1.7005
 8892SOL    HW238310   3.500   0.964   1.510  1.3812  1.9551 -0.8975
 8893SOL     OW38311   1.518   3.239   5.226  0.8917  0.1095 -0.0639
 8893SOL    HW138312   1.545   3.331   5.225 -1.5733  0.8377 -0.0510
 8893SOL    HW238313   1.483   3.232   5.315  2.3186 -0.7197  0.4284
 8894SOL     OW38314   4.481   4.716   1.586 -0.2965  0.1643  0.0163
 8894SOL    HW138315   4.488   4.708   1.491  3.2556  0.5356  0.2442
 8894SOL    HW238316   4.401   4.671   1.614  0.0842 -0.2560  0.4230
 8895SOL     OW38317   1.360   0.550   3.857 -0.0506 -0.0800  0.0361
 8895SOL    HW138318   1.434   0.526   3.801  2.2365  2.5793  1.8881
 8895SOL    HW238319   1.341   0.460   3.883 -0.7280  0.0962  0.1397
 8896SOL     OW38320   1.967   0.144   2.806 -0.2209 -0.3532  0.1304
 8896SOL    HW138321   2.003   0.170   2.721 -0.2246 -0.6870  0.0239
 8896SOL    HW238322   1.873   0.150   2.788  0.3250  0.7731 -2.4258
 8897SOL     OW38323   2.624   1.836   2.573 -0.0976  0.1969  0.2647
 8897SOL    HW138324   2.556   1.810   2.636 -1.1299  0.8133 -0.6069
 8897SOL    HW238325   2.573   1.811   2.496  1.5408  1.6920 -1.3069
 8898SOL     OW38326   0.574   3.414  14.401  0.5655 -0.0938  0.1240
 8898SOL    HW138327   0.579   3.321  14.379  0.7319 -0.1140  0.2500
 8898SOL    HW238328   0.566   3.403  14.495 -0.2869  0.6443  0.1391
 8899SOL     OW38329   0.661   4.050   1.993 -0.3680  0.1071 -0.4351
 8899SOL    HW138330   0.578   4.020   2.029  0.7983  0.1925  2.3659
 8899SOL    HW238331   0.630   4.138   1.970 -1.8668 -0.5210 -0.8029
 8900SOL     OW38332   3.275   1.513  17.115  0.4799 -0.2651 -0.1969
 8900SOL    HW138333   3.257   1.586  17.174  1.2070  0.5799 -1.0186
 8900SOL    HW238334   3.224   1.548  17.042 -0.5302  0.4005  0.8182
 8901SOL     OW38335   3.377   0.105   2.539 -0.5907 -0.0104 -0.0130
 8901SOL    HW138336   3.408   0.173   2.480 -0.4088 -1.1587 -1.2498
 8901SOL    HW238337   3.437   0.035   2.513 -1.7155 -0.4308 -1.5216
 8902SOL     OW38338   1.844   2.356   6.791  0.4077  0.2496 -0.7921
 8902SOL    HW138339   1.760   2.337   6.834  1.1730 -2.4712 -0.4683
 8902SOL    HW238340   1.878   2.270   6.767  1.8704  0.4914  0.3764
 8903SOL     OW38341   0.907   4.209   1.737  0.0753 -0.3146  0.3274
 8903SOL    HW138342   0.912   4.295   1.779  0.2939 -0.2602  0.1914
 8903SOL    HW238343   0.999   4.184   1.734  0.3911  0.7175  1.4247
 8904SOL     OW38344   2.580   0.594  17.255 -0.1740 -0.3941  0.1268
 8904SOL    HW138345   2.654   0.583  17.315 -0.7426 -0.9581  0.7230
 8904SOL    HW238346   2.571   0.504  17.224  2.3585 -0.8222  0.6152
 8905SOL     OW38347   0.427   1.871   7.833 -0.2107 -0.1153  0.3862
 8905SOL    HW138348   0.381   1.951   7.860 -1.5044 -1.0263  0.8574
 8905SOL    HW238349   0.377   1.841   7.758 -1.1499  0.6626  0.7034
 8906SOL     OW38350   1.180   2.603   8.217  0.1535  0.6378  0.4674
 8906SOL    HW138351   1.123   2.530   8.240 -0.4118  0.7697 -0.5287
 8906SOL    HW238352   1.209   2.633   8.303 -0.6338  2.7890 -0.0126
 8907SOL     OW38353   3.203   2.318   0.341  0.2278 -0.4203 -0.1761
 8907SOL    HW138354   3.246   2.286   0.420  1.6883 -0.5149 -1.0044
 8907SOL    HW238355   3.115   2.282   0.342  1.3971 -3.2803  0.2682
 8908SOL     OW38356   3.859   0.270   9.754 -0.6468  0.2533  0.1062
 8908SOL    HW138357   3.890   0.305   9.671 -0.6288  1.0916  0.4721
 8908SOL    HW238358   3.804   0.342   9.783  1.0874  1.7494 -0.3229
 8909SOL     OW38359   1.464   4.358   8.668 -0.2276 -0.2267  0.0552
 8909SOL    HW138360   1.556   4.337   8.685 -0.5942 -1.4248  0.5717
 8909SOL    HW238361   1.471   4.452   8.686  1.0405 -0.5200  1.0977
 8910SOL     OW38362   2.112   3.183  13.000 -0.4589  0.4339 -0.0800
 8910SOL    HW138363   2.074   3.126  13.067  2.0691  0.6017  1.5121
 8910SOL    HW238364   2.040   3.244  12.987  0.6044  1.4070 -1.3668
 8911SOL     OW38365   0.930   1.799  13.531  0.2813  0.3387 -0.0277
 8911SOL    HW138366   0.967   1.873  13.579 -0.3009 -0.4791  1.6658
 8911SOL    HW238367   0.838   1.824  13.521 -0.7156 -2.8491  1.2443
 8912SOL     OW38368   0.113   0.609   3.261  0.3829 -0.0529 -0.0397
 8912SOL    HW138369   0.202   0.584   3.237  0.8854  0.4188  1.3521
 8912SOL    HW238370   0.120   0.703   3.248  0.4616  0.0485  0.7593
 8913SOL     OW38371   1.309   2.938   6.808 -0.4736 -0.7140 -0.6432
 8913SOL    HW138372   1.216   2.947   6.787 -1.3106 -1.4697  2.7724
 8913SOL    HW238373   1.312   2.923   6.902 -0.4746  1.6497 -0.2593
 8914SOL     OW38374   3.132   4.402   5.844  0.3453  0.5218  0.3477
 8914SOL    HW138375   3.217   4.359   5.834  0.0931  0.7329 -2.6686
 8914SOL    HW238376   3.127   4.460   5.768  2.2313  2.5264  1.7532
 8915SOL     OW38377   3.130   2.011   9.343 -0.0276 -0.2495 -0.5265
 8915SOL    HW138378   3.178   2.019   9.261  0.1978 -1.3694 -0.5090
 8915SOL    HW238379   3.054   2.066   9.325 -0.2097 -1.4260 -3.4694
 8916SOL     OW38380   4.704   3.331   6.950 -0.0604 -0.4003  0.2105
 8916SOL    HW138381   4.716   3.251   6.899  0.2148  0.2516 -0.7454
 8916SOL    HW238382   0.021   3.312   7.028  0.4661  2.1591  0.5029
 8917SOL     OW38383   0.507   3.653   0.561  0.1733  0.4668 -0.2938
 8917SOL    HW138384   0.517   3.748   0.565  2.3088  0.2105  0.1061
 8917SOL    HW238385   0.416   3.644   0.590  0.4424 -0.6461  0.1736
 8918SOL     OW38386   1.999   4.525   4.348 -0.2071  0.4095  0.2210
 8918SOL    HW138387   1.987   4.555   4.258 -0.4104 -0.2402  0.0266
 8918SOL    HW238388   1.991   4.605   4.398 -3.0039  0.8452 -0.9664
 8919SOL     OW38389   1.626   0.087   8.130  0.5503 -0.2798 -0.4309
 8919SOL    HW138390   1.594   0.028   8.062  1.0020  0.9471 -1.7107
 8919SOL    HW238391   1.638   0.017   8.195  2.2133 -0.7816 -1.2857
 8920SOL     OW38392   0.104   0.365   2.449  0.0869 -0.2528  0.5407
 8920SOL    HW138393   0.149   0.354   2.533 -0.4932 -1.7002  0.6589
 8920SOL    HW238394   0.086   0.458   2.448  1.4798 -0.0070 -1.6958
 8921SOL     OW38395   4.301   0.720  15.556  0.1226 -0.1859 -0.3105
 8921SOL    HW138396   4.319   0.807  15.592 -1.5416 -0.4615  1.2169
 8921SOL    HW238397   4.264   0.673  15.631 -0.9602  1.3719  0.1385
 8922SOL     OW38398   1.732   0.247   6.095  0.3603 -0.0393 -0.3100
 8922SOL    HW138399   1.735   0.295   6.013  2.8461 -1.5449 -1.1151
 8922SOL    HW238400   1.813   0.197   6.089  0.7294  0.9585 -3.2146
 8923SOL     OW38401   3.525   0.675   6.576  0.2290 -0.2312 -0.0813
 8923SOL    HW138402   3.595   0.614   6.552 -1.1938 -1.8258 -0.2400
 8923SOL    HW238403   3.446   0.622   6.559  0.8028 -0.9645 -0.4475
 8924SOL     OW38404   4.262   0.114   4.933  0.3557  0.2350 -0.7299
 8924SOL    HW138405   4.259   0.125   4.838 -0.4581 -1.2941 -0.8750
 8924SOL    HW238406   4.240   0.203   4.961  0.8563  0.8167 -2.1654
 8925SOL     OW38407   3.135   2.536   1.641  0.4960  1.0100 -0.1262
 8925SOL    HW138408   3.107   2.612   1.590 -1.7591 -0.3010 -0.8240
 8925SOL    HW238409   3.071   2.514   1.709  0.4165 -0.8584 -0.7852
 8926SOL     OW38410   0.188   4.247   8.053 -0.5888 -0.0298  0.5146
 8926SOL    HW138411   0.094   4.236   8.061 -0.7148  0.8805  0.3353
 8926SOL    HW238412   0.205   4.276   8.142  0.1318  0.1210  0.3310
 8927SOL     OW38413   4.600   3.161   7.281 -0.2387 -0.4948  0.2120
 8927SOL    HW138414   4.527   3.209   7.241  0.2583 -2.1161 -2.6096
 8927SOL    HW238415   4.547   3.090   7.316 -2.5400  1.0750 -0.0228
 8928SOL     OW38416   1.245   2.388   4.772  0.1358 -0.1657  0.1352
 8928SOL    HW138417   1.294   2.349   4.700  0.0657  1.0188 -0.5593
 8928SOL    HW238418   1.245   2.477   4.737 -2.1169 -0.4964 -0.7786
 8929SOL     OW38419   0.936   0.076   3.343 -0.1017  0.1787  0.1229
 8929SOL    HW138420   0.852   0.056   3.303 -0.6411 -0.6059  1.6576
 8929SOL    HW238421   0.966   4.722   3.362  0.5682  0.0449 -1.5844
 8930SOL     OW38422   2.578   3.393   6.699 -0.0718  0.1217 -0.2717
 8930SOL    HW138423   2.509   3.399   6.765  0.3689 -0.5982  0.2491
 8930SOL    HW238424   2.628   3.470   6.729 -0.7245  0.8186 -0.9822
 8931SOL     OW38425   2.970   0.178   0.037 -0.2994  0.0254  0.1814
 8931SOL    HW138426   2.956   0.216   0.124 -0.1416  1.8415 -0.5739
 8931SOL    HW238427   2.949   0.085   0.044 -1.6259  0.1536 -2.1592
 8932SOL     OW38428   1.213   0.400   8.192  0.2107  0.7506  0.1506
 8932SOL    HW138429   1.273   0.344   8.241  0.0202  1.0061  0.6792
 8932SOL    HW238430   1.132   0.352   8.176  0.6831  0.1410 -0.3984
 8933SOL     OW38431   4.666   0.943   8.735 -0.3513 -0.1901 -0.9226
 8933SOL    HW138432   4.628   0.964   8.649 -0.7717  0.4897 -0.5780
 8933SOL    HW238433   4.602   0.890   8.782  0.6054  0.4699  1.1061
 8934SOL     OW38434   3.344   2.012   5.834 -0.1096 -0.2781  0.4596
 8934SOL    HW138435   3.285   1.989   5.906 -0.7515  0.1596  0.0809
 8934SOL    HW238436   3.284   2.060   5.775  0.7930  2.2187  1.5490
 8935SOL     OW38437   1.184   3.926  15.023  0.1445  0.0001 -0.0071
 8935SOL    HW138438   1.193   3.986  15.097  2.0539 -1.1407  0.6577
 8935SOL    HW238439   1.202   3.987  14.952 -0.5667  0.2125 -0.0092
 8936SOL     OW38440   3.273   2.688   7.962  0.0837 -0.5363 -0.1922
 8936SOL    HW138441   3.245   2.602   7.994  1.1125 -0.7115  0.2321
 8936SOL    HW238442   3.318   2.662   7.881  1.4499 -0.0280  0.4110
 8937SOL     OW38443   2.028   0.477   4.284 -0.1168  0.3652  0.3634
 8937SOL    HW138444   2.118   0.472   4.315 -0.3435  4.3263  1.6663
 8937SOL    HW238445   2.021   0.399   4.229  1.5542  0.7901 -0.4478
 8938SOL     OW38446   0.793   3.048  13.189  0.0903  0.3855  0.1548
 8938SOL    HW138447   0.773   3.022  13.099  0.1180 -1.5738  0.7350
 8938SOL    HW238448   0.768   2.968  13.234 -1.6106  1.1320  0.5629
 8939SOL     OW38449   2.175   1.859   7.353  0.4295 -0.2307 -0.9333
 8939SOL    HW138450   2.169   1.785   7.413 -0.5138 -0.3358 -1.1705
 8939SOL    HW238451   2.241   1.908   7.403 -2.1422  3.4712 -1.1793
 8940SOL     OW38452   4.717   2.525   9.856  0.1575  0.2375  0.4339
 8940SOL    HW138453   4.683   2.537   9.768 -0.8184 -0.8841  0.6543
 8940SOL    HW238454   0.068   2.567   9.847  0.0657  0.0871 -1.1131
 8941SOL     OW38455   2.670   0.595  12.406  0.3702  0.0989 -0.3797
 8941SOL    HW138456   2.679   0.503  12.383  1.2702  0.2180 -0.5358
 8941SOL    HW238457   2.582   0.616  12.375  2.0433  1.5483 -4.1407
 8942SOL     OW38458   0.686   4.356   5.640  0.0154  0.8615 -0.1446
 8942SOL    HW138459   0.718   4.307   5.715 -1.5026  1.1136  0.6624
 8942SOL    HW238460   0.651   4.290   5.581 -0.3947 -0.5306  1.6628
 8943SOL     OW38461   3.802   2.015   3.329  0.1447 -0.0338  0.1239
 8943SOL    HW138462   3.835   2.103   3.346 -0.4893  0.5798 -1.8600
 8943SOL    HW238463   3.856   1.976   3.398  0.6297  1.9586  0.8761
 8944SOL     OW38464   2.243   3.139   7.042 -0.3126  0.7014 -0.0722
 8944SOL    HW138465   2.173   3.075   7.051  0.5347 -0.5628 -2.5678
 8944SOL    HW238466   2.244   3.151   6.947 -0.0795  0.2922 -0.1205
 8945SOL     OW38467   3.867   3.748  13.949  0.1254 -0.2180 -0.0705
 8945SOL    HW138468   3.834   3.820  14.003  3.4971  1.3235 -0.0501
 8945SOL    HW238469   3.923   3.796  13.889 -0.5300 -0.6475 -1.0231
 8946SOL     OW38470   3.167   3.112   3.672 -0.6056 -0.3403  0.0700
 8946SOL    HW138471   3.171   3.192   3.725  1.7102 -0.6258  0.3374
 8946SOL    HW238472   3.082   3.120   3.629 -0.5678  1.4458  0.3189
 8947SOL     OW38473   0.299   2.040  11.948  0.1467  0.6705 -0.2910
 8947SOL    HW138474   0.361   1.969  11.965 -0.5058  0.6871  2.2034
 8947SOL    HW238475   0.336   2.115  11.996  0.8259  0.3516 -0.3162
 8948SOL     OW38476   4.025   3.349   4.791  0.3158  0.1226  0.3746
 8948SOL    HW138477   4.070   3.287   4.735 -0.4040 -3.1962  3.4631
 8948SOL    HW238478   4.098   3.401   4.827  1.4017 -0.5724 -0.8380
 8949SOL     OW38479   3.609   3.833   5.787 -0.5015 -0.1831  0.0106
 8949SOL    HW138480   3.577   3.862   5.872  0.1352 -1.3915  0.6578
 8949SOL    HW238481   3.699   3.865   5.794 -0.9523  1.1115 -0.1440
 8950SOL     OW38482   4.243   4.295   4.478 -0.1170 -0.1703 -0.2856
 8950SOL    HW138483   4.159   4.251   4.491 -0.4829  0.0763 -1.7061
 8950SOL    HW238484   4.273   4.249   4.399 -0.9627  2.6992 -2.3161
 8951SOL     OW38485   0.868   3.925   8.427 -0.4844 -0.3155  0.0163
 8951SOL    HW138486   0.938   3.948   8.488 -0.6897  0.4504 -0.0300
 8951SOL    HW238487   0.861   4.003   8.372 -1.2077 -0.8726 -0.6749
 8952SOL     OW38488   3.351   3.397   9.136  0.3270  0.0610 -0.2467
 8952SOL    HW138489   3.358   3.492   9.147  0.7076  0.0447 -0.3660
 8952SOL    HW238490   3.267   3.383   9.180  0.3354  0.1053 -0.2162
 8953SOL     OW38491   3.899   0.262   8.088 -0.9902  0.5744  0.3476
 8953SOL    HW138492   3.883   0.318   8.164 -1.1985 -1.7051  1.9612
 8953SOL    HW238493   3.941   0.185   8.125  1.1306  2.2800  1.4612
 8954SOL     OW38494   2.596   2.996  12.243 -0.3364 -0.2123  0.3810
 8954SOL    HW138495   2.592   3.026  12.333  1.1053 -2.5053  1.2128
 8954SOL    HW238496   2.589   2.901  12.257  2.4888 -0.7292 -1.4961
 8955SOL     OW38497   4.264   2.745  14.574 -0.3665  0.1396  0.5743
 8955SOL    HW138498   4.179   2.704  14.556 -0.2413 -0.2276  0.8342
 8955SOL    HW238499   4.305   2.673  14.622 -0.1292 -2.0084 -2.8611
 8956SOL     OW38500   3.265   0.122   5.396  0.4464 -0.3298 -0.1514
 8956SOL    HW138501   3.229   0.049   5.446 -0.4565  1.7009  2.1638
 8956SOL    HW238502   3.221   0.102   5.313  0.9314 -3.2671  0.3189
 8957SOL     OW38503   3.832   2.410   5.045  0.5955  0.6150 -0.5838
 8957SOL    HW138504   3.878   2.387   4.965  0.9464  1.7786 -0.7217
 8957SOL    HW238505   3.743   2.430   5.015 -0.0848 -1.0512  0.3200
 8958SOL     OW38506   4.140   1.901   4.581  0.3761 -0.1404 -0.3902
 8958SOL    HW138507   4.185   1.881   4.498 -0.2724  1.2683 -1.0814
 8958SOL    HW238508   4.070   1.961   4.555 -0.2002 -1.4094 -1.8173
 8959SOL     OW38509   2.713   1.652   4.786  0.3162 -0.2219 -0.0255
 8959SOL    HW138510   2.650   1.686   4.722 -0.6366  0.5557  1.3129
 8959SOL    HW238511   2.672   1.566   4.796  1.3741 -0.7808 -0.5347
 8960SOL     OW38512   2.520   2.478  12.839  0.2978 -0.0831 -0.4141
 8960SOL    HW138513   2.586   2.456  12.773  0.1360  1.2381 -1.0024
 8960SOL    HW238514   2.560   2.530  12.909  1.3509 -0.1611 -0.9676
 8961SOL     OW38515   3.324   0.448   7.908 -0.0429 -0.2942  0.1343
 8961SOL    HW138516   3.366   0.484   7.986 -2.2561 -0.1937  1.2919
 8961SOL    HW238517   3.243   0.428   7.954 -0.7409 -0.4748 -1.1768
 8962SOL     OW38518   1.838   0.162   7.212 -0.5804  0.5259 -0.7471
 8962SOL    HW138519   1.912   0.217   7.184 -1.4689  1.5958 -0.9698
 8962SOL    HW238520   1.814   0.202   7.296  1.0067 -1.4654  0.6521
 8963SOL     OW38521   3.483   2.386  17.375  0.1250 -0.5405 -0.3349
 8963SOL    HW138522   3.518   2.307  17.415 -1.0743  0.3856  2.5595
 8963SOL    HW238523   3.544   2.452  17.410 -1.1105 -0.0503  0.9100
 8964SOL     OW38524   2.148   1.042  16.833  0.0405  0.0104 -0.6681
 8964SOL    HW138525   2.204   0.968  16.857  0.4719  0.4201 -0.4299
 8964SOL    HW238526   2.079   1.004  16.779 -0.7536  0.8536 -0.2270
 8965SOL     OW38527   2.189   1.384  14.831  0.3945  0.5240 -0.5353
 8965SOL    HW138528   2.271   1.344  14.801  0.2796 -0.1491  0.0646
 8965SOL    HW238529   2.160   1.305  14.876  1.6728  0.7046  0.6004
 8966SOL     OW38530   3.379   2.272  10.239 -0.2412 -0.0685 -0.0453
 8966SOL    HW138531   3.284   2.277  10.249 -0.4021 -0.4346 -1.3681
 8966SOL    HW238532   3.394   2.362  10.210  0.6307 -0.3097 -0.3555
 8967SOL     OW38533   1.217   2.403   3.578 -0.5772  0.0989  0.3355
 8967SOL    HW138534   1.311   2.417   3.568 -0.5189 -0.0321  0.7008
 8967SOL    HW238535   1.216   2.323   3.632  1.1822  0.0331  0.2641
 8968SOL     OW38536   3.079   1.351  16.627  0.2748 -0.6474  0.5618
 8968SOL    HW138537   3.040   1.390  16.549 -2.5964 -2.4213  1.1018
 8968SOL    HW238538   3.138   1.420  16.655 -2.0108  0.9666  1.3872
 8969SOL     OW38539   0.322   2.944  16.847 -0.4669 -0.2985  0.1742
 8969SOL    HW138540   0.286   3.032  16.852 -0.4903 -0.2330 -1.0217
 8969SOL    HW238541   0.295   2.910  16.932  0.5927  1.3153  1.1520
 8970SOL     OW38542   0.611   4.606   6.743  0.0871 -0.1708  0.0350
 8970SOL    HW138543   0.706   4.599   6.745  0.0890 -0.1580 -0.0236
 8970SOL    HW238544   0.599   4.512   6.757  1.4674 -0.1305  1.5048
 8971SOL     OW38545   0.225   0.380  15.046  0.1462 -0.5214  0.1691
 8971SOL    HW138546   0.271   0.368  14.963  1.2212 -0.6624  0.7876
 8971SOL    HW238547   0.140   0.339  15.028 -0.2903  0.1271  0.7218
 8972SOL     OW38548   4.558   1.580   0.144  0.1627 -0.1299  0.1044
 8972SOL    HW138549   4.556   1.485   0.130 -1.5009 -0.0251 -0.3553
 8972SOL    HW238550   4.628   1.586   0.210  0.6434 -2.4205 -0.2171
 8973SOL     OW38551   3.957   0.323   4.917  0.1689  0.2537  0.6545
 8973SOL    HW138552   3.968   0.264   4.992  2.6672 -0.0468  0.0528
 8973SOL    HW238553   4.036   0.376   4.924  1.6580 -1.5693 -2.1862
 8974SOL     OW38554   3.743   3.415   6.123 -0.4603 -0.2241 -1.1802
 8974SOL    HW138555   3.812   3.476   6.097  0.6603 -0.8397  0.3503
 8974SOL    HW238556   3.768   3.397   6.213  0.6613  0.8698 -1.2656
 8975SOL     OW38557   3.013   1.358   3.877  0.2351 -0.0204  0.2174
 8975SOL    HW138558   3.055   1.276   3.904  1.5476  0.9175  1.0414
 8975SOL    HW238559   2.951   1.374   3.947 -0.0426  2.0147 -0.4983
 8976SOL     OW38560   4.617   0.305   2.830  0.1305 -0.3273 -0.0216
 8976SOL    HW138561   4.635   0.373   2.766  1.8074 -0.0945  0.7114
 8976SOL    HW238562   4.545   0.255   2.790 -0.2480  0.1910  0.0110
 8977SOL     OW38563   2.104   1.551  10.642  0.1177 -0.6130 -0.0068
 8977SOL    HW138564   2.152   1.469  10.634 -0.6695 -1.0695 -0.1101
 8977SOL    HW238565   2.040   1.535  10.711 -0.7484  0.1440 -0.6318
 8978SOL     OW38566   0.343   1.415   8.688 -0.4455 -0.1225 -0.1957
 8978SOL    HW138567   0.431   1.430   8.723 -0.8017 -0.1816  0.7280
 8978SOL    HW238568   0.369   1.420   8.596  2.4727  0.8951  0.6738
 8979SOL     OW38569   1.601   3.930  11.757  0.2571  0.0144 -0.7763
 8979SOL    HW138570   1.543   3.980  11.815  2.9995  0.4802  1.5344
 8979SOL    HW238571   1.609   3.989  11.682 -1.2025  2.2910  0.8474
 8980SOL     OW38572   0.860   4.295   5.412  0.6475  0.1976 -0.7000
 8980SOL    HW138573   0.887   4.219   5.462  0.2415 -0.2489 -1.1639
 8980SOL    HW238574   0.843   4.358   5.482 -1.5907  0.2116 -1.2320
 8981SOL     OW38575   3.381   3.142  14.568  0.1033  0.2294 -0.5304
 8981SOL    HW138576   3.436   3.065  14.582  0.8581  0.5221 -1.8263
 8981SOL    HW238577   3.374   3.164  14.661 -0.9872 -3.1343  0.1923
 8982SOL     OW38578   3.976   2.082  10.341  0.1640 -0.2937  0.2403
 8982SOL    HW138579   3.963   2.116  10.252 -1.4143  1.2578  1.0535
 8982SOL    HW238580   3.905   2.126  10.387  0.1695 -0.1572  0.1204
 8983SOL     OW38581   3.390   1.989   1.402  0.0090  0.0060  0.2196
 8983SOL    HW138582   3.302   2.019   1.381 -0.7164 -0.2463  2.8580
 8983SOL    HW238583   3.363   1.925   1.468 -1.4469  0.0019 -0.3788
 8984SOL     OW38584   0.735   3.756  17.738  0.2277 -0.1119  0.1691
 8984SOL    HW138585   0.752   3.664   0.021 -2.2553 -0.6991 -0.2995
 8984SOL    HW238586   0.639   3.761   0.002  0.2748  0.1754  1.6340
 8985SOL     OW38587   4.057   0.235  11.192 -0.1770 -0.1276 -0.1222
 8985SOL    HW138588   4.053   0.326  11.223 -1.2375 -0.2004 -0.0496
 8985SOL    HW238589   4.052   0.244  11.097 -2.9177  1.7238  0.1914
 8986SOL     OW38590   1.350   1.048  11.768  0.8471  0.1095  0.4661
 8986SOL    HW138591   1.347   1.128  11.821  0.6285 -0.5783  1.4937
 8986SOL    HW238592   1.297   1.081  11.695 -2.9486 -2.3033  2.1308
 8987SOL     OW38593   1.597   2.258   5.215 -0.0259  0.8268  0.2566
 8987SOL    HW138594   1.576   2.245   5.307 -0.2608 -0.2053  0.0579
 8987SOL    HW238595   1.508   2.280   5.186  0.5721 -0.8447 -2.8101
 8988SOL     OW38596   4.091   1.096   8.481 -0.2872  0.5914  0.5198
 8988SOL    HW138597   4.163   1.064   8.535  1.0283  1.3556 -0.7932
 8988SOL    HW238598   4.104   1.040   8.404  2.0576  1.6934  0.1284
 8989SOL     OW38599   4.355   0.130   4.367 -0.3319  0.3395  0.1887
 8989SOL    HW138600   4.305   0.049   4.378 -0.3108  0.0576 -1.7116
 8989SOL    HW238601   4.357   0.137   4.271  2.0267 -1.0086  0.1398
 8990SOL     OW38602   2.867   2.868   5.433 -0.2883  0.1987  0.5601
 8990SOL    HW138603   2.783   2.827   5.453 -0.5055  0.6473  0.5708
 8990SOL    HW238604   2.905   2.824   5.358 -2.8527 -2.2389  0.6993
 8991SOL     OW38605   2.233   3.267   8.474 -0.1654 -0.7260  0.0731
 8991SOL    HW138606   2.290   3.260   8.550  0.6513 -1.2903 -0.6028
 8991SOL    HW238607   2.161   3.207   8.494  0.5017 -1.6300 -0.2773
 8992SOL     OW38608   2.430   3.482   4.061 -0.1365  0.2927 -0.6370
 8992SOL    HW138609   2.393   3.422   3.996  0.1947  0.8879 -1.3842
 8992SOL    HW238610   2.490   3.423   4.107 -2.4415 -0.0517  1.8619
 8993SOL     OW38611   0.324   2.901   3.263 -0.4663 -0.1709  0.2186
 8993SOL    HW138612   0.253   2.964   3.268 -0.0666  0.4711 -2.1879
 8993SOL    HW238613   0.335   2.881   3.357  0.9106  4.6675  1.0747
 8994SOL     OW38614   1.569   3.266   3.460  0.5269 -0.4343  0.8413
 8994SOL    HW138615   1.575   3.273   3.556  0.3004 -2.2349  0.9821
 8994SOL    HW238616   1.654   3.298   3.427 -0.4688  2.1005  0.7309
 8995SOL     OW38617   1.189   3.113  16.386  0.1850 -0.2040 -0.1526
 8995SOL    HW138618   1.179   3.204  16.417  0.9392  0.3481 -1.5629
 8995SOL    HW238619   1.152   3.060  16.456  1.5888 -1.5787 -0.4589
 8996SOL     OW38620   1.122   2.326   4.178  0.4850 -0.2074 -0.3633
 8996SOL    HW138621   1.125   2.316   4.083 -3.1244 -0.0070 -0.4965
 8996SOL    HW238622   1.206   2.371   4.184 -0.2691  0.9016  1.7170
 8997SOL     OW38623   2.490   2.916   9.474 -0.8682  0.1923  0.5192
 8997SOL    HW138624   2.422   2.960   9.525  1.1635  3.0768  0.7572
 8997SOL    HW238625   2.478   2.823   9.494 -1.4257  0.2614  0.5042
 8998SOL     OW38626   3.607   0.513   6.939  0.5015 -0.3070 -0.4680
 8998SOL    HW138627   3.607   0.515   7.035  0.5189  2.0983 -0.5160
 8998SOL    HW238628   3.568   0.597   6.913 -1.1427 -1.2887 -1.1592
 8999SOL     OW38629   2.653   2.881   4.036 -0.1363 -0.2988  0.0352
 8999SOL    HW138630   2.645   2.964   4.082  1.6345  0.4621 -1.0318
 8999SOL    HW238631   2.615   2.821   4.101  0.3554  0.1662  0.7532
 9000SOL     OW38632   4.643   1.389   2.224  0.1651  0.6681  0.1355
 9000SOL    HW138633   4.599   1.306   2.207  1.3808 -0.5665  3.1508
 9000SOL    HW238634   4.575   1.442   2.265  0.8484  2.9515 -1.6292
 9001SOL     OW38635   1.276   2.961   6.289 -0.4224 -0.0900  0.2692
 9001SOL    HW138636   1.354   2.978   6.341 -0.8182  1.4333  0.3602
 9001SOL    HW238637   1.257   2.869   6.306 -0.7329 -0.1588 -0.4662
 9002SOL     OW38638   3.241   3.146   6.291  0.2500  0.1552  0.0362
 9002SOL    HW138639   3.162   3.155   6.238  1.6867 -1.2707 -2.3783
 9002SOL    HW238640   3.218   3.193   6.371  0.1016  2.5002 -1.3827
 9003SOL     OW38641   3.061   2.851  15.921 -0.4217 -0.4039 -0.2522
 9003SOL    HW138642   2.972   2.847  15.954 -1.1286 -0.0809 -2.1472
 9003SOL    HW238643   3.086   2.941  15.944 -0.4950 -0.4547  0.0269
 9004SOL     OW38644   0.601   3.656   5.001 -0.2685 -0.7542 -0.3226
 9004SOL    HW138645   0.630   3.731   4.948  1.9760 -0.8896  0.7489
 9004SOL    HW238646   0.627   3.677   5.090 -2.8335 -0.1114  0.2790
 9005SOL     OW38647   0.266   4.331   8.345 -0.0556 -0.1208 -0.1231
 9005SOL    HW138648   0.314   4.407   8.378 -0.4860  0.1621 -0.1439
 9005SOL    HW238649   0.312   4.260   8.390 -0.6451 -0.8638 -0.6943
 9006SOL     OW38650   2.480   1.048   7.936 -0.5843  0.1121 -0.2195
 9006SOL    HW138651   2.465   1.143   7.943 -1.3856 -0.0347  0.0481
 9006SOL    HW238652   2.493   1.042   7.842 -0.1366 -0.8508 -0.0944
 9007SOL     OW38653   2.647   1.625  11.711 -0.2132 -0.0378 -0.2759
 9007SOL    HW138654   2.652   1.703  11.656 -2.4905  1.2278  1.3322
 9007SOL    HW238655   2.728   1.585  11.680 -1.7647 -3.6381  0.3344
 9008SOL     OW38656   3.173   4.042  11.026  0.1127  0.2600 -0.2513
 9008SOL    HW138657   3.120   4.048  11.106  1.9624 -1.6937  1.1214
 9008SOL    HW238658   3.243   4.102  11.051 -0.6933  0.8326  0.6529
 9009SOL     OW38659   3.970   4.670   0.753  0.3224  0.1069 -0.4889
 9009SOL    HW138660   4.045   4.667   0.694 -0.6613 -1.9394 -1.6244
 9009SOL    HW238661   3.986   0.010   0.812 -0.2339 -0.7386  0.7265
 9010SOL     OW38662   0.128   2.643   2.137  0.4253 -0.1076 -0.0521
 9010SOL    HW138663   0.107   2.602   2.221  1.0921  0.9113  0.6209
 9010SOL    HW238664   0.126   2.736   2.160  0.9735 -0.3590  1.0224
 9011SOL     OW38665   3.498   0.045   8.903 -0.4342  0.0474  0.5088
 9011SOL    HW138666   3.477   4.686   8.910  0.7097 -0.1900  0.7723
 9011SOL    HW238667   3.508   0.067   8.995 -3.3571 -0.2620  0.8970
 9012SOL     OW38668   2.812   2.660   2.951 -0.1126  0.5514  0.3574
 9012SOL    HW138669   2.800   2.699   2.864  2.5853 -0.8683 -0.6468
 9012SOL    HW238670   2.776   2.734   2.999 -1.3801 -1.2621  2.1933
 9013SOL     OW38671   2.618   4.380   6.187  0.2350  0.1739 -0.4770
 9013SOL    HW138672   2.686   4.368   6.120  2.6054  0.7487  1.8367
 9013SOL    HW238673   2.593   4.471   6.168 -1.7600 -0.7399 -2.2648
 9014SOL     OW38674   3.403   3.379  14.410 -0.3176 -0.0029  0.1764
 9014SOL    HW138675   3.402   3.287  14.436  0.7609 -0.8479 -2.8527
 9014SOL    HW238676   3.434   3.428  14.486  0.4322  0.1071 -0.2024
 9015SOL     OW38677   0.626   4.332   1.965 -0.0023  0.5492 -0.0558
 9015SOL    HW138678   0.637   4.392   2.040 -3.4998  0.8420  0.2367
 9015SOL    HW238679   0.670   4.377   1.893 -0.7206 -1.5431 -1.8016
 9016SOL     OW38680   1.980   0.767   7.296  0.4844  0.3689 -0.7807
 9016SOL    HW138681   1.965   0.757   7.391  0.0998  0.0826 -0.8721
 9016SOL    HW238682   1.931   0.847   7.277 -0.0958  0.0514 -0.6326
 9017SOL     OW38683   3.233   2.041   9.091  0.0482 -0.1229 -0.1442
 9017SOL    HW138684   3.169   1.988   9.043  1.0220 -1.9408  0.5367
 9017SOL    HW238685   3.275   2.078   9.013 -1.3823 -1.5326 -1.5762
 9018SOL     OW38686   0.145   3.491   8.822  0.0571 -0.3623 -0.4590
 9018SOL    HW138687   0.209   3.498   8.751  0.2006  2.1660 -0.0810
 9018SOL    HW238688   0.093   3.413   8.803 -4.2306  2.0676  1.3696
 9019SOL     OW38689   4.082   4.373  10.329  0.0425 -0.4381  0.1613
 9019SOL    HW138690   4.154   4.331  10.376 -1.0343  0.2709  2.4694
 9019SOL    HW238691   4.016   4.303  10.324 -0.5986  0.2957 -1.7896
 9020SOL     OW38692   2.513   0.564   6.163  0.2320 -0.6410 -0.0996
 9020SOL    HW138693   2.496   0.656   6.143  0.6358 -0.7679 -1.0400
 9020SOL    HW238694   2.588   0.584   6.220  1.5221 -3.0151 -0.9364
 9021SOL     OW38695   4.571   1.909   2.793  0.0595 -0.6754 -0.4853
 9021SOL    HW138696   4.566   1.992   2.745  1.0708  0.9586  2.1943
 9021SOL    HW238697   4.598   1.943   2.879 -0.6638 -2.2558  0.3610
 9022SOL     OW38698   4.431   2.795   9.240  0.6189 -0.4854 -0.1042
 9022SOL    HW138699   4.470   2.863   9.185 -0.0198  0.1311  0.2012
 9022SOL    HW238700   4.359   2.768   9.183  0.0089 -0.0319  0.4553
 9023SOL     OW38701   2.256   2.908   5.261  0.4163 -0.1511  0.5189
 9023SOL    HW138702   2.320   2.980   5.252  0.5987 -0.0732  2.5491
 9023SOL    HW238703   2.192   2.947   5.320 -0.2250 -2.5615  1.3927
 9024SOL     OW38704   2.120   4.695  13.823  0.2850  0.0014  0.2869
 9024SOL    HW138705   2.028   4.720  13.821 -0.0082 -1.0577  0.1842
 9024SOL    HW238706   2.122   4.690  13.918  1.1763  1.1260  0.3272
 9025SOL     OW38707   4.269   4.056   5.811  0.1056  0.2971  0.3070
 9025SOL    HW138708   4.264   4.089   5.901 -3.3091 -0.2347  0.2906
 9025SOL    HW238709   4.195   4.100   5.771 -1.2685 -0.6962  1.7548
 9026SOL     OW38710   3.278   2.879  16.610 -0.0970  0.0493  0.2590
 9026SOL    HW138711   3.250   2.881  16.519 -1.5128  0.3224  0.7053
 9026SOL    HW238712   3.309   2.788  16.616  1.4055  0.5033 -0.6214
 9027SOL     OW38713   0.151   1.037   5.447  0.3285  0.4398  0.2063
 9027SOL    HW138714   0.101   0.964   5.485  0.4054  1.0749  1.5205
 9027SOL    HW238715   0.100   1.117   5.458 -0.3153  0.2845 -1.6332
 9028SOL     OW38716   0.159   2.133  16.684  0.3674  0.2719 -0.2675
 9028SOL    HW138717   0.226   2.075  16.720  1.4399  1.9716  0.4980
 9028SOL    HW238718   0.199   2.167  16.604  2.5594 -1.2152  0.1960
 9029SOL     OW38719   3.249   2.752   6.813 -0.2641  0.3549 -0.1883
 9029SOL    HW138720   3.318   2.687   6.797 -1.3382 -0.8471  0.0174
 9029SOL    HW238721   3.277   2.764   6.904 -1.5156 -0.4007  0.2994
 9030SOL     OW38722   0.943   2.563  13.542 -0.2056  0.3847 -0.4046
 9030SOL    HW138723   0.966   2.490  13.600 -1.1400 -0.4070 -1.0199
 9030SOL    HW238724   1.021   2.578  13.489 -0.2240 -3.2604 -1.4384
 9031SOL     OW38725   1.267   2.843  17.005  0.7552  0.3175  0.0686
 9031SOL    HW138726   1.328   2.785  17.050  1.1911  1.7063  1.2515
 9031SOL    HW238727   1.183   2.814  17.042 -0.0526  2.5086 -0.0637
 9032SOL     OW38728   0.997   0.698  16.552  0.1011  0.1818  0.2766
 9032SOL    HW138729   1.078   0.679  16.599  0.6289  0.8527 -0.3427
 9032SOL    HW238730   1.029   0.729  16.467 -1.1938  1.3806  0.2207
 9033SOL     OW38731   4.542   1.402   4.978 -0.0598  0.3624 -0.0061
 9033SOL    HW138732   4.551   1.340   5.051  3.8467 -2.0464 -2.5563
 9033SOL    HW238733   4.453   1.437   4.984  0.1494  1.0496 -0.9071
 9034SOL     OW38734   4.723   2.154   8.132  0.4337  0.7092 -0.3312
 9034SOL    HW138735   4.692   2.158   8.042 -0.4526  2.3009  0.0518
 9034SOL    HW238736   4.654   2.205   8.174  0.6669 -0.0504  0.9819
 9035SOL     OW38737   1.139   2.838  15.321 -0.1955  0.1625 -0.6664
 9035SOL    HW138738   1.118   2.829  15.228 -1.9135 -1.0327 -0.1599
 9035SOL    HW238739   1.187   2.921  15.316  0.3691 -0.2218 -1.4799
 9036SOL     OW38740   1.886   1.789   6.608 -0.8563  0.4174  0.1613
 9036SOL    HW138741   1.979   1.790   6.632 -0.4638 -0.4933 -1.2754
 9036SOL    HW238742   1.852   1.708   6.646  1.7072  0.1798  1.9418
 9037SOL     OW38743   0.938   2.524  14.673  1.0048  0.1743  0.3604
 9037SOL    HW138744   0.938   2.549  14.581 -1.9468 -3.0125 -0.4952
 9037SOL    HW238745   0.941   2.612  14.711 -1.9687  0.7098 -0.7184
 9038SOL     OW38746   1.746   1.092   4.977  0.2216  0.4429 -0.4621
 9038SOL    HW138747   1.682   1.155   4.944  1.6219  1.6810 -0.8236
 9038SOL    HW238748   1.771   1.143   5.054 -0.2584 -0.1472  0.0803
 9039SOL     OW38749   3.178   2.190   3.402  0.3229 -0.5805 -0.1162
 9039SOL    HW138750   3.232   2.189   3.480  0.2624  2.8322 -0.0112
 9039SOL    HW238751   3.248   2.190   3.336  0.3772 -0.9935 -0.0566
 9040SOL     OW38752   2.014   2.355   5.114  0.3682  0.4746  0.1383
 9040SOL    HW138753   2.063   2.353   5.032  2.5790  1.3741  1.4330
 9040SOL    HW238754   1.970   2.270   5.116  0.3354  0.4392 -1.7761
 9041SOL     OW38755   3.060   3.521   0.668  0.7466 -0.4034  0.0263
 9041SOL    HW138756   3.112   3.600   0.670  0.3750 -0.1531 -0.1837
 9041SOL    HW238757   2.984   3.564   0.709  1.6658  0.2687  1.0153
 9042SOL     OW38758   2.635   0.271   5.637  0.1859 -0.7563  0.4967
 9042SOL    HW138759   2.674   0.269   5.724  0.9284 -0.0311  0.1876
 9042SOL    HW238760   2.575   0.346   5.643 -0.6137 -1.5176  2.0970
 9043SOL     OW38761   4.178   2.934  13.705 -0.3581 -0.4458 -0.5038
 9043SOL    HW138762   4.246   2.929  13.637 -0.4696  0.9892 -0.7190
 9043SOL    HW238763   4.116   3.000  13.675  0.4822  1.2104  1.4409
 9044SOL     OW38764   2.194   1.654   4.811  0.5509 -0.0811 -0.0969
 9044SOL    HW138765   2.213   1.699   4.894  1.1295 -0.9424  0.2439
 9044SOL    HW238766   2.145   1.584   4.854  0.1815  1.0715  1.3695
 9045SOL     OW38767   3.932   3.124   4.051 -0.1064  0.0291 -0.2701
 9045SOL    HW138768   3.840   3.106   4.069 -0.5920 -0.2729 -2.9947
 9045SOL    HW238769   3.960   3.168   4.131  2.0365  0.2784 -1.1572
 9046SOL     OW38770   1.745   2.022   3.787  0.7116  0.5147  0.2830
 9046SOL    HW138771   1.709   1.982   3.708  0.4745  0.6374  0.3317
 9046SOL    HW238772   1.793   1.944   3.814  0.8483  0.4190 -0.2278
 9047SOL     OW38773   2.338   4.215  17.209  0.5757  0.1553 -0.5306
 9047SOL    HW138774   2.340   4.270  17.288 -0.7570 -0.5822  0.0192
 9047SOL    HW238775   2.244   4.204  17.195  0.8299 -0.3102 -1.9148
 9048SOL     OW38776   0.639   1.828   3.024 -0.2096  0.5500 -0.2764
 9048SOL    HW138777   0.676   1.915   3.012  0.2307  0.6161  1.4766
 9048SOL    HW238778   0.580   1.813   2.950  1.7074  0.6735 -1.8212
 9049SOL     OW38779   1.516   2.429   8.086 -0.7443  0.0860 -0.2584
 9049SOL    HW138780   1.526   2.353   8.145  0.6639  0.2568 -0.2973
 9049SOL    HW238781   1.430   2.404   8.052 -0.2856 -1.3142 -0.3983
 9050SOL     OW38782   1.128   3.965   8.842 -0.4936 -0.3139 -0.2787
 9050SOL    HW138783   1.184   3.905   8.792  0.5738  1.0710 -0.7448
 9050SOL    HW238784   1.192   3.981   8.911  0.8539 -0.7597 -1.4180
 9051SOL     OW38785   0.618   2.397   9.499  0.4230  0.0590 -0.5916
 9051SOL    HW138786   0.524   2.403   9.518 -0.0073 -0.5539 -2.4559
 9051SOL    HW238787   0.631   2.306   9.524  1.2544  0.3480  0.0077
 9052SOL     OW38788   1.428   1.475  13.136  0.2534 -0.1856  0.0114
 9052SOL    HW138789   1.386   1.440  13.215 -0.7061 -0.1008 -0.4601
 9052SOL    HW238790   1.406   1.568  13.138 -2.5014 -0.8215 -0.6427
 9053SOL     OW38791   2.223   1.073   0.050  0.1933  0.8431 -0.8248
 9053SOL    HW138792   2.292   1.099  17.727 -0.1820 -0.3303 -1.7239
 9053SOL    HW238793   2.268   1.032   0.123  1.2267  0.4608 -1.6823
 9054SOL     OW38794   1.530   2.648   4.436  0.4023  0.4635  0.0761
 9054SOL    HW138795   1.533   2.696   4.354  0.0618 -0.3508 -0.4082
 9054SOL    HW238796   1.484   2.714   4.489 -2.3245 -3.5996  2.7690
 9055SOL     OW38797   4.438   4.564   6.007  0.2770 -0.0529  0.0299
 9055SOL    HW138798   4.424   4.495   5.941  0.0894  1.3243 -1.3752
 9055SOL    HW238799   4.403   4.641   5.963  1.1182  0.0071 -0.5426
 9056SOL     OW38800   3.760   4.483   8.226 -0.1580 -0.4418 -0.3916
 9056SOL    HW138801   3.670   4.514   8.223 -0.2152 -0.4858  0.9104
 9056SOL    HW238802   3.773   4.441   8.311 -0.1366 -0.2487 -0.2983
 9057SOL     OW38803   2.872   3.096   4.808  0.5773  0.0366  0.3226
 9057SOL    HW138804   2.797   3.130   4.759  0.5680  2.1663  1.8001
 9057SOL    HW238805   2.837   3.011   4.836  0.1461  0.1746  0.2032
 9058SOL     OW38806   2.015   0.649   3.896  0.3471 -0.5573 -0.8734
 9058SOL    HW138807   1.926   0.624   3.921  1.2504 -2.7593  0.1420
 9058SOL    HW238808   2.036   0.572   3.843  1.0412 -1.6003  0.9366
 9059SOL     OW38809   1.646   1.351   2.415 -0.4863  0.1456  0.5485
 9059SOL    HW138810   1.662   1.264   2.451 -1.8524  0.1549  1.1738
 9059SOL    HW238811   1.733   1.383   2.390  0.4278 -3.1642 -0.6353
 9060SOL     OW38812   3.628   0.914   5.966 -0.2173 -0.5230 -0.3197
 9060SOL    HW138813   3.637   0.897   5.872 -0.6047 -0.3647 -0.3859
 9060SOL    HW238814   3.541   0.955   5.961  0.1117  0.3189  0.8512
 9061SOL     OW38815   3.069   4.426   5.303 -0.2829 -0.0318  0.7989
 9061SOL    HW138816   3.054   4.428   5.209  1.6956 -2.4132  0.4329
 9061SOL    HW238817   2.990   4.392   5.345 -0.6774 -0.9640 -0.6865
 9062SOL     OW38818   2.528   1.848   3.463  0.0346 -0.0675 -0.6810
 9062SOL    HW138819   2.615   1.816   3.438  1.1498  2.8033 -0.5078
 9062SOL    HW238820   2.543   1.941   3.479 -1.1109 -0.1438  0.8598
 9063SOL     OW38821   2.616   1.702   7.410  0.3271  0.1986 -0.0368
 9063SOL    HW138822   2.677   1.775   7.422 -1.5901  2.0384 -1.4959
 9063SOL    HW238823   2.605   1.682   7.317 -0.9184  1.7823 -0.2302
 9064SOL     OW38824   2.919   0.187   8.865  0.2948  0.3677  0.5879
 9064SOL    HW138825   2.844   0.238   8.895 -0.5030  1.7135 -3.6968
 9064SOL    HW238826   2.866   0.128   8.811  4.1800 -3.0890  0.5401
 9065SOL     OW38827   2.819   4.090   1.683  0.0404  0.2332 -0.3502
 9065SOL    HW138828   2.821   4.097   1.778 -1.4985 -3.6821 -0.0316
 9065SOL    HW238829   2.734   4.047   1.685  0.3600 -0.4423 -0.8986
 9066SOL     OW38830   0.321   4.248   3.887 -0.2769 -0.0665  0.3637
 9066SOL    HW138831   0.255   4.198   3.935 -0.3351 -0.9844 -0.6729
 9066SOL    HW238832   0.313   4.215   3.798 -0.2360 -1.9436  1.0524
 9067SOL     OW38833   2.350   2.942   8.925 -0.3506  0.1543 -0.0299
 9067SOL    HW138834   2.410   2.887   8.875 -2.2460 -0.5784 -1.4998
 9067SOL    HW238835   2.402   2.944   9.005  0.6372  0.8686 -0.7067
 9068SOL     OW38836   1.082   0.965   5.807  0.3824  0.1648  0.1547
 9068SOL    HW138837   1.071   0.946   5.900  2.0586 -0.7519  0.1633
 9068SOL    HW238838   1.037   0.893   5.763  0.5033  1.3109 -1.8381
 9069SOL     OW38839   4.328   2.554   8.193 -0.2057 -0.5646 -0.3198
 9069SOL    HW138840   4.287   2.603   8.265 -0.6133  0.1293 -1.0198
 9069SOL    HW238841   4.361   2.632   8.148 -1.8751 -0.6072 -1.6067
 9070SOL     OW38842   1.400   0.498   8.670 -0.5623 -0.2951  0.1977
 9070SOL    HW138843   1.324   0.471   8.617  2.3060 -1.5700 -3.2737
 9070SOL    HW238844   1.455   0.424   8.646 -0.7661 -0.7715  1.2147
 9071SOL     OW38845   1.986   1.218   2.887 -0.5584  0.4129  0.1212
 9071SOL    HW138846   1.998   1.282   2.957 -0.5089  1.3938 -0.7732
 9071SOL    HW238847   1.903   1.252   2.852 -0.4111 -1.9404 -2.5751
 9072SOL     OW38848   3.725   2.746   1.363  0.3029 -0.4567  0.5534
 9072SOL    HW138849   3.792   2.680   1.345 -0.3327 -0.6134 -1.2100
 9072SOL    HW238850   3.638   2.707   1.371  0.0045  0.0513 -0.1762
 9073SOL     OW38851   1.272   0.547   6.685  0.3554 -0.2313  0.3011
 9073SOL    HW138852   1.236   0.458   6.680 -0.9563  0.1996  2.0719
 9073SOL    HW238853   1.349   0.538   6.627 -0.2440  0.2461 -0.5717
 9074SOL     OW38854   2.973   3.124  15.980 -0.4841  0.3207  0.7237
 9074SOL    HW138855   2.933   3.141  15.894  1.1457  0.2821 -0.0409
 9074SOL    HW238856   2.901   3.081  16.026 -0.4594  0.8212  1.2272
 9075SOL     OW38857   0.857   0.898   9.719 -0.1797 -0.6513 -0.0582
 9075SOL    HW138858   0.763   0.918   9.722 -0.3076 -1.0627 -1.3335
 9075SOL    HW238859   0.855   0.807   9.692  0.6252 -0.6969  0.0272
 9076SOL     OW38860   3.406   3.660  16.498 -0.1652 -0.3053  0.3826
 9076SOL    HW138861   3.423   3.736  16.553 -0.7808 -0.2034  0.4297
 9076SOL    HW238862   3.493   3.621  16.509  0.5665  1.7112  1.6306
 9077SOL     OW38863   4.073   2.029  15.418  0.6277 -0.6217 -0.5372
 9077SOL    HW138864   4.143   1.987  15.468 -1.0325 -1.4092  1.1317
 9077SOL    HW238865   4.105   2.011  15.329 -5.5100 -0.0909 -2.8484
 9078SOL     OW38866   4.159   0.250   5.346  0.1765 -0.7081  0.1162
 9078SOL    HW138867   4.192   0.269   5.258  1.3606 -0.8784  0.5312
 9078SOL    HW238868   4.116   0.328   5.381 -0.5919 -1.1352  0.1323
 9079SOL     OW38869   1.742   4.353  11.587  0.2632  0.6708 -0.2301
 9079SOL    HW138870   1.822   4.355  11.638 -0.6348 -0.2918  1.2174
 9079SOL    HW238871   1.770   4.413  11.518 -0.6298  0.7805 -0.4968
 9080SOL     OW38872   1.983   1.991   3.142  0.5540  0.2130  0.0606
 9080SOL    HW138873   2.003   2.078   3.107 -0.2745  0.0448 -0.8234
 9080SOL    HW238874   2.067   1.952   3.118  0.7113 -0.1366  1.1837
 9081SOL     OW38875   0.350   2.414   4.957  0.4369  0.4000  0.1612
 9081SOL    HW138876   0.400   2.368   4.890  1.1372 -1.0280  1.6638
 9081SOL    HW238877   0.422   2.426   5.020  0.5894  0.1670  0.0310
 9082SOL     OW38878   2.024   1.712   3.079 -0.5272  0.2293  0.1582
 9082SOL    HW138879   2.119   1.701   3.072 -0.8057 -2.0585  0.3020
 9082SOL    HW238880   1.985   1.699   2.993  0.0158 -4.1572  0.6085
 9083SOL     OW38881   3.132   0.820   6.581  0.0922 -0.1629  0.5361
 9083SOL    HW138882   3.187   0.742   6.577 -0.0692 -0.1733 -1.5699
 9083SOL    HW238883   3.056   0.791   6.633 -0.4919  1.0705  0.3728
 9084SOL     OW38884   0.621   3.755   3.341  0.2093  0.0994  0.1442
 9084SOL    HW138885   0.609   3.849   3.353  3.5102  0.4954  0.1875
 9084SOL    HW238886   0.567   3.715   3.409 -1.5705  0.6224 -0.9599
 9085SOL     OW38887   2.910   4.298  11.658  0.0698  0.2001  0.6763
 9085SOL    HW138888   2.983   4.351  11.628 -0.1767  0.0761 -0.1440
 9085SOL    HW238889   2.922   4.304  11.753 -2.9253  3.0225  0.8776
 9086SOL     OW38890   2.484   1.470   7.555 -0.2627 -0.1238  0.3183
 9086SOL    HW138891   2.478   1.542   7.618 -1.6640  0.7053 -0.7876
 9086SOL    HW238892   2.565   1.485   7.506 -0.9788 -2.3100 -1.5315
 9087SOL     OW38893   3.630   3.404   4.500  0.0468  0.1188 -0.1968
 9087SOL    HW138894   3.712   3.411   4.451 -1.1743  0.0472 -2.2703
 9087SOL    HW238895   3.663   3.406   4.590  0.7726 -1.0851 -0.4375
 9088SOL     OW38896   1.396   0.095  13.179 -0.1325  0.5351  0.3410
 9088SOL    HW138897   1.450   0.174  13.177  0.2240  0.2915  0.1594
 9088SOL    HW238898   1.312   0.128  13.148  0.7130  1.5395 -0.8466
 9089SOL     OW38899   2.055   2.449   8.734  0.1145  0.0658 -0.4441
 9089SOL    HW138900   2.075   2.504   8.810  1.2089 -0.0862 -0.6210
 9089SOL    HW238901   2.092   2.517   8.677  1.0224  0.4265  0.5747
 9090SOL     OW38902   3.668   2.061   2.383 -0.3932 -0.1356  0.6455
 9090SOL    HW138903   3.667   1.978   2.336  1.8301  0.7489 -0.9708
 9090SOL    HW238904   3.722   2.119   2.329  1.0053 -1.5439  0.5231
 9091SOL     OW38905   0.442   0.072   0.326 -0.5933 -0.1527 -0.2176
 9091SOL    HW138906   0.370   0.122   0.286 -1.9502  0.8124  3.4565
 9091SOL    HW238907   0.439   0.094   0.419  1.9501 -0.0343 -0.1823
 9092SOL     OW38908   4.555   0.405   8.192  0.0361  0.6407 -0.1153
 9092SOL    HW138909   4.649   0.388   8.191 -0.0685  0.1489 -2.0993
 9092SOL    HW238910   4.536   0.433   8.102  0.5747 -0.5190 -0.5853
 9093SOL     OW38911   4.662   2.942   5.361  0.0475 -0.2195  0.1518
 9093SOL    HW138912   4.604   2.895   5.422 -1.0920  1.1974  0.1756
 9093SOL    HW238913   4.651   3.034   5.385 -0.6501 -0.3197  0.2338
 9094SOL     OW38914   0.198   2.466  11.438 -0.9520  0.2068 -0.3772
 9094SOL    HW138915   0.111   2.461  11.400  0.5256 -0.2212 -3.7344
 9094SOL    HW238916   0.249   2.434  11.364  1.3965  0.3448  1.1551
 9095SOL     OW38917   3.866   1.195   3.356  0.5434 -0.1620 -0.4243
 9095SOL    HW138918   3.781   1.197   3.312 -0.0635 -1.4612  0.6971
 9095SOL    HW238919   3.921   1.173   3.280 -0.6581  0.1004 -1.3585
 9096SOL     OW38920   4.636   0.142   4.443 -0.3465  0.0204 -0.0522
 9096SOL    HW138921   4.550   0.111   4.414 -0.8563 -0.0271  1.4719
 9096SOL    HW238922   4.602   0.224   4.478 -1.2601  0.4425 -1.9510
 9097SOL     OW38923   4.272   1.207  11.169  0.2548 -0.1078 -0.6641
 9097SOL    HW138924   4.263   1.278  11.106  1.4854 -0.6525 -1.4344
 9097SOL    HW238925   4.185   1.210  11.210  1.4160 -0.0739  1.7728
 9098SOL     OW38926   4.180   3.800   8.866  0.0899  0.4368  0.3578
 9098SOL    HW138927   4.166   3.871   8.928  0.7694  1.0174 -0.1502
 9098SOL    HW238928   4.122   3.732   8.901  0.2928 -0.9225 -1.9189
 9099SOL     OW38929   2.656   0.196   4.353 -0.0027  0.2269 -0.3561
 9099SOL    HW138930   2.614   0.184   4.438 -0.3578 -0.4179 -0.6264
 9099SOL    HW238931   2.594   0.143   4.303  0.9820 -1.6044  0.3867
 9100SOL     OW38932   4.017   4.698   4.521 -0.1046 -0.6528  0.2995
 9100SOL    HW138933   4.056   4.677   4.606  0.2269 -0.3315  0.2274
 9100SOL    HW238934   4.013   0.059   4.526 -2.8621 -0.8130  1.0914
 9101SOL     OW38935   2.813   3.962   4.887  0.3149  0.5078  0.6892
 9101SOL    HW138936   2.734   3.919   4.854  0.0481  2.1294 -0.7749
 9101SOL    HW238937   2.869   3.886   4.903 -0.3738 -0.4452 -1.3525
 9102SOL     OW38938   0.293   1.666  15.818  0.3934  0.1328  0.1251
 9102SOL    HW138939   0.258   1.637  15.902 -1.4335 -0.1472 -0.7442
 9102SOL    HW238940   0.236   1.741  15.805  1.3072  0.7937 -0.0571
 9103SOL     OW38941   0.682   4.563   2.138 -0.0911 -0.3069 -0.0598
 9103SOL    HW138942   0.751   4.610   2.092  0.5356 -1.3764 -0.2327
 9103SOL    HW238943   0.711   4.551   2.228  0.8393 -0.8238 -0.4165
 9104SOL     OW38944   1.512   2.694  17.673  0.5840  0.0148  0.5799
 9104SOL    HW138945   1.477   2.748   0.006  1.6673  2.0670 -0.4384
 9104SOL    HW238946   1.435   2.662  17.626  2.0207  0.2804 -1.9728
 9105SOL     OW38947   0.947   2.794   6.188 -0.0989  0.0579  0.4091
 9105SOL    HW138948   1.009   2.865   6.173  0.4310 -0.8895 -1.8697
 9105SOL    HW238949   0.906   2.787   6.102 -1.5027 -2.8759  1.3058
 9106SOL     OW38950   4.451   4.036   0.222  0.1311 -0.0269  0.0896
 9106SOL    HW138951   4.513   4.105   0.201 -1.5208  1.3573 -0.3173
 9106SOL    HW238952   4.460   4.041   0.317 -2.1093  0.0269  0.3145
 9107SOL     OW38953   4.455   4.042   4.573 -0.0403 -0.1541 -0.0362
 9107SOL    HW138954   4.477   4.135   4.563  1.0833 -0.3774  0.3699
 9107SOL    HW238955   4.365   4.054   4.602  0.5282  1.6464  1.0052
 9108SOL     OW38956   3.527   2.902   6.713 -0.1706 -0.1301 -0.1462
 9108SOL    HW138957   3.607   2.852   6.696  1.0598  1.7205  0.2614
 9108SOL    HW238958   3.473   2.879   6.638  1.2294  0.1096 -1.2181
 9109SOL     OW38959   1.451   0.054   4.228 -0.5349 -0.0026  0.2589
 9109SOL    HW138960   1.476   0.067   4.137 -0.3590  0.5530  0.3879
 9109SOL    HW238961   1.390   4.718   4.210 -1.9680  1.4881 -0.7288
 9110SOL     OW38962   2.879   4.259   8.928 -0.7604 -0.3641 -0.2576
 9110SOL    HW138963   2.832   4.337   8.898 -0.9345 -0.1480  0.5765
 9110SOL    HW238964   2.958   4.304   8.958  0.5573 -1.6960 -1.7682
 9111SOL     OW38965   0.014   2.748   4.557 -0.0705  0.3795 -0.1061
 9111SOL    HW138966   4.655   2.756   4.541  0.1891  0.0662 -1.8290
 9111SOL    HW238967   0.024   2.763   4.651  0.4536 -0.3511 -0.0418
 9112SOL     OW38968   0.884   3.376   5.900  0.2256 -0.3219  0.3089
 9112SOL    HW138969   0.892   3.282   5.917  2.0414 -0.0278  1.0435
 9112SOL    HW238970   0.912   3.388   5.810 -1.7853  0.6163 -0.1855
 9113SOL     OW38971   1.735   2.679   6.455 -0.4657 -0.0216 -0.4983
 9113SOL    HW138972   1.731   2.746   6.523 -3.2273 -0.2516 -0.4220
 9113SOL    HW238973   1.743   2.593   6.495  0.3942 -0.8315 -2.3943
 9114SOL     OW38974   3.364   2.528   7.069 -0.4897  0.4491  0.0333
 9114SOL    HW138975   3.403   2.548   6.983 -1.0500 -4.0290 -1.2543
 9114SOL    HW238976   3.338   2.614   7.102  1.2806  1.0328 -0.0584
 9115SOL     OW38977   0.145   2.586   3.820  0.0135  0.7382  0.3844
 9115SOL    HW138978   0.080   2.553   3.758  0.0494 -0.8286  1.1653
 9115SOL    HW238979   0.203   2.638   3.766  1.0207 -0.3272  0.4523
 9116SOL     OW38980   0.185   0.360   4.541 -0.5924 -0.6681 -0.2355
 9116SOL    HW138981   0.208   0.453   4.538  3.7666 -1.7332  0.2427
 9116SOL    HW238982   0.166   0.337   4.450 -1.3008  0.7401 -0.4433
 9117SOL     OW38983   3.186   1.025   1.892 -0.0938  0.3362  0.1123
 9117SOL    HW138984   3.160   1.047   1.982 -1.6839  0.6481 -0.4160
 9117SOL    HW238985   3.153   0.936   1.879  1.0592  0.1613 -1.6098
 9118SOL     OW38986   1.546   3.152   8.095 -0.3165 -0.1947 -0.0251
 9118SOL    HW138987   1.551   3.057   8.085  0.0555  0.1049 -2.6453
 9118SOL    HW238988   1.464   3.180   8.136 -1.2261 -0.5726 -1.6388
 9119SOL     OW38989   1.140   2.117  14.282  0.2276 -0.2192  0.5318
 9119SOL    HW138990   1.212   2.086  14.337 -0.7287  3.3321  3.7548
 9119SOL    HW238991   1.148   2.071  14.198  1.5384  0.6039  0.1958
 9120SOL     OW38992   1.705   3.920   3.310 -0.1705 -0.6610  0.1556
 9120SOL    HW138993   1.633   3.941   3.251 -0.8533 -0.7001  0.9723
 9120SOL    HW238994   1.784   3.936   3.258 -0.4485  1.4364  0.3788
 9121SOL     OW38995   0.079   3.787  17.591  0.0415  0.0891  0.4724
 9121SOL    HW138996   0.071   3.867  17.644  0.9117  0.4684  0.0273
 9121SOL    HW238997   4.727   3.746  17.595 -0.7224  1.3094 -2.8903
 9122SOL     OW38998   3.859   1.921   5.419 -0.5216 -0.7680 -0.0043
 9122SOL    HW138999   3.787   1.918   5.482 -0.4383 -2.1607  0.0285
 9122SOL    HW239000   3.825   1.953   5.336 -0.4349 -0.3993  0.1024
 9123SOL     OW39001   2.161   0.382   1.961 -0.4984 -0.2830  0.0369
 9123SOL    HW139002   2.246   0.411   1.994  0.1484 -1.1680 -0.8722
 9123SOL    HW239003   2.110   0.448   2.009 -0.5384 -0.9817  0.9562
 9124SOL     OW39004   1.547   3.988  17.083  0.8530  0.3913 -1.0306
 9124SOL    HW139005   1.554   4.012  17.176  0.8947 -1.6308 -0.5068
 9124SOL    HW239006   1.551   3.892  17.088 -2.2349  0.3222 -0.0527
 9125SOL     OW39007   1.899   0.468   3.660  0.9541 -0.2748  0.3212
 9125SOL    HW139008   1.944   0.448   3.578 -0.1389  0.2982 -0.4172
 9125SOL    HW239009   1.839   0.533   3.624  0.7677 -1.5473 -1.6819
 9126SOL     OW39010   4.275   2.343   8.888  0.0852 -0.3192 -0.5817
 9126SOL    HW139011   4.263   2.408   8.819 -2.7484  1.6165  1.7240
 9126SOL    HW239012   4.218   2.382   8.953  0.3288 -1.8171  0.5393
 9127SOL     OW39013   0.934   0.923   2.122  0.6097  0.5896  0.3015
 9127SOL    HW139014   0.984   0.872   2.057 -0.7730  1.5072 -1.4867
 9127SOL    HW239015   0.896   0.976   2.052 -0.3151 -0.9168 -0.3269
 9128SOL     OW39016   4.173   4.555   6.195  0.1431 -0.0901  0.6028
 9128SOL    HW139017   4.227   4.633   6.191  2.0386 -1.4693 -0.5998
 9128SOL    HW239018   4.099   4.583   6.249  0.8214 -0.8415  1.9198
 9129SOL     OW39019   3.677   3.484  16.301 -0.4488  0.0202  0.7849
 9129SOL    HW139020   3.722   3.400  16.302  1.7822  1.2036 -0.2753
 9129SOL    HW239021   3.606   3.470  16.239  0.1826 -1.0277  0.3160
 9130SOL     OW39022   0.937   1.020   1.761  0.3001 -0.0406  0.0472
 9130SOL    HW139023   0.888   0.941   1.739 -0.3283  0.1637  0.7520
 9130SOL    HW239024   0.922   1.065   1.678  1.1297  0.5053  0.1931
 9131SOL     OW39025   1.653   1.127   4.172 -0.1831  0.7823 -0.1820
 9131SOL    HW139026   1.572   1.100   4.215  0.7815  0.7444  1.5772
 9131SOL    HW239027   1.630   1.116   4.079 -0.1079  2.6050 -0.4299
 9132SOL     OW39028   0.473   1.776   2.412 -0.3614  0.6168  0.1154
 9132SOL    HW139029   0.509   1.815   2.333 -0.8378  2.5880  0.8437
 9132SOL    HW239030   0.546   1.716   2.422 -1.3320 -0.5590  0.0627
 9133SOL     OW39031   2.508   1.929  11.723  0.5409 -0.5731  0.1253
 9133SOL    HW139032   2.517   1.908  11.630  1.6379  2.4693 -0.4470
 9133SOL    HW239033   2.419   1.965  11.724  0.8660  0.2400 -0.0087
 9134SOL     OW39034   2.346   2.221   2.930  0.0310 -0.5728  0.1620
 9134SOL    HW139035   2.438   2.243   2.913  0.6208 -1.9414  1.5316
 9134SOL    HW239036   2.298   2.304   2.926  0.9401 -0.0986 -0.8576
 9135SOL     OW39037   1.808   1.745   4.804  0.7213 -0.1966 -0.1716
 9135SOL    HW139038   1.839   1.744   4.894 -0.2827  2.8720  0.2321
 9135SOL    HW239039   1.860   1.675   4.765  0.8471 -1.0553  1.5566
 9136SOL     OW39040   0.282   0.139   2.738 -0.3507 -0.0106  0.2013
 9136SOL    HW139041   0.312   0.230   2.733  2.4207 -1.0513 -1.7648
 9136SOL    HW239042   0.361   0.091   2.716 -0.5204  0.2859 -1.0381
 9137SOL     OW39043   1.972   2.421   7.485  0.3094 -0.0214 -0.3737
 9137SOL    HW139044   1.947   2.473   7.561 -0.0979  1.5020 -1.5531
 9137SOL    HW239045   1.930   2.477   7.419  2.2090 -0.3212 -1.8620
 9138SOL     OW39046   1.060   2.940   3.247  0.1359 -0.1332 -0.1171
 9138SOL    HW139047   0.969   2.918   3.268  0.0231  1.2343  0.8938
 9138SOL    HW239048   1.086   2.860   3.203  0.5452 -0.9218  1.5374
 9139SOL     OW39049   2.588   0.753  15.305 -0.0961  0.1368  0.2373
 9139SOL    HW139050   2.543   0.817  15.250  0.3598  2.5311  2.6415
 9139SOL    HW239051   2.548   0.768  15.390 -0.9879 -0.6546 -0.0374
 9140SOL     OW39052   2.690   2.373   3.906 -0.0871 -0.1729  0.2975
 9140SOL    HW139053   2.785   2.373   3.906 -0.0685  2.8723  1.8529
 9140SOL    HW239054   2.675   2.461   3.941  0.1565  0.5632 -1.4886
 9141SOL     OW39055   2.969   3.176  12.871  0.3226  0.1586 -0.0822
 9141SOL    HW139056   2.897   3.226  12.832 -0.6809 -1.0293  0.2505
 9141SOL    HW239057   3.032   3.194  12.801  0.2900  0.6543  0.0148
 9142SOL     OW39058   3.405   2.279  13.025  0.3121 -0.0756 -0.0120
 9142SOL    HW139059   3.390   2.346  12.959 -1.2266 -0.0523  0.3605
 9142SOL    HW239060   3.437   2.330  13.099 -2.7207  1.6793  0.0660
 9143SOL     OW39061   0.117   0.914   2.411  0.6854  0.4686  0.5161
 9143SOL    HW139062   0.206   0.884   2.432  0.3571 -0.5313  0.4965
 9143SOL    HW239063   0.062   0.837   2.423 -1.3709  1.7080 -1.1278
 9144SOL     OW39064   4.438   2.480   6.858 -0.8925  0.3311  0.5550
 9144SOL    HW139065   4.456   2.402   6.806 -1.0890 -0.6619  1.9751
 9144SOL    HW239066   4.382   2.442   6.926  0.8915 -1.1583  1.2034
 9145SOL     OW39067   4.517   2.851   2.719  0.1910 -0.2157 -0.3186
 9145SOL    HW139068   4.522   2.783   2.652 -1.9616 -0.1931 -0.4881
 9145SOL    HW239069   4.610   2.876   2.713 -0.0425  0.2681 -2.0243
 9146SOL     OW39070   3.506   3.175   9.716  0.0256  0.4232 -0.4605
 9146SOL    HW139071   3.514   3.225   9.796  0.0072 -0.2463 -0.0363
 9146SOL    HW239072   3.592   3.133   9.709  0.1806  0.4814  1.1963
 9147SOL     OW39073   0.470   3.988   2.509 -0.9280 -0.2903 -0.2941
 9147SOL    HW139074   0.406   3.965   2.576  0.5651 -1.3021  0.8121
 9147SOL    HW239075   0.550   3.947   2.543 -1.8075  0.8284  3.1370
 9148SOL     OW39076   3.840   3.867  12.623 -0.5875  0.2820 -0.0012
 9148SOL    HW139077   3.844   3.773  12.605  1.9837  0.2398  0.8553
 9148SOL    HW239078   3.865   3.906  12.539  0.4893 -1.2347 -0.3732
 9149SOL     OW39079   0.453   4.468   5.706 -0.8165  0.0686 -0.4219
 9149SOL    HW139080   0.459   4.441   5.797 -0.3377  0.6678 -0.2757
 9149SOL    HW239081   0.524   4.414   5.672  0.3004  1.2180  0.0927
 9150SOL     OW39082   1.679   2.464   9.960 -0.1529  0.4047 -0.1559
 9150SOL    HW139083   1.605   2.438   9.905  1.6020 -0.7477 -1.9603
 9150SOL    HW239084   1.682   2.559   9.954  3.5561  0.4095  1.7775
 9151SOL     OW39085   2.246   4.600   7.191  0.1105 -0.2233  0.2475
 9151SOL    HW139086   2.295   4.661   7.246 -0.3014  0.5888 -0.2876
 9151SOL    HW239087   2.192   4.664   7.145 -1.6958 -0.3602  2.1783
 9152SOL     OW39088   0.980   2.239  10.257  0.5793 -0.0830  0.3872
 9152SOL    HW139089   0.939   2.154  10.272  0.1490  0.1829  0.7031
 9152SOL    HW239090   0.988   2.232  10.162  0.1229  0.5949  0.2969
 9153SOL     OW39091   0.966   0.801   7.300 -0.2932  0.4205 -0.1312
 9153SOL    HW139092   1.014   0.836   7.375 -0.7882  0.4401  0.1823
 9153SOL    HW239093   0.954   0.883   7.252 -0.5753  0.5905  0.2287
 9154SOL     OW39094   3.953   1.947   4.836 -0.0795 -0.3408 -0.3073
 9154SOL    HW139095   3.866   1.955   4.797 -1.0084  0.7217  1.9813
 9154SOL    HW239096   4.007   2.008   4.785 -0.7602 -0.3536 -1.0543
 9155SOL     OW39097   2.462   0.541   5.725  0.4920  0.0086 -0.2116
 9155SOL    HW139098   2.519   0.536   5.802 -1.7871 -0.2739  1.4589
 9155SOL    HW239099   2.375   0.519   5.759  0.0283  0.8123 -0.9057
 9156SOL     OW39100   2.336   3.503   7.408  0.1343 -0.1669 -0.2945
 9156SOL    HW139101   2.410   3.563   7.414  1.5788 -1.8552 -1.3976
 9156SOL    HW239102   2.269   3.566   7.380  0.5772  0.7642  0.7275
 9157SOL     OW39103   4.648   2.781  11.286 -0.2707  0.7318 -0.0465
 9157SOL    HW139104   4.651   2.877  11.285 -1.0213  0.7414 -1.3012
 9157SOL    HW239105   4.675   2.754  11.374 -0.5031 -2.0209 -0.8341
 9158SOL     OW39106   3.523   3.317  12.676 -0.2152  0.4057 -0.3242
 9158SOL    HW139107   3.559   3.233  12.703 -1.4915  0.5524  1.8209
 9158SOL    HW239108   3.485   3.298  12.590 -2.4985  2.6385  0.1867
 9159SOL     OW39109   0.760   3.885   1.782  0.2147  0.0085 -0.4880
 9159SOL    HW139110   0.670   3.867   1.810  0.6532 -2.2108 -0.4771
 9159SOL    HW239111   0.764   3.975   1.814 -0.4459  0.0380 -0.4949
 9160SOL     OW39112   3.318   3.105   1.837 -0.1894 -0.2890 -0.1792
 9160SOL    HW139113   3.322   3.167   1.763 -2.1760  0.6316  0.4932
 9160SOL    HW239114   3.327   3.021   1.793  1.5955  0.1643 -0.6684
 9161SOL     OW39115   0.689   1.635   8.256 -0.1029  0.0128  0.0601
 9161SOL    HW139116   0.637   1.607   8.180 -1.3585  0.1954  0.8406
 9161SOL    HW239117   0.771   1.587   8.254  0.0881  0.4866 -2.6081
 9162SOL     OW39118   1.250   3.457   5.062  0.1378  0.5557  0.4478
 9162SOL    HW139119   1.197   3.507   5.125 -1.7870 -1.7780  0.6794
 9162SOL    HW239120   1.257   3.376   5.112  2.1173 -1.7879 -3.6660
 9163SOL     OW39121   0.139   0.258  17.684 -0.0016  0.5268 -0.2989
 9163SOL    HW139122   0.133   0.258  17.589 -0.1077  0.3733 -0.2931
 9163SOL    HW239123   0.073   0.321  17.715 -0.1336  1.0586 -1.6722
 9164SOL     OW39124   0.742   3.412  16.847 -0.0873  0.5254  0.3618
 9164SOL    HW139125   0.827   3.455  16.861  0.0818  0.2228  0.2673
 9164SOL    HW239126   0.696   3.457  16.918 -1.4504  0.7299 -0.6610
 9165SOL     OW39127   4.396   3.046   2.926 -0.7201  0.3013  0.4679
 9165SOL    HW139128   4.414   2.955   2.902 -2.3868 -0.2375  1.2877
 9165SOL    HW239129   4.487   3.073   2.920 -0.6249  0.3180  2.1755
 9166SOL     OW39130   0.741   0.824   1.788  0.6053 -0.6014  0.0929
 9166SOL    HW139131   0.728   0.750   1.848  3.2105 -1.6350 -0.5890
 9166SOL    HW239132   0.722   0.782   1.704 -1.0843  1.0142 -0.3248
 9167SOL     OW39133   2.450   0.802   0.254  0.2323  0.2850 -0.9031
 9167SOL    HW139134   2.416   0.718   0.285 -1.3476  1.8792  1.6955
 9167SOL    HW239135   2.404   0.870   0.303  0.5696 -0.5323  0.5709
 9168SOL     OW39136   1.758   2.031  15.584  0.3632 -0.1561 -0.9643
 9168SOL    HW139137   1.747   1.974  15.508  0.6402 -1.6600  0.1270
 9168SOL    HW239138   1.801   1.977  15.650 -0.0494  1.2373  0.4266
 9169SOL     OW39139   0.467   0.392   1.532 -0.2680 -0.1722  0.6865
 9169SOL    HW139140   0.372   0.384   1.524 -0.1552 -0.8214 -0.0392
 9169SOL    HW239141   0.466   0.400   1.628 -0.4709  2.1328  0.4955
 9170SOL     OW39142   1.585   2.172  16.760 -0.3363 -0.0552 -0.1166
 9170SOL    HW139143   1.643   2.145  16.689 -2.1297 -1.1525 -1.1777
 9170SOL    HW239144   1.606   2.106  16.825  3.4270  0.9787 -0.2923
 9171SOL     OW39145   1.494   4.027   5.087 -0.3838  0.7842  0.5112
 9171SOL    HW139146   1.476   4.090   5.017  1.6905  0.5982 -0.2118
 9171SOL    HW239147   1.574   4.062   5.128 -1.3252  3.9369 -0.3283
 9172SOL     OW39148   1.957   4.490   8.259 -0.0602  0.3543 -0.0579
 9172SOL    HW139149   1.913   4.505   8.176  0.8526 -1.0319 -0.7924
 9172SOL    HW239150   1.974   4.581   8.285  0.2063  0.4563 -0.5899
 9173SOL     OW39151   0.977   1.250   3.626 -0.4953 -0.6768  0.4059
 9173SOL    HW139152   0.915   1.179   3.643  0.0292 -1.3693 -0.5734
 9173SOL    HW239153   0.920   1.326   3.615  1.3165  0.6484  0.0480
 9174SOL     OW39154   0.983   0.399   5.144 -0.0651 -0.0195 -0.3752
 9174SOL    HW139155   1.066   0.422   5.185  0.0791 -1.5488  0.1663
 9174SOL    HW239156   0.937   0.483   5.152  0.6682  0.3172  0.2665
 9175SOL     OW39157   1.363   0.798   4.777  0.4073 -0.0181  0.0604
 9175SOL    HW139158   1.297   0.790   4.845  1.2514 -4.5285  0.3793
 9175SOL    HW239159   1.301   0.805   4.704 -0.2434  1.7568  0.7979
 9176SOL     OW39160   2.574   2.382  17.388  0.4286  0.0765  0.0642
 9176SOL    HW139161   2.505   2.448  17.379  1.1806  0.9327  0.4834
 9176SOL    HW239162   2.610   2.377  17.299 -0.1256 -1.3907 -0.0803
 9177SOL     OW39163   3.906   3.682   3.960 -0.5921  0.2596 -0.4615
 9177SOL    HW139164   3.926   3.591   3.985  3.3102 -0.0657 -4.9472
 9177SOL    HW239165   3.829   3.672   3.904 -1.2437  3.4786 -0.1058
 9178SOL     OW39166   4.497   2.096   7.028  0.3755 -0.2716 -0.0900
 9178SOL    HW139167   4.517   2.167   6.967  0.9954  1.7740  2.5126
 9178SOL    HW239168   4.440   2.141   7.089 -0.2839 -0.1136 -0.8192
 9179SOL     OW39169   3.223   4.108   7.434 -0.2478  0.1337 -0.3676
 9179SOL    HW139170   3.141   4.151   7.412 -0.4564  0.1282  0.4119
 9179SOL    HW239171   3.191   4.038   7.490  0.8779  0.1594  0.3136
 9180SOL     OW39172   2.141   4.390   7.528 -0.1023 -0.5717 -0.1265
 9180SOL    HW139173   2.210   4.378   7.463 -0.1841 -2.2004  0.0810
 9180SOL    HW239174   2.071   4.416   7.468  0.0929  0.3823  0.0614
 9181SOL     OW39175   3.165   2.149   2.488  0.5619 -0.3062 -0.2147
 9181SOL    HW139176   3.084   2.109   2.519  0.3244 -0.5371 -1.1423
 9181SOL    HW239177   3.231   2.133   2.556 -3.1660 -1.8186  3.0321
 9182SOL     OW39178   0.311   2.410  17.492  0.4226 -0.3466  0.5010
 9182SOL    HW139179   0.361   2.436  17.569 -1.2988  0.1183  1.4689
 9182SOL    HW239180   0.220   2.420  17.521 -0.1939 -1.9091 -0.8692
 9183SOL     OW39181   0.928   3.160   5.184 -0.8003  0.3108  0.0638
 9183SOL    HW139182   0.868   3.100   5.141  0.5335 -0.0999 -1.2475
 9183SOL    HW239183   0.984   3.185   5.110 -0.1692  0.1830  0.4943
 9184SOL     OW39184   4.288   4.605   8.203  0.0001  0.3884  0.1878
 9184SOL    HW139185   4.200   4.571   8.190  0.7162 -0.8795 -1.2990
 9184SOL    HW239186   4.307   4.545   8.275 -3.9415  1.2590  1.9586
 9185SOL     OW39187   0.142   0.176   5.855 -0.9620  0.0772  0.3729
 9185SOL    HW139188   0.176   0.115   5.790 -3.8627  0.5479 -1.5683
 9185SOL    HW239189   0.221   0.191   5.907 -0.5930  2.9486 -1.0418
 9186SOL     OW39190   0.609   4.321   5.283  0.0511 -0.7049 -0.2612
 9186SOL    HW139191   0.628   4.247   5.226  0.2515 -1.2095  0.4532
 9186SOL    HW239192   0.690   4.320   5.334 -1.0412 -0.2880  1.4890
 9187SOL     OW39193   2.598   0.444  16.155  0.0504  0.0137  0.2154
 9187SOL    HW139194   2.553   0.385  16.216 -0.4734 -1.2362 -1.3920
 9187SOL    HW239195   2.629   0.383  16.088 -1.0248 -0.9517  0.6030
 9188SOL     OW39196   0.117   0.277   3.287 -0.0066  0.4573 -0.4252
 9188SOL    HW139197   0.131   0.287   3.193  0.6573 -0.3003 -0.4117
 9188SOL    HW239198   0.171   0.346   3.324  0.2862  0.2161 -0.3974
 9189SOL     OW39199   2.089   0.265   5.878 -0.0909  0.3168 -0.1235
 9189SOL    HW139200   2.143   0.293   5.804 -0.4402  3.1591  0.6941
 9189SOL    HW239201   2.015   0.325   5.869 -0.1754  0.0948 -0.8897
 9190SOL     OW39202   0.503   2.979  17.124 -0.4264  0.5287 -0.3109
 9190SOL    HW139203   0.408   2.969  17.113  0.0736  0.0857 -4.1885
 9190SOL    HW239204   0.534   2.918  17.057  0.6995  3.6761 -2.6603
 9191SOL     OW39205   2.540   3.643   6.453  0.8210  0.7630 -0.2539
 9191SOL    HW139206   2.580   3.559   6.476  2.3855  1.9823  1.4179
 9191SOL    HW239207   2.615   3.691   6.420  1.1755 -0.1057 -0.7104
 9192SOL     OW39208   1.776   0.396   4.764 -0.0375 -0.1848 -0.5934
 9192SOL    HW139209   1.859   0.439   4.782  0.7946 -0.9205 -2.8057
 9192SOL    HW239210   1.773   0.421   4.672  0.1225 -0.8415 -0.7836
 9193SOL     OW39211   0.041   2.496  17.549  0.6001  0.1270 -0.0140
 9193SOL    HW139212   4.699   2.498  17.606 -0.7434 -0.4905 -1.8060
 9193SOL    HW239213   0.008   2.509  17.460 -0.3491  0.1627  0.3555
 9194SOL     OW39214   1.338   3.116  16.975  0.4239 -0.0372  0.1402
 9194SOL    HW139215   1.307   3.029  16.999 -1.6812  0.6823  0.1066
 9194SOL    HW239216   1.352   3.107  16.881 -0.5863 -2.0978  0.1876
 9195SOL     OW39217   4.650   3.160   3.990  0.0046 -0.4167 -0.2964
 9195SOL    HW139218   4.645   3.089   4.055 -0.3446 -0.2494 -0.1446
 9195SOL    HW239219   0.010   3.157   3.973 -0.1308 -0.2841 -1.0784
 9196SOL     OW39220   4.342   4.681   7.924 -0.2832  0.0765 -0.4662
 9196SOL    HW139221   4.334   0.028   7.973  2.6253  0.6368 -0.9231
 9196SOL    HW239222   4.350   4.620   7.998  0.6842 -0.9969 -1.4628
 9197SOL     OW39223   2.667   1.550   5.825 -0.1042  0.4905  0.0255
 9197SOL    HW139224   2.615   1.631   5.821 -1.0049 -0.0705  0.2818
 9197SOL    HW239225   2.705   1.567   5.739 -2.9024 -0.3553 -1.3796
 9198SOL     OW39226   4.235   2.454   6.150  0.0763  0.4075  0.0168
 9198SOL    HW139227   4.253   2.377   6.203  0.4496  0.6305  0.2152
 9198SOL    HW239228   4.140   2.465   6.159 -0.0209 -0.3179 -0.1215
 9199SOL     OW39229   2.234   1.151   2.781  0.0282  0.7216  0.3704
 9199SOL    HW139230   2.244   1.203   2.702 -2.4384  1.2978  0.4244
 9199SOL    HW239231   2.154   1.185   2.822 -1.7594  0.4478 -2.9013
 9200SOL     OW39232   3.769   0.377   8.352 -0.0017  0.2263 -0.4057
 9200SOL    HW139233   3.830   0.397   8.422 -1.6470 -0.3445  1.2031
 9200SOL    HW239234   3.719   0.459   8.350 -1.7664 -0.8073  0.5301
 9201SOL     OW39235   0.708   4.594   7.815 -0.4705  0.7213  0.0495
 9201SOL    HW139236   0.788   4.602   7.866  1.0913 -0.4329 -2.2227
 9201SOL    HW239237   0.736   4.611   7.726 -0.7641  2.3856  0.2707
 9202SOL     OW39238   1.054   3.324   3.496 -0.1754 -0.3436  0.3991
 9202SOL    HW139239   1.081   3.232   3.501 -1.0933 -0.6557 -0.5029
 9202SOL    HW239240   1.085   3.325   3.405  0.4035  1.0316  0.6067
 9203SOL     OW39241   0.251   1.474   4.698 -0.6817  0.1892 -0.2302
 9203SOL    HW139242   0.225   1.486   4.607  1.4359 -0.6236 -0.9648
 9203SOL    HW239243   0.169   1.440   4.733 -0.2791 -0.4468  0.0887
 9204SOL     OW39244   1.170   1.637   9.079 -0.2213 -0.3501 -0.2058
 9204SOL    HW139245   1.192   1.568   9.017  1.1680 -0.0909  0.0012
 9204SOL    HW239246   1.079   1.661   9.059 -1.1871 -2.9559  1.0281
 9205SOL     OW39247   0.608   1.738   7.013  0.4796 -0.2909 -0.3778
 9205SOL    HW139248   0.700   1.742   6.987  0.6761  0.4775  0.4475
 9205SOL    HW239249   0.596   1.646   6.989  2.7180 -1.0617  1.5083
 9206SOL     OW39250   2.757   4.515   5.070 -0.1508  0.2670  0.1399
 9206SOL    HW139251   2.753   4.610   5.072 -0.7075  0.1942  2.4324
 9206SOL    HW239252   2.750   4.506   5.165  1.8336  1.7422  0.4114
 9207SOL     OW39253   4.115   2.324   4.499 -0.1975 -0.4899 -0.1618
 9207SOL    HW139254   4.161   2.320   4.415  0.0260 -0.3438 -0.0448
 9207SOL    HW239255   4.050   2.393   4.481  0.6636  0.3291 -0.1496
 9208SOL     OW39256   0.595   3.697   6.934  0.0963  0.0042  0.1409
 9208SOL    HW139257   0.594   3.732   7.023 -1.8543  3.4277 -1.2662
 9208SOL    HW239258   0.667   3.749   6.898  0.0571  0.1650  0.2969
 9209SOL     OW39259   3.988   3.189   8.086 -0.4041  0.3650  0.5132
 9209SOL    HW139260   3.987   3.285   8.088  0.3076  0.4043 -1.0385
 9209SOL    HW239261   3.894   3.180   8.073  0.1292 -2.9053 -1.0341
 9210SOL     OW39262   3.202   3.824  16.841  0.3514  0.0197  0.1354
 9210SOL    HW139263   3.205   3.755  16.776  1.3821 -0.4724  0.6998
 9210SOL    HW239264   3.143   3.880  16.790 -0.7572 -1.3251 -0.0336
 9211SOL     OW39265   3.876   3.310   2.823  0.1026 -0.5095  0.3176
 9211SOL    HW139266   3.944   3.286   2.886 -1.1692 -0.7700  1.5819
 9211SOL    HW239267   3.893   3.246   2.754  0.8539  0.0123  0.0149
 9212SOL     OW39268   2.169   1.210   9.008  0.0105 -0.0636 -0.4007
 9212SOL    HW139269   2.231   1.144   9.038 -0.8848  0.1309  1.8598
 9212SOL    HW239270   2.167   1.217   8.912  0.2718  0.9690 -0.3337
 9213SOL     OW39271   2.948   3.898   3.746 -0.0215  0.8574  0.1163
 9213SOL    HW139272   2.969   3.946   3.666  0.6736  0.2510 -0.0708
 9213SOL    HW239273   2.898   3.957   3.803 -1.5886 -0.4771  0.1327
 9214SOL     OW39274   0.810   3.499   8.953  0.0143 -0.0964  0.1450
 9214SOL    HW139275   0.769   3.490   8.867 -0.4531 -0.7900  0.4388
 9214SOL    HW239276   0.816   3.594   8.952 -0.5399 -0.0574  0.3382
 9215SOL     OW39277   1.240   3.730   3.677  0.0706  0.0606 -0.5096
 9215SOL    HW139278   1.298   3.747   3.602 -0.7884 -0.8143 -1.3686
 9215SOL    HW239279   1.245   3.811   3.728 -2.5289 -1.2581  1.8198
 9216SOL     OW39280   2.308   1.234   9.960  0.3840  0.9547  0.4428
 9216SOL    HW139281   2.272   1.316   9.927  0.2190  1.5717  2.1766
 9216SOL    HW239282   2.250   1.159   9.943  0.8379  0.9604 -1.1525
 9217SOL     OW39283   2.949   3.361   4.765 -0.3276 -0.3804  0.1897
 9217SOL    HW139284   2.945   3.275   4.806 -0.0601 -0.4263  0.1172
 9217SOL    HW239285   3.042   3.378   4.777 -0.2844 -0.0957 -0.5512
 9218SOL     OW39286   0.032   3.118   7.711 -0.0813 -0.2452 -0.7850
 9218SOL    HW139287   4.675   3.099   7.728 -0.5518  1.3696 -1.5568
 9218SOL    HW239288   0.027   3.213   7.701 -0.5205 -0.2793 -0.8850
 9219SOL     OW39289   2.464   1.679  11.903 -0.6878 -0.2476 -0.2509
 9219SOL    HW139290   2.521   1.653  11.831  0.2284  1.3686 -0.1230
 9219SOL    HW239291   2.428   1.761  11.868 -0.8593 -1.2551 -2.3869
 9220SOL     OW39292   1.128   3.573  15.451  0.3687  0.6486  0.8864
 9220SOL    HW139293   1.150   3.626  15.528  0.7537  0.6886  0.7517
 9220SOL    HW239294   1.043   3.537  15.478  0.1655  0.2874 -0.2607
 9221SOL     OW39295   1.372   2.943   7.428 -0.1165  0.2031 -0.1639
 9221SOL    HW139296   1.300   2.995   7.463 -0.3964  1.5788 -2.8000
 9221SOL    HW239297   1.396   3.007   7.361  1.1124 -0.4579 -0.3691
 9222SOL     OW39298   3.251   3.785  14.168 -0.3711  0.2593  0.5041
 9222SOL    HW139299   3.315   3.803  14.099 -0.1689 -1.7185  0.1932
 9222SOL    HW239300   3.243   3.691  14.151  1.2615  0.7939 -3.1094
 9223SOL     OW39301   2.521   1.404   3.699 -0.2007  0.5078 -0.0930
 9223SOL    HW139302   2.511   1.352   3.620  0.9732 -0.1468  0.1946
 9223SOL    HW239303   2.576   1.476   3.669  1.4883 -1.0142 -0.6549
 9224SOL     OW39304   3.955   4.064   7.254 -0.1454 -0.0688 -0.3670
 9224SOL    HW139305   3.946   4.140   7.311  1.1986 -0.3924  0.2875
 9224SOL    HW239306   3.909   4.001   7.309 -2.5124  0.6259 -1.5546
 9225SOL     OW39307   0.684   3.771   7.799 -0.0379 -0.6506 -0.3458
 9225SOL    HW139308   0.720   3.739   7.716  0.0037 -2.0056  0.1932
 9225SOL    HW239309   0.613   3.828   7.769 -0.6943 -1.2632  0.0557
 9226SOL     OW39310   4.207   0.969   4.662 -0.4554 -0.3613 -0.0462
 9226SOL    HW139311   4.159   0.923   4.593  0.8954 -0.8325 -0.6742
 9226SOL    HW239312   4.157   1.049   4.678 -0.8752 -0.5753 -0.2913
 9227SOL     OW39313   4.605   2.176   2.626 -0.1667  0.6298  0.0332
 9227SOL    HW139314   4.690   2.153   2.588  0.4740  1.9293  0.6811
 9227SOL    HW239315   4.615   2.267   2.655 -0.0396 -0.1493  2.4445
 9228SOL     OW39316   3.689   2.685   9.046 -0.1221  0.1010  0.1178
 9228SOL    HW139317   3.752   2.756   9.057  0.8603 -1.1644  2.6767
 9228SOL    HW239318   3.742   2.622   8.997 -0.0816  0.5510 -0.4209
 9229SOL     OW39319   3.048   2.780   6.628  0.0765  0.1356  0.5941
 9229SOL    HW139320   2.996   2.851   6.665 -0.9507  0.0853 -0.7576
 9229SOL    HW239321   3.107   2.760   6.701  0.4118  1.8898  0.8003
 9230SOL     OW39322   1.268   3.677   6.114 -0.2717  0.5737 -0.2801
 9230SOL    HW139323   1.261   3.698   6.207  0.3486  0.6682 -0.2520
 9230SOL    HW239324   1.267   3.581   6.120 -0.0988  0.5719 -0.2752
 9231SOL     OW39325   3.704   2.206   9.992 -0.5691  0.1801  0.7526
 9231SOL    HW139326   3.797   2.222  10.005 -0.0651 -0.0418 -2.6032
 9231SOL    HW239327   3.672   2.296   9.984 -0.6078  0.0789 -0.1411
 9232SOL     OW39328   0.959   0.402   5.693  0.1714  0.4962  0.0027
 9232SOL    HW139329   0.962   0.312   5.728  0.1264 -1.2620 -4.4940
 9232SOL    HW239330   1.022   0.399   5.621  0.7368  0.3154  0.5000
 9233SOL     OW39331   3.590   2.627  12.348 -0.0345  0.1695 -0.2725
 9233SOL    HW139332   3.638   2.563  12.401 -0.4308  1.8163  2.0605
 9233SOL    HW239333   3.613   2.608  12.257  0.9138 -1.5366  0.3239
 9234SOL     OW39334   3.642   4.262   9.557  0.2983  0.2579 -0.5423
 9234SOL    HW139335   3.723   4.212   9.563  1.2145  1.6511 -1.2766
 9234SOL    HW239336   3.596   4.251   9.641  1.4698  0.4192  0.1281
 9235SOL     OW39337   0.385   3.015   4.471  0.4762 -0.1469  0.5338
 9235SOL    HW139338   0.431   2.996   4.553 -0.1050 -1.0753  0.6380
 9235SOL    HW239339   0.334   2.934   4.470  0.5675 -0.2157  1.1299
 9236SOL     OW39340   0.608   1.297   9.019  0.2417  0.2895  0.3055
 9236SOL    HW139341   0.537   1.356   9.046 -0.3873 -1.0106  1.4443
 9236SOL    HW239342   0.562   1.215   9.003 -1.9553  0.8987  3.3314
 9237SOL     OW39343   3.847   4.385   0.474  0.2814 -0.0175 -0.3419
 9237SOL    HW139344   3.824   4.389   0.382 -0.5429 -1.1117 -0.1806
 9237SOL    HW239345   3.876   4.294   0.471 -1.8820 -0.6868 -0.8804
 9238SOL     OW39346   0.912   1.482   8.441  0.4536 -0.0658 -0.0604
 9238SOL    HW139347   0.864   1.537   8.503  0.6539 -0.3475  0.3458
 9238SOL    HW239348   0.848   1.463   8.372  1.1658  1.1420 -1.0601
 9239SOL     OW39349   4.564   1.647   3.141  0.0508  0.2189 -0.8350
 9239SOL    HW139350   4.513   1.694   3.075  0.8770  0.5601 -1.2369
 9239SOL    HW239351   4.620   1.595   3.083  0.7397 -0.4485  0.4498
 9240SOL     OW39352   3.540   3.540   9.748 -0.3123 -0.4147  0.5191
 9240SOL    HW139353   3.560   3.616   9.803 -2.6158  0.2094  0.4896
 9240SOL    HW239354   3.552   3.477   9.819 -0.4665  0.6253  1.4754
 9241SOL     OW39355   2.119   2.865   3.222 -0.4954  0.3258 -0.1798
 9241SOL    HW139356   2.133   2.882   3.315  0.3394  0.4294 -0.3216
 9241SOL    HW239357   2.182   2.796   3.199  0.3478  0.9724  0.2022
 9242SOL     OW39358   2.090   1.857  13.302 -0.5556 -0.2607  0.3253
 9242SOL    HW139359   2.182   1.833  13.294 -0.5352 -0.3795  0.8923
 9242SOL    HW239360   2.060   1.848  13.211  0.8504 -1.0313 -0.0640
 9243SOL     OW39361   4.191   3.191   8.777 -0.0818 -0.4150 -0.0564
 9243SOL    HW139362   4.115   3.135   8.792 -1.3746  1.2107 -0.6499
 9243SOL    HW239363   4.139   3.261   8.738 -0.2471  1.6513  3.9328
 9244SOL     OW39364   3.045   0.613   8.094 -0.1614 -0.2453 -0.3125
 9244SOL    HW139365   3.041   0.535   8.039  0.2624 -0.1771 -0.4427
 9244SOL    HW239366   2.996   0.589   8.173  0.5791 -0.4242  0.0909
 9245SOL     OW39367   0.342   1.017   1.002  0.1075 -0.0229  0.3150
 9245SOL    HW139368   0.330   0.966   0.922 -2.7282 -0.2205  0.8433
 9245SOL    HW239369   0.429   1.054   0.990 -1.1519  3.3988  1.5466
 9246SOL     OW39370   4.628   3.600   2.491 -0.1455 -1.1960 -0.2694
 9246SOL    HW139371   4.606   3.599   2.398 -0.2538  3.4749 -0.2742
 9246SOL    HW239372   4.558   3.544   2.524 -0.5963  0.1099  0.9832
 9247SOL     OW39373   3.476   1.993   4.066 -0.3090 -0.3583 -0.2646
 9247SOL    HW139374   3.522   1.921   4.024  1.3914 -0.2855  1.4684
 9247SOL    HW239375   3.505   2.066   4.011 -0.9519  0.5974  0.6571
 9248SOL     OW39376   2.363   0.495   5.444 -0.2401  0.6351 -0.3182
 9248SOL    HW139377   2.381   0.487   5.538  1.8033  1.3669 -0.6580
 9248SOL    HW239378   2.404   0.416   5.409 -2.1142 -0.2321 -0.5888
 9249SOL     OW39379   0.153   1.552   5.718 -0.2895 -0.5316 -0.2898
 9249SOL    HW139380   0.207   1.515   5.788 -2.0626 -1.9486  0.3385
 9249SOL    HW239381   0.207   1.618   5.675  1.6270 -0.6626  1.8919
 9250SOL     OW39382   4.437   1.703  16.259  0.5700  0.0681  0.0386
 9250SOL    HW139383   4.389   1.736  16.334 -1.8941 -0.2269 -1.3991
 9250SOL    HW239384   4.517   1.662  16.291  0.4362 -1.0457 -1.0374
 9251SOL     OW39385   3.699   4.725   0.638 -0.4235  0.2241  0.3362
 9251SOL    HW139386   3.773   4.689   0.688 -0.0985 -3.2809 -2.6428
 9251SOL    HW239387   3.630   4.714   0.704 -0.4957  2.3034  0.5852
 9252SOL     OW39388   2.178   2.684   9.873 -0.1325 -0.1783 -0.2394
 9252SOL    HW139389   2.263   2.666   9.913  0.6007 -1.3275 -2.2900
 9252SOL    HW239390   2.132   2.734   9.940  0.8447  0.5757 -0.1326
 9253SOL     OW39391   4.673   4.189   0.183 -0.6846  0.2705 -0.0575
 9253SOL    HW139392   0.033   4.203   0.186 -0.3519 -1.6814 -1.2832
 9253SOL    HW239393   4.654   4.263   0.241 -1.8000 -1.3246  1.6432
 9254SOL     OW39394   2.785   0.232   3.372  0.3063  0.0748 -0.3434
 9254SOL    HW139395   2.821   0.301   3.316 -0.8280  0.8528 -0.1075
 9254SOL    HW239396   2.833   0.235   3.454 -0.5527 -1.6918  0.2126
 9255SOL     OW39397   4.618   1.617   1.501 -0.1200  0.2128 -0.3381
 9255SOL    HW139398   4.643   1.678   1.570 -0.1381  0.3803 -0.4808
 9255SOL    HW239399   4.687   1.550   1.498  0.1677  0.4513  1.2342
 9256SOL     OW39400   1.840   4.562  11.339 -0.4124 -0.0978 -0.3646
 9256SOL    HW139401   1.771   4.503  11.307 -0.5873  0.1478 -0.4419
 9256SOL    HW239402   1.916   4.504  11.332  1.1602  2.1155 -1.6337
 9257SOL     OW39403   4.151   0.041   7.126  0.0670  0.1087 -0.3810
 9257SOL    HW139404   4.240   0.007   7.134 -0.2035 -0.3428  0.8057
 9257SOL    HW239405   4.135   0.034   7.032 -0.9893 -1.8805 -0.0548
 9258SOL     OW39406   0.276   3.963   7.022  0.3627 -0.6519 -0.9767
 9258SOL    HW139407   0.187   3.956   6.987 -0.2140  0.5916  0.2696
 9258SOL    HW239408   0.277   3.906   7.099  3.9686  0.6582 -0.0770
 9259SOL     OW39409   3.746   4.044   2.095  0.7159  0.3145  0.3767
 9259SOL    HW139410   3.668   4.030   2.041 -0.0207  0.8887  1.3008
 9259SOL    HW239411   3.783   4.121   2.052  1.8268  0.5373  1.7449
 9260SOL     OW39412   0.088   4.576   1.670 -0.2476 -0.1173 -0.0571
 9260SOL    HW139413   0.111   4.668   1.659 -1.4518  0.2501  0.5412
 9260SOL    HW239414   0.028   4.570   1.596 -0.3850 -1.5320  0.1610
 9261SOL     OW39415   1.901   0.763   4.783 -0.5361  0.3976 -0.3267
 9261SOL    HW139416   1.944   0.760   4.869  1.0214 -1.2041 -1.1792
 9261SOL    HW239417   1.814   0.793   4.810  0.0337  1.0799  0.7577
 9262SOL     OW39418   0.052   0.616   5.729 -0.3165  0.5199  0.6442
 9262SOL    HW139419   0.136   0.573   5.717 -0.7997  0.8693 -4.1526
 9262SOL    HW239420   0.010   0.556   5.791 -2.0930  1.1185  0.0305
 9263SOL     OW39421   1.425   1.624   8.486 -0.0668  0.3443  0.3076
 9263SOL    HW139422   1.373   1.624   8.566 -1.2843  4.1489 -0.4635
 9263SOL    HW239423   1.362   1.603   8.416 -0.6482 -1.2066  1.3120
 9264SOL     OW39424   1.808   1.978   7.654  0.1740  0.1700 -0.5934
 9264SOL    HW139425   1.768   2.057   7.616 -1.2221 -0.4430 -0.4137
 9264SOL    HW239426   1.896   2.006   7.679 -0.7411  1.0783  1.6461
 9265SOL     OW39427   1.972   2.749   0.660  0.2877 -0.1852 -0.0361
 9265SOL    HW139428   2.061   2.765   0.628  0.2109  0.8867  0.3131
 9265SOL    HW239429   1.947   2.837   0.688  0.7499  0.5204 -1.8147
 9266SOL     OW39430   1.190   1.937   8.669 -0.1985  0.0549  0.2229
 9266SOL    HW139431   1.201   1.844   8.690 -0.0436 -0.0108 -0.1383
 9266SOL    HW239432   1.103   1.942   8.630 -0.4139  2.0585  1.0015
 9267SOL     OW39433   3.393   3.527  15.617 -0.3030 -0.0156 -0.1055
 9267SOL    HW139434   3.348   3.604  15.652 -2.4846 -0.5188 -1.7749
 9267SOL    HW239435   3.478   3.548  15.656 -0.7595 -0.3692  1.0792
 9268SOL     OW39436   2.252   1.525   6.630  0.2900 -0.1097  0.3221
 9268SOL    HW139437   2.191   1.466   6.676 -1.3691  1.5538  0.2391
 9268SOL    HW239438   2.331   1.474   6.612  0.4873  0.7622 -1.2508
 9269SOL     OW39439   0.496   3.765   1.214 -0.0190 -0.2698 -0.2424
 9269SOL    HW139440   0.468   3.811   1.293  0.4201 -1.9220  0.8905
 9269SOL    HW239441   0.542   3.833   1.165  1.6513 -1.3776 -0.2123
 9270SOL     OW39442   2.092   2.154   2.080  0.0844 -0.4727 -0.4873
 9270SOL    HW139443   2.009   2.197   2.063 -0.5157 -1.8939 -1.1290
 9270SOL    HW239444   2.150   2.230   2.075 -2.0982  1.1375 -0.9218
 9271SOL     OW39445   1.722   2.218   0.345  0.0406 -0.3174  0.1620
 9271SOL    HW139446   1.743   2.145   0.287 -1.4967 -1.4090  0.9789
 9271SOL    HW239447   1.687   2.283   0.285 -0.1224 -0.1725  0.4117
 9272SOL     OW39448   1.218   3.331  17.229 -0.1710  0.4890  0.2892
 9272SOL    HW139449   1.270   3.405  17.196  0.6239 -0.1128  0.1766
 9272SOL    HW239450   1.200   3.278  17.151 -1.2427 -1.1136  1.6454
 9273SOL     OW39451   3.650   3.785  11.301  0.0274 -0.0409 -0.4054
 9273SOL    HW139452   3.638   3.871  11.341  2.4010  0.2379 -0.2809
 9273SOL    HW239453   3.575   3.771  11.244  0.6959 -1.6747 -0.9135
 9274SOL     OW39454   3.990   3.708   3.142 -0.2036 -0.2655  0.1315
 9274SOL    HW139455   4.001   3.767   3.067  0.2818  0.6489  0.9252
 9274SOL    HW239456   4.079   3.672   3.144 -0.8516 -1.9530 -0.7891
 9275SOL     OW39457   4.277   2.875   2.240 -0.1178  0.4385  0.3644
 9275SOL    HW139458   4.260   2.788   2.203  0.6313  0.9692 -1.2506
 9275SOL    HW239459   4.195   2.915   2.211  0.2932 -0.3369 -1.8505
 9276SOL     OW39460   4.400   0.257  17.013  0.2649  0.0349  0.2662
 9276SOL    HW139461   4.371   0.317  16.945  0.3554 -1.1389 -0.8029
 9276SOL    HW239462   4.493   0.281  17.016  0.8127 -2.0055 -0.8118
 9277SOL     OW39463   1.143   4.286   4.504 -0.2208 -0.2300  0.9205
 9277SOL    HW139464   1.206   4.327   4.563 -2.0482  2.1551  1.2125
 9277SOL    HW239465   1.090   4.243   4.570 -2.2197 -1.1774 -1.3290
 9278SOL     OW39466   4.377   4.126   8.644  0.6083 -0.1284 -0.0523
 9278SOL    HW139467   4.331   4.156   8.566 -0.1315  0.7261  0.7176
 9278SOL    HW239468   4.310   4.071   8.683  1.9398 -0.7659  1.3579
 9279SOL     OW39469   4.010   0.354  10.932 -0.2840 -0.4369  0.4889
 9279SOL    HW139470   4.062   0.366  10.853 -1.8597 -0.6498 -0.5764
 9279SOL    HW239471   3.926   0.336  10.891 -0.3185  0.8680 -0.0072
 9280SOL     OW39472   1.446   3.264  16.410 -0.3108 -0.0537 -0.0599
 9280SOL    HW139473   1.357   3.245  16.380 -1.2163  2.5037  1.0589
 9280SOL    HW239474   1.461   3.344  16.360  0.1107  1.2615  2.1726
 9281SOL     OW39475   4.364   3.290   6.276  0.3445 -0.0556 -0.0963
 9281SOL    HW139476   4.339   3.217   6.332  1.7274 -0.4227  0.0507
 9281SOL    HW239477   4.401   3.239   6.204  1.0225  0.4527 -0.1159
 9282SOL     OW39478   1.848   0.198   6.570  0.0130  0.1897 -0.0448
 9282SOL    HW139479   1.823   0.113   6.534  0.4250 -0.0822  0.3034
 9282SOL    HW239480   1.927   0.165   6.613 -0.0958 -1.3574 -1.0282
 9283SOL     OW39481   0.823   0.362   3.304  0.5138  0.5476  0.0420
 9283SOL    HW139482   0.838   0.323   3.390 -1.4594  0.5561  0.3778
 9283SOL    HW239483   0.911   0.389   3.279  1.0025  0.8294  2.0768
 9284SOL     OW39484   4.384   0.305   2.980 -0.4062 -0.0195  0.0661
 9284SOL    HW139485   4.357   0.377   2.923  0.2373 -0.9344 -1.3987
 9284SOL    HW239486   4.478   0.295   2.968 -0.6968 -4.0701  1.1302
 9285SOL     OW39487   4.700   2.150   8.531  0.0825  0.5281 -0.3035
 9285SOL    HW139488   4.707   2.237   8.492 -0.1718  1.9388  2.8360
 9285SOL    HW239489   4.695   2.177   8.623 -2.9268 -0.5652 -0.1301
 9286SOL     OW39490   3.852   1.905   1.067 -0.2059  0.0185 -0.0661
 9286SOL    HW139491   3.896   1.820   1.062  1.6224  0.8313  2.0260
 9286SOL    HW239492   3.914   1.961   1.114  1.6216 -2.1825  0.1264
 9287SOL     OW39493   1.988   2.446  13.714 -0.2579  0.0473 -0.3482
 9287SOL    HW139494   2.058   2.466  13.653  0.1734  2.0522  0.7983
 9287SOL    HW239495   1.956   2.534  13.736 -2.2064 -0.6050 -0.4970
 9288SOL     OW39496   0.078   0.919   4.295 -0.2699  0.3633  0.4084
 9288SOL    HW139497   0.146   0.871   4.343 -1.7874  0.3464  2.5277
 9288SOL    HW239498   0.014   0.951   4.358 -0.3363  3.2939 -1.1473
 9289SOL     OW39499   0.581   0.682   7.189  0.9377  0.7510  0.0807
 9289SOL    HW139500   0.650   0.671   7.124  1.0353  1.4050  0.0819
 9289SOL    HW239501   0.630   0.661   7.268  0.3834 -0.1615  0.1878
 9290SOL     OW39502   4.112   4.185  11.619  0.0797  0.5691 -0.2087
 9290SOL    HW139503   4.084   4.100  11.584  0.2647  0.6715 -0.6083
 9290SOL    HW239504   4.104   4.236  11.538 -1.2790  0.7658  0.0630
 9291SOL     OW39505   2.199   0.011  10.865 -0.2185 -0.3381 -0.2790
 9291SOL    HW139506   2.127   4.718  10.922 -0.9994  1.9545 -0.1441
 9291SOL    HW239507   2.156   0.081  10.816  2.2925  0.5700 -1.1638
 9292SOL     OW39508   2.038   1.803   6.200  0.1728  0.4940 -0.4728
 9292SOL    HW139509   2.092   1.751   6.140 -1.4104 -0.6314 -0.9349
 9292SOL    HW239510   1.984   1.852   6.139  1.2672  1.1015 -0.9494
 9293SOL     OW39511   4.066   1.846  10.611  0.7261 -0.4157  0.1927
 9293SOL    HW139512   4.053   1.935  10.642 -1.4694 -0.8732  0.5409
 9293SOL    HW239513   3.986   1.810  10.649  2.1986  0.2152  3.8706
 9294SOL     OW39514   0.041   0.817   0.138 -0.0287 -0.5600  0.4732
 9294SOL    HW139515   0.117   0.777   0.095 -0.4440 -0.6584 -0.1694
 9294SOL    HW239516   4.725   0.743   0.168  0.6554 -0.7084  1.2537
 9295SOL     OW39517   3.871   3.064   0.856 -0.0598  0.0317  0.2189
 9295SOL    HW139518   3.928   3.099   0.788  0.7174  1.0327  1.3816
 9295SOL    HW239519   3.828   2.990   0.813  1.5227 -0.7085 -0.1190
 9296SOL     OW39520   0.675   0.043   1.437 -0.3190  0.8553 -0.0334
 9296SOL    HW139521   0.721   4.701   1.401  1.7573  1.8262  0.5589
 9296SOL    HW239522   0.673   0.017   1.529 -1.1738 -2.2038 -0.9031
 9297SOL     OW39523   2.248   3.485  13.579  0.3192  0.1202  0.1629
 9297SOL    HW139524   2.225   3.471  13.488  0.3605  0.2431  0.1335
 9297SOL    HW239525   2.338   3.518  13.576  0.0272  1.0618  1.6097
 9298SOL     OW39526   1.976   4.219   9.096  0.5709 -0.0608 -0.1278
 9298SOL    HW139527   1.946   4.174   9.175  0.4319 -0.5374 -0.4554
 9298SOL    HW239528   1.902   4.209   9.036  1.3225  3.5817 -1.7098
 9299SOL     OW39529   1.157   2.368   7.276  0.5150 -0.2988  0.8012
 9299SOL    HW139530   1.240   2.400   7.244 -0.1346  1.7139  1.1473
 9299SOL    HW239531   1.169   2.349   7.369  0.0701 -0.9104  0.7414
 9300SOL     OW39532   4.031   4.601   9.353 -0.1198 -0.2314 -0.5400
 9300SOL    HW139533   3.967   4.551   9.404 -0.9699 -0.2589 -1.6219
 9300SOL    HW239534   4.111   4.548   9.353 -0.1191 -0.2251  0.8479
 9301SOL     OW39535   2.440   0.207   0.757 -0.0668 -0.2850  0.0336
 9301SOL    HW139536   2.361   0.155   0.744  1.3201 -1.9057 -1.8372
 9301SOL    HW239537   2.405   0.292   0.783  2.0646  1.0669 -1.5753
 9302SOL     OW39538   4.695   0.719   9.136  0.1865  0.6338  0.0977
 9302SOL    HW139539   4.732   0.776   9.069  0.2307 -0.4515 -0.8155
 9302SOL    HW239540   4.650   0.781   9.193  0.9200 -1.2500  2.7224
 9303SOL     OW39541   1.929   0.249   2.544 -0.0456 -0.1384 -0.0411
 9303SOL    HW139542   1.944   0.274   2.453 -1.0620 -1.6908 -0.6414
 9303SOL    HW239543   1.833   0.251   2.544 -0.0678 -0.6277  1.7567
 9304SOL     OW39544   3.231   1.650   4.204 -0.5336 -0.3310  0.2799
 9304SOL    HW139545   3.326   1.655   4.214 -0.3053 -0.0628 -1.8913
 9304SOL    HW239546   3.197   1.704   4.275 -1.9629 -0.3832 -0.3781
 9305SOL     OW39547   3.580   3.982   4.378 -0.5552  0.2851 -0.3840
 9305SOL    HW139548   3.625   4.066   4.392 -0.2332  0.1862 -0.8355
 9305SOL    HW239549   3.488   4.005   4.384 -0.4396  0.3685  1.1003
 9306SOL     OW39550   1.440   3.030   2.118 -0.3825 -0.1834 -0.5277
 9306SOL    HW139551   1.393   3.092   2.061  2.1952  1.1896 -1.1751
 9306SOL    HW239552   1.472   3.083   2.191 -1.6002 -1.3763  0.8501
 9307SOL     OW39553   3.629   0.779   7.278  0.2246 -0.9175 -0.0047
 9307SOL    HW139554   3.613   0.844   7.210 -0.5028 -1.0782  0.0051
 9307SOL    HW239555   3.594   0.822   7.356 -0.6879 -0.1784 -0.8123
 9308SOL     OW39556   4.456   0.542   6.451 -0.1860 -0.6059  0.1558
 9308SOL    HW139557   4.450   0.630   6.488 -0.6158 -0.4916 -0.1878
 9308SOL    HW239558   4.403   0.554   6.372  1.3210  1.1239 -0.5597
 9309SOL     OW39559   1.116   3.486   8.533 -0.7550  0.1461 -0.1162
 9309SOL    HW139560   1.186   3.434   8.571  0.9060  0.8460 -2.2655
 9309SOL    HW239561   1.169   3.558   8.501 -0.8416  0.8271  1.2823
 9310SOL     OW39562   3.204   2.055  13.029 -0.4674 -0.1557 -0.0138
 9310SOL    HW139563   3.255   2.136  13.025  0.5359 -0.7954 -0.2258
 9310SOL    HW239564   3.175   2.043  12.938  0.8482 -0.4530 -0.3921
 9311SOL     OW39565   3.933   0.532   8.836 -0.3217  0.1299  0.1620
 9311SOL    HW139566   4.008   0.497   8.884 -0.1931 -0.5335 -0.5142
 9311SOL    HW239567   3.892   0.572   8.912  2.0477  0.8333  1.0546
 9312SOL     OW39568   2.111   0.471  16.380  0.6626  0.3854  0.2838
 9312SOL    HW139569   2.178   0.414  16.343 -0.0697 -1.9875  2.5912
 9312SOL    HW239570   2.165   0.536  16.425  2.6152 -0.5079 -0.7555
 9313SOL     OW39571   3.952   0.840   4.562  0.2474 -0.1933  0.5742
 9313SOL    HW139572   3.911   0.779   4.623 -1.1950 -0.8178 -0.9858
 9313SOL    HW239573   3.995   0.772   4.511  1.9134  0.0773  1.6320
 9314SOL     OW39574   2.468   0.044   4.199  0.5145  0.2197  0.4720
 9314SOL    HW139575   2.444   4.698   4.244 -2.8609 -0.4631 -2.5547
 9314SOL    HW239576   2.426   0.034   4.113  0.2351 -0.8643  0.7310
 9315SOL     OW39577   1.437   3.252   4.773  0.2000  0.2967  0.1269
 9315SOL    HW139578   1.350   3.235   4.808  1.3495 -1.8192  1.9802
 9315SOL    HW239579   1.470   3.330   4.818 -1.8132  1.6340 -0.7213
 9316SOL     OW39580   4.176   4.058  11.282 -0.6627  0.1692 -0.2595
 9316SOL    HW139581   4.158   4.151  11.268 -1.2890  0.1268  0.2705
 9316SOL    HW239582   4.088   4.030  11.307  0.1439 -1.0467  1.1887
 9317SOL     OW39583   2.080   1.234  15.326 -0.2442  0.4658  0.6128
 9317SOL    HW139584   2.158   1.282  15.299 -0.1736 -0.0118 -0.0269
 9317SOL    HW239585   2.109   1.143  15.337 -2.4483 -0.1633  1.4195
 9318SOL     OW39586   2.317   4.286   5.110 -1.0798  0.2313 -0.1482
 9318SOL    HW139587   2.345   4.276   5.201  0.3191 -0.3020 -0.6311
 9318SOL    HW239588   2.398   4.258   5.066 -0.1548  2.2981  0.2046
 9319SOL     OW39589   3.008   2.792  12.786  0.1167 -0.0071  0.5104
 9319SOL    HW139590   3.018   2.828  12.874 -0.3437  1.2471  0.0431
 9319SOL    HW239591   3.099   2.794  12.757 -0.0848  1.2835 -0.0257
 9320SOL     OW39592   4.287   2.613   1.479  0.1427  0.1557  0.7496
 9320SOL    HW139593   4.257   2.700   1.456  2.0259  0.5761 -0.0903
 9320SOL    HW239594   4.221   2.560   1.434 -1.2175  2.1354  0.4653
 9321SOL     OW39595   3.748   1.546   6.493  0.0082  0.7012 -0.1442
 9321SOL    HW139596   3.753   1.583   6.581  0.3597 -0.3799  0.2885
 9321SOL    HW239597   3.824   1.582   6.447 -0.0304  0.2428 -0.5705
 9322SOL     OW39598   0.730   0.708   7.431 -0.3837  0.3758 -0.2826
 9322SOL    HW139599   0.705   0.800   7.429 -0.7498  0.2545 -1.2844
 9322SOL    HW239600   0.817   0.699   7.393 -0.2922 -2.1539  0.4981
 9323SOL     OW39601   4.102   3.454   1.943  0.7712  0.1567  0.8323
 9323SOL    HW139602   4.191   3.484   1.921 -0.2275  3.3934  1.1814
 9323SOL    HW239603   4.120   3.366   1.976 -0.4394  0.8662  3.3790
 9324SOL     OW39604   1.665   1.860  12.529 -0.0858 -0.5292  0.2898
 9324SOL    HW139605   1.751   1.883  12.495  0.0738 -1.5563  0.0069
 9324SOL    HW239606   1.652   1.779  12.479 -0.4985  0.8395 -1.8216
 9325SOL     OW39607   3.246   2.366  12.144  0.2119 -0.0054 -0.4867
 9325SOL    HW139608   3.287   2.402  12.065  1.0441  0.6282  0.2366
 9325SOL    HW239609   3.259   2.435  12.209 -2.3792 -0.9461  1.0125
 9326SOL     OW39610   2.746   0.573   5.482 -0.3176 -0.7263 -0.8669
 9326SOL    HW139611   2.702   0.635   5.540  1.5915  2.3389 -2.6570
 9326SOL    HW239612   2.786   0.635   5.421  0.1482 -0.3963 -0.2315
 9327SOL     OW39613   0.230   0.220   6.962  0.0080 -0.0026 -0.1726
 9327SOL    HW139614   0.308   0.170   6.937  0.2152 -0.4826  1.4891
 9327SOL    HW239615   0.271   0.273   7.030 -2.1068  1.0395  0.2880
 9328SOL     OW39616   0.378   4.486   6.886  0.0666 -0.2678 -0.0396
 9328SOL    HW139617   0.396   4.461   6.976  0.2813  1.9278  0.5274
 9328SOL    HW239618   0.426   4.425   6.830 -0.7361 -1.1292  0.2195
 9329SOL     OW39619   4.660   4.671  11.067  0.3833  0.6286  0.6279
 9329SOL    HW139620   4.625   4.620  11.140 -0.0119 -1.0754 -0.7671
 9329SOL    HW239621   4.571   4.691  11.036  0.0682 -0.0391  1.1077
 9330SOL     OW39622   3.206   2.217   8.413  0.1376  0.7341 -0.1799
 9330SOL    HW139623   3.193   2.309   8.437  0.7984  0.9058 -0.4834
 9330SOL    HW239624   3.285   2.194   8.463 -0.0603 -1.6344 -0.9769
 9331SOL     OW39625   0.780   4.485  13.748 -0.2422 -0.4188  0.4384
 9331SOL    HW139626   0.853   4.520  13.800 -0.5657  0.0436  0.5808
 9331SOL    HW239627   0.824   4.403  13.725  0.7523  0.5868 -1.2175
 9332SOL     OW39628   0.833   4.291   6.463 -0.0903 -0.0492  0.1657
 9332SOL    HW139629   0.885   4.226   6.512 -0.7112 -0.4857  0.2388
 9332SOL    HW239630   0.746   4.263   6.490  0.4001 -0.8935  0.9045
 9333SOL     OW39631   4.487   1.162   1.874  0.1076 -0.6400 -0.3086
 9333SOL    HW139632   4.525   1.095   1.818  2.3158 -1.5406  2.2639
 9333SOL    HW239633   4.394   1.141   1.864 -0.3727  0.8402  0.9041
 9334SOL     OW39634   3.664   1.914  13.911  0.2726 -0.4414 -0.2606
 9334SOL    HW139635   3.638   1.850  13.977 -1.4711 -0.5296 -1.0279
 9334SOL    HW239636   3.654   1.997  13.957 -1.7390 -1.1260  0.5453
 9335SOL     OW39637   3.670   0.267   5.562 -0.4609  0.4275  0.5077
 9335SOL    HW139638   3.760   0.248   5.588 -1.3881 -0.4731  3.0612
 9335SOL    HW239639   3.670   0.263   5.466 -2.5250  0.4149  0.5113
 9336SOL     OW39640   0.938   1.554   8.126 -0.0361 -0.2472  0.6831
 9336SOL    HW139641   1.013   1.497   8.107  0.2288  0.7514 -1.2983
 9336SOL    HW239642   0.890   1.550   8.043 -1.2672 -0.7739  1.4173
 9337SOL     OW39643   2.208   2.240   5.807 -0.9583  0.4825  0.2941
 9337SOL    HW139644   2.154   2.286   5.871  0.4970 -1.6373  3.0469
 9337SOL    HW239645   2.251   2.165   5.849  0.1110  0.4346 -0.8705
 9338SOL     OW39646   1.158   0.713  13.497  0.2659 -0.6464 -0.7025
 9338SOL    HW139647   1.100   0.682  13.568  1.2595 -0.9954 -0.0383
 9338SOL    HW239648   1.216   0.639  13.478  0.5023 -0.6414 -0.0271
 9339SOL     OW39649   1.324   1.567   4.659 -0.2414 -0.3165  0.6482
 9339SOL    HW139650   1.269   1.605   4.590  0.2740 -0.9908 -0.1324
 9339SOL    HW239651   1.262   1.533   4.722 -2.2974  0.9167 -0.7157
 9340SOL     OW39652   3.686   2.432   2.080 -0.5342  0.4329  1.0739
 9340SOL    HW139653   3.617   2.378   2.041  0.7760 -0.8158  0.4520
 9340SOL    HW239654   3.744   2.429   2.004  1.3850  1.2703  2.4963
 9341SOL     OW39655   0.851   1.415   9.072  0.3986  0.1562 -0.4644
 9341SOL    HW139656   0.770   1.367   9.056 -0.6426  2.0861 -1.0133
 9341SOL    HW239657   0.916   1.345   9.080 -2.7727 -2.6703  0.3071
 9342SOL     OW39658   0.127   3.458   4.340 -0.1947 -0.5310 -0.1477
 9342SOL    HW139659   0.075   3.464   4.260 -1.0147  1.4797  0.5244
 9342SOL    HW239660   0.101   3.372   4.370 -1.7892 -0.7157 -2.0290
 9343SOL     OW39661   1.913   2.478   0.670 -0.1025 -0.0184  0.6828
 9343SOL    HW139662   1.909   2.569   0.701 -1.6029 -0.4912  1.8452
 9343SOL    HW239663   1.989   2.484   0.612  0.7012 -2.0339  1.5287
 9344SOL     OW39664   3.332   0.083   7.621  0.0839 -0.0306 -0.0013
 9344SOL    HW139665   3.385   0.154   7.658 -0.9316  0.4151  0.5994
 9344SOL    HW239666   3.244   0.118   7.635 -0.7439 -2.2212  0.1963
 9345SOL     OW39667   1.736   2.715   9.826  0.4884 -0.7672 -0.1555
 9345SOL    HW139668   1.707   2.795   9.783 -1.3695 -0.2374  2.0795
 9345SOL    HW239669   1.820   2.719   9.782  0.1820 -0.2223 -0.6931
 9346SOL     OW39670   0.533   3.260   6.660 -0.4671  0.0481  0.4476
 9346SOL    HW139671   0.538   3.177   6.708  1.9921  0.0414  0.1688
 9346SOL    HW239672   0.467   3.309   6.711 -1.1959  0.5363 -0.9716
 9347SOL     OW39673   2.831   2.308   0.165 -0.1217  0.1674 -0.0822
 9347SOL    HW139674   2.810   2.401   0.151 -0.8135  0.2014  1.2246
 9347SOL    HW239675   2.911   2.295   0.114  1.8922  2.7522  2.3758
 9348SOL     OW39676   1.721   1.416   3.852  0.4253 -0.1341 -0.1248
 9348SOL    HW139677   1.638   1.388   3.813  0.6429  1.1960 -1.5445
 9348SOL    HW239678   1.754   1.463   3.775  0.3333 -1.1424 -0.7871
 9349SOL     OW39679   2.338   4.464  12.039 -0.7230  0.0084 -0.2110
 9349SOL    HW139680   2.430   4.438  12.049 -0.9342 -0.4477  0.5884
 9349SOL    HW239681   2.299   4.461  12.127 -1.0925  1.9787 -0.3083
 9350SOL     OW39682   3.917   2.993   5.065 -0.0722 -0.2566 -1.0616
 9350SOL    HW139683   3.859   2.917   5.077 -0.7640  0.4888  0.2507
 9350SOL    HW239684   3.870   3.068   5.030 -0.1260  0.2819  0.1828
 9351SOL     OW39685   2.004   1.917  16.274  0.4151  0.1128  0.5915
 9351SOL    HW139686   2.052   1.925  16.191  1.9252 -0.3948  1.4264
 9351SOL    HW239687   1.980   1.825  16.278 -1.9986  0.6325 -1.7300
 9352SOL     OW39688   2.517   2.945   2.480 -0.1239  0.5389  0.2672
 9352SOL    HW139689   2.523   2.850   2.493  2.0663  0.1494 -3.6170
 9352SOL    HW239690   2.422   2.957   2.483 -0.1040  1.1230 -1.6914
 9353SOL     OW39691   2.045   0.032   8.336  0.0317 -0.4101  0.2571
 9353SOL    HW139692   2.062   0.072   8.421  0.7148 -0.0012 -0.0676
 9353SOL    HW239693   1.984   0.092   8.292  0.6142 -0.2043 -0.2640
 9354SOL     OW39694   0.572   2.760   7.648 -0.0745 -0.0124  0.1476
 9354SOL    HW139695   0.656   2.741   7.690 -0.2531 -0.0814  0.4722
 9354SOL    HW239696   0.567   2.852   7.672 -0.2763  0.1917 -0.6815
 9355SOL     OW39697   4.438   1.692   7.752  0.9708 -0.3025  0.1049
 9355SOL    HW139698   4.487   1.712   7.832 -0.4871 -1.2915  1.2527
 9355SOL    HW239699   4.499   1.728   7.688  0.3355 -1.4416 -1.1467
 9356SOL     OW39700   2.797   2.780   4.469 -0.1347  0.0430 -0.0565
 9356SOL    HW139701   2.879   2.730   4.459 -0.5540 -0.2383 -2.1541
 9356SOL    HW239702   2.726   2.726   4.436  0.2974 -0.6339  0.1271
 9357SOL     OW39703   4.302   0.542   6.142 -0.0251  0.0513  0.6500
 9357SOL    HW139704   4.264   0.629   6.131  3.1931  1.1582 -1.6575
 9357SOL    HW239705   4.294   0.514   6.051  1.2567  0.4622  0.4134
 9358SOL     OW39706   2.068   4.053   6.207 -0.1898  0.5569 -0.7747
 9358SOL    HW139707   2.106   4.129   6.164  0.7400  0.6758  0.2488
 9358SOL    HW239708   2.084   3.987   6.139  2.8663  2.2528 -1.7151
 9359SOL     OW39709   4.313   3.857   2.358  0.6116 -0.2669 -0.1403
 9359SOL    HW139710   4.341   3.929   2.301 -2.4822  0.2609 -0.9914
 9359SOL    HW239711   4.373   3.861   2.433 -0.7076  0.4997  0.8720
 9360SOL     OW39712   3.152   3.648   4.366  0.0648  0.0097 -0.3423
 9360SOL    HW139713   3.162   3.656   4.461 -0.6078 -0.4528 -0.2264
 9360SOL    HW239714   3.060   3.674   4.354  0.2527  0.6786 -0.3370
 9361SOL     OW39715   0.939   3.115   1.014  0.0503 -0.3874  0.0339
 9361SOL    HW139716   0.985   3.158   1.086 -0.0031  1.5689 -1.0973
 9361SOL    HW239717   1.015   3.081   0.966  0.8798  0.4093  0.7851
 9362SOL     OW39718   4.138   0.442   8.127  0.1624  0.0046 -0.4163
 9362SOL    HW139719   4.179   0.360   8.098  0.5940  0.0140  0.1835
 9362SOL    HW239720   4.130   0.479   8.039 -1.9350 -0.9008 -0.6012
 9363SOL     OW39721   0.406   4.625   4.617  0.3230  0.0587  0.0394
 9363SOL    HW139722   0.381   4.718   4.624  1.4839  0.2831  1.1283
 9363SOL    HW239723   0.500   4.633   4.632  0.5173  1.3753 -1.7860
 9364SOL     OW39724   3.900   3.090   8.371  0.2734  0.5101  0.2471
 9364SOL    HW139725   3.860   3.035   8.302 -0.4509  1.7071 -0.2775
 9364SOL    HW239726   3.934   3.165   8.322  1.3709  1.4716  2.5236
 9365SOL     OW39727   3.552   2.634   9.291  0.2441  0.2251 -0.9042
 9365SOL    HW139728   3.514   2.567   9.234 -0.5241 -1.1409  1.2290
 9365SOL    HW239729   3.635   2.655   9.247  1.8267 -0.5613  1.6952
 9366SOL     OW39730   3.208   0.298   3.235  0.7017  0.0716 -0.3160
 9366SOL    HW139731   3.117   0.327   3.228  1.2478  1.1779 -3.0506
 9366SOL    HW239732   3.190   0.252   3.317 -1.8940 -2.0947 -2.1077
 9367SOL     OW39733   4.398   4.435   0.047 -0.0530 -0.3887 -0.0525
 9367SOL    HW139734   4.455   4.511   0.059 -0.5931 -0.0484  0.3771
 9367SOL    HW239735   4.421   4.404  17.698  1.1896 -0.6933  0.3815
 9368SOL     OW39736   1.089   0.618   8.664 -0.0800 -0.0098 -0.7042
 9368SOL    HW139737   1.042   0.621   8.748 -0.4807 -2.1878 -0.8665
 9368SOL    HW239738   1.170   0.667   8.682 -0.0341 -0.9343  1.5797
 9369SOL     OW39739   2.298   2.679  15.016  0.1892 -0.2765 -0.3173
 9369SOL    HW139740   2.265   2.590  15.031  1.5680 -0.6372  0.5907
 9369SOL    HW239741   2.229   2.731  15.056  1.2417 -1.1541  2.6222
 9370SOL     OW39742   4.081   3.817   7.504 -0.1766 -0.6389  0.0076
 9370SOL    HW139743   4.001   3.854   7.467 -1.5544 -2.9226  0.7456
 9370SOL    HW239744   4.046   3.748   7.560 -1.0875  0.2965  0.5805
 9371SOL     OW39745   0.322   3.949   4.309 -0.3940  0.3484  0.0974
 9371SOL    HW139746   0.383   3.947   4.383 -1.0052 -1.6439  0.5507
 9371SOL    HW239747   0.245   3.899   4.335  0.6123 -1.1592  0.1427
 9372SOL     OW39748   1.518   1.305   1.574 -0.0910 -0.4469  0.3812
 9372SOL    HW139749   1.430   1.267   1.575  0.1825 -1.0621  1.2335
 9372SOL    HW239750   1.538   1.315   1.481  1.7508  0.4306  0.8745
 9373SOL     OW39751   1.210   1.755   7.732 -0.6490  0.5117 -0.2371
 9373SOL    HW139752   1.213   1.750   7.828 -1.4980 -3.2396 -0.3970
 9373SOL    HW239753   1.153   1.681   7.711 -0.8536  1.0759 -1.6961
 9374SOL     OW39754   3.962   1.616   3.442 -0.1142 -0.6030  0.3853
 9374SOL    HW139755   3.981   1.575   3.358  0.1141  1.2110 -0.4390
 9374SOL    HW239756   3.981   1.709   3.427  1.7245 -1.2542 -1.3680
 9375SOL     OW39757   1.408   0.615  13.854 -0.3780  0.4207  0.3341
 9375SOL    HW139758   1.458   0.596  13.933  0.2372  0.2480 -0.0869
 9375SOL    HW239759   1.455   0.688  13.813 -2.1156  1.6439  0.5406
 9376SOL     OW39760   1.736   4.319   5.099  0.8941  0.7898  0.5255
 9376SOL    HW139761   1.781   4.259   5.158 -0.8677 -0.8613  0.1569
 9376SOL    HW239762   1.732   4.259   5.024  1.5628 -1.6552  2.4505
 9377SOL     OW39763   2.882   2.740   5.166  0.0046  0.0526 -0.3718
 9377SOL    HW139764   2.948   2.791   5.119  0.7292 -1.0619 -0.5702
 9377SOL    HW239765   2.911   2.649   5.156 -2.6140 -0.6773 -1.1937
 9378SOL     OW39766   0.389   2.536   4.502  0.3778  0.0272  0.1969
 9378SOL    HW139767   0.474   2.491   4.499  0.6130  0.5721 -1.2223
 9378SOL    HW239768   0.396   2.598   4.574 -1.8239  0.9426 -0.3777
 9379SOL     OW39769   3.572   0.680   4.019 -0.6666  0.0043 -0.1560
 9379SOL    HW139770   3.502   0.735   4.054 -1.1529 -1.3051  0.9465
 9379SOL    HW239771   3.569   0.597   4.067 -2.8155  0.5174  0.6098
 9380SOL     OW39772   1.613   3.541  14.559  0.1828  0.2083 -0.0774
 9380SOL    HW139773   1.542   3.476  14.565  0.1187  0.2409 -0.5066
 9380SOL    HW239774   1.629   3.553  14.466 -0.5190  0.6634 -0.1443
 9381SOL     OW39775   3.280   0.145  12.186  0.7101  0.8818 -0.0266
 9381SOL    HW139776   3.239   0.114  12.267 -1.5466 -0.3235 -1.6362
 9381SOL    HW239777   3.247   0.234  12.178 -1.2205  0.2535  1.0023
 9382SOL     OW39778   2.368   1.817   2.144  0.0916  0.3029  0.2951
 9382SOL    HW139779   2.426   1.863   2.205 -0.0242  0.1127  0.5496
 9382SOL    HW239780   2.350   1.739   2.196 -0.0788 -1.1728 -1.9792
 9383SOL     OW39781   3.555   3.258   8.525 -0.0763  0.3195  0.1612
 9383SOL    HW139782   3.545   3.170   8.561  0.0501  0.3977  0.3861
 9383SOL    HW239783   3.521   3.232   8.439  0.5612  0.4924 -0.1450
 9384SOL     OW39784   1.818   0.986  11.066  0.2544 -0.3860  0.9911
 9384SOL    HW139785   1.900   0.945  11.040 -0.8411 -0.2493 -2.6440
 9384SOL    HW239786   1.844   1.043  11.139 -1.8711  0.3490  1.1816
 9385SOL     OW39787   4.381   1.834  16.033  0.4335 -0.1072 -0.2342
 9385SOL    HW139788   4.379   1.930  16.040 -1.1895 -0.2675  1.4178
 9385SOL    HW239789   4.402   1.800  16.120  0.0108 -0.6013 -0.3235
 9386SOL     OW39790   2.278   0.208  17.183 -0.4771 -0.1506  0.0559
 9386SOL    HW139791   2.285   0.251  17.098 -2.0860 -2.3656 -1.1825
 9386SOL    HW239792   2.366   0.175  17.201 -0.0652  0.7880 -0.2589
 9387SOL     OW39793   1.357   3.406   0.951  0.3772  0.0290 -0.2131
 9387SOL    HW139794   1.420   3.334   0.939  0.3947  0.1164 -0.6366
 9387SOL    HW239795   1.409   3.474   0.992 -1.9677  1.2872  0.6600
 9388SOL     OW39796   0.709   4.026   4.299 -0.8489 -0.2378  0.6141
 9388SOL    HW139797   0.713   4.017   4.204  0.8892 -0.1680  0.6805
 9388SOL    HW239798   0.712   4.122   4.304  2.3226 -0.2425 -1.3103
 9389SOL     OW39799   2.517   0.872   5.184 -0.0810  0.0678  0.0332
 9389SOL    HW139800   2.535   0.910   5.270  0.8803  0.1049 -0.1854
 9389SOL    HW239801   2.487   0.949   5.136  1.5667  1.1215  0.6957
 9390SOL     OW39802   0.699   2.555   1.221 -0.2801 -0.2992  0.7177
 9390SOL    HW139803   0.774   2.592   1.268 -0.3084 -0.4981  0.9240
 9390SOL    HW239804   0.654   2.627   1.178  0.3648  0.1466  0.7941
 9391SOL     OW39805   0.726   2.304   4.021 -0.0861  0.5108 -0.0553
 9391SOL    HW139806   0.739   2.212   3.998 -1.4329  0.9975 -2.7822
 9391SOL    HW239807   0.753   2.307   4.112 -1.2146  2.1605  0.2365
 9392SOL     OW39808   2.641   0.445   1.107 -0.2958  0.3284 -0.0370
 9392SOL    HW139809   2.700   0.371   1.096 -0.0384  0.7400 -1.3744
 9392SOL    HW239810   2.662   0.487   1.024 -0.2211 -0.3648 -0.3625
 9393SOL     OW39811   4.633   2.403   5.541 -0.3765  0.6546  0.1589
 9393SOL    HW139812   4.611   2.427   5.451  1.8325 -0.7477 -0.7560
 9393SOL    HW239813   4.677   2.321   5.517 -1.4988  0.0150  0.3138
 9394SOL     OW39814   1.287   4.065  17.374 -0.4705 -0.0878 -1.0592
 9394SOL    HW139815   1.378   4.063  17.343  0.1530  1.2785  0.6488
 9394SOL    HW239816   1.295   4.024  17.460  0.8124 -0.0545 -1.1661
 9395SOL     OW39817   1.406   0.414  12.854 -0.0013 -0.2193 -1.0387
 9395SOL    HW139818   1.322   0.459  12.862  0.0687 -0.9695  3.6802
 9395SOL    HW239819   1.460   0.470  12.909 -1.3375  0.2564 -0.1957
 9396SOL     OW39820   3.180   0.642   3.373  0.2748 -0.2710  0.7721
 9396SOL    HW139821   3.233   0.697   3.431  1.4828 -0.3835 -0.2254
 9396SOL    HW239822   3.241   0.625   3.301  1.3528 -0.1219  1.6446
 9397SOL     OW39823   3.246   3.596  10.696 -0.0413  0.6013 -0.0059
 9397SOL    HW139824   3.207   3.683  10.685 -0.0499  0.5485 -0.3909
 9397SOL    HW239825   3.219   3.556  10.779  0.9133  0.9250  0.4546
 9398SOL     OW39826   0.246   2.406   4.263 -0.3129  0.7176 -0.7492
 9398SOL    HW139827   0.315   2.456   4.219 -1.2017  1.5314 -1.1902
 9398SOL    HW239828   0.281   2.421   4.351  1.5562 -1.2778 -1.1533
 9399SOL     OW39829   3.116   2.829   7.761 -0.0432  0.5513 -0.4321
 9399SOL    HW139830   3.100   2.783   7.844  1.9099  0.1331 -0.2993
 9399SOL    HW239831   3.207   2.858   7.769  0.1193 -0.3432  1.0414
 9400SOL     OW39832   1.520   1.376   8.258 -0.7563  0.4749 -0.0267
 9400SOL    HW139833   1.537   1.450   8.201  0.6610  0.9308  0.9869
 9400SOL    HW239834   1.431   1.392   8.289 -0.3856  0.3886  1.0881
 9401SOL     OW39835   3.590   2.968   5.442 -0.4336 -0.0437 -0.1912
 9401SOL    HW139836   3.615   2.992   5.531  1.0740  1.8865 -1.1560
 9401SOL    HW239837   3.621   3.044   5.394  0.3923 -0.3514 -0.1370
 9402SOL     OW39838   2.871   4.407  10.073  0.5103  0.1538  0.4101
 9402SOL    HW139839   2.815   4.340  10.035  0.4969 -0.5350  1.6707
 9402SOL    HW239840   2.797   4.466  10.060  0.4879  0.6571  2.8487
 9403SOL     OW39841   1.546   0.744   1.718 -0.3510 -0.4162 -0.2665
 9403SOL    HW139842   1.492   0.823   1.711 -0.2090 -0.5418 -2.7777
 9403SOL    HW239843   1.625   0.776   1.674  0.6113 -2.2741  0.1208
 9404SOL     OW39844   2.936   3.585   9.522  0.2394  0.2995  0.3321
 9404SOL    HW139845   2.896   3.658   9.474 -0.2399  0.4429  0.9446
 9404SOL    HW239846   2.909   3.598   9.613 -1.9366  0.7990 -0.3604
 9405SOL     OW39847   3.566   1.723   1.754 -0.0769  0.3668  0.4516
 9405SOL    HW139848   3.494   1.777   1.721  1.8689  2.8937  0.3610
 9405SOL    HW239849   3.639   1.773   1.716 -0.1415  0.5651  0.5885
 9406SOL     OW39850   1.426   4.298  13.178  0.5264  0.0477  0.0155
 9406SOL    HW139851   1.511   4.292  13.135 -1.3902 -0.3068 -3.7288
 9406SOL    HW239852   1.439   4.381  13.223 -0.2889  1.4435 -2.3511
 9407SOL     OW39853   1.940   1.111   7.541  0.0347 -0.0502  0.0300
 9407SOL    HW139854   1.990   1.130   7.462 -0.5178 -0.5694 -0.4505
 9407SOL    HW239855   1.874   1.058   7.495 -0.7179  1.1218 -0.2483
 9408SOL     OW39856   0.280   0.589   7.166  0.5204  0.2083 -0.1751
 9408SOL    HW139857   0.348   0.566   7.229  0.7871 -0.0665 -0.5634
 9408SOL    HW239858   0.254   0.677   7.194 -1.1232  0.4091 -2.3626
 9409SOL     OW39859   4.268   1.710  15.136  0.0082  0.1529  0.2834
 9409SOL    HW139860   4.245   1.676  15.222  1.9775 -0.4371  0.5769
 9409SOL    HW239861   4.342   1.766  15.159 -0.6408  0.6296  1.1841
 9410SOL     OW39862   4.323   0.994  15.648 -0.7274 -0.1505  0.0681
 9410SOL    HW139863   4.314   1.049  15.726 -0.4850 -1.2373  0.8518
 9410SOL    HW239864   4.251   1.027  15.594  1.4583  1.1332 -2.0592
 9411SOL     OW39865   1.226   2.825  14.403  0.2685  0.0520  0.1560
 9411SOL    HW139866   1.213   2.730  14.400 -0.0645  0.1054 -0.0495
 9411SOL    HW239867   1.295   2.841  14.338 -1.1612  1.0692 -1.1115
 9412SOL     OW39868   4.111   2.365   9.492  0.0121 -0.2839 -0.1313
 9412SOL    HW139869   4.114   2.308   9.415 -2.4195 -2.5094  1.4470
 9412SOL    HW239870   4.042   2.318   9.539  0.2546  0.2404  0.7456
 9413SOL     OW39871   4.326   0.518   9.991 -0.1673 -0.3791  0.6557
 9413SOL    HW139872   4.282   0.459   9.930 -2.0135  2.1347 -0.4576
 9413SOL    HW239873   4.418   0.503   9.970 -0.7944  0.8240 -3.0164
 9414SOL     OW39874   1.739   1.849   3.062 -0.1117 -0.5629 -0.5161
 9414SOL    HW139875   1.834   1.846   3.073 -0.0483  2.8610 -0.2206
 9414SOL    HW239876   1.723   1.936   3.025 -1.2081  0.4063  2.2858
 9415SOL     OW39877   0.409   1.192  10.471  0.9859  0.2284  0.1961
 9415SOL    HW139878   0.387   1.124  10.535  1.1799 -0.2823 -0.2746
 9415SOL    HW239879   0.412   1.271  10.524 -1.4197 -0.1593  0.9007
 9416SOL     OW39880   3.452   2.737  16.250  0.0569 -0.2706 -0.5268
 9416SOL    HW139881   3.485   2.658  16.206  2.1138 -0.2061  0.9261
 9416SOL    HW239882   3.436   2.700  16.336  1.7764  0.4453  0.0908
 9417SOL     OW39883   4.160   0.330  15.800  0.6276  0.6192  0.3484
 9417SOL    HW139884   4.194   0.419  15.791  1.7048  0.3115  1.3647
 9417SOL    HW239885   4.237   0.274  15.794  1.0849  1.4829 -1.5884
 9418SOL     OW39886   4.339   3.896   4.320  0.1390  0.0933 -0.0772
 9418SOL    HW139887   4.305   3.984   4.309 -3.2073 -1.4696 -2.3674
 9418SOL    HW239888   4.315   3.863   4.233  0.8677  0.4497 -0.4070
 9419SOL     OW39889   3.403   2.655  16.497  0.0405 -0.1517 -0.0174
 9419SOL    HW139890   3.456   2.578  16.475  0.6580 -0.2455  1.7935
 9419SOL    HW239891   3.353   2.622  16.571 -3.0715  1.0423 -1.5645
 9420SOL     OW39892   3.477   1.410  14.015  0.0567 -0.5790 -0.3957
 9420SOL    HW139893   3.384   1.397  13.995  0.0949 -2.5944  0.8333
 9420SOL    HW239894   3.498   1.335  14.070  2.9432  1.4020  1.1750
 9421SOL     OW39895   2.129   1.509   2.272 -0.1008  0.3962  0.0323
 9421SOL    HW139896   2.064   1.441   2.290  0.3085  0.0954  0.3619
 9421SOL    HW239897   2.084   1.593   2.273  0.8782  0.9214 -0.1103
 9422SOL     OW39898   2.629   3.082  11.803  0.2048  0.4633 -0.6142
 9422SOL    HW139899   2.606   3.015  11.739  3.1875 -2.9967  1.8454
 9422SOL    HW239900   2.570   3.155  11.786 -1.1397 -0.6053 -0.5367
 9423SOL     OW39901   2.594   1.220   6.066 -0.2584  0.2813 -0.0528
 9423SOL    HW139902   2.501   1.207   6.045  0.3471 -2.3070 -1.0518
 9423SOL    HW239903   2.592   1.236   6.161 -1.0621 -0.5595  0.0738
 9424SOL     OW39904   0.622   4.678   0.201 -0.6131 -0.1988  0.6384
 9424SOL    HW139905   0.560   4.732   0.250 -2.5183 -0.5252 -1.3903
 9424SOL    HW239906   0.685   0.010   0.175  0.9112 -2.8264 -2.3010
 9425SOL     OW39907   0.110   2.628   9.536  0.7566  0.0046  0.1767
 9425SOL    HW139908   0.029   2.579   9.548  1.2318 -0.7751  0.2180
 9425SOL    HW239909   0.080   2.690   9.470  0.4689  2.0530  2.2472
 9426SOL     OW39910   3.831   4.144   6.727 -0.6896  0.7549  0.2987
 9426SOL    HW139911   3.762   4.079   6.717  0.7047 -0.5930 -0.5812
 9426SOL    HW239912   3.827   4.192   6.644 -0.6017  0.1948 -0.0297
 9427SOL     OW39913   0.909   0.384   1.110 -0.0891 -0.0514 -0.1246
 9427SOL    HW139914   0.900   0.294   1.140 -2.8483  0.2339 -0.0937
 9427SOL    HW239915   1.004   0.392   1.103 -0.2140  0.6315 -1.1636
 9428SOL     OW39916   3.328   2.329   6.171 -0.4015  0.1493 -0.1566
 9428SOL    HW139917   3.416   2.354   6.142 -0.2380  0.9607  1.0125
 9428SOL    HW239918   3.293   2.325   6.082  0.6256 -1.5142 -0.4820
 9429SOL     OW39919   0.065   0.609   1.823  0.0170 -0.0244 -0.4664
 9429SOL    HW139920   0.114   0.621   1.905  2.2354 -2.8058 -1.3959
 9429SOL    HW239921   0.024   0.525   1.843 -0.4941  0.2957 -0.1583
 9430SOL     OW39922   3.295   1.828   1.589 -0.5295 -0.3954 -0.3592
 9430SOL    HW139923   3.311   1.889   1.661  2.1083 -0.4347 -0.9014
 9430SOL    HW239924   3.272   1.744   1.630 -2.0149  0.4703  0.5792
 9431SOL     OW39925   1.901   0.959   8.688  0.2583  0.6589 -0.0158
 9431SOL    HW139926   1.909   0.879   8.741  1.1336  0.2555 -0.7559
 9431SOL    HW239927   1.828   0.941   8.629 -0.2081  0.1080  0.7342
 9432SOL     OW39928   1.799   1.125  13.702 -0.3768 -0.0708 -0.1304
 9432SOL    HW139929   1.776   1.039  13.666  0.7005 -1.3184  2.1291
 9432SOL    HW239930   1.894   1.120  13.718 -0.5060  0.9589  0.9881
 9433SOL     OW39931   3.736   2.171  14.667 -0.1884  0.1328  0.3438
 9433SOL    HW139932   3.729   2.076  14.663 -2.4673  0.2776  0.6312
 9433SOL    HW239933   3.693   2.193  14.750 -0.0829 -2.2243  1.0143
 9434SOL     OW39934   3.033   2.625   3.133  0.8230 -0.2464 -0.3136
 9434SOL    HW139935   2.961   2.659   3.080  0.8619  1.0201  0.4376
 9434SOL    HW239936   3.043   2.704   3.186  1.4337  0.5365 -1.5775
 9435SOL     OW39937   3.003   4.021   1.485  0.1870 -0.1905 -0.1633
 9435SOL    HW139938   3.074   4.060   1.536 -1.0375  1.5964  0.1893
 9435SOL    HW239939   2.930   4.031   1.546 -0.0420  2.3093 -0.8526
 9436SOL     OW39940   2.166   2.153   6.867  0.0547  0.0405  0.4591
 9436SOL    HW139941   2.138   2.062   6.872  1.0836 -0.1454  2.7115
 9436SOL    HW239942   2.151   2.166   6.773 -0.4595  1.1486  0.6899
 9437SOL     OW39943   2.977   1.549   9.514  0.0040  0.0972  0.1959
 9437SOL    HW139944   2.936   1.619   9.463 -1.4227 -2.5280 -2.2982
 9437SOL    HW239945   3.042   1.601   9.562 -0.6683  0.6711  0.4970
 9438SOL     OW39946   1.624   3.649  10.396  0.0183 -0.1573 -0.0506
 9438SOL    HW139947   1.587   3.577  10.345  1.2659  0.9849 -2.5565
 9438SOL    HW239948   1.643   3.702  10.319  1.1924  0.7543  0.8586
 9439SOL     OW39949   1.569   4.289   4.664  0.5377 -0.0383  0.0736
 9439SOL    HW139950   1.637   4.301   4.730  0.6624 -1.6594  0.2508
 9439SOL    HW239951   1.622   4.244   4.599  1.6554  1.8840 -0.3475
 9440SOL     OW39952   0.503   2.473   5.189 -0.1017 -0.5241 -0.2781
 9440SOL    HW139953   0.572   2.518   5.239 -1.1050 -0.3350  0.9392
 9440SOL    HW239954   0.501   2.395   5.244  0.5190 -0.7187 -0.5294
 9441SOL     OW39955   2.706   4.098   8.567 -0.6031 -0.1750  0.0061
 9441SOL    HW139956   2.695   4.025   8.506  1.3026 -2.0420  1.8519
 9441SOL    HW239957   2.627   4.149   8.551 -0.4347 -0.1414 -0.7158
 9442SOL     OW39958   2.332   1.233   6.965 -0.0011 -0.3229 -0.1881
 9442SOL    HW139959   2.395   1.283   6.914 -2.6062  0.4544 -2.6518
 9442SOL    HW239960   2.325   1.277   7.050  1.1035  0.2651 -0.4098
 9443SOL     OW39961   1.746   0.333   5.481  0.1247  0.6334  0.0370
 9443SOL    HW139962   1.675   0.382   5.522  2.2609  1.3509  2.9037
 9443SOL    HW239963   1.727   0.242   5.503 -1.2794  1.5325  2.5150
 9444SOL     OW39964   3.436   0.346   5.334  0.5690 -0.2181  0.3402
 9444SOL    HW139965   3.495   0.309   5.268  2.6956  0.6112  1.7870
 9444SOL    HW239966   3.391   0.267   5.363 -1.6114  1.5457  1.7493
 9445SOL     OW39967   3.678   1.606   8.392  0.0253  0.5262  0.2808
 9445SOL    HW139968   3.637   1.573   8.472  0.0359 -0.5256 -0.1444
 9445SOL    HW239969   3.668   1.530   8.334 -2.5711  0.7213  0.4567
 9446SOL     OW39970   1.086   3.591   1.869 -0.1034  0.5049 -0.6064
 9446SOL    HW139971   1.020   3.529   1.900  0.7501  0.1817  0.5864
 9446SOL    HW239972   1.120   3.534   1.800  0.6371 -0.0229  0.2001
 9447SOL     OW39973   2.933   1.011   3.658 -0.1771  0.4948  0.6075
 9447SOL    HW139974   2.946   0.923   3.622  0.4201  1.2860 -1.1072
 9447SOL    HW239975   2.965   1.001   3.748  1.2676  0.0646  0.0588
 9448SOL     OW39976   3.863   0.338   7.345  0.4215 -0.9280 -0.5612
 9448SOL    HW139977   3.791   0.373   7.294  1.7974  1.2214 -1.0374
 9448SOL    HW239978   3.938   0.355   7.288  1.7234  0.5733  1.6072
 9449SOL     OW39979   2.804   0.900   0.902 -0.2121  0.3715  0.0252
 9449SOL    HW139980   2.899   0.911   0.905 -0.0384 -1.1330  0.1318
 9449SOL    HW239981   2.791   0.851   0.983  1.0942 -0.0039  0.0014
 9450SOL     OW39982   0.652   1.883   3.523  0.1815  0.2635 -0.3704
 9450SOL    HW139983   0.667   1.889   3.428  1.4579 -1.1502 -0.2553
 9450SOL    HW239984   0.743   1.877   3.554  0.5978  1.5664 -1.2945
 9451SOL     OW39985   4.013   3.869   2.942 -0.1259  0.5769  0.2465
 9451SOL    HW139986   4.005   3.941   2.879  2.0763 -0.7080 -1.4975
 9451SOL    HW239987   3.967   3.802   2.892  1.9621 -0.5398 -0.1666
 9452SOL     OW39988   2.367   4.712   8.725 -0.2936  0.1919  0.0547
 9452SOL    HW139989   2.344   4.666   8.644 -2.0782 -1.9156  1.7555
 9452SOL    HW239990   2.322   4.658   8.789  1.8145 -1.0496  0.4868
 9453SOL     OW39991   4.677   3.582   1.018  0.0352  0.2888  0.3685
 9453SOL    HW139992   4.678   3.677   1.026  0.8576  0.5141 -2.2465
 9453SOL    HW239993   4.587   3.561   0.992  0.0912 -0.5526  0.8820
 9454SOL     OW39994   3.255   1.230  17.040 -0.0376 -0.1653  0.6337
 9454SOL    HW139995   3.175   1.189  17.072  0.2554 -0.3636  1.1315
 9454SOL    HW239996   3.245   1.314  17.086 -1.8076  0.1931 -0.4305
 9455SOL     OW39997   2.355   1.268   7.660  0.1416  1.2010  0.0215
 9455SOL    HW139998   2.397   1.343   7.618  1.8994 -0.0680 -0.4805
 9455SOL    HW239999   2.421   1.202   7.640 -0.6844  0.9627 -1.8675
 9456SOL     OW40000   2.187   2.091   3.908 -0.1542  0.0054  0.3035
 9456SOL    HW140001   2.198   2.048   3.992  0.3317  1.0581  0.7856
 9456SOL    HW240002   2.254   2.055   3.851  1.7750  1.7345  1.4704
 9457SOL     OW40003   0.663   2.217   8.665  0.0173 -0.4112 -0.6528
 9457SOL    HW140004   0.631   2.292   8.614 -0.8757 -1.3569 -1.5069
 9457SOL    HW240005   0.609   2.231   8.742 -0.2867 -0.0732 -0.9248
 9458SOL     OW40006   3.998   2.137   7.971 -0.0107  0.2335  0.4632
 9458SOL    HW140007   4.032   2.160   8.057  0.5627  1.0903 -0.0024
 9458SOL    HW240008   4.003   2.041   7.974 -1.8450  0.1560  1.0638
 9459SOL     OW40009   0.524   0.047  12.913  0.2079  0.0542  0.2167
 9459SOL    HW140010   0.564   0.106  12.849 -1.5018 -2.0303 -2.7496
 9459SOL    HW240011   0.549   4.696  12.879  1.0894  0.8667 -1.1982
 9460SOL     OW40012   3.673   4.496   7.866 -0.4180  0.3725 -0.0510
 9460SOL    HW140013   3.719   4.579   7.858  0.5704 -0.1663  0.0911
 9460SOL    HW240014   3.587   4.523   7.899 -1.0817  0.5495 -1.9317
 9461SOL     OW40015   3.061   4.140  14.073  0.0429  0.8890 -0.4850
 9461SOL    HW140016   3.112   4.215  14.041  0.2004  0.8477 -0.3335
 9461SOL    HW240017   3.044   4.170  14.162 -1.4461 -0.0501 -0.4618
 9462SOL     OW40018   1.337   3.396   6.276 -0.0775 -0.3080 -0.6753
 9462SOL    HW140019   1.386   3.376   6.356 -0.7156  1.4270  0.1526
 9462SOL    HW240020   1.253   3.406   6.321  0.2986  3.5834 -0.8493
 9463SOL     OW40021   2.838   2.798   3.489 -0.2843 -0.3422  0.4536
 9463SOL    HW140022   2.743   2.798   3.491 -0.3325  0.7920 -2.6355
 9463SOL    HW240023   2.851   2.777   3.582  0.2139  1.6645  0.8191
 9464SOL     OW40024   2.874   2.957  12.422 -0.4670  0.5486 -0.6626
 9464SOL    HW140025   2.950   2.959  12.480 -1.5587  2.8690  0.7114
 9464SOL    HW240026   2.795   2.955  12.477 -1.7508 -3.0369 -2.6252
 9465SOL     OW40027   0.718   4.477   6.011  0.3356  0.0991 -0.3518
 9465SOL    HW140028   0.708   4.569   5.988 -0.1994  0.1492  0.0849
 9465SOL    HW240029   0.657   4.474   6.084  1.0931  2.4429  0.3696
 9466SOL     OW40030   3.261   4.688   3.152  0.1060  0.2494  0.0857
 9466SOL    HW140031   3.319   0.027   3.137  0.1997  0.5554  1.9406
 9466SOL    HW240032   3.184   4.695   3.095 -1.5435 -0.8769  2.1481
 9467SOL     OW40033   3.646   4.417   2.356 -0.6270 -0.6018  0.3909
 9467SOL    HW140034   3.719   4.359   2.333  1.8573  3.3578 -1.7596
 9467SOL    HW240035   3.683   4.464   2.430 -0.1346  0.1504 -0.3286
 9468SOL     OW40036   2.369   3.622   8.369 -0.4559 -0.4708 -0.2871
 9468SOL    HW140037   2.367   3.683   8.295 -0.1702 -0.2146 -0.0811
 9468SOL    HW240038   2.282   3.584   8.365 -0.4899 -0.5328  1.1746
 9469SOL     OW40039   0.735   3.833  11.850 -0.5251  0.1062  0.1364
 9469SOL    HW140040   0.828   3.840  11.828 -0.1382  0.3618  1.8562
 9469SOL    HW240041   0.733   3.808  11.942  1.9862  1.6721  0.6261
 9470SOL     OW40042   4.328   1.455   1.772  0.4054  0.3942 -0.2664
 9470SOL    HW140043   4.289   1.525   1.824  0.1504  1.2235 -1.5654
 9470SOL    HW240044   4.420   1.455   1.798  0.2979  0.2456  0.1030
 9471SOL     OW40045   2.928   1.193   7.826  0.2368  0.2163 -0.4915
 9471SOL    HW140046   2.968   1.153   7.749  1.3683 -0.5452  0.4820
 9471SOL    HW240047   2.887   1.271   7.788 -0.8844 -0.1959 -0.1414
 9472SOL     OW40048   0.433   4.277   2.436  0.3380  0.5216 -0.1725
 9472SOL    HW140049   0.364   4.343   2.426  0.2224  0.6197  1.3769
 9472SOL    HW240050   0.401   4.221   2.506  2.3633 -0.5402 -0.0935
 9473SOL     OW40051   3.145   1.544   2.782 -0.1463 -0.1986  0.2047
 9473SOL    HW140052   3.081   1.525   2.713  2.4868 -1.3025 -1.9333
 9473SOL    HW240053   3.110   1.623   2.824 -2.1860 -1.6043  1.1955
 9474SOL     OW40054   2.615   1.782   5.061 -0.9103  0.1409 -0.6627
 9474SOL    HW140055   2.633   1.713   4.997 -0.3923 -0.1395 -0.2083
 9474SOL    HW240056   2.521   1.775   5.078 -0.1788 -2.7157  2.2099
 9475SOL     OW40057   2.254   3.187   6.498 -0.3052  0.2744 -0.0025
 9475SOL    HW140058   2.341   3.200   6.460 -0.7783  2.9462 -0.1344
 9475SOL    HW240059   2.217   3.273   6.481  0.3400  0.4729 -0.4354
 9476SOL     OW40060   4.382   2.015   6.014  0.3843  0.1883 -0.1083
 9476SOL    HW140061   4.449   1.979   5.957  0.2904  0.7791 -0.5903
 9476SOL    HW240062   4.308   1.958   5.990  0.1964  0.3969 -0.0253
 9477SOL     OW40063   1.633   0.715   3.855  0.2145 -0.3448 -0.4785
 9477SOL    HW140064   1.553   0.669   3.880  1.1216 -0.9078  1.3825
 9477SOL    HW240065   1.700   0.647   3.861  2.1047  1.5366  0.1866
 9478SOL     OW40066   1.150   2.607  10.241  0.1980 -0.1494  0.1129
 9478SOL    HW140067   1.087   2.639  10.177 -0.3188 -3.0221 -0.8454
 9478SOL    HW240068   1.233   2.595  10.194  0.1064  0.3384 -0.1698
 9479SOL     OW40069   2.931   2.116  16.948 -0.4501 -0.0462 -0.6800
 9479SOL    HW140070   2.838   2.124  16.968 -0.5096  0.8310 -1.3410
 9479SOL    HW240071   2.972   2.157  17.025 -1.9297 -0.6342  0.4204
 9480SOL     OW40072   2.882   0.983  15.367 -0.6218 -0.0767  0.0349
 9480SOL    HW140073   2.814   1.027  15.317 -0.5549  1.2955  1.1381
 9480SOL    HW240074   2.948   1.049  15.389 -3.1401  2.2772  0.6322
 9481SOL     OW40075   3.068   1.030   2.870  0.1009  0.3817 -0.5223
 9481SOL    HW140076   3.090   1.116   2.906  1.6531 -0.4955  0.6299
 9481SOL    HW240077   3.156   0.993   2.868  0.0627  0.4175 -2.9430
 9482SOL     OW40078   3.732   1.876   6.894  0.0933 -0.2474 -0.2108
 9482SOL    HW140079   3.655   1.906   6.942  0.0439 -1.1746  0.2936
 9482SOL    HW240080   3.770   1.958   6.863 -0.8970  1.2681  2.6084
 9483SOL     OW40081   0.659   2.144   9.593 -0.5510 -0.6758  0.0697
 9483SOL    HW140082   0.601   2.075   9.561 -0.2078 -0.4135 -1.1418
 9483SOL    HW240083   0.667   2.138   9.688  0.3779 -0.8595 -0.0275
 9484SOL     OW40084   0.960   1.678   2.455 -0.2118 -0.4659 -0.3129
 9484SOL    HW140085   1.040   1.666   2.404  0.5066  0.8466  0.5260
 9484SOL    HW240086   0.906   1.689   2.377  0.1767 -2.6273 -0.8988
 9485SOL     OW40087   0.636   3.217   7.830 -0.0795 -0.1764 -0.0570
 9485SOL    HW140088   0.675   3.172   7.906  0.1568 -0.4674 -0.3489
 9485SOL    HW240089   0.698   3.285   7.807 -2.1856  1.3149 -1.3165
 9486SOL     OW40090   2.388   0.758   3.662 -0.1572  0.4321  0.2568
 9486SOL    HW140091   2.450   0.795   3.725 -1.4006 -0.2201  1.8788
 9486SOL    HW240092   2.306   0.789   3.701 -0.2709 -1.6346  1.6149
 9487SOL     OW40093   0.570   0.354   3.228 -0.0065  0.1891 -1.1123
 9487SOL    HW140094   0.656   0.395   3.243  0.4087 -0.9163 -0.4648
 9487SOL    HW240095   0.522   0.410   3.290 -0.7915 -2.3525  0.5764
 9488SOL     OW40096   2.685   1.430   3.928  0.9062  0.2952  0.5248
 9488SOL    HW140097   2.662   1.422   3.835 -2.8825  1.6050  1.3242
 9488SOL    HW240098   2.715   1.521   3.932  2.6350 -0.5415  6.0145
 9489SOL     OW40099   0.391   1.109   8.921  0.4980  0.0132  0.0139
 9489SOL    HW140100   0.445   1.119   8.842 -2.6833  1.0294 -2.0657
 9489SOL    HW240101   0.306   1.114   8.876 -0.2232  2.0794  1.6145
 9490SOL     OW40102   3.784   3.475  14.327 -0.2930  0.1571  0.0806
 9490SOL    HW140103   3.872   3.468  14.364 -0.7338 -0.1975  1.0728
 9490SOL    HW240104   3.737   3.429  14.397 -0.5376  0.9596  0.4393
 9491SOL     OW40105   2.949   3.240   8.393  0.5473 -0.4236 -1.1138
 9491SOL    HW140106   2.912   3.215   8.478  0.8877 -0.2960 -0.9256
 9491SOL    HW240107   3.025   3.183   8.389  0.0587 -1.0612 -1.1859
 9492SOL     OW40108   4.173   4.401  11.385 -0.4290  0.2198  0.0269
 9492SOL    HW140109   4.138   4.450  11.311 -1.1231  1.2612  1.0509
 9492SOL    HW240110   4.263   4.385  11.355  0.2650  0.3243  2.0699
 9493SOL     OW40111   3.825   4.298  14.103 -0.3234 -0.1646  0.3918
 9493SOL    HW140112   3.862   4.377  14.064 -0.9739  0.2501  0.6221
 9493SOL    HW240113   3.842   4.318  14.195  0.9626  0.1017  0.1077
 9494SOL     OW40114   4.488   2.460  11.552  0.0233 -0.2589  0.0627
 9494SOL    HW140115   4.555   2.410  11.600 -1.0961 -2.5526 -0.7801
 9494SOL    HW240116   4.417   2.398  11.564  1.5746 -2.1165 -0.3391
 9495SOL     OW40117   2.774   1.332  17.599  0.2041  0.1700  0.0423
 9495SOL    HW140118   2.824   1.380  17.665 -0.7894 -1.3242  1.9002
 9495SOL    HW240119   2.795   1.241  17.620  0.2908 -0.3209 -2.2455
 9496SOL     OW40120   1.933   2.671   9.214 -0.3669  0.4516  0.0155
 9496SOL    HW140121   1.996   2.721   9.265 -0.8708  1.0662  0.0268
 9496SOL    HW240122   1.878   2.624   9.276  0.7038  1.0269  1.3849
 9497SOL     OW40123   4.272   1.227   5.158  0.0388  0.0751 -0.0583
 9497SOL    HW140124   4.240   1.228   5.248  1.1099 -4.0506  0.3632
 9497SOL    HW240125   4.204   1.278   5.114 -1.4614 -0.3530  1.7599
 9498SOL     OW40126   2.307   1.439   0.473 -0.3732 -0.2746  0.8498
 9498SOL    HW140127   2.365   1.365   0.459 -0.0903  0.2929 -1.0702
 9498SOL    HW240128   2.234   1.414   0.415  0.3000 -3.3409  1.3174
 9499SOL     OW40129   3.404   0.758   5.400 -0.0722 -0.8546 -0.3197
 9499SOL    HW140130   3.474   0.696   5.379 -0.0959 -0.7701 -0.6528
 9499SOL    HW240131   3.431   0.793   5.485  1.0089  0.1350 -1.0723
 9500SOL     OW40132   1.761   0.682  17.598  0.2344  0.2709  0.1452
 9500SOL    HW140133   1.753   0.770  17.562  1.8900 -0.3102 -1.6318
 9500SOL    HW240134   1.841   0.647  17.561 -1.4168 -2.3300 -1.0070
 9501SOL     OW40135   0.226   2.221   7.592 -0.0636  0.2051  0.4172
 9501SOL    HW140136   0.217   2.309   7.555 -1.1335 -0.1116 -0.0867
 9501SOL    HW240137   0.240   2.237   7.685  1.1395 -2.8194  0.7583
 9502SOL     OW40138   2.298   1.687   8.632  0.8918  0.7730  0.3277
 9502SOL    HW140139   2.269   1.619   8.572  2.1140  1.5670 -1.1488
 9502SOL    HW240140   2.228   1.750   8.613  1.4340  2.1310  2.7781
 9503SOL     OW40141   1.410   1.969  14.250 -0.2901 -0.0125  0.3463
 9503SOL    HW140142   1.455   2.021  14.316  1.4109  1.9319 -2.3263
 9503SOL    HW240143   1.450   2.004  14.170  1.6784 -0.9980  0.8789
 9504SOL     OW40144   3.301   1.226   1.495  0.5369 -0.6263 -0.1844
 9504SOL    HW140145   3.319   1.154   1.557 -0.8748 -2.3237 -1.7301
 9504SOL    HW240146   3.388   1.265   1.489 -0.2180  1.2330  1.1271
 9505SOL     OW40147   0.302   1.542   5.097 -0.0641 -0.3820  0.0377
 9505SOL    HW140148   0.361   1.491   5.041  2.6411  1.1755  1.4442
 9505SOL    HW240149   0.217   1.538   5.054 -0.0163 -0.2181 -0.0730
 9506SOL     OW40150   0.028   2.885   0.209 -0.1655  0.2305 -0.1106
 9506SOL    HW140151   0.035   2.922   0.297 -2.6358  2.5894 -0.8627
 9506SOL    HW240152   0.007   2.793   0.223  0.5977 -0.0242 -0.6640
 9507SOL     OW40153   4.101   2.644   3.494 -0.1633 -0.2800 -0.0876
 9507SOL    HW140154   4.197   2.650   3.499 -0.1477  1.0144 -1.9717
 9507SOL    HW240155   4.073   2.734   3.483  1.5514  0.2838  0.2055
 9508SOL     OW40156   0.085   2.166   3.409 -0.0241 -1.0552  0.1694
 9508SOL    HW140157   0.072   2.180   3.502 -0.5792 -0.8076  0.0515
 9508SOL    HW240158   0.145   2.092   3.421  1.1685 -0.2357 -0.6794
 9509SOL     OW40159   1.077   0.970   6.076  0.2554  0.2147 -0.7764
 9509SOL    HW140160   1.145   0.926   6.126  0.6773  0.5119 -1.0886
 9509SOL    HW240161   1.035   1.019   6.147 -0.3969 -3.1015  1.1191
 9510SOL     OW40162   0.235   2.508   6.364  0.5412  0.0514 -0.2103
 9510SOL    HW140163   0.203   2.597   6.376 -1.5652 -0.7490  0.1895
 9510SOL    HW240164   0.163   2.469   6.314  1.2653 -0.4738 -0.8431
 9511SOL     OW40165   0.135   1.232   3.017  0.2126  0.4623 -0.1551
 9511SOL    HW140166   0.086   1.153   2.994  3.2260 -1.1192 -1.1491
 9511SOL    HW240167   0.160   1.271   2.933  0.3201  1.0790  0.1638
 9512SOL     OW40168   2.375   1.009  14.809  0.3386  0.7085  0.4631
 9512SOL    HW140169   2.306   0.998  14.744  1.9132  0.5924 -1.1986
 9512SOL    HW240170   2.422   1.088  14.782  2.6149 -0.3788  1.2596
 9513SOL     OW40171   3.410   4.576   7.891 -0.0556 -0.0603  0.2773
 9513SOL    HW140172   3.403   4.671   7.877 -0.4174  0.1283  1.7527
 9513SOL    HW240173   3.381   4.544   7.806  0.8768  0.6523 -0.3178
 9514SOL     OW40174   3.162   3.717   9.098  0.1629 -0.2859  0.5628
 9514SOL    HW140175   3.175   3.761   9.182 -0.5890 -2.4801  1.8370
 9514SOL    HW240176   3.092   3.663   9.135 -0.3467 -0.2876 -0.3940
 9515SOL     OW40177   0.435   0.005  13.630  0.3720 -0.2199 -0.2116
 9515SOL    HW140178   0.379   4.686  13.687  0.2349  1.0641  0.8681
 9515SOL    HW240179   0.496   4.670  13.606 -1.4121 -1.4392 -1.1529
 9516SOL     OW40180   1.151   3.503  14.373  0.2748  0.2581  0.3760
 9516SOL    HW140181   1.163   3.519  14.467 -1.2817 -1.6597  0.9212
 9516SOL    HW240182   1.192   3.576  14.328 -0.7661 -0.3967 -1.6101
 9517SOL     OW40183   2.752   2.254   6.859  0.4062 -0.4106  0.1057
 9517SOL    HW140184   2.838   2.295   6.860 -0.0130  0.4911 -1.0846
 9517SOL    HW240185   2.773   2.161   6.869 -1.5378 -0.7080  1.5565
 9518SOL     OW40186   0.407   3.803   7.939  0.3771 -0.3114  0.0962
 9518SOL    HW140187   0.431   3.711   7.926 -1.8337 -0.8979  0.1711
 9518SOL    HW240188   0.330   3.790   7.994 -0.5292 -1.2646 -1.4093
 9519SOL     OW40189   2.332   3.819   9.020 -0.0751  0.2780 -0.2103
 9519SOL    HW140190   2.397   3.807   8.951 -0.9028 -2.2980 -0.5316
 9519SOL    HW240191   2.357   3.904   9.057 -1.3581  1.1856 -1.4189
 9520SOL     OW40192   2.792   0.667  16.419  0.5721  0.1069  0.2008
 9520SOL    HW140193   2.722   0.721  16.455 -0.5223 -2.4060  1.8425
 9520SOL    HW240194   2.789   0.689  16.326  2.4224  0.0684  0.1389
 9521SOL     OW40195   3.532   4.170   6.371 -0.1913 -0.0639  0.4074
 9521SOL    HW140196   3.591   4.143   6.442 -0.4748  1.7534  1.3268
 9521SOL    HW240197   3.517   4.082   6.336  0.1821  0.1483 -0.2837
 9522SOL     OW40198   0.840   3.725  17.351  0.0347  0.3449 -0.1535
 9522SOL    HW140199   0.873   3.693  17.267  1.7698  0.9791  0.2980
 9522SOL    HW240200   0.889   3.673  17.414  1.7102  0.7499 -1.1248
 9523SOL     OW40201   3.821   1.571  15.689 -0.0491  0.3428  0.4510
 9523SOL    HW140202   3.767   1.509  15.639  0.7072  0.3572 -0.3828
 9523SOL    HW240203   3.779   1.558  15.774 -3.2961 -1.8054 -1.4928
 9524SOL     OW40204   1.410   2.622   3.033 -0.3551 -0.1335  0.0757
 9524SOL    HW140205   1.492   2.660   3.001 -0.1480 -1.6176 -1.1721
 9524SOL    HW240206   1.413   2.542   2.981  1.9501 -0.3471  0.5347
 9525SOL     OW40207   4.353   0.065   9.911  0.1067 -0.1312 -0.3518
 9525SOL    HW140208   4.289   0.046   9.980  2.1480  2.0764  2.1476
 9525SOL    HW240209   4.401   4.717   9.905  1.5799  0.6764  0.1129
 9526SOL     OW40210   1.919   4.224   2.990  0.0531 -0.2117  0.1274
 9526SOL    HW140211   1.868   4.293   3.031 -1.8035 -1.8010  0.4769
 9526SOL    HW240212   1.956   4.268   2.914  1.4590 -3.4995 -1.0871
 9527SOL     OW40213   4.292   0.760   1.562  0.0274 -0.3450 -0.7978
 9527SOL    HW140214   4.235   0.791   1.491 -1.8250  1.8314  1.6314
 9527SOL    HW240215   4.319   0.672   1.537  0.0589 -0.4612 -0.3526
 9528SOL     OW40216   1.610   0.542  12.986 -0.1272  0.8365 -0.3821
 9528SOL    HW140217   1.668   0.483  12.939 -2.3002 -2.5733  1.1607
 9528SOL    HW240218   1.656   0.559  13.069  1.0495 -1.2190 -0.6319
 9529SOL     OW40219   2.063   3.402   7.070  0.4408 -0.0222  0.3033
 9529SOL    HW140220   2.074   3.345   7.146  0.5298  0.9521  1.0226
 9529SOL    HW240221   2.059   3.337   7.000  0.3873 -1.3107  1.5149
 9530SOL     OW40222   3.885   1.404   2.463  0.4105  0.1007 -0.4320
 9530SOL    HW140223   3.868   1.335   2.399  0.8851 -0.3980 -0.0207
 9530SOL    HW240224   3.802   1.419   2.508 -1.0797 -3.1962 -2.0936
 9531SOL     OW40225   0.910   3.075   1.451  0.2433 -0.2875  0.3253
 9531SOL    HW140226   0.814   3.077   1.453  0.2577  0.8273 -0.1427
 9531SOL    HW240227   0.928   3.026   1.531  1.7036 -0.3130 -0.0212
 9532SOL     OW40228   2.698   0.917  17.443 -0.5545 -0.0590  0.2045
 9532SOL    HW140229   2.696   0.822  17.455  1.6758 -0.2284 -0.6905
 9532SOL    HW240230   2.694   0.924  17.348 -4.8429 -0.8232  0.3572
 9533SOL     OW40231   2.971   3.180   8.784  0.0358 -0.2949  0.2771
 9533SOL    HW140232   2.974   3.276   8.773 -1.7120 -0.2596  0.1271
 9533SOL    HW240233   3.031   3.167   8.857  0.0872 -1.9189 -0.0643
 9534SOL     OW40234   2.950   4.629  14.657 -0.7826 -0.1057 -0.4570
 9534SOL    HW140235   2.953   4.579  14.738 -0.1922 -1.3137 -1.2231
 9534SOL    HW240236   2.856   4.644  14.644 -0.9262 -0.7370 -0.1762
 9535SOL     OW40237   3.901   1.619   6.284 -0.5835  0.0236  0.0675
 9535SOL    HW140238   3.883   1.582   6.198 -0.3574 -1.7684  0.8050
 9535SOL    HW240239   3.960   1.690   6.258 -0.6455 -0.2013 -0.6690
 9536SOL     OW40240   1.302   3.066   7.746  0.5415 -0.1682 -0.1247
 9536SOL    HW140241   1.289   3.029   7.833  1.5554 -1.4438 -0.5265
 9536SOL    HW240242   1.352   3.147   7.762 -2.7699  2.0073 -0.7905
 9537SOL     OW40243   0.031   0.911   3.688  0.1085  0.1392  0.1535
 9537SOL    HW140244   4.706   0.965   3.637  0.4659  0.4891  0.1060
 9537SOL    HW240245   0.100   0.906   3.622 -1.5183 -0.8182 -1.4705
 9538SOL     OW40246   3.545   2.997   3.653 -0.3826 -0.2960  0.2653
 9538SOL    HW140247   3.567   3.031   3.740  1.4329 -0.9899  0.0684
 9538SOL    HW240248   3.454   2.972   3.672 -0.2893 -0.5673  0.3477
 9539SOL     OW40249   3.076   4.232   6.484 -0.4259 -0.7914 -0.7975
 9539SOL    HW140250   3.136   4.178   6.432 -0.3985 -0.5689 -0.9962
 9539SOL    HW240251   2.994   4.190   6.461 -0.2012  0.3032 -3.6106
 9540SOL     OW40252   2.242   2.863  14.812 -0.3814 -0.1044 -0.2265
 9540SOL    HW140253   2.265   2.786  14.862  1.5271  2.5014  2.8874
 9540SOL    HW240254   2.157   2.890  14.847  0.3579  2.3546 -0.2764
 9541SOL     OW40255   3.076   1.960   8.467 -0.4626 -0.1242 -0.3221
 9541SOL    HW140256   3.097   2.054   8.464 -2.4447  0.2880 -1.8649
 9541SOL    HW240257   3.148   1.938   8.408  0.0252  0.6515 -0.0177
 9542SOL     OW40258   3.514   2.344   5.080 -0.2454 -0.0319  0.4730
 9542SOL    HW140259   3.503   2.264   5.030 -0.6440  0.4423 -0.1959
 9542SOL    HW240260   3.538   2.403   5.008  2.3910 -2.1528 -0.3767
 9543SOL     OW40261   1.624   2.913   0.379 -0.1909 -0.1070 -0.2745
 9543SOL    HW140262   1.709   2.925   0.335 -0.8088  1.5937 -1.0101
 9543SOL    HW240263   1.661   2.885   0.463 -0.6419 -0.0946 -0.0750
 9544SOL     OW40264   4.314   4.489   7.333 -0.3622  0.2181 -0.1966
 9544SOL    HW140265   4.339   4.514   7.244 -2.3914  0.4314 -0.7145
 9544SOL    HW240266   4.219   4.488   7.324 -0.3119 -0.5532 -0.6908
 9545SOL     OW40267   1.786   4.045   4.367 -0.1253 -0.3070 -0.1894
 9545SOL    HW140268   1.774   3.998   4.284  1.4949  0.5147 -0.8910
 9545SOL    HW240269   1.802   4.132   4.329  2.2322 -1.6954 -2.3637
 9546SOL     OW40270   0.377   2.554   0.889  0.3990  0.4777  0.1112
 9546SOL    HW140271   0.393   2.505   0.808 -2.0182 -1.0814  0.5790
 9546SOL    HW240272   0.282   2.546   0.885  0.6103 -0.0456 -3.6030
 9547SOL     OW40273   1.273   3.581  17.637  0.5012  0.0729  0.4150
 9547SOL    HW140274   1.314   3.604  17.720  0.6103  4.5174 -0.8920
 9547SOL    HW240275   1.192   3.537  17.664  0.0463  0.8944  0.3924
 9548SOL     OW40276   0.173   1.331   7.187  0.0885  0.3620  0.2976
 9548SOL    HW140277   0.138   1.407   7.234  0.0469  0.5785 -0.0845
 9548SOL    HW240278   0.162   1.273   7.262 -2.3461  0.7242  0.2461
 9549SOL     OW40279   1.066   3.203  15.371  0.5720 -0.6259  0.7857
 9549SOL    HW140280   0.981   3.172  15.402  0.0444  0.5525  0.5137
 9549SOL    HW240281   1.075   3.146  15.295 -2.9584 -1.1104  0.7418
 9550SOL     OW40282   2.713   2.884   3.122 -0.7977  0.1970 -0.0546
 9550SOL    HW140283   2.629   2.913   3.160 -1.2020 -4.7016  2.7609
 9550SOL    HW240284   2.733   2.958   3.065  0.7067  0.9603  1.4452
 9551SOL     OW40285   1.118   2.289  12.021 -0.0796 -0.2803 -0.1265
 9551SOL    HW140286   1.204   2.249  12.034  0.5810  0.9628 -0.6424
 9551SOL    HW240287   1.076   2.272  12.105  2.4799  1.8911  1.5615
 9552SOL     OW40288   0.829   4.380   0.280  0.1753 -0.0424 -0.1141
 9552SOL    HW140289   0.923   4.383   0.298  0.0796  0.8914  0.1973
 9552SOL    HW240290   0.790   4.423   0.356  1.0655 -0.8812  0.8180
 9553SOL     OW40291   3.746   1.988   1.884 -0.2553  0.2472  0.1983
 9553SOL    HW140292   3.686   2.012   1.954 -0.5573 -0.4038  0.1624
 9553SOL    HW240293   3.808   2.057   1.908  2.3122 -2.4775  1.4579
 9554SOL     OW40294   2.670   3.944   8.998 -0.7391 -0.1166 -0.5925
 9554SOL    HW140295   2.596   4.000   8.974  2.0191  3.0896 -1.5762
 9554SOL    HW240296   2.638   3.867   8.951  4.6640 -3.2557  0.9226
 9555SOL     OW40297   2.250   2.688   2.092 -0.4272  0.5504  0.3330
 9555SOL    HW140298   2.336   2.664   2.127  0.4955  1.8535 -1.0240
 9555SOL    HW240299   2.273   2.775   2.056  1.6859 -0.0524  0.1928
 9556SOL     OW40300   2.421   0.231  13.736 -0.2492  0.3025 -0.4363
 9556SOL    HW140301   2.346   0.273  13.695 -0.2829  0.0463 -0.6390
 9556SOL    HW240302   2.404   0.247  13.828 -2.9547  0.0137 -0.8950
 9557SOL     OW40303   3.502   0.530   7.524 -0.2249 -0.5983  0.4919
 9557SOL    HW140304   3.482   0.583   7.601  0.3420  0.3583 -0.0224
 9557SOL    HW240305   3.545   0.454   7.565  2.1038 -0.5439 -1.8434
 9558SOL     OW40306   1.289   3.154  16.680 -0.1772  0.4708  0.3388
 9558SOL    HW140307   1.377   3.142  16.646 -0.5517  0.0115 -0.4622
 9558SOL    HW240308   1.273   3.246  16.656 -0.0736  0.3108 -0.3372
 9559SOL     OW40309   1.067   3.116  13.268  0.2888  0.2306  0.5652
 9559SOL    HW140310   1.029   3.193  13.310 -1.4631 -0.3008 -0.0566
 9559SOL    HW240311   0.999   3.093  13.205  0.4195  1.2270  0.0581
 9560SOL     OW40312   0.199   4.196  14.142  0.1679  0.3099 -0.3073
 9560SOL    HW140313   0.197   4.156  14.054 -1.0062  0.4562 -0.3537
 9560SOL    HW240314   0.106   4.214  14.155 -0.6963 -1.2150 -4.3572
 9561SOL     OW40315   2.057   1.049   4.645 -0.3062  0.2749  0.1386
 9561SOL    HW140316   1.976   1.050   4.697 -0.2030 -0.2244  0.3071
 9561SOL    HW240317   2.034   1.123   4.588  1.0549  0.2752 -0.4151
 9562SOL     OW40318   3.165   3.067   7.519  0.2878 -0.0367  0.2154
 9562SOL    HW140319   3.228   3.137   7.499 -0.2426  0.1052 -0.9531
 9562SOL    HW240320   3.081   3.110   7.505  0.4479 -0.1338 -1.0496
 9563SOL     OW40321   1.191   2.016   4.034  0.1692  0.3524  0.1450
 9563SOL    HW140322   1.220   2.106   4.047 -1.9018  0.9473  0.5396
 9563SOL    HW240323   1.266   1.966   4.067  0.3967 -0.2096 -1.2556
 9564SOL     OW40324   4.696   1.992   9.598  0.1861  0.4507  0.3129
 9564SOL    HW140325   4.627   2.058   9.602 -0.5082 -0.2284 -0.3727
 9564SOL    HW240326   0.014   2.010   9.676 -0.9490 -1.1768  1.4723
 9565SOL     OW40327   2.937   3.458  12.184  0.2327 -0.0326 -0.5383
 9565SOL    HW140328   2.955   3.381  12.239  1.7795  0.2573 -0.6405
 9565SOL    HW240329   3.012   3.515  12.200 -0.3574  0.6111 -0.0608
 9566SOL     OW40330   0.005   1.099   0.165  0.2856 -0.3411  0.2461
 9566SOL    HW140331   0.097   1.121   0.152 -0.0975 -0.2445 -2.4498
 9566SOL    HW240332   0.011   1.005   0.151  1.1553 -0.4363  1.2911
 9567SOL     OW40333   4.497   3.884   2.980  0.2017  0.4362 -0.1078
 9567SOL    HW140334   4.486   3.838   3.063 -1.0687 -1.5689 -1.3802
 9567SOL    HW240335   4.592   3.896   2.978  0.2736 -0.0228  0.4453
 9568SOL     OW40336   2.003   4.581   8.612  0.0980  0.6556  0.0802
 9568SOL    HW140337   1.993   4.676   8.611 -3.7658  0.2594  1.1990
 9568SOL    HW240338   1.915   4.547   8.625  0.4503 -0.2440  0.1354
 9569SOL     OW40339   1.557   2.035   8.749 -0.7577  0.0397  0.1080
 9569SOL    HW140340   1.488   2.064   8.691  0.7606  0.4251 -1.5174
 9569SOL    HW240341   1.601   1.982   8.682 -0.4631  1.2136 -0.6251
 9570SOL     OW40342   2.527   3.377   8.376 -0.5009  0.5125 -0.0675
 9570SOL    HW140343   2.525   3.471   8.396 -0.8647  0.5705 -0.3658
 9570SOL    HW240344   2.477   3.379   8.295 -2.0592 -0.4033  0.8807
 9571SOL     OW40345   1.793   4.637   2.252  0.6174 -0.2887 -0.4645
 9571SOL    HW140346   1.861   4.648   2.186  1.3871  0.4776  0.4659
 9571SOL    HW240347   1.792   4.541   2.257 -0.5264 -0.2211  0.6821
   4.73477   4.73477  17.73804
