Membrane in water
40347
    1TMC1    C1    1   2.952   0.847  11.923  0.7949  1.4555 -0.2647
    1TMC1    C2    2   3.076   0.782  11.921 -0.3095 -0.0877 -0.5651
    1TMC1    C3    3   3.177   0.855  11.867  0.9117  0.2156  0.1723
    1TMC1    C4    4   2.929   0.974  11.864  0.1660 -0.4580  0.3617
    1TMC1    C5    5   3.037   1.033  11.806  0.0414 -0.7603  0.0661
    1TMC1    C6    6   3.159   0.973  11.806 -0.0067 -0.1386  0.4449
    1TMC1     C    7   2.836   0.770  11.974 -0.6693  0.1077  0.2410
    1TMC1     O    8   2.740   0.839  12.005  0.1254  0.6448 -0.0680
    1TMC1     H    9   3.085   0.694  11.984  1.1034  0.6875  0.3325
    1TMC1    H1   10   2.827   1.009  11.860  0.5537  0.3342 -3.0432
    1TMC1    H2   11   3.244   1.025  11.763 -0.4081  0.4665  0.3899
    1TMC1    C7   12   3.038   1.171  11.768  0.0450 -0.0612  1.2153
    1TMC1    C8   13   3.299   0.786  11.847  0.5646  0.0248  0.0793
    1TMC1    O1   14   3.142   1.237  11.755 -0.0986  0.1459  0.1725
    1TMC1    O2   15   3.299   0.669  11.866  0.7012 -0.8735 -0.5730
    1TMC1    O3   16   2.920   1.210  11.730 -0.1468 -0.4178 -0.4562
    1TMC1    H3   17   2.850   1.141  11.735 -0.9535  0.3195 -1.5256
    1TMC1    O5   18   3.401   0.876  11.859 -0.5666  0.3434  0.2336
    1TMC1    H5   19   3.369   0.967  11.877  1.2141  1.2120 -0.9657
    2MPD2     C   20   2.547   0.346  12.010  0.6876  0.3904  0.2644
    2MPD2    C1   21   2.522   0.480  12.032  0.1544  0.4772 -0.2349
    2MPD2    C2   22   2.618   0.578  12.033 -0.5979 -0.1848 -0.2502
    2MPD2    C3   23   2.741   0.536  11.978  0.1553  0.5876  0.4342
    2MPD2    C4   24   2.766   0.402  11.954 -0.3507 -0.8423  0.3592
    2MPD2    C5   25   2.669   0.307  11.962  0.2818 -0.0966  0.3708
    2MPD2     H   26   2.592   0.678  12.065 -0.4188 -0.2291  0.0334
    2MPD2    H1   27   2.866   0.382  11.917 -0.7040  0.3942 -1.2993
    2MPD2    H2   28   2.476   0.266  12.027  1.5949 -0.2603  0.9336
    2MPD2    H3   29   2.702   0.206  11.942  0.3281 -0.1353  0.6532
    2MPD2     N   30   2.846   0.633  11.959  0.5373  0.2259 -0.1995
    2MPD2    H5   31   2.934   0.601  11.921  1.3814  2.9214 -0.5325
    2MPD2    N1   32   2.395   0.522  12.086 -0.3684 -0.6513  0.3949
    2MPD2    H7   33   2.387   0.612  12.132  0.3883 -0.1409 -0.4867
    3TMC1    C1   34   1.769   0.814  10.908  0.3322 -0.2910 -0.2202
    3TMC1    C2   35   1.861   0.891  10.851  0.2178 -0.0697 -0.2924
    3TMC1    C3   36   1.922   0.841  10.740  0.8463  0.8276  0.0269
    3TMC1    C4   37   1.744   0.690  10.870 -0.3707  0.4204 -0.2981
    3TMC1    C5   38   1.823   0.637  10.775  0.6033 -0.4857 -1.1169
    3TMC1    C6   39   1.909   0.716  10.699  0.7076 -0.7677 -0.6826
    3TMC1     C   40   1.708   0.852  11.039 -0.1931 -0.0753 -0.3350
    3TMC1     O   41   1.652   0.761  11.098  0.4859  0.3856 -0.3736
    3TMC1     H   42   1.879   0.995  10.879 -0.7939 -0.1542  0.6423
    3TMC1    H1   43   1.671   0.630  10.922 -0.1790  0.7206  0.3087
    3TMC1    H2   44   1.962   0.682  10.611  0.8941 -0.1788 -0.7968
    3TMC1    C7   45   1.766   0.527  10.703  0.0129 -0.1840  0.0009
    3TMC1    C8   46   1.972   0.930  10.636 -0.1566  0.1429 -0.8317
    3TMC1    O1   47   1.647   0.500  10.705 -0.6273 -0.4262 -0.1629
    3TMC1    O2   48   2.056   0.901  10.552 -0.3182 -0.1705 -0.2323
    3TMC1    O3   49   1.866   0.457  10.640  0.0873  0.2820  0.2657
    3TMC1    H3   50   1.951   0.503  10.656  0.3385 -0.5726  1.3503
    3TMC1    O5   51   1.909   1.048  10.638 -0.3542  0.1927 -0.1529
    3TMC1    H5   52   1.851   1.084  10.708 -0.2947  1.7556 -0.9060
    4MPD2     C   53   1.444   1.201  11.306 -0.1228  0.5407 -0.0758
    4MPD2    C1   54   1.530   1.271  11.222  0.4181 -0.7188 -0.3707
    4MPD2    C2   55   1.612   1.198  11.138  0.3863  0.9000  0.8200
    4MPD2    C3   56   1.613   1.060  11.146  0.5652  0.4141  0.4028
    4MPD2    C4   57   1.526   0.989  11.232  0.3815 -0.7167  0.1436
    4MPD2    C5   58   1.439   1.065  11.305  0.1937  0.0752 -0.7782
    4MPD2     H   59   1.678   1.252  11.071 -0.5842  0.2229 -0.6763
    4MPD2    H1   60   1.513   0.881  11.229 -2.8238 -0.3865  1.9430
    4MPD2    H2   61   1.368   1.247  11.368 -0.0445  0.1881  0.2838
    4MPD2    H3   62   1.362   1.017  11.364  2.1258  0.3954  2.0511
    4MPD2     N   63   1.699   0.992  11.057  0.8104  0.1541  0.0622
    4MPD2    H5   64   1.745   1.060  10.997  0.3542 -0.7429 -1.3054
    4MPD2    N1   65   1.541   1.409  11.225  0.4383  0.2203  0.2785
    4MPD2    H7   66   1.616   1.442  11.165 -1.4101  0.6221 -1.8146
    5TCq1    O1   67   2.837   2.563  12.341  0.3638  0.1105 -0.4120
    5TCq1    C1   68   2.788   2.522  12.220  0.5102 -0.4503 -0.1216
    5TCq1    O2   69   2.853   2.500  12.118  0.2657  0.4364 -0.1852
    5TCq1    C2   70   2.646   2.520  12.234  0.3263  0.3006  0.5202
    5TCq1    C3   71   2.581   2.508  12.350 -0.1060 -0.2383  0.1276
    5TCq1    C4   72   2.446   2.536  12.356  0.6188  0.1775 -1.0585
    5TCq1    C5   73   2.381   2.585  12.249  0.0959  0.1311 -0.6119
    5TCq1    C6   74   2.451   2.601  12.136 -0.8518  0.2916  0.1518
    5TCq1    C7   75   2.583   2.564  12.124 -0.3770 -0.2106 -0.3432
    5TCq1    C8   76   2.391   2.660  12.021 -0.2279  0.0061  0.2363
    5TCq1    O4   77   2.466   2.723  11.950  0.2171  0.2546  0.6098
    5TCq1    C9   78   2.379   2.527  12.483  0.0624 -0.4261  0.9978
    5TCq1    O5   79   2.250   2.544  12.487  1.1431 -0.7374 -0.7764
    5TCq1    O6   80   2.448   2.472  12.569  0.0520  0.0700 -0.5796
    5TCq1    H1   81   2.771   2.609  12.396 -0.2241 -2.1056  0.7600
    5TCq1    H2   82   2.633   2.479  12.441  0.4682 -0.0396 -0.1416
    5TCq1    H3   83   2.281   2.623  12.268  0.4079 -0.1588  1.6047
    5TCq1    H4   84   2.638   2.578  12.031  0.5808  0.0246  0.2631
    6MPD2     C   85   2.033   2.732  11.961 -0.0559  0.1418 -0.1993
    6MPD2    C1   86   2.166   2.729  11.931 -0.7516 -0.0145  0.5446
    6MPD2    C2   87   2.208   2.779  11.806  0.6569  0.4098  0.3186
    6MPD2    C3   88   2.118   2.834  11.717 -0.5110  0.3518 -0.0851
    6MPD2    C4   89   1.982   2.823  11.743  0.2495  0.6227  0.5043
    6MPD2    C5   90   1.939   2.772  11.866 -0.2721  0.5299  0.5882
    6MPD2     H   91   2.314   2.775  11.783  1.0745  1.1246  2.0579
    6MPD2    H1   92   1.904   2.862  11.678  1.6061  3.1979  0.4491
    6MPD2    H2   93   1.994   2.686  12.052  0.2224  0.2828 -0.0089
    6MPD2    H3   94   1.833   2.775  11.889  0.0621  2.8433  1.9662
    6MPD2     N   95   2.169   2.887  11.595 -0.1058 -0.1824  0.4010
    6MPD2    H5   96   2.267   2.876  11.574 -0.5718  1.0134 -2.4757
    6MPD2    N1   97   2.253   2.666  12.030  0.1180 -0.3138 -0.5712
    6MPD2    H7   98   2.209   2.625  12.112  3.1690 -3.6499 -0.6110
    7TCq1    O1   99   3.920   1.946  12.165 -0.3228 -0.4700 -0.5363
    7TCq1    C1  100   3.897   1.914  12.298  0.0132 -0.6946 -0.0187
    7TCq1    O2  101   3.863   1.803  12.341 -0.1420 -0.0466  0.0749
    7TCq1    C2  102   3.980   1.994  12.375 -0.6152  0.9235 -0.1721
    7TCq1    C3  103   4.057   2.097  12.327  0.9758  0.0108 -0.0645
    7TCq1    C4  104   4.152   2.154  12.404 -0.8954 -0.7783 -0.6021
    7TCq1    C5  105   4.180   2.108  12.528  1.0470 -0.1733 -1.1192
    7TCq1    C6  106   4.104   2.005  12.571 -0.2064  0.3453 -0.3522
    7TCq1    C7  107   3.992   1.952  12.504 -0.3431 -0.2338 -0.2574
    7TCq1    C8  108   4.124   1.970  12.710 -0.3614  0.3767  0.2989
    7TCq1    O4  109   4.079   1.862  12.743 -1.1419 -0.0738  0.0904
    7TCq1    C9  110   4.222   2.265  12.355  0.3779  0.7573  0.8746
    7TCq1    O5  111   4.202   2.311  12.240 -0.1217  0.4357  0.1924
    7TCq1    O6  112   4.286   2.331  12.443 -0.1113 -0.5923  0.2899
    7TCq1    H1  113   3.914   2.040  12.141  2.6648 -0.7545 -2.3088
    7TCq1    H2  114   4.051   2.130  12.224  1.8285  0.4671  0.0347
    7TCq1    H3  115   4.260   2.154  12.586  0.5239  1.6344 -1.8335
    7TCq1    H4  116   3.925   1.880  12.551 -0.2134 -1.3122 -1.7532
    8MPD2     C  117   4.306   2.031  13.187  0.4481  0.4494 -0.0509
    8MPD2    C1  118   4.280   1.916  13.115 -0.3396 -0.5485 -0.1102
    8MPD2    C2  119   4.235   1.930  12.981  0.6491 -0.0749 -0.1097
    8MPD2    C3  120   4.214   2.053  12.925 -0.4928 -0.5658 -0.2286
    8MPD2    C4  121   4.245   2.162  13.002 -0.0992 -0.5825  0.2120
    8MPD2    C5  122   4.284   2.149  13.132 -0.7819  0.6412  0.1658
    8MPD2     H  123   4.213   1.844  12.919  3.5552  0.5163 -1.9574
    8MPD2    H1  124   4.226   2.259  12.959  0.2691 -1.2478 -1.4534
    8MPD2    H2  125   4.343   2.015  13.287 -0.7743  1.6188  0.5917
    8MPD2    H3  126   4.293   2.233  13.200 -1.4724  1.6647 -0.9918
    8MPD2     N  127   4.176   2.072  12.788 -0.2438  0.4128 -0.8061
    8MPD2    H5  128   4.175   2.166  12.751  1.9606  1.1326  0.9998
    8MPD2    N1  129   4.304   1.783  13.160  0.4304  0.1282 -0.8277
    8MPD2    H7  130   4.281   1.704  13.100  2.1633 -0.1386 -1.1402
    9TMC1    C1  131   2.855   1.966  11.396  0.1933 -0.0202 -0.6746
    9TMC1    C2  132   2.923   2.069  11.336 -0.0068  0.9182  0.1917
    9TMC1    C3  133   3.065   2.059  11.327  0.0517 -0.5958 -0.5183
    9TMC1    C4  134   2.920   1.850  11.416 -0.4260  0.0149 -0.3593
    9TMC1    C5  135   3.056   1.846  11.402 -0.1162 -0.4753 -0.1185
    9TMC1    C6  136   3.134   1.954  11.371 -0.3173  0.2551 -0.3999
    9TMC1     C  137   2.716   1.988  11.433 -0.1516  0.3081  0.1229
    9TMC1     O  138   2.667   2.091  11.393  0.1873  0.0283  0.1124
    9TMC1     H  139   2.873   2.165  11.323  1.4629  1.6805  0.1973
    9TMC1    H1  140   2.866   1.762  11.448  1.1501 -0.5042  0.9110
    9TMC1    H2  141   3.239   1.957  11.342 -0.2879 -1.5993 -0.5238
    9TMC1    C7  142   3.118   1.714  11.397  0.7161  0.5232 -1.0825
    9TMC1    C8  143   3.140   2.186  11.313  0.1835 -0.0274  0.3834
    9TMC1    O1  144   3.079   1.617  11.455 -0.1930 -0.5080  0.9173
    9TMC1    O2  145   3.104   2.283  11.244  0.1868 -0.4198  0.0022
    9TMC1    O3  146   3.177   1.716  11.281  0.1054  0.3307 -0.2390
    9TMC1    H3  147   3.188   1.801  11.232 -0.4025  0.9543  0.7172
    9TMC1    O5  148   3.252   2.173  11.376  0.0505  0.2531 -0.7364
    9TMC1    H5  149   3.261   2.092  11.429 -1.6894 -0.6800 -1.8739
   10MPD2     C  150   2.475   2.020  11.593  0.2266 -0.2229  0.5447
   10MPD2    C1  151   2.578   1.946  11.633  0.2445 -0.2919  0.6188
   10MPD2    C2  152   2.563   1.880  11.752  0.2545 -0.2746  0.5645
   10MPD2    C3  153   2.456   1.900  11.831  0.1604 -0.2405  0.0057
   10MPD2    C4  154   2.352   1.980  11.786  0.1481 -0.0697 -0.4798
   10MPD2    C5  155   2.370   2.043  11.668  0.7849 -0.5609 -0.1671
   10MPD2     H  156   2.653   1.831  11.788  2.1839  1.3721 -2.0071
   10MPD2    H1  157   2.264   2.006  11.845  0.1493 -1.0499 -0.0552
   10MPD2    H2  158   2.477   2.064  11.493 -0.5275  3.1031  1.9892
   10MPD2    H3  159   2.301   2.112  11.622 -1.1669 -1.7195  0.9759
   10MPD2     N  160   2.442   1.841  11.959 -0.5997  0.9038  0.3642
   10MPD2    H5  161   2.361   1.878  12.007 -1.1050  0.0197  0.1745
   10MPD2    N1  162   2.690   1.923  11.550 -0.6069  0.0966  0.1384
   10MPD2    H7  163   2.757   1.854  11.582 -1.5582 -0.0821  1.7255
   11TCq1    O1  164   3.387   0.943  14.005  0.5274  0.5056  0.4455
   11TCq1    C1  165   3.260   0.938  13.949 -0.7345  0.2919 -0.2590
   11TCq1    O2  166   3.232   0.961  13.834 -0.2063 -0.3044 -0.5163
   11TCq1    C2  167   3.192   0.822  14.008 -0.3611 -0.2697  0.1139
   11TCq1    C3  168   3.269   0.728  14.075  0.5076 -0.1537  1.4073
   11TCq1    C4  169   3.204   0.617  14.116  0.6270  0.4446 -0.0041
   11TCq1    C5  170   3.076   0.591  14.084  0.2300  0.7116  0.6233
   11TCq1    C6  171   3.015   0.687  14.007 -0.0144  0.0740 -0.4051
   11TCq1    C7  172   3.064   0.805  13.976  0.5048  0.1816  0.2719
   11TCq1    C8  173   2.872   0.677  14.005  0.3531 -0.2178  0.2908
   11TCq1    O4  174   2.808   0.779  13.999 -0.2637 -0.0872 -0.2276
   11TCq1    C9  175   3.272   0.511  14.185 -0.0662  0.6987 -0.1527
   11TCq1    O5  176   3.385   0.538  14.233 -0.0673 -0.1620 -0.4517
   11TCq1    O6  177   3.219   0.394  14.181  0.9602  0.1887 -0.2613
   11TCq1    H1  178   3.374   0.927  14.101  0.3622 -1.2406  0.1445
   11TCq1    H2  179   3.377   0.727  14.088  0.9982 -1.0250 -2.6221
   11TCq1    H3  180   3.036   0.500  14.128 -0.6447  0.5727 -0.4629
   11TCq1    H4  181   3.010   0.889  13.934  1.6477  0.6606 -0.2311
   12MPD2     C  182   2.594   0.584  13.975 -0.3996  0.0136 -0.4604
   12MPD2    C1  183   2.698   0.498  13.992 -0.1460 -0.3133 -0.0326
   12MPD2    C2  184   2.677   0.362  14.010  0.4895  0.8130 -0.8067
   12MPD2    C3  185   2.553   0.309  14.001 -0.4147 -1.1523  0.6083
   12MPD2    C4  186   2.449   0.395  13.974  0.7129  0.1651  0.2532
   12MPD2    C5  187   2.468   0.533  13.973  0.5706 -0.3906  1.2618
   12MPD2     H  188   2.764   0.303  14.035 -0.1153 -0.4782 -1.7052
   12MPD2    H1  189   2.348   0.361  13.952  1.0390 -0.6234 -0.0262
   12MPD2    H2  190   2.613   0.690  13.967  0.9579 -0.0184  2.1931
   12MPD2    H3  191   2.379   0.595  13.971  2.2635  2.0383  2.0849
   12MPD2     N  192   2.525   0.165  14.009 -0.6367 -0.7286 -0.6125
   12MPD2    H5  193   2.431   0.141  13.981 -1.4462 -0.0061  1.5104
   12MPD2    N1  194   2.827   0.544  14.007  0.0257 -0.1105  0.0719
   12MPD2    H7  195   2.896   0.473  14.025  1.8205  1.0533 -2.1128
   13TCq1    O1  196   2.501   1.074  10.667 -0.3721  0.1972 -0.2575
   13TCq1    C1  197   2.404   0.988  10.706  0.2809 -0.0506  0.4178
   13TCq1    O2  198   2.433   0.871  10.738 -0.4357  0.8862  0.3379
   13TCq1    C2  199   2.296   1.064  10.764 -0.3959 -0.4686  0.4903
   13TCq1    C3  200   2.254   1.179  10.704 -0.2624  0.3311 -0.5770
   13TCq1    C4  201   2.159   1.256  10.766 -0.9276 -0.2638 -0.2197
   13TCq1    C5  202   2.103   1.220  10.885  0.2392  0.0715 -1.4248
   13TCq1    C6  203   2.139   1.097  10.935  0.3503 -0.1678 -0.0460
   13TCq1    C7  204   2.240   1.015  10.882  0.3919  0.1056 -0.3691
   13TCq1    C8  205   2.061   1.061  11.055  0.2634  0.1324 -0.1927
   13TCq1    O4  206   1.972   1.135  11.101 -0.1864  0.1481 -0.2022
   13TCq1    C9  207   2.122   1.379  10.692  0.6796 -0.2127  0.6623
   13TCq1    O5  208   2.139   1.375  10.569 -0.4711  0.0591 -0.0251
   13TCq1    O6  209   2.087   1.484  10.759 -0.1516  0.2799  0.0809
   13TCq1    H1  210   2.483   1.171  10.671  1.0888  0.5282 -1.8281
   13TCq1    H2  211   2.301   1.205  10.610 -1.0525  3.2826 -0.1493
   13TCq1    H3  212   2.026   1.287  10.919  1.6738 -0.1181  2.1877
   13TCq1    H4  213   2.270   0.916  10.912 -1.6487  0.2717  2.2722
   14MPD2     C  214   2.090   0.757  11.253 -0.0081  1.2146 -0.6691
   14MPD2    C1  215   2.042   0.878  11.220 -0.2387  0.3459  0.0692
   14MPD2    C2  216   1.941   0.927  11.300  0.3970 -0.0516  0.4603
   14MPD2    C3  217   1.874   0.853  11.395 -0.3810 -1.2111  0.4641
   14MPD2    C4  218   1.922   0.729  11.425  0.6196  0.2795  0.5796
   14MPD2    C5  219   2.034   0.687  11.357  0.0008 -0.3666  0.1816
   14MPD2     H  220   1.908   1.029  11.284  2.6918  0.2605 -2.1273
   14MPD2    H1  221   1.883   0.672  11.508 -0.1194 -0.4450 -0.2671
   14MPD2    H2  222   2.165   0.724  11.182  0.2346 -2.3591  1.2474
   14MPD2    H3  223   2.078   0.591  11.383  0.3034 -0.7193 -1.6758
   14MPD2     N  224   1.770   0.915  11.467 -0.2459 -0.2441 -0.0679
   14MPD2    H5  225   1.760   1.016  11.473 -1.6094 -0.4586  1.2334
   14MPD2    N1  226   2.101   0.941  11.111  0.3407  0.1565 -0.5235
   14MPD2    H7  227   2.172   0.895  11.055 -1.8222 -1.6225 -1.8042
   15TCq1    O1  228   0.162   4.444   2.730 -0.2153  0.5546  0.3738
   15TCq1    C1  229   0.207   4.568   2.701 -0.0857  0.3906  0.1794
   15TCq1    O2  230   0.185   4.669   2.765  0.1983 -0.3936  0.4795
   15TCq1    C2  231   0.319   4.543   2.618 -0.0996  0.2445 -0.2011
   15TCq1    C3  232   0.444   4.559   2.677 -0.6385  0.2721  0.2101
   15TCq1    C4  233   0.550   4.500   2.617 -0.0185 -0.1054 -0.3108
   15TCq1    C5  234   0.534   4.419   2.508  0.2577 -0.3732 -0.2096
   15TCq1    C6  235   0.408   4.389   2.459  0.0630 -0.2648  0.1404
   15TCq1    C7  236   0.306   4.459   2.513  0.2236 -0.0195 -0.5008
   15TCq1    C8  237   0.391   4.257   2.387  0.3374  0.2510 -0.5852
   15TCq1    O4  238   0.485   4.186   2.351 -0.5496 -0.6480  0.2540
   15TCq1    C9  239   0.687   4.518   2.670  0.2858 -0.2655 -0.0486
   15TCq1    O5  240   0.770   4.432   2.628 -0.2458 -0.2242  0.4097
   15TCq1    O6  241   0.687   4.564   2.787  0.3242  0.1533 -0.0894
   15TCq1    H1  242   0.206   4.372   2.681 -1.1105  0.4505 -0.2868
   15TCq1    H2  243   0.465   4.638   2.748 -0.9782 -0.4985  1.1547
   15TCq1    H3  244   0.626   4.380   2.467  0.4523 -0.5990  0.4360
   15TCq1    H4  245   0.206   4.437   2.479  0.1709 -1.1251  0.3539
   16MPD2     C  246   0.080   4.142   2.237 -0.9397 -0.7324  0.2262
   16MPD2    C1  247   0.214   4.129   2.270 -0.1511 -0.1599  0.2679
   16MPD2    C2  248   0.288   4.038   2.204 -0.0521  0.2294 -0.4425
   16MPD2    C3  249   0.245   3.958   2.100  0.0690 -1.3244 -0.1630
   16MPD2    C4  250   0.110   3.964   2.067  0.1866  0.2912 -0.1541
   16MPD2    C5  251   0.032   4.056   2.138 -0.0600 -0.2615  0.2924
   16MPD2     H  252   0.393   4.024   2.228  0.0436 -0.3822 -1.1907
   16MPD2    H1  253   0.074   3.894   1.992 -0.0539  1.6400 -1.2932
   16MPD2    H2  254   0.016   4.226   2.262 -1.8293 -0.8734 -1.5753
   16MPD2    H3  255   4.674   4.078   2.097  0.5256  0.6294 -0.6164
   16MPD2     N  256   0.338   3.869   2.049  0.2144 -0.2265 -0.5918
   16MPD2    H5  257   0.426   3.866   2.100  0.0564 -1.3660 -0.3940
   16MPD2    N1  258   0.259   4.227   2.359 -0.4308 -0.5718 -0.6603
   16MPD2    H7  259   0.180   4.279   2.394  1.3393 -0.0373  2.5030
   17TMC1    C1  260   1.364   0.537  11.865  0.0408  0.2491 -0.0599
   17TMC1    C2  261   1.271   0.504  11.955 -0.8104 -0.2976  0.3728
   17TMC1    C3  262   1.193   0.403  11.925 -0.0518 -0.1785  0.7670
   17TMC1    C4  263   1.385   0.478  11.740  0.4653  0.2473  0.5038
   17TMC1    C5  264   1.318   0.365  11.728 -0.8653 -0.4102 -1.0524
   17TMC1    C6  265   1.218   0.329  11.819 -0.0857  0.0186 -0.4957
   17TMC1     C  266   1.436   0.663  11.891 -0.2224  0.3059  0.3251
   17TMC1     O  267   1.397   0.736  11.982  0.2959 -0.4229  0.5980
   17TMC1     H  268   1.265   0.539  12.057 -0.8569  0.2279  0.1896
   17TMC1    H1  269   1.454   0.517  11.667  2.1728 -3.1758  0.3006
   17TMC1    H2  270   1.185   0.227  11.798  0.2244  0.2383 -2.0777
   17TMC1    C7  271   1.348   0.269  11.622 -0.5887 -0.0120 -0.0188
   17TMC1    C8  272   1.090   0.374  12.028  0.0083  0.0764 -0.1780
   17TMC1    O1  273   1.266   0.184  11.582  0.3523 -0.4192  0.2515
   17TMC1    O2  274   1.109   0.386  12.146 -0.9086 -0.7504  0.0885
   17TMC1    O3  275   1.480   0.252  11.619 -0.0891 -0.1782  1.0725
   17TMC1    H3  276   1.519   0.336  11.650 -1.4932  0.2145  1.7605
   17TMC1    O5  277   0.975   0.332  11.968  0.4017  0.0435  0.8405
   17TMC1    H5  278   0.991   0.338  11.871  2.6756  3.0829  1.4062
   18MPD2     C  279   1.625   0.887  11.914 -0.4453  0.1415  0.4737
   18MPD2    C1  280   1.663   0.767  11.868  0.0115  0.3077  0.6241
   18MPD2    C2  281   1.790   0.745  11.836 -0.3816 -0.0635  0.3178
   18MPD2    C3  282   1.885   0.846  11.821 -0.3242  0.6594 -1.2407
   18MPD2    C4  283   1.855   0.969  11.872 -0.0387  0.8437 -0.3065
   18MPD2    C5  284   1.722   0.988  11.900  0.3200 -0.3323 -0.3520
   18MPD2     H  285   1.813   0.648  11.792  2.2162 -0.5156  2.6832
   18MPD2    H1  286   1.923   1.053  11.862  1.7314 -0.4733  0.6367
   18MPD2    H2  287   1.522   0.915  11.934 -0.6607 -0.0516 -0.3854
   18MPD2    H3  288   1.696   1.092  11.913  1.1898 -0.1488 -0.0459
   18MPD2     N  289   2.016   0.820  11.772  0.5203 -0.2432  0.4472
   18MPD2    H5  290   2.079   0.899  11.776  0.1879  0.0797 -0.5984
   18MPD2    N1  291   1.570   0.663  11.847 -0.7084  0.4623 -0.5651
   18MPD2    H7  292   1.601   0.584  11.792  0.2393  0.9480 -0.7244
   19TMC2    C1  293   4.154   0.168  14.405 -0.0211  0.4142  0.5774
   19TMC2    C2  294   4.081   0.274  14.343  0.8116  0.3940  0.0090
   19TMC2    C3  295   3.962   0.242  14.290 -0.6974  0.1553  0.6593
   19TMC2    C4  296   4.096   0.040  14.412  0.1636  0.1981  0.4424
   19TMC2    C5  297   3.975   0.019  14.355 -0.1508  0.3536  0.4871
   19TMC2    C6  298   3.905   0.118  14.297 -0.2247  0.1202  0.5497
   19TMC2     C  299   4.284   0.194  14.474 -0.0500  0.2309  0.3354
   19TMC2     O  300   4.323   0.311  14.468 -0.0782  0.2677  0.5846
   19TMC2     H  301   4.120   0.375  14.347 -0.6735  0.9203  1.2373
   19TMC2    H1  302   4.139   4.715  14.488 -0.3946  2.5360  2.7474
   19TMC2    H2  303   3.822   0.093  14.232 -0.1498 -1.8410  1.1995
   19TMC2    C7  304   3.920   4.621  14.339 -0.7627  0.3260  0.0590
   19TMC2    C8  305   3.880   0.356  14.245 -0.4916 -0.5501 -0.2033
   19TMC2    O1  306   3.805   4.618  14.306  0.0693  0.3246 -0.4139
   19TMC2    O2  307   3.920   0.471  14.234  0.0804  0.6257  0.8121
   19TMC2    O5  308   3.754   0.318  14.214 -0.2252 -0.2293  0.1968
   19TMC2    H5  309   3.720   0.227  14.230 -0.9580  0.2900  1.6022
   20MPD2     C  310   4.516   0.210  14.663  0.1587 -0.7220 -0.1944
   20MPD2    C1  311   4.461   0.088  14.614 -0.0986  0.0355  0.0828
   20MPD2    C2  312   4.511   4.703  14.650 -0.8335 -0.3354 -0.1084
   20MPD2    C3  313   4.626   4.699  14.734  0.2037 -0.8124 -0.5238
   20MPD2    C4  314   4.679   0.079  14.778 -0.0895  0.0499 -0.1532
   20MPD2    C5  315   4.628   0.200  14.738  0.6322  0.8318 -0.4202
   20MPD2     H  316   4.467   4.616  14.603  1.3965 -0.4404 -2.0622
   20MPD2    H1  317   0.021   0.078  14.850  0.4322 -3.0612 -0.7769
   20MPD2    H2  318   4.493   0.313  14.635  3.0935 -0.1558 -0.5375
   20MPD2    H3  319   4.682   0.290  14.767  0.2865  0.9483 -0.1354
   20MPD2     N  320   4.682   4.582  14.782  0.1060 -0.2131 -0.6260
   20MPD2    H5  321   0.019   4.597  14.846  1.0808 -1.9305 -1.3816
   20MPD2    N1  322   4.339   0.087  14.531  0.2044  0.0730  0.6239
   20MPD2    H7  323   4.305   4.736  14.500 -1.7983  0.8791  0.4404
   21TMC2    C1  324   1.654   0.914  14.526 -0.9101  0.4449  0.1414
   21TMC2    C2  325   1.627   1.029  14.464  0.3615 -0.6086 -0.1011
   21TMC2    C3  326   1.494   1.056  14.440  0.4405  0.1312  0.7887
   21TMC2    C4  327   1.556   0.820  14.555 -0.0843  0.3655  0.4406
   21TMC2    C5  328   1.427   0.856  14.550 -0.6345  0.3469 -0.1679
   21TMC2    C6  329   1.394   0.977  14.490 -0.5823  0.6687 -0.0228
   21TMC2     C  330   1.792   0.870  14.549 -0.6449 -0.6153  0.2792
   21TMC2     O  331   1.820   0.755  14.519 -0.4014  0.2782  0.3469
   21TMC2     H  332   1.700   1.107  14.449 -1.1731  0.7626 -0.3800
   21TMC2    H1  333   1.584   0.730  14.609 -0.4117 -0.4713 -0.7881
   21TMC2    H2  334   1.296   1.020  14.471 -1.0283 -1.0875 -1.6711
   21TMC2    C7  335   1.343   0.816  14.666  0.2958 -1.0967  0.2893
   21TMC2    C8  336   1.458   1.183  14.379  0.7150  0.4819 -0.2096
   21TMC2    O1  337   1.385   0.729  14.738 -0.0663 -0.0611 -0.6406
   21TMC2    O2  338   1.342   1.220  14.380  0.3175  0.1740  0.0439
   21TMC2    O5  339   1.551   1.215  14.283  0.3123 -0.5517 -0.1341
   21TMC2    H5  340   1.636   1.168  14.275  1.5234  1.1580  2.6936
   22MPD2     C  341   2.278   1.039  14.607  0.1424  0.1887  0.2905
   22MPD2    C1  342   2.235   0.918  14.554  0.4811  0.3165  0.1872
   22MPD2    C2  343   2.101   0.892  14.553  0.4455  0.8269  0.0202
   22MPD2    C3  344   2.012   0.990  14.587 -0.0597 -0.2601 -0.2609
   22MPD2    C4  345   2.055   1.102  14.648  1.0123  0.3399 -0.2629
   22MPD2    C5  346   2.189   1.123  14.662  0.2530 -0.0857  0.6163
   22MPD2     H  347   2.070   0.793  14.522 -0.0364  1.2339 -0.7815
   22MPD2    H1  348   1.990   1.178  14.690 -1.0791 -2.2641  1.2337
   22MPD2    H2  349   2.382   1.071  14.607  0.4164 -0.6968  0.4087
   22MPD2    H3  350   2.240   1.216  14.686  0.7670 -0.5908  1.4621
   22MPD2     N  351   1.875   0.984  14.582  0.2225 -0.2701  0.9570
   22MPD2    H5  352   1.828   1.068  14.613  1.1778  0.7183 -0.2645
   22MPD2    N1  353   2.323   0.817  14.502  0.4932  0.3798 -0.0926
   22MPD2    H7  354   2.278   0.727  14.490 -0.2991  0.3886  2.6865
   23TMC2    C1  355   2.702   1.540  14.263  0.1618 -0.8602 -1.1359
   23TMC2    C2  356   2.699   1.665  14.198 -0.3054 -0.2834 -0.1286
   23TMC2    C3  357   2.576   1.703  14.147 -1.7617 -0.3424 -0.3262
   23TMC2    C4  358   2.587   1.468  14.286  0.0104 -0.2151 -0.2437
   23TMC2    C5  359   2.473   1.513  14.231  0.0649  0.7932 -0.6762
   23TMC2    C6  360   2.463   1.627  14.159  0.0412  0.1981  0.3725
   23TMC2     C  361   2.806   1.507  14.354  0.9097 -0.0459  0.1316
   23TMC2     O  362   2.767   1.479  14.467 -0.3061 -0.7610  0.0492
   23TMC2     H  363   2.786   1.730  14.195 -1.2024  0.8267 -2.2511
   23TMC2    H1  364   2.589   1.370  14.333 -2.6351  1.2138  2.8593
   23TMC2    H2  365   2.370   1.664  14.116  1.0764  1.7995 -0.4679
   23TMC2    C7  366   2.355   1.447  14.278 -0.1696 -0.1309 -0.2744
   23TMC2    C8  367   2.565   1.798  14.033 -0.1317 -0.9359 -0.2133
   23TMC2    O1  368   2.375   1.333  14.323 -0.4808 -0.2236 -0.0650
   23TMC2    O2  369   2.461   1.808  13.965  0.6262  0.1604 -0.6152
   23TMC2    O5  370   2.674   1.872  14.024 -0.8096  0.4190  0.3613
   23TMC2    H5  371   2.759   1.838  14.060  0.3285  1.1379 -1.6634
   24MPD2     C  372   3.251   1.264  14.478  0.1023  0.8662  0.1002
   24MPD2    C1  373   3.145   1.304  14.558  0.5126  0.1517 -0.4057
   24MPD2    C2  374   3.049   1.390  14.505 -0.5564 -0.3257 -0.4521
   24MPD2    C3  375   3.043   1.416  14.365  0.4009 -0.1346  0.1887
   24MPD2    C4  376   3.148   1.376  14.294  0.7658 -0.6283  0.2771
   24MPD2    C5  377   3.253   1.300  14.347 -0.5024  0.1689 -0.4520
   24MPD2     H  378   2.974   1.427  14.573 -1.5958 -1.3264 -1.0471
   24MPD2    H1  379   3.152   1.408  14.190 -3.0610  0.9468  0.6038
   24MPD2    H2  380   3.340   1.212  14.512  1.2438  2.5421 -0.2934
   24MPD2    H3  381   3.337   1.274  14.284  0.0455 -0.6397  0.5992
   24MPD2     N  382   2.930   1.478  14.299 -0.3027  0.2698  0.4890
   24MPD2    H5  383   2.945   1.493  14.199  0.1458 -1.0215  0.3649
   24MPD2    N1  384   3.145   1.275  14.700  0.2675 -0.4739  0.3804
   24MPD2    H7  385   3.086   1.334  14.757 -0.4085  0.7437 -1.5451
   25TMC2    C1  386   1.809   4.423  12.011  0.1741  0.5582 -0.2051
   25TMC2    C2  387   1.921   4.459  12.071  0.4973 -0.0843  0.6125
   25TMC2    C3  388   1.919   4.574  12.151  0.3406 -0.1776  1.2435
   25TMC2    C4  389   1.698   4.501  12.029 -0.3265  0.4390 -0.0420
   25TMC2    C5  390   1.697   4.612  12.109  0.0987  0.2325  0.4162
   25TMC2    C6  391   1.808   4.648  12.170 -0.0930 -0.2492 -0.3686
   25TMC2     C  392   1.784   4.283  12.014  0.3538  0.5111  0.2169
   25TMC2     O  393   1.874   4.215  12.069 -0.5920  0.5603 -0.2934
   25TMC2     H  394   2.008   4.396  12.056 -2.1792 -3.6549  0.3095
   25TMC2    H1  395   1.601   4.461  12.005  0.0755 -0.8527  0.5141
   25TMC2    H2  396   1.816   4.736  12.233 -1.8714  0.8308 -1.6641
   25TMC2    C7  397   1.575   4.615  12.192 -0.6998 -0.4223  0.6992
   25TMC2    C8  398   2.045   4.622  12.203 -0.5490 -0.0104 -0.3304
   25TMC2    O1  399   1.595   4.580  12.303 -0.3984 -0.1032 -0.0856
   25TMC2    O2  400   2.126   4.547  12.246 -0.6438 -0.6369 -0.0733
   25TMC2    O5  401   2.069   4.721  12.122  0.1719  0.0211  0.5001
   25TMC2    H5  402   1.993   0.036  12.094 -0.0807 -0.4173  0.3484
   26MPD2     C  403   1.571   3.849  11.845  0.5033 -0.9121  0.0205
   26MPD2    C1  404   1.525   3.951  11.764 -0.3952  0.0427  0.1220
   26MPD2    C2  405   1.567   4.078  11.801  0.3274  0.0915  0.0311
   26MPD2    C3  406   1.659   4.106  11.902 -0.4049  0.2618  0.1051
   26MPD2    C4  407   1.706   3.999  11.973  0.0271  0.4393  0.3412
   26MPD2    C5  408   1.665   3.872  11.936 -0.2057  0.5001  0.4776
   26MPD2     H  409   1.521   4.163  11.751 -1.2071  0.1427  1.5421
   26MPD2    H1  410   1.765   3.998  12.063  1.4339  2.4331 -0.5518
   26MPD2    H2  411   1.530   3.751  11.826 -1.3357  0.2009 -1.7762
   26MPD2    H3  412   1.698   3.789  11.998  0.1395 -1.4974 -2.3568
   26MPD2     N  413   1.691   4.238  11.926  0.1005 -0.0562 -0.2494
   26MPD2    H5  414   1.658   4.309  11.861 -2.5801 -0.7575  0.3384
   26MPD2    N1  415   1.414   3.929  11.681  0.4994 -0.1271 -0.2084
   26MPD2    H7  416   1.381   3.833  11.673  0.0525 -0.2468  3.3027
   27TMC2    C1  417   0.445   1.236  12.361  0.2998 -0.9057 -0.0629
   27TMC2    C2  418   0.365   1.199  12.252 -0.6444  0.1908 -1.2609
   27TMC2    C3  419   0.279   1.295  12.205  0.3977  0.4358  0.1467
   27TMC2    C4  420   0.442   1.364  12.403 -0.1917  0.1198  0.1647
   27TMC2    C5  421   0.362   1.460  12.342  0.3203 -0.4830  0.3173
   27TMC2    C6  422   0.279   1.419  12.241 -1.0687 -0.2179  0.6203
   27TMC2     C  423   0.511   1.131  12.441 -0.6118 -0.3192  0.1857
   27TMC2     O  424   0.535   1.022  12.391  0.2602 -0.5137  0.2692
   27TMC2     H  425   0.365   1.094  12.223  0.1135  0.3512 -1.8299
   27TMC2    H1  426   0.507   1.389  12.486 -0.7442 -0.0723  0.6586
   27TMC2    H2  427   0.206   1.487  12.197 -0.4483  1.7399  2.5864
   27TMC2    C7  428   0.347   1.589  12.409 -0.6587 -0.6464  0.4536
   27TMC2    C8  429   0.206   1.263  12.076  0.2527  0.5593  0.6486
   27TMC2    O1  430   0.312   1.685  12.340 -0.2594  0.4469 -0.1923
   27TMC2    O2  431   0.202   1.335  11.979  0.1536  0.0811 -0.2662
   27TMC2    O5  432   0.114   1.162  12.095 -0.2496 -0.0639  0.7912
   27TMC2    H5  433   0.108   1.141  12.191  0.2212 -0.0893  0.8137
   28MPD2     C  434   0.553   0.919  12.912  0.6417 -0.4182 -0.2990
   28MPD2    C1  435   0.474   1.030  12.925  0.6197  0.0179 -0.4088
   28MPD2    C2  436   0.467   1.114  12.816  0.2288  0.5005 -0.3634
   28MPD2    C3  437   0.515   1.080  12.684  0.6283  0.0973 -0.7444
   28MPD2    C4  438   0.579   0.957  12.668  0.2927  0.0957 -0.2695
   28MPD2    C5  439   0.596   0.890  12.787  1.2752 -0.3533  0.7160
   28MPD2     H  440   0.424   1.213  12.824 -0.6292 -0.0182  1.2740
   28MPD2    H1  441   0.621   0.920  12.575 -1.1558 -3.4010  0.4497
   28MPD2    H2  442   0.577   0.868  13.004  1.6331 -0.1035 -0.3789
   28MPD2    H3  443   0.663   0.805  12.783 -0.4090 -1.6291 -0.0993
   28MPD2     N  444   0.502   1.165  12.574  0.0247 -0.5423 -0.0533
   28MPD2    H5  445   0.459   1.251  12.606 -1.7056 -1.4685  0.1063
   28MPD2    N1  446   0.418   1.059  13.045 -0.1201  0.8321  0.8559
   28MPD2    H7  447   0.408   0.983  13.112  1.4699 -1.0313 -1.0126
   29TMC2    C1  448   0.199   3.603  14.226 -0.0676  0.4475 -0.5674
   29TMC2    C2  449   0.318   3.607  14.154  0.6883 -1.0817  1.1207
   29TMC2    C3  450   0.408   3.700  14.177  0.3275 -0.4192 -0.2495
   29TMC2    C4  451   0.182   3.682  14.336  0.1971  0.4168 -0.4164
   29TMC2    C5  452   0.279   3.782  14.352 -0.5305 -0.1339  0.6521
   29TMC2    C6  453   0.389   3.796  14.271 -0.7973 -0.6328 -0.1147
   29TMC2     C  454   0.126   3.477  14.239  0.4840 -0.2955 -0.5494
   29TMC2     O  455   0.071   3.448  14.345 -0.2029  0.1282 -0.0627
   29TMC2     H  456   0.334   3.551  14.063  0.8752  1.5902 -0.5065
   29TMC2    H1  457   0.095   3.677  14.400 -0.8349 -1.5740 -1.9781
   29TMC2    H2  458   0.456   3.879  14.289  2.2376 -2.9387 -0.6708
   29TMC2    C7  459   0.241   3.901  14.428  0.1687 -0.7304  0.3609
   29TMC2    C8  460   0.479   3.734  14.064  0.2050 -0.1094 -0.6269
   29TMC2    O1  461   0.119   3.917  14.449  0.4121 -0.4789  0.3006
   29TMC2    O2  462   0.415   3.790  13.978 -0.2597  0.1495  0.4002
   29TMC2    O5  463   0.605   3.765  14.108  0.0076  0.8640 -0.3107
   29TMC2    H5  464   0.621   3.707  14.185  0.1822  0.9251 -0.3008
   30MPD2     C  465   4.606   3.092  14.036 -0.2075 -0.3040 -0.2284
   30MPD2    C1  466   4.642   3.116  14.170  0.0402 -0.3299  0.1948
   30MPD2    C2  467   4.717   3.224  14.203  0.2039 -0.0516  0.7981
   30MPD2    C3  468   0.004   3.316  14.101  0.1921 -0.5494 -0.1412
   30MPD2    C4  469   4.694   3.301  13.969  0.0919  0.3019  0.4678
   30MPD2    C5  470   4.616   3.192  13.942  0.6093 -0.2359 -0.1566
   30MPD2     H  471   0.008   3.240  14.306  0.9451  1.8176  0.2970
   30MPD2    H1  472   4.727   3.364  13.887  0.9156 -1.4050 -0.5133
   30MPD2    H2  473   4.557   3.002  14.001 -0.5186 -0.5847  0.9280
   30MPD2    H3  474   4.588   3.177  13.838 -2.0597  0.2999  0.4829
   30MPD2     N  475   0.083   3.436  14.122  0.0401  0.2742 -0.2177
   30MPD2    H5  476   0.111   3.489  14.040  0.4899 -0.2192 -0.3848
   30MPD2    N1  477   4.617   3.016  14.272 -0.4000  0.1837  0.3649
   30MPD2    H7  478   4.661   3.024  14.364  0.4743  1.5143 -0.1637
   31TMC2    C1  479   2.588   2.180  15.504  0.8858 -0.0193  0.1134
   31TMC2    C2  480   2.457   2.235  15.525 -0.2000  0.1401  0.1090
   31TMC2    C3  481   2.421   2.243  15.656 -0.1538  0.2616 -0.1632
   31TMC2    C4  482   2.672   2.142  15.604  0.4246 -0.1066  0.7284
   31TMC2    C5  483   2.619   2.149  15.728  0.1661  0.5725  0.2427
   31TMC2    C6  484   2.498   2.195  15.755 -0.3473  0.0763 -0.6149
   31TMC2     C  485   2.642   2.259  15.393 -0.0766 -0.8088 -0.1641
   31TMC2     O  486   2.559   2.309  15.318  0.3588  0.0186  0.1246
   31TMC2     H  487   2.388   2.259  15.445  0.0411  0.0336 -0.1331
   31TMC2    H1  488   2.762   2.084  15.590  1.6161  2.3208 -1.5962
   31TMC2    H2  489   2.457   2.198  15.855 -0.4092 -0.2802 -0.6266
   31TMC2    C7  490   2.701   2.123  15.843  0.2605  0.6844 -0.4478
   31TMC2    C8  491   2.278   2.258  15.681  0.4346  0.5522 -0.5320
   31TMC2    O1  492   2.783   2.034  15.835  0.2636  0.3824 -0.0127
   31TMC2    O2  493   2.228   2.230  15.789  0.0503 -0.3750  0.0861
   31TMC2    O5  494   2.237   2.364  15.605 -0.3710 -0.3064 -0.0246
   31TMC2    H5  495   2.301   2.412  15.548 -1.2413 -1.2330 -1.7694
   32MPD2     C  496   3.039   2.506  15.173  0.3974  0.4806 -0.6850
   32MPD2    C1  497   2.908   2.510  15.143 -0.1038 -0.3751  0.0767
   32MPD2    C2  498   2.813   2.440  15.218 -0.8000  0.0602  0.0103
   32MPD2    C3  499   2.861   2.362  15.326  0.4240  0.1987  0.5907
   32MPD2    C4  500   2.998   2.355  15.348  0.5282 -0.2566 -0.5528
   32MPD2    C5  501   3.089   2.429  15.275 -1.0602 -0.6657  0.1127
   32MPD2     H  502   2.707   2.432  15.201 -0.3140 -0.7336 -2.6902
   32MPD2    H1  503   3.027   2.281  15.423  0.9224 -0.3501 -0.7986
   32MPD2    H2  504   3.111   2.562  15.115 -1.3434  1.7852 -1.5878
   32MPD2    H3  505   3.195   2.414  15.292 -1.0593 -1.6799 -0.8153
   32MPD2     N  506   2.774   2.277  15.406  0.5559 -0.3808  0.6383
   32MPD2    H5  507   2.818   2.232  15.486  1.2695 -0.4172  0.2256
   32MPD2    N1  508   2.873   2.600  15.039 -0.2139 -0.2626 -0.3193
   32MPD2    H7  509   2.952   2.635  14.985  1.5177 -2.9600  0.4224
   33TMC2    C1  510   2.342   1.481  11.032  0.0237 -0.6779 -0.4889
   33TMC2    C2  511   2.225   1.549  11.043 -0.8254 -0.0556 -0.0376
   33TMC2    C3  512   2.223   1.674  10.982 -1.0062  0.3975  0.1087
   33TMC2    C4  513   2.454   1.528  10.966  0.3734  0.2043 -0.5614
   33TMC2    C5  514   2.452   1.662  10.924  0.4536 -0.3872 -0.1509
   33TMC2    C6  515   2.325   1.727  10.915  0.8819 -0.3885  1.2332
   33TMC2     C  516   2.356   1.351  11.096  0.2030 -0.6309  0.1100
   33TMC2     O  517   2.280   1.326  11.188  0.1772  0.4514  0.5635
   33TMC2     H  518   2.132   1.504  11.077 -0.4582  0.0849  1.1465
   33TMC2    H1  519   2.551   1.480  10.966  1.4052  2.3056 -0.1127
   33TMC2    H2  520   2.306   1.829  10.884 -1.5809 -1.6552 -1.3941
   33TMC2    C7  521   2.564   1.707  10.839 -0.6234  0.2102 -1.4424
   33TMC2    C8  522   2.101   1.742  10.996  0.3049 -0.3766  0.9478
   33TMC2    O1  523   2.642   1.622  10.809 -0.0649 -0.3543 -0.4708
   33TMC2    O2  524   2.091   1.852  11.035 -0.4657 -0.3616  0.5601
   33TMC2    O5  525   2.031   1.705  10.887  0.6245 -0.6882 -0.1398
   33TMC2    H5  526   2.051   1.619  10.844 -1.0510 -0.0940 -2.0656
   34MPD2     C  527   2.572   0.879  11.113  0.5984  0.1189  0.4842
   34MPD2    C1  528   2.484   0.939  11.204  0.3873  0.0826  0.0158
   34MPD2    C2  529   2.447   1.067  11.177 -0.1250  0.1269 -0.0318
   34MPD2    C3  530   2.483   1.137  11.065 -0.5352  0.0739  0.0680
   34MPD2    C4  531   2.573   1.070  10.986 -0.3029  1.0240 -0.3441
   34MPD2    C5  532   2.622   0.944  11.012 -0.0901  0.5237 -0.0934
   34MPD2     H  533   2.394   1.120  11.256 -0.4826  0.3493 -0.4205
   34MPD2    H1  534   2.603   1.116  10.892  2.8919  0.5243  0.4215
   34MPD2    H2  535   2.605   0.776  11.117 -0.1395 -0.1672 -0.4578
   34MPD2    H3  536   2.678   0.890  10.936  0.1728 -0.0548  0.5161
   34MPD2     N  537   2.446   1.272  11.030  0.3807  0.3022 -0.3095
   34MPD2    H5  538   2.502   1.307  10.953 -1.2953  2.6085 -0.4636
   34MPD2    N1  539   2.448   0.870  11.321 -0.4682  0.3913 -0.4018
   34MPD2    H7  540   2.484   0.775  11.326 -0.5580  0.2903 -1.6750
   35TMC2    C1  541   3.228   1.666  11.880  0.0213 -0.0405  0.4568
   35TMC2    C2  542   3.109   1.701  11.817 -0.4449 -0.3957 -0.0302
   35TMC2    C3  543   2.999   1.621  11.856  0.3287 -0.2754 -0.1566
   35TMC2    C4  544   3.232   1.579  11.984 -0.2627 -0.1051  0.2219
   35TMC2    C5  545   3.127   1.496  12.004  0.9838  0.2650  0.0183
   35TMC2    C6  546   3.011   1.512  11.938  0.3604 -0.3295  0.1684
   35TMC2     C  547   3.351   1.715  11.812  0.4052  0.1727  0.3435
   35TMC2     O  548   3.343   1.790  11.717 -0.2417  0.0939 -0.0691
   35TMC2     H  549   3.112   1.774  11.737 -0.6560  0.8114  1.0538
   35TMC2    H1  550   3.320   1.567  12.048  0.1384 -1.4282 -0.5693
   35TMC2    H2  551   2.925   1.455  11.975 -0.3385 -0.3353 -1.4844
   35TMC2    C7  552   3.160   1.362  12.062  0.2910 -0.0326  0.3206
   35TMC2    C8  553   2.881   1.634  11.768 -0.6889 -0.3213  0.2470
   35TMC2    O1  554   3.281   1.341  12.068 -0.2194  0.6366  0.4846
   35TMC2    O2  555   2.812   1.539  11.728 -0.7643 -0.3020  0.5252
   35TMC2    O5  556   2.886   1.759  11.719 -0.4354  0.3501 -0.1907
   35TMC2    H5  557   2.940   1.820  11.773  0.9620 -1.7807  0.8114
   36MPD2     C  558   3.876   1.754  11.824 -0.1246 -0.3066 -0.5622
   36MPD2    C1  559   3.836   1.681  11.930  0.2104  0.5773 -0.4773
   36MPD2    C2  560   3.694   1.654  11.935  0.6843  0.3661 -0.8929
   36MPD2    C3  561   3.598   1.707  11.849 -0.1840  0.0549  0.4582
   36MPD2    C4  562   3.650   1.788  11.744  0.1748  0.0008 -0.7222
   36MPD2    C5  563   3.786   1.796  11.729 -0.5706 -0.0711  0.2521
   36MPD2     H  564   3.653   1.591  12.013 -0.7508  1.1156 -1.0459
   36MPD2    H1  565   3.592   1.828  11.662 -0.4034 -1.3755 -0.9765
   36MPD2    H2  566   3.981   1.771  11.805 -0.2977  0.8451 -0.4671
   36MPD2    H3  567   3.825   1.862  11.653  0.1933 -2.8234 -1.7747
   36MPD2     N  568   3.465   1.678  11.880  0.2291 -0.0991 -0.1025
   36MPD2    H5  569   3.443   1.608  11.950 -1.1503 -1.3629 -1.8078
   36MPD2    N1  570   3.936   1.637  12.023 -0.0168  0.0627  0.8414
   36MPD2    H7  571   4.028   1.675  12.005 -1.7199  4.0466  0.5563
   37TMC2    C1  572   0.829   2.048  12.289  0.2531  0.2443  0.4411
   37TMC2    C2  573   0.746   2.096  12.193 -0.0709 -0.0870 -0.3033
   37TMC2    C3  574   0.794   2.115  12.059 -0.2585 -0.6470 -0.2343
   37TMC2    C4  575   0.960   2.010  12.258 -0.1168  0.7790  0.2202
   37TMC2    C5  576   0.998   2.030  12.127 -0.7653 -0.2714 -0.2261
   37TMC2    C6  577   0.925   2.084  12.029  0.4009 -0.0117  0.3936
   37TMC2     C  578   0.768   2.024  12.425  0.1691 -0.2542  0.5802
   37TMC2     O  579   0.649   2.029  12.428 -0.0123 -0.1091 -0.0541
   37TMC2     H  580   0.642   2.112  12.218  0.4797  0.9493  1.3078
   37TMC2    H1  581   1.038   1.973  12.323 -1.1899 -0.0257  1.0340
   37TMC2    H2  582   0.943   2.093  11.922  0.6068 -0.6209  0.3777
   37TMC2    C7  583   1.140   2.001  12.100  0.0449 -0.1965 -0.2944
   37TMC2    C8  584   0.728   2.217  11.973  0.0219 -0.2935 -0.2383
   37TMC2    O1  585   1.218   1.985  12.191 -0.0585 -0.6795 -0.3182
   37TMC2    O2  586   0.786   2.314  11.927 -0.0474 -0.0113 -0.4422
   37TMC2    O5  587   0.598   2.205  11.991 -0.7619 -0.3322  0.2234
   37TMC2    H5  588   0.560   2.122  12.025  0.4389 -1.7534 -1.9300
   38MPD2     C  589   0.754   1.769  12.873  0.3335  0.5864  0.0038
   38MPD2    C1  590   0.889   1.796  12.842 -0.0128 -0.1318 -0.8862
   38MPD2    C2  591   0.913   1.872  12.732  0.5001  0.8862 -0.8014
   38MPD2    C3  592   0.815   1.903  12.640  0.4429  0.5862 -0.7084
   38MPD2    C4  593   0.688   1.873  12.671  0.2612  0.1006 -0.3147
   38MPD2    C5  594   0.656   1.808  12.786 -0.0342  0.1935 -0.2510
   38MPD2     H  595   1.016   1.903  12.714  1.0642  0.0119  0.8885
   38MPD2    H1  596   0.604   1.900  12.607 -0.2679  0.5476  0.5722
   38MPD2    H2  597   0.722   1.722  12.966 -0.0444  1.8361  0.5180
   38MPD2    H3  598   0.559   1.768  12.814  0.5226 -0.1883  1.1349
   38MPD2     N  599   0.861   1.976  12.519 -0.2671  0.4559  0.9358
   38MPD2    H5  600   0.955   1.963  12.484 -0.4040 -2.1323  1.5557
   38MPD2    N1  601   1.001   1.775  12.934  0.0733 -0.3229 -0.2439
   38MPD2    H7  602   1.097   1.796  12.910  0.1246 -1.1191 -0.7320
   39TMC2    C1  603   0.591   3.692   2.435  0.5139  0.1609 -0.1182
   39TMC2    C2  604   0.512   3.796   2.479 -0.1129 -0.4002  0.2913
   39TMC2    C3  605   0.572   3.883   2.569 -0.4214  0.2799  0.5082
   39TMC2    C4  606   0.730   3.697   2.447  0.0484 -0.0670  0.2510
   39TMC2    C5  607   0.781   3.798   2.517  0.5875  0.4082  0.1564
   39TMC2    C6  608   0.707   3.894   2.586  0.0350 -0.5099 -0.8400
   39TMC2     C  609   0.533   3.609   2.334 -0.5599  0.4932  0.0169
   39TMC2     O  610   0.429   3.662   2.288  0.2496 -0.1121 -0.3951
   39TMC2     H  611   0.405   3.803   2.465  0.2733  1.2806 -1.8386
   39TMC2    H1  612   0.795   3.647   2.376  0.5655 -0.7831  1.2378
   39TMC2    H2  613   0.754   3.969   2.649  1.5031 -1.6026 -0.6517
   39TMC2    C7  614   0.915   3.822   2.487  0.0633  0.4289  0.1222
   39TMC2    C8  615   0.478   3.971   2.625 -1.0255 -0.0821 -0.0731
   39TMC2    O1  616   0.980   3.719   2.476  0.6409 -0.0896 -0.4041
   39TMC2    O2  617   0.356   3.957   2.641  0.3268  0.1288 -0.6038
   39TMC2    O5  618   0.545   4.087   2.647  0.1525  0.3178 -0.1931
   39TMC2    H5  619   0.621   4.095   2.586 -0.4117 -1.0359 -1.0739
   40MPD2     C  620   0.659   3.309   2.165  0.5475  0.1769 -0.0798
   40MPD2    C1  621   0.562   3.400   2.199  0.6571  0.0788 -0.5732
   40MPD2    C2  622   0.448   3.401   2.124  0.1218  0.1091  0.2548
   40MPD2    C3  623   0.413   3.298   2.038  0.1217  0.5799 -0.5306
   40MPD2    C4  624   0.497   3.192   2.023 -0.4497  0.1281  0.1606
   40MPD2    C5  625   0.625   3.201   2.082 -0.4255 -0.5758 -0.2335
   40MPD2     H  626   0.381   3.485   2.137  2.1642  2.2573 -3.1585
   40MPD2    H1  627   0.476   3.124   1.941 -0.3583  1.0498 -0.6318
   40MPD2    H2  628   0.756   3.314   2.213  0.4805 -0.3269  0.1113
   40MPD2    H3  629   0.706   3.133   2.057 -0.4304  0.0330 -1.9548
   40MPD2     N  630   0.296   3.308   1.960  0.0331 -0.4105  0.7201
   40MPD2    H5  631   0.280   3.240   1.886 -2.5058  0.1073  0.7656
   40MPD2    N1  632   0.603   3.500   2.301  0.0000 -0.2471  0.5747
   40MPD2    H7  633   0.694   3.488   2.343 -1.0367  0.2116  2.9706
   41TMC2    C1  634   3.481   1.611  14.348  0.3117 -0.2328  0.1208
   41TMC2    C2  635   3.376   1.697  14.371 -0.2334  0.2112 -0.5782
   41TMC2    C3  636   3.333   1.783  14.272  0.1256 -0.7642 -0.2536
   41TMC2    C4  637   3.529   1.605  14.224  0.1472  0.5158 -0.7454
   41TMC2    C5  638   3.486   1.684  14.119  0.3845  0.1886 -0.7388
   41TMC2    C6  639   3.399   1.782  14.150  0.3171 -0.4760 -0.2052
   41TMC2     C  640   3.529   1.519  14.456  0.4798  0.1531  0.1787
   41TMC2     O  641   3.602   1.423  14.426  0.0852  0.1292  0.2529
   41TMC2     H  642   3.331   1.698  14.470 -1.4558 -1.7757 -1.1102
   41TMC2    H1  643   3.605   1.530  14.204 -3.8751 -3.5904 -0.5560
   41TMC2    H2  644   3.373   1.858  14.077 -0.5085  0.2927  0.8816
   41TMC2    C7  645   3.523   1.676  13.976  0.1870  0.5051  0.4588
   41TMC2    C8  646   3.239   1.886  14.303 -0.0149 -0.3420 -0.2074
   41TMC2    O1  647   3.473   1.758  13.904  0.0444 -0.6605  0.1012
   41TMC2    O2  648   3.159   1.925  14.221 -0.6372 -0.4960  0.2289
   41TMC2    O5  649   3.266   1.934  14.426  0.1142 -0.4949  0.9047
   41TMC2    H5  650   3.357   1.911  14.454 -0.4565 -3.3631  0.3335
   42MPD2     C  651   3.529   1.364  14.725 -0.7735 -0.2731  1.1127
   42MPD2    C1  652   3.490   1.493  14.702 -0.1931  0.7054  0.2390
   42MPD2    C2  653   3.456   1.578  14.805  0.2377  0.5277  0.2463
   42MPD2    C3  654   3.459   1.530  14.937  0.3386 -0.0099 -0.2399
   42MPD2    C4  655   3.503   1.401  14.958 -0.0224 -0.0777  0.3909
   42MPD2    C5  656   3.544   1.321  14.858  0.5294 -0.0030  0.7943
   42MPD2     H  657   3.415   1.676  14.784 -0.2445  1.2673  4.7967
   42MPD2    H1  658   3.515   1.361  15.058  1.3015  0.3988  0.4154
   42MPD2    H2  659   3.552   1.302  14.640 -2.7023  1.6768 -0.8602
   42MPD2    H3  660   3.581   1.220  14.873 -0.4521 -0.7200 -1.6247
   42MPD2     N  661   3.420   1.597  15.060  0.6181 -0.5103  0.1810
   42MPD2    H5  662   3.416   1.548  15.148  2.6972 -2.0143 -0.5560
   42MPD2    N1  663   3.496   1.564  14.582  0.1026  0.3844  0.4204
   42MPD2    H7  664   3.444   1.651  14.591  0.6646  0.8604 -0.9292
   43TMC2    C1  665   0.686   4.496   1.344  0.5483 -0.4208 -0.4496
   43TMC2    C2  666   0.588   4.587   1.330  0.4923 -0.3660 -0.5212
   43TMC2    C3  667   0.595   4.678   1.431 -0.1302 -0.8488  0.1417
   43TMC2    C4  668   0.781   4.502   1.440  0.7186 -0.8352  0.4248
   43TMC2    C5  669   0.774   4.600   1.537 -0.4492  0.6327 -0.1053
   43TMC2    C6  670   0.673   4.686   1.540 -0.8929  0.4530  0.0084
   43TMC2     C  671   0.703   4.390   1.242  0.3838 -0.5627 -0.3507
   43TMC2     O  672   0.779   4.297   1.270 -0.4340  0.1273 -0.0172
   43TMC2     H  673   0.506   4.588   1.259  0.2908  2.1712 -0.2520
   43TMC2    H1  674   0.868   4.437   1.443 -1.3948 -3.5543  2.9612
   43TMC2    H2  675   0.653   0.015   1.623 -2.0096 -1.1527  1.0626
   43TMC2    C7  676   0.902   4.650   1.583  0.4688 -0.1260 -0.3528
   43TMC2    C8  677   0.485   0.033   1.434  0.9794 -0.2236 -0.1148
   43TMC2    O1  678   0.991   4.679   1.506 -0.4738  0.0822 -0.2287
   43TMC2    O2  679   0.385   0.026   1.366 -0.3057  0.0106  0.2042
   43TMC2    O5  680   0.534   0.148   1.491  0.2392 -0.1505 -0.2623
   43TMC2    H5  681   0.632   0.151   1.495  0.0898  1.0870  2.3857
   44MPD2     C  682   0.691   4.247   0.745 -0.1833  0.3684 -0.8219
   44MPD2    C1  683   0.759   4.185   0.856  0.1346  0.0386 -0.1160
   44MPD2    C2  684   0.727   4.239   0.983  0.5355  0.6906 -0.3171
   44MPD2    C3  685   0.643   4.344   1.003 -0.9724  0.1212  0.3788
   44MPD2    C4  686   0.569   4.391   0.891  0.5645  0.1180 -0.1670
   44MPD2    C5  687   0.590   4.335   0.768  0.2664  0.2986 -0.8226
   44MPD2     H  688   0.791   4.209   1.065 -0.7882 -1.6461 -0.1547
   44MPD2    H1  689   0.490   4.464   0.901  1.8071  1.1104  2.3315
   44MPD2    H2  690   0.713   4.205   0.647 -0.5325  2.1031 -1.6314
   44MPD2    H3  691   0.530   4.379   0.689  1.1224  1.4823 -0.8261
   44MPD2     N  692   0.635   4.417   1.126  0.0304 -0.6021 -0.0103
   44MPD2    H5  693   0.584   4.504   1.120 -0.3998 -0.8585 -0.0775
   44MPD2    N1  694   0.865   4.094   0.844 -0.6597 -0.2621  0.0402
   44MPD2    H7  695   0.913   4.073   0.931  1.0484 -1.2598 -1.1395
   45TMC2    C1  696   0.463   2.794   9.820 -0.4613 -0.3416 -0.5892
   45TMC2    C2  697   0.346   2.815   9.746  0.0201  0.0393 -0.2648
   45TMC2    C3  698   0.328   2.944   9.704 -0.0354 -0.2305  0.1598
   45TMC2    C4  699   0.556   2.892   9.829 -0.0814 -0.2728  0.3588
   45TMC2    C5  700   0.522   3.020   9.790  0.1540  0.6290 -0.5817
   45TMC2    C6  701   0.403   3.049   9.735  0.0155 -0.1490 -0.9272
   45TMC2     C  702   0.512   2.659   9.843  0.1224  0.1698  0.5129
   45TMC2     O  703   0.630   2.643   9.827 -0.0081 -0.2035 -0.1077
   45TMC2     H  704   0.270   2.739   9.737 -0.3187  0.0954  2.0934
   45TMC2    H1  705   0.647   2.880   9.887  0.2223  0.0477 -0.0585
   45TMC2    H2  706   0.371   3.146   9.698 -1.8608 -0.6072 -0.4646
   45TMC2    C7  707   0.605   3.128   9.843  0.4486  0.0833  0.4393
   45TMC2    C8  708   0.213   2.984   9.636  0.4256  0.0827  0.4643
   45TMC2    O1  709   0.689   3.101   9.928  0.2569 -0.4973  0.0175
   45TMC2    O2  710   0.161   3.087   9.668 -0.1924 -0.2244 -0.0510
   45TMC2    O5  711   0.136   2.879   9.615  0.3273 -0.0063  0.3256
   45TMC2    H5  712   0.183   2.802   9.574 -0.0260  0.5393 -1.1104
   46MPD2     C  713   0.534   2.360   9.835 -0.0768  0.8158 -0.4091
   46MPD2    C1  714   0.414   2.430   9.846  0.0266 -0.7023  0.9238
   46MPD2    C2  715   0.296   2.353   9.847 -0.4705 -0.0866 -0.1585
   46MPD2    C3  716   0.296   2.219   9.825  0.4289 -0.6787 -0.4320
   46MPD2    C4  717   0.417   2.149   9.811  0.1475  0.5199  0.8121
   46MPD2    C5  718   0.531   2.223   9.819 -0.3345  0.1134 -0.0994
   46MPD2     H  719   0.202   2.406   9.860  1.2385  3.3455 -1.7671
   46MPD2    H1  720   0.422   2.042   9.795  2.1685  0.6326  0.6680
   46MPD2    H2  721   0.628   2.413   9.849 -0.1134  0.1025  2.4925
   46MPD2    H3  722   0.623   2.165   9.816 -0.1812  0.3130  0.7951
   46MPD2     N  723   0.170   2.148   9.818  0.5297  0.1927  0.5539
   46MPD2    H5  724   0.087   2.205   9.835 -0.4292 -1.2293  0.6409
   46MPD2    N1  725   0.407   2.567   9.849  0.0699 -0.1157 -0.1298
   46MPD2    H7  726   0.316   2.610   9.833 -0.2929 -0.9951 -0.4081
   47TMC2    C1  727   3.412   3.080   9.691  0.2065 -0.1317  0.2342
   47TMC2    C2  728   3.373   3.190   9.617  0.2275  0.2131 -0.9758
   47TMC2    C3  729   3.265   3.161   9.532  0.2218 -0.5702 -0.5268
   47TMC2    C4  730   3.350   2.960   9.698 -0.3661 -0.1119 -0.9695
   47TMC2    C5  731   3.246   2.934   9.611 -0.0513 -0.0077  0.2308
   47TMC2    C6  732   3.198   3.034   9.529 -0.3412  0.2902  0.0335
   47TMC2     C  733   3.510   3.111   9.801  0.1653 -0.4442  0.3701
   47TMC2     O  734   3.542   3.231   9.812  0.2329  0.2164  0.0152
   47TMC2     H  735   3.425   3.285   9.622  0.0333  0.2967 -0.5198
   47TMC2    H1  736   3.373   2.881   9.769 -0.0053  1.2626  0.4404
   47TMC2    H2  737   3.126   3.004   9.454  2.4568 -1.1157 -2.0414
   47TMC2    C7  738   3.181   2.803   9.602 -0.1209  0.2567  0.3533
   47TMC2    C8  739   3.210   3.254   9.436 -0.2100  0.5808 -0.0949
   47TMC2    O1  740   3.064   2.811   9.570 -0.6638  0.5874  0.9070
   47TMC2    O2  741   3.091   3.253   9.396 -0.0654  0.2120  0.2184
   47TMC2    O5  742   3.312   3.317   9.379  0.1014 -0.2644  0.2835
   47TMC2    H5  743   3.401   3.291   9.410  1.4636  3.5467 -0.3985
   48MPD2     C  744   3.725   3.111  10.011  0.3387 -0.5216  0.9367
   48MPD2    C1  745   3.666   3.000   9.955 -0.1635  0.4293 -0.0921
   48MPD2    C2  746   3.712   2.874   9.983 -1.1033 -0.6842 -0.2940
   48MPD2    C3  747   3.811   2.860  10.079  0.3625  0.1653  0.1886
   48MPD2    C4  748   3.863   2.967  10.142  0.0933 -0.1208 -0.4315
   48MPD2    C5  749   3.824   3.092  10.103  0.1036 -0.5985 -0.5639
   48MPD2     H  750   3.669   2.789   9.932 -0.7746 -0.3017 -1.2100
   48MPD2    H1  751   3.946   2.943  10.207  0.2338  3.0075  0.5231
   48MPD2    H2  752   3.696   3.209   9.975 -0.4136 -1.0053  0.2189
   48MPD2    H3  753   3.875   3.179  10.143  1.3974 -0.4303 -2.5660
   48MPD2     N  754   3.857   2.725  10.098  0.3089  0.3960  0.7246
   48MPD2    H5  755   3.802   2.654  10.052  2.0262 -0.1814 -0.4170
   48MPD2    N1  756   3.569   2.999   9.851  0.0139  0.7694  0.4335
   48MPD2    H7  757   3.548   2.907   9.814  1.4619  1.4189 -2.0074
   49TMC2    C1  758   2.048   0.064  10.573 -0.4868  0.2921 -0.0101
   49TMC2    C2  759   2.145   0.073  10.481  0.1514 -0.3613 -0.7733
   49TMC2    C3  760   2.118   0.019  10.358 -0.2860 -0.4388 -0.5153
   49TMC2    C4  761   1.920   0.022  10.540  0.6149  0.2530  0.1908
   49TMC2    C5  762   1.898   4.716  10.414 -0.8392  0.8062  0.5894
   49TMC2    C6  763   1.998   4.700  10.322 -0.0982 -0.1009  0.0037
   49TMC2     C  764   2.053   0.165  10.674  0.2531 -0.0871 -0.0867
   49TMC2     O  765   2.146   0.246  10.669  0.5723 -0.5708 -0.0162
   49TMC2     H  766   2.248   0.103  10.500 -1.5006  3.8654  1.3957
   49TMC2    H1  767   1.835   0.057  10.597  0.9759 -1.8749  2.0626
   49TMC2    H2  768   1.987   4.658  10.223 -2.5782 -0.8585  0.6040
   49TMC2    C7  769   1.785   4.636  10.386  0.1575  0.5830  0.0886
   49TMC2    C8  770   2.230   4.700  10.294 -0.4953 -0.1271  0.6056
   49TMC2    O1  771   1.772   4.610  10.268 -0.3424  0.5887 -0.0053
   49TMC2    O2  772   2.218   4.595  10.237 -0.3330  1.1826 -0.0017
   49TMC2    O5  773   2.313   0.059  10.256 -0.6795  0.4830 -0.1943
   49TMC2    H5  774   2.294   0.146  10.296 -1.3746 -0.5223  1.6336
   50MPD2     C  775   2.017   0.353  10.912 -0.4571 -0.2636  0.0787
   50MPD2    C1  776   1.955   0.231  10.889 -0.9885  0.1429  0.0905
   50MPD2    C2  777   1.855   0.196  10.988 -0.1239  0.8599  0.0790
   50MPD2    C3  778   1.808   0.288  11.079  0.5900  0.8176  0.4106
   50MPD2    C4  779   1.873   0.408  11.090 -0.2383  0.0207  0.6392
   50MPD2    C5  780   1.981   0.437  11.015 -0.0961  0.9471  0.0434
   50MPD2     H  781   1.802   0.104  10.971  0.4368  0.4796  0.3662
   50MPD2    H1  782   1.839   0.481  11.162  0.1082  0.2965  0.5252
   50MPD2    H2  783   2.102   0.385  10.853 -1.3696  1.4853 -0.2760
   50MPD2    H3  784   2.024   0.536  11.018  1.1530  0.3869  0.7886
   50MPD2     N  785   1.690   0.276  11.156 -0.0447 -0.0728  0.0610
   50MPD2    H5  786   1.672   0.352  11.221  0.7924  0.1741  0.0019
   50MPD2    N1  787   1.970   0.142  10.781 -0.0967  0.1987 -0.5022
   50MPD2    H7  788   1.908   0.062  10.780 -2.9761  2.4565 -4.3030
   51TMC2    C1  789   2.057   3.476   1.391  0.1242  0.3736  0.2169
   51TMC2    C2  790   2.028   3.518   1.264 -0.4312  0.1446  0.2554
   51TMC2    C3  791   2.085   3.629   1.216 -0.3003  0.7135  0.1051
   51TMC2    C4  792   2.146   3.530   1.470 -0.4012  0.4021  0.1192
   51TMC2    C5  793   2.219   3.634   1.410 -0.4064  0.0463  0.1543
   51TMC2    C6  794   2.189   3.686   1.287  0.6315 -0.2659  0.5929
   51TMC2     C  795   1.988   3.361   1.444  0.9165  0.3149  0.4642
   51TMC2     O  796   1.940   3.282   1.358 -0.6055 -0.0925 -0.0039
   51TMC2     H  797   1.955   3.465   1.204 -2.2364  0.7054  1.9361
   51TMC2    H1  798   2.178   3.493   1.566  1.8584  1.7517 -0.1076
   51TMC2    H2  799   2.245   3.767   1.242 -0.3232  0.2299  0.3012
   51TMC2    C7  800   2.309   3.697   1.507  0.1588 -0.0331  0.2952
   51TMC2    C8  801   2.035   3.690   1.099  0.2637  0.3630 -1.2094
   51TMC2    O1  802   2.335   3.642   1.613 -0.0389 -0.1427  0.6062
   51TMC2    O2  803   1.974   3.623   1.014 -0.1003  0.4444 -0.0204
   51TMC2    O5  804   2.061   3.826   1.097 -0.0437 -0.0674  0.5410
   51TMC2    H5  805   2.081   3.865   1.184  1.2074 -0.4504  0.4345
   52MPD2     C  806   1.726   3.130   1.812 -0.5178 -0.0098 -0.9823
   52MPD2    C1  807   1.772   3.083   1.693 -0.6414  0.3486 -0.3634
   52MPD2    C2  808   1.845   3.164   1.605 -0.2361 -0.1244  0.5329
   52MPD2    C3  809   1.876   3.294   1.642 -0.3692  0.6626  1.0119
   52MPD2    C4  810   1.837   3.339   1.768  0.2179  0.1972 -0.0397
   52MPD2    C5  811   1.767   3.256   1.854  0.3223  0.1723 -0.8185
   52MPD2     H  812   1.879   3.118   1.513  0.2749  0.8617  0.2187
   52MPD2    H1  813   1.854   3.439   1.807  0.4113  0.6660 -1.3146
   52MPD2    H2  814   1.671   3.067   1.881  0.1970  0.6394  0.1883
   52MPD2    H3  815   1.725   3.288   1.948 -0.0899  0.2278 -1.0197
   52MPD2     N  816   1.956   3.381   1.574  0.1533  0.1907 -0.7716
   52MPD2    H5  817   1.969   3.472   1.618 -2.8441  0.7086 -0.9228
   52MPD2    N1  818   1.751   2.946   1.654  0.1007 -0.5264  0.3596
   52MPD2    H7  819   1.787   2.930   1.561 -1.3163  0.4231 -0.3497
   53TMC2    C1  820   1.867   2.100  12.120  0.6228  0.4501  0.1256
   53TMC2    C2  821   1.993   2.062  12.120  0.2360 -0.0365  0.0632
   53TMC2    C3  822   2.060   2.051  12.241  0.2322  0.7256  0.0589
   53TMC2    C4  823   1.806   2.126  12.237 -1.3539 -0.4068 -0.2080
   53TMC2    C5  824   1.868   2.118  12.356 -0.0431 -0.3212 -0.0261
   53TMC2    C6  825   1.999   2.066  12.363 -0.8594  0.0707  0.2289
   53TMC2     C  826   1.785   2.066  12.006  0.2601  0.2799 -0.0462
   53TMC2     O  827   1.845   2.049  11.898 -0.3312  0.2612 -0.6546
   53TMC2     H  828   2.051   2.050  12.029 -1.8368 -1.4647 -1.0692
   53TMC2    H1  829   1.706   2.169  12.237 -0.3132  2.0238 -0.0348
   53TMC2    H2  830   2.045   2.049  12.460 -0.4693  0.1220  0.0551
   53TMC2    C7  831   1.795   2.143  12.479 -0.1497 -0.0509 -0.6586
   53TMC2    C8  832   2.196   2.001  12.235  0.2575 -0.2878  0.0778
   53TMC2    O1  833   1.678   2.181  12.458 -0.3503  0.4008  0.5465
   53TMC2    O2  834   2.250   1.979  12.126 -0.4805 -0.3000 -0.0429
   53TMC2    O5  835   2.260   2.046  12.345  0.3107  0.2667 -0.6917
   53TMC2    H5  836   2.202   2.108  12.396 -0.1814  0.5328 -1.5660
   54MPD2     C  837   1.553   2.041  11.797  0.4822  0.2860 -0.0598
   54MPD2    C1  838   1.547   2.036  11.936 -0.4359 -0.2206 -0.7005
   54MPD2    C2  839   1.422   2.007  11.991 -1.3341  0.1811 -0.1638
   54MPD2    C3  840   1.300   2.013  11.920  0.2109 -0.6307 -0.2636
   54MPD2    C4  841   1.313   2.028  11.785 -0.4106 -0.3871 -0.0064
   54MPD2    C5  842   1.441   2.042  11.724 -0.2524  0.1345 -0.0380
   54MPD2     H  843   1.422   1.990  12.098  1.4544  0.2931 -0.1411
   54MPD2    H1  844   1.228   2.055  11.724 -0.7766 -0.8409  0.2959
   54MPD2    H2  845   1.644   2.074  11.749  0.3845  0.3874 -0.1739
   54MPD2    H3  846   1.447   2.089  11.627 -1.7046 -1.2529 -0.8065
   54MPD2     N  847   1.173   2.013  11.964 -0.0998  0.1094  0.4978
   54MPD2    H5  848   1.102   2.019  11.892  0.0126  0.8693  0.4500
   54MPD2    N1  849   1.651   2.053  12.027  0.1075  0.1248  0.2304
   54MPD2    H7  850   1.622   2.059  12.125 -2.1574 -3.2125 -0.2311
   55TMC2    C1  851   3.868   0.491   0.504 -0.0796 -0.3477  0.1908
   55TMC2    C2  852   3.966   0.541   0.430 -0.0827  0.8299  0.2324
   55TMC2    C3  853   4.080   0.470   0.429 -0.7455  0.1128 -0.1420
   55TMC2    C4  854   3.880   0.376   0.577 -0.2636 -0.6787  0.3564
   55TMC2    C5  855   4.000   0.317   0.580 -1.1087 -0.2016  0.0324
   55TMC2    C6  856   4.100   0.355   0.503  0.1915  0.2561  0.0908
   55TMC2     C  857   3.732   0.518   0.464  0.7777 -0.1278 -0.5379
   55TMC2     O  858   3.647   0.452   0.523  0.5585  0.3389 -0.6099
   55TMC2     H  859   3.953   0.634   0.377  1.9097  1.0436  0.1175
   55TMC2    H1  860   3.795   0.335   0.630  0.9709 -1.0191  2.0710
   55TMC2    H2  861   4.203   0.321   0.514 -0.2748 -0.9832  0.6254
   55TMC2    C7  862   4.039   0.212   0.675  0.5671 -0.4395 -0.0989
   55TMC2    C8  863   4.164   0.507   0.319  0.5634  0.1805 -0.4592
   55TMC2    O1  864   4.154   0.172   0.683 -0.2636 -0.0544 -0.6221
   55TMC2    O2  865   4.162   0.617   0.269 -0.0403 -0.0346  0.3186
   55TMC2    O5  866   4.198   0.397   0.251 -0.1641 -0.2675 -0.3594
   55TMC2    H5  867   4.163   0.317   0.296  1.0147 -1.1357 -0.9992
   56MPD2     C  868   3.582   0.732   0.209  0.7454 -0.0834 -0.2310
   56MPD2    C1  869   3.593   0.617   0.290  0.5861 -0.3434  0.9257
   56MPD2    C2  870   3.484   0.536   0.303  0.0977 -0.3936  0.2089
   56MPD2    C3  871   3.363   0.564   0.236  0.5169  0.0971  0.3541
   56MPD2    C4  872   3.352   0.675   0.159 -0.8592 -0.4559  0.7254
   56MPD2    C5  873   3.466   0.760   0.143  0.1517 -0.0959  0.3737
   56MPD2     H  874   3.485   0.449   0.367 -1.2719 -1.6662 -1.5084
   56MPD2    H1  875   3.259   0.706   0.113 -0.4402 -1.4165 -0.7549
   56MPD2    H2  876   3.669   0.796   0.196  1.0018 -0.4931 -0.5272
   56MPD2    H3  877   3.466   0.841   0.071 -0.7805 -0.3904  0.0562
   56MPD2     N  878   3.263   0.470   0.250  0.4258 -0.7894 -0.4764
   56MPD2    H5  879   3.291   0.400   0.318 -3.1258 -2.1267 -0.4255
   56MPD2    N1  880   3.715   0.601   0.358  0.6082  0.0548 -0.7251
   56MPD2    H7  881   3.791   0.660   0.327  0.4211  1.2393  1.0908
   57TMC2    C1  882   1.938   0.283  13.636  0.1946  0.6058  0.2798
   57TMC2    C2  883   1.891   0.255  13.513 -0.2300 -0.7522  0.0757
   57TMC2    C3  884   1.966   0.171  13.435 -0.1471  0.1029 -0.0763
   57TMC2    C4  885   2.049   0.220  13.684 -0.7096 -0.2820  0.3818
   57TMC2    C5  886   2.126   0.146  13.600 -0.7332 -0.0048  0.4931
   57TMC2    C6  887   2.089   0.127  13.470  0.0576  0.2517  0.7636
   57TMC2     C  888   1.872   0.383  13.715  0.4226 -0.4759 -0.2278
   57TMC2     O  889   1.806   0.464  13.655 -0.0676 -0.0629 -0.6990
   57TMC2     H  890   1.797   0.295  13.476 -0.2737 -0.9064  0.0167
   57TMC2    H1  891   2.096   0.244  13.778  2.3795  0.3312 -1.3437
   57TMC2    H2  892   2.140   0.068  13.394 -0.1163  2.3712 -1.0018
   57TMC2    C7  893   2.270   0.133  13.635 -0.8849  0.0393  0.0963
   57TMC2    C8  894   1.917   0.129  13.304 -0.3056 -0.5918 -0.6096
   57TMC2    O1  895   2.304   0.209  13.726 -0.0649  0.1663  0.0018
   57TMC2    O2  896   1.946   0.019  13.258 -0.1562 -0.2869  0.0350
   57TMC2    O5  897   1.844   0.228  13.249 -0.1760 -0.6406 -0.1645
   57TMC2    H5  898   1.844   0.312  13.300  0.4036 -1.0318  0.4781
   58MPD2     C  899   1.749   0.612  14.151  0.4244  0.1736  0.6420
   58MPD2    C1  900   1.736   0.659  14.024 -0.4138  0.7502  0.0612
   58MPD2    C2  901   1.785   0.586  13.917 -0.2458  0.7555  0.2598
   58MPD2    C3  902   1.852   0.469  13.946 -0.5242 -0.0742 -0.2825
   58MPD2    C4  903   1.875   0.429  14.079  0.1036 -0.2523 -0.3245
   58MPD2    C5  904   1.825   0.500  14.183  0.5196  0.2360  0.6816
   58MPD2     H  905   1.788   0.633  13.819  0.7064  0.2635  0.0494
   58MPD2    H1  906   1.919   0.334  14.106 -0.3049 -0.0723  0.9768
   58MPD2    H2  907   1.712   0.667  14.236  1.3652 -1.0762  1.8638
   58MPD2    H3  908   1.836   0.467  14.285 -0.1996 -0.6208  0.4794
   58MPD2     N  909   1.907   0.386  13.851  0.2987  0.0306 -0.9504
   58MPD2    H5  910   1.963   0.309  13.884  0.4809 -0.2342 -1.8747
   58MPD2    N1  911   1.671   0.780  13.985 -0.2208 -0.0864 -0.4435
   58MPD2    H7  912   1.644   0.797  13.888  0.2108  1.2511 -0.3337
   59TMC2    C1  913   0.052   0.637  12.816 -0.5256 -0.0039 -0.2862
   59TMC2    C2  914   0.120   0.760  12.814  0.2000 -0.1620 -1.0792
   59TMC2    C3  915   0.084   0.855  12.716  0.5371 -0.4926 -0.9369
   59TMC2    C4  916   4.683   0.620  12.740 -0.2779 -0.0458 -0.6940
   59TMC2    C5  917   4.635   0.722  12.660 -0.1151  0.0889  0.6749
   59TMC2    C6  918   4.713   0.842  12.641  0.5048  0.1916  0.0718
   59TMC2     C  919   0.050   0.558  12.936 -0.7262 -0.5378 -0.4638
   59TMC2     O  920   4.705   0.472  12.938 -0.4936 -0.3196  0.7007
   59TMC2     H  921   0.205   0.781  12.877  0.8443 -1.6662 -1.4553
   59TMC2    H1  922   4.631   0.524  12.737 -1.2780  0.4390  0.9252
   59TMC2    H2  923   4.689   0.915  12.564  0.0687  1.0500  1.0315
   59TMC2    C7  924   4.495   0.719  12.619  0.1460 -0.3163  0.7720
   59TMC2    C8  925   0.140   0.984  12.722  0.2463 -0.3001 -0.4355
   59TMC2    O1  926   4.438   0.610  12.632 -0.8744  0.0197  0.0655
   59TMC2    O2  927   0.178   1.047  12.624 -0.0777  0.7587  0.1618
   59TMC2    O5  928   0.140   1.020  12.851 -0.1596 -0.8802  0.0327
   59TMC2    H5  929   0.107   0.952  12.914  0.5398  0.1593  1.5174
   60MPD2     C  930   4.739   0.550  13.226 -0.1874 -0.0875 -0.2625
   60MPD2    C1  931   0.122   0.588  13.170 -0.0148 -0.0397  0.0289
   60MPD2    C2  932   0.223   0.646  13.252  0.7609  0.0366  0.1808
   60MPD2    C3  933   0.191   0.675  13.383 -0.1279  0.4428  0.4212
   60MPD2    C4  934   0.068   0.641  13.434  0.0905 -0.5238 -0.1113
   60MPD2    C5  935   4.716   0.577  13.358 -0.0957 -0.0304  0.4554
   60MPD2     H  936   0.313   0.680  13.203  0.6805 -1.0669 -0.7297
   60MPD2    H1  937   0.043   0.652  13.539 -2.0603  0.7795 -0.7667
   60MPD2    H2  938   4.657   0.517  13.163  1.1125  0.4569 -2.2216
   60MPD2    H3  939   4.618   0.547  13.394 -0.3425  2.6524  2.0375
   60MPD2     N  940   0.284   0.740  13.471  0.0018 -0.6366 -0.2796
   60MPD2    H5  941   0.261   0.751  13.569 -1.5814  1.4921 -0.8979
   60MPD2    N1  942   0.145   0.592  13.027 -0.4079  0.3201  0.1327
   60MPD2    H7  943   0.228   0.642  12.996 -0.6397 -0.0693 -1.1312
   61TMC2    C1  944   4.456   2.236  16.263  0.2919 -0.9404 -0.0678
   61TMC2    C2  945   4.345   2.202  16.338  0.2880 -0.1511  0.0801
   61TMC2    C3  946   4.250   2.300  16.351  0.5506 -0.3745  0.1569
   61TMC2    C4  947   4.456   2.361  16.208  0.4774 -0.1264 -0.4437
   61TMC2    C5  948   4.357   2.451  16.212 -0.3042 -0.0996 -0.2770
   61TMC2    C6  949   4.244   2.419  16.275 -0.0483 -0.2429  0.3804
   61TMC2     C  950   4.498   2.127  16.177 -0.1917  0.1675  0.2218
   61TMC2     O  951   4.490   2.014  16.225  0.0389 -0.1699  0.0556
   61TMC2     H  952   4.335   2.104  16.383 -1.5890 -0.7366 -1.6214
   61TMC2    H1  953   4.542   2.395  16.151 -0.0581  2.4953  0.3198
   61TMC2    H2  954   4.155   2.480  16.288 -0.3179 -0.7902  1.1160
   61TMC2    C7  955   4.320   2.503  16.086 -0.3704 -0.1989  0.3676
   61TMC2    C8  956   4.158   2.297  16.468  0.3135  0.1121 -0.2079
   61TMC2    O1  957   4.364   2.449  15.985 -0.1140  0.5551  0.6264
   61TMC2    O2  958   4.191   2.286  16.588 -0.1656 -0.0956  1.2827
   61TMC2    O5  959   4.034   2.278  16.418  0.3360 -0.3392 -0.3218
   61TMC2    H5  960   4.032   2.287  16.320 -1.3368  0.9564 -0.1751
   62MPD2     C  961   4.572   1.968  15.935 -0.0873  0.6715 -0.2683
   62MPD2    C1  962   4.510   2.087  15.934 -0.5974 -0.9174  0.0284
   62MPD2    C2  963   4.477   2.145  15.816 -0.5411  0.0644  0.8993
   62MPD2    C3  964   4.486   2.079  15.694 -0.1512  0.4553  0.0398
   62MPD2    C4  965   4.538   1.953  15.694 -0.9509  0.1735 -0.2686
   62MPD2    C5  966   4.576   1.898  15.818 -0.1251 -0.3063  0.1574
   62MPD2     H  967   4.446   2.249  15.807 -1.7443 -0.6236 -2.9172
   62MPD2    H1  968   4.566   1.902  15.602  2.7993  0.0398  0.9432
   62MPD2    H2  969   4.599   1.919  16.027 -2.0693  1.3132  0.6334
   62MPD2    H3  970   4.631   1.805  15.824  0.0905 -0.1047  1.2775
   62MPD2     N  971   4.442   2.138  15.569  0.2526  0.0746 -0.2978
   62MPD2    H5  972   4.462   2.083  15.486  1.1376  0.6658 -0.4797
   62MPD2    N1  973   4.492   2.167  16.047 -0.2541 -0.2959  0.5651
   62MPD2    H7  974   4.465   2.263  16.032 -0.8527 -0.5404  0.0765
   63TMC2    C1  975   3.026   3.034  10.535 -0.2715 -0.4558  0.2204
   63TMC2    C2  976   3.081   3.144  10.594  0.0892 -0.7776 -0.0259
   63TMC2    C3  977   3.169   3.223  10.523 -0.2001  0.1957  0.9302
   63TMC2    C4  978   3.066   2.995  10.411  0.0318  0.0595 -0.2950
   63TMC2    C5  979   3.143   3.086  10.338  0.3434  0.4741  0.3011
   63TMC2    C6  980   3.213   3.193  10.395 -0.7082 -0.7330 -0.3993
   63TMC2     C  981   2.968   2.936  10.623  0.5352  0.3904  0.3287
   63TMC2     O  982   2.928   2.988  10.727 -0.3015  0.1210  0.2757
   63TMC2     H  983   3.067   3.169  10.699 -1.6761  2.4336 -1.0233
   63TMC2    H1  984   3.000   2.928  10.358 -2.0322  3.1935 -1.6767
   63TMC2    H2  985   3.270   3.264  10.335  0.5979 -1.1736  0.3314
   63TMC2    C7  986   3.135   3.067  10.191  0.0220  0.0765 -0.4682
   63TMC2    C8  987   3.257   3.316  10.594  0.2049  0.7223 -1.0579
   63TMC2    O1  988   3.066   2.970  10.148 -0.2406 -0.0159  0.4800
   63TMC2    O2  989   3.308   3.414  10.536 -0.4194 -0.1313 -0.3162
   63TMC2    O5  990   3.302   3.249  10.709  0.0479 -0.3288 -0.0940
   63TMC2    H5  991   3.281   3.153  10.708  1.1366 -0.5717  0.0790
   64MPD2     C  992   2.874   2.466  10.825 -0.0071  1.2362 -0.9252
   64MPD2    C1  993   2.958   2.446  10.718  0.7281 -0.1196  0.1046
   64MPD2    C2  994   2.983   2.561  10.637  0.0873 -0.4780 -0.6029
   64MPD2    C3  995   2.952   2.684  10.669  0.3814 -0.2671 -0.3827
   64MPD2    C4  996   2.868   2.697  10.774 -0.2441  0.5460  1.0573
   64MPD2    C5  997   2.828   2.590  10.856 -0.2531  0.1286 -0.1093
   64MPD2     H  998   3.044   2.552  10.548 -0.1702  1.2852 -0.9608
   64MPD2    H1  999   2.832   2.798  10.791  0.3813  0.5551  2.4030
   64MPD2    H2 1000   2.836   2.386  10.888 -0.5161  2.3974  0.2441
   64MPD2    H3 1001   2.766   2.603  10.944 -1.4115 -0.4256 -0.8321
   64MPD2     N 1002   2.987   2.800  10.585 -0.2207  0.1271  0.0472
   64MPD2    H5 1003   3.030   2.778  10.496 -0.6737  0.3756 -0.2277
   64MPD2    N1 1004   3.015   2.321  10.689  0.4878  0.6124  0.7250
   64MPD2    H7 1005   3.044   2.292  10.596  1.5717  1.8382  0.6693
   65TMC2    C1 1006   0.274   1.545  16.158  0.2108 -0.2204 -0.3685
   65TMC2    C2 1007   0.310   1.520  16.028 -0.1009 -0.1435 -0.4217
   65TMC2    C3 1008   0.297   1.620  15.932 -0.3924  0.2572 -0.5689
   65TMC2    C4 1009   0.246   1.676  16.193  0.2531 -0.3805 -0.0721
   65TMC2    C5 1010   0.232   1.775  16.095  0.0336 -0.0275  0.7825
   65TMC2    C6 1011   0.267   1.748  15.969  0.2947 -0.2222  0.7864
   65TMC2     C 1012   0.288   1.437  16.262 -0.1015  0.3717  0.6228
   65TMC2     O 1013   0.310   1.468  16.379  0.1482  0.1129  0.4986
   65TMC2     H 1014   0.339   1.421  15.994 -0.4715 -1.0439  1.8736
   65TMC2    H1 1015   0.239   1.706  16.297 -1.1072 -0.1689 -0.2228
   65TMC2    H2 1016   0.258   1.828  15.895 -0.6387 -1.3206 -0.2945
   65TMC2    C7 1017   0.171   1.902  16.135 -0.1574 -0.0337 -0.1874
   65TMC2    C8 1018   0.336   1.598  15.795  0.2316  0.8231 -0.0135
   65TMC2    O1 1019   0.120   1.915  16.245 -0.1789  0.1067 -0.4263
   65TMC2    O2 1020   0.324   1.686  15.713  0.0962  0.6795  0.2998
   65TMC2    O5 1021   0.296   1.472  15.771 -0.2798  0.0951  0.1047
   65TMC2    H5 1022   0.263   1.418  15.847  2.1510  0.3482  1.3477
   66MPD2     C 1023   0.305   1.178  16.384  0.1414  0.5993 -0.3962
   66MPD2    C1 1024   0.271   1.198  16.254  0.3785  1.4672  0.1318
   66MPD2    C2 1025   0.235   1.093  16.172  0.0682 -0.1077  0.2124
   66MPD2    C3 1026   0.242   0.961  16.217  0.5803 -0.7148 -0.3030
   66MPD2    C4 1027   0.297   0.939  16.343  0.4682  0.1434 -0.2204
   66MPD2    C5 1028   0.331   1.046  16.418 -0.4687 -0.2808  0.3429
   66MPD2     H 1029   0.213   1.110  16.067  1.6292  1.8732  0.1993
   66MPD2    H1 1030   0.323   0.841  16.382  0.3326  0.5546  0.8929
   66MPD2    H2 1031   0.317   1.260  16.455 -0.7809  0.8747 -0.5635
   66MPD2    H3 1032   0.374   1.038  16.517  0.4749  0.4291 -0.0098
   66MPD2     N 1033   0.233   0.848  16.140  0.6159 -0.2683  0.7818
   66MPD2    H5 1034   0.256   0.758  16.182  0.3654  0.0927  1.6873
   66MPD2    N1 1035   0.253   1.324  16.200 -1.0386 -0.3291 -0.3062
   66MPD2    H7 1036   0.220   1.331  16.105  2.1017 -2.3129 -1.5397
   67TMC2    C1 1037   0.140   0.803  14.621 -0.7128 -0.3486 -0.3076
   67TMC2    C2 1038   0.041   0.853  14.705 -0.1862 -0.2988  0.3344
   67TMC2    C3 1039   0.069   0.855  14.832 -0.6225 -1.0056  0.2188
   67TMC2    C4 1040   0.263   0.773  14.672  0.4465  1.1323  0.0561
   67TMC2    C5 1041   0.291   0.789  14.806 -0.3531  0.1945 -0.2239
   67TMC2    C6 1042   0.188   0.828  14.890 -0.3416 -0.5777  0.1625
   67TMC2     C 1043   0.121   0.794  14.476  0.4402 -0.2910 -0.0405
   67TMC2     O 1044   0.196   0.719  14.420  0.0888 -0.2157 -0.2474
   67TMC2     H 1045   4.678   0.872  14.674 -0.3047 -0.5015  0.6041
   67TMC2    H1 1046   0.349   0.751  14.611  0.9077  0.1472  1.0633
   67TMC2    H2 1047   0.196   0.856  14.995 -0.1888 -1.4317  0.3792
   67TMC2    C7 1048   0.430   0.758  14.855  0.4144  0.4800 -0.2919
   67TMC2    C8 1049   4.705   0.911  14.915  0.1967  0.3553 -0.1844
   67TMC2    O1 1050   0.507   0.708  14.774  0.1199 -0.0347 -0.8795
   67TMC2    O2 1051   4.708   0.890  15.036 -0.4988 -0.6056  0.3845
   67TMC2    O5 1052   4.669   1.026  14.855  0.1215  0.5436  0.4116
   67TMC2    H5 1053   4.665   1.024  14.757 -1.5385 -1.9948  0.5182
   68MPD2     C 1054   0.037   0.801  14.192  1.1495 -0.2504 -0.3225
   68MPD2    C1 1055   4.701   0.859  14.293 -0.6365  0.2875 -0.5102
   68MPD2    C2 1056   4.604   0.948  14.255  0.0770  0.0092  0.4023
   68MPD2    C3 1057   4.584   0.976  14.118 -0.1667  0.8833 -0.4694
   68MPD2    C4 1058   4.657   0.909  14.025 -0.0122  0.3070 -0.1648
   68MPD2    C5 1059   0.018   0.820  14.061  0.1750 -0.6809  0.0406
   68MPD2     H 1060   4.558   0.999  14.339 -1.0421 -2.5729  1.3365
   68MPD2    H1 1061   4.633   0.911  13.919 -0.8234 -1.5050 -0.0170
   68MPD2    H2 1062   0.115   0.732  14.224  2.9554  3.6734  3.8159
   68MPD2    H3 1063   0.077   0.768  13.986 -0.6048 -2.9896  1.0211
   68MPD2     N 1064   4.496   1.077  14.074  1.0547  0.2844 -0.4093
   68MPD2    H5 1065   4.475   1.084  13.975  0.4395  0.4148 -0.2704
   68MPD2    N1 1066   0.007   0.859  14.429 -0.4925  0.0180  0.1062
   68MPD2    H7 1067   4.697   0.918  14.496  0.4940  1.4828 -0.4676
   69TMC2    C1 1068   1.668   2.538  12.730  0.3722  0.2102 -0.2728
   69TMC2    C2 1069   1.534   2.539  12.713 -0.0753  0.8201 -0.0464
   69TMC2    C3 1070   1.494   2.518  12.585 -0.6392 -0.1136 -1.0159
   69TMC2    C4 1071   1.760   2.509  12.631 -0.0083 -0.2263 -0.0697
   69TMC2    C5 1072   1.712   2.501  12.504 -0.7075  0.1995 -0.5942
   69TMC2    C6 1073   1.577   2.507  12.472 -0.2250 -1.2735  0.3742
   69TMC2     C 1074   1.711   2.553  12.863 -0.5503  0.0657  0.0100
   69TMC2     O 1075   1.619   2.555  12.950 -0.5536  0.2070 -0.1693
   69TMC2     H 1076   1.468   2.565  12.794  0.6207 -2.6467  1.6707
   69TMC2    H1 1077   1.863   2.495  12.661 -0.3950 -2.0721  0.3451
   69TMC2    H2 1078   1.526   2.474  12.382 -1.7254  0.4526  0.5964
   69TMC2    C7 1079   1.816   2.495  12.400 -0.6981  0.3566 -0.4700
   69TMC2    C8 1080   1.365   2.576  12.560  0.5737  0.1840  0.8625
   69TMC2    O1 1081   1.932   2.495  12.438 -0.6646  0.3897 -0.2427
   69TMC2    O2 1082   1.280   2.569  12.645  0.2497  0.0140  0.1376
   69TMC2    O5 1083   1.349   2.620  12.434 -0.5374 -0.1099  0.4405
   69TMC2    H5 1084   1.430   2.616  12.379 -0.6336 -1.7557  0.4246
   70MPD2     C 1085   2.026   2.676  12.991 -0.1892  0.1314 -0.2264
   70MPD2    C1 1086   1.917   2.596  12.986 -0.0982 -0.8161  0.7423
   70MPD2    C2 1087   1.877   2.515  13.093 -1.3763  0.5633  0.4161
   70MPD2    C3 1088   1.970   2.495  13.194 -0.2751 -0.2603 -0.0645
   70MPD2    C4 1089   2.092   2.562  13.183  0.3856  0.0285  0.3743
   70MPD2    C5 1090   2.117   2.656  13.086 -0.3269 -0.1793 -0.5672
   70MPD2     H 1091   1.792   2.448  13.096 -2.4647  1.8262 -1.6962
   70MPD2    H1 1092   2.172   2.547  13.256  0.8233 -0.6014 -0.2374
   70MPD2    H2 1093   2.041   2.746  12.909  0.5793 -1.0366 -1.0836
   70MPD2    H3 1094   2.202   2.723  13.086 -0.1140 -0.4540  0.6022
   70MPD2     N 1095   1.952   2.397  13.298  0.0508  0.6583  0.0791
   70MPD2    H5 1096   2.030   2.379  13.361  0.6691  2.1934 -0.2631
   70MPD2    N1 1097   1.838   2.601  12.874  0.7551  0.2717  0.0609
   70MPD2    H7 1098   1.887   2.636  12.793 -1.1731  0.9827 -0.8159
   71TMC2    C1 1099   4.537   2.893   2.213  0.4376 -0.0719 -0.5667
   71TMC2    C2 1100   4.629   2.899   2.319 -0.3571 -0.7237  0.0398
   71TMC2    C3 1101   4.579   2.950   2.440  0.1491 -0.3878  0.6322
   71TMC2    C4 1102   4.403   2.906   2.229 -0.4968  0.8786 -0.5247
   71TMC2    C5 1103   4.356   2.948   2.346  0.2744 -0.6916 -0.4924
   71TMC2    C6 1104   4.448   2.971   2.451  0.8234  0.7277  0.2461
   71TMC2     C 1105   4.583   2.819   2.094 -0.1432  0.2118  0.5556
   71TMC2     O 1106   4.706   2.804   2.081 -0.1356  0.6608  0.1136
   71TMC2     H 1107   4.735   2.884   2.299 -0.1981  2.0019 -1.1447
   71TMC2    H1 1108   4.338   2.911   2.143 -1.3699 -0.4884  0.0501
   71TMC2    H2 1109   4.410   3.027   2.537  0.9507 -0.1924  0.9004
   71TMC2    C7 1110   4.219   3.010   2.356  0.5888 -0.0133  0.0798
   71TMC2    C8 1111   4.661   2.971   2.564 -0.0224  0.4413  0.2834
   71TMC2    O1 1112   4.163   3.019   2.463 -0.3610  0.1245 -0.3275
   71TMC2    O2 1113   4.623   3.044   2.656 -0.5858  0.3125 -0.2971
   71TMC2    O5 1114   0.045   2.927   2.532 -0.9765  0.2239 -0.0708
   71TMC2    H5 1115   0.038   2.854   2.466 -0.1338  2.1459 -2.2943
   72MPD2     C 1116   4.485   2.607   1.646 -0.5262  0.2269 -0.8379
   72MPD2    C1 1117   4.596   2.683   1.681 -0.0137  0.1068 -0.5365
   72MPD2    C2 1118   4.602   2.723   1.804  0.4256  0.3405 -0.1649
   72MPD2    C3 1119   4.494   2.705   1.888  0.5286 -0.1818  0.4241
   72MPD2    C4 1120   4.380   2.643   1.851 -0.3229 -0.4902  0.2109
   72MPD2    C5 1121   4.382   2.583   1.729 -0.3941  0.6937  0.0795
   72MPD2     H 1122   4.684   2.790   1.824  1.6013 -1.2338  0.3475
   72MPD2    H1 1123   4.297   2.627   1.919 -1.2806 -0.9910 -1.0704
   72MPD2    H2 1124   4.484   2.556   1.550 -0.4012 -1.9438  0.3148
   72MPD2    H3 1125   4.301   2.517   1.702  0.1196  0.2531 -0.3915
   72MPD2     N 1126   4.485   2.765   2.019 -0.2754  0.2991  0.4144
   72MPD2    H5 1127   4.401   2.755   2.075 -0.8288 -1.5378 -0.7554
   72MPD2    N1 1128   4.707   2.719   1.598 -0.0615  0.2590  0.4221
   72MPD2    H7 1129   0.050   2.743   1.651  0.7554  3.5192 -2.3457
   73TMC2    C1 1130   3.697   4.440  13.996  0.0566 -0.1081 -0.1335
   73TMC2    C2 1131   3.650   4.395  13.877  0.2106 -0.3170 -0.2884
   73TMC2    C3 1132   3.708   4.291  13.811 -0.5774 -0.0768  0.1251
   73TMC2    C4 1133   3.777   4.355  14.070 -0.0259 -0.4299  0.8358
   73TMC2    C5 1134   3.825   4.235  14.009  0.3369 -0.0069 -0.0421
   73TMC2    C6 1135   3.789   4.202  13.880  0.2728  0.2997 -1.0093
   73TMC2     C 1136   3.759   4.569  13.981 -0.1547 -0.0233 -0.7439
   73TMC2     O 1137   3.878   4.573  14.015  0.4804  0.4663 -0.3996
   73TMC2     H 1138   3.595   4.458  13.808  2.3312  1.6500 -0.2047
   73TMC2    H1 1139   3.818   4.390  14.164 -1.5553 -0.3825  1.4820
   73TMC2    H2 1140   3.827   4.112  13.833  1.4187 -0.0871  0.6699
   73TMC2    C7 1141   3.972   4.218  14.025 -0.1855 -0.3121 -0.5467
   73TMC2    C8 1142   3.637   4.256  13.683 -0.5916 -0.2013 -0.1863
   73TMC2    O1 1143   4.027   4.111  14.019  0.1559 -0.1653 -0.8872
   73TMC2    O2 1144   3.524   4.298  13.660 -0.3718 -0.2750 -0.1885
   73TMC2    O5 1145   3.719   4.164  13.622  0.8195 -0.0314 -0.1972
   73TMC2    H5 1146   3.812   4.190  13.635  0.6072  1.4536 -1.6551
   74MPD2     C 1147   3.777   0.327  13.868  0.6448  0.3057 -0.6066
   74MPD2    C1 1148   3.872   0.247  13.913 -0.8125  0.2012  0.6576
   74MPD2    C2 1149   3.839   0.110  13.934 -0.6458 -0.4296 -0.0843
   74MPD2    C3 1150   3.711   0.067  13.925  0.0387  0.3858  0.5811
   74MPD2    C4 1151   3.613   0.152  13.893  0.5094  0.1299 -0.3800
   74MPD2    C5 1152   3.643   0.285  13.870  0.5427 -0.0954  0.0015
   74MPD2     H 1153   3.920   0.043  13.959  0.9112  1.7381  0.6387
   74MPD2    H1 1154   3.511   0.116  13.884  0.1878  0.5965  1.5592
   74MPD2    H2 1155   3.796   0.423  13.821  1.0432  0.7286  0.4237
   74MPD2    H3 1156   3.570   0.353  13.828  0.1023 -0.8687 -0.4842
   74MPD2     N 1157   3.671   4.670  13.938 -0.1245 -0.4387  0.0614
   74MPD2    H5 1158   3.572   4.646  13.936 -0.2171  0.0503 -1.0206
   74MPD2    N1 1159   4.008   0.291  13.919 -0.1773  0.0496  0.1583
   74MPD2    H7 1160   4.026   0.384  13.883  2.4179 -0.5061  0.0349
   75TMC2    C1 1161   4.366   1.274  14.096  0.3226  1.0091  0.7564
   75TMC2    C2 1162   4.330   1.384  14.175  0.2575  0.1612  0.1766
   75TMC2    C3 1163   4.271   1.490  14.105 -0.5459 -0.7155 -0.4456
   75TMC2    C4 1164   4.320   1.265  13.970 -0.0555  0.0330 -0.1435
   75TMC2    C5 1165   4.280   1.382  13.903 -0.5535  0.8408 -0.4365
   75TMC2    C6 1166   4.266   1.501  13.970 -0.1872 -1.1187 -0.5218
   75TMC2     C 1167   4.445   1.170  14.160 -0.4338 -0.2134  0.5094
   75TMC2     O 1168   4.424   1.179  14.278 -0.7434  1.0611  0.1552
   75TMC2     H 1169   4.354   1.391  14.281  2.5184 -0.5965 -0.2850
   75TMC2    H1 1170   4.322   1.170  13.919  2.6467  0.0966 -0.1599
   75TMC2    H2 1171   4.242   1.593  13.919 -0.0257 -0.6183  0.3058
   75TMC2    C7 1172   4.227   1.361  13.773 -0.0434  0.2237  0.1913
   75TMC2    C8 1173   4.249   1.617  14.176 -0.0123  0.7100  0.0228
   75TMC2    O1 1174   4.195   1.246  13.754  0.0485 -0.1862  0.1210
   75TMC2    O2 1175   4.266   1.723  14.122 -0.1885  0.2809 -0.1068
   75TMC2    O5 1176   4.216   1.604  14.309 -0.5403  0.7836  0.2766
   75TMC2    H5 1177   4.193   1.518  14.352 -1.7094  1.4287  0.9295
   76TMC2    C1 1178   2.424   1.649  12.736  0.1579  0.1603  0.7149
   76TMC2    C2 1179   2.300   1.598  12.723  0.4573 -0.4526  0.0120
   76TMC2    C3 1180   2.258   1.509  12.820 -0.3662 -0.4294 -0.4496
   76TMC2    C4 1181   2.501   1.617  12.847  0.0254  1.1635 -0.0929
   76TMC2    C5 1182   2.452   1.529  12.943 -0.5085  0.5528  0.6448
   76TMC2    C6 1183   2.333   1.473  12.931 -0.7179  0.1648 -0.1608
   76TMC2     C 1184   2.464   1.747  12.635 -0.2973  0.0965  0.1328
   76TMC2     O 1185   2.374   1.795  12.571  0.3696 -0.1110  0.3593
   76TMC2     H 1186   2.225   1.637  12.655 -0.9279 -1.3275  1.0464
   76TMC2    H1 1187   2.589   1.676  12.868 -1.8025  3.5181  1.0421
   76TMC2    H2 1188   2.288   1.414  13.010  1.4576 -1.4546 -0.1329
   76TMC2    C7 1189   2.528   1.506  13.064  0.5292  0.2643 -0.1563
   76TMC2    C8 1190   2.134   1.436  12.802 -0.3337  0.3725 -0.0838
   76TMC2    O1 1191   2.466   1.449  13.156  0.4226 -0.0244 -0.3037
   76TMC2    O2 1192   2.085   1.422  12.691  0.7056 -0.4665  0.1211
   76TMC2    O5 1193   2.056   1.468  12.911  0.0748  0.4579  0.6441
   76TMC2    H5 1194   2.116   1.512  12.976 -0.8246  1.8836  0.5254
   77MPD2     C 1195   2.794   1.987  12.338 -0.0532  0.5597 -0.3605
   77MPD2    C1 1196   2.656   1.985  12.324  0.1918  0.6921 -0.1691
   77MPD2    C2 1197   2.593   1.924  12.428 -0.6480  0.3474 -0.6994
   77MPD2    C3 1198   2.664   1.846  12.525  0.1636  0.0716 -0.1812
   77MPD2    C4 1199   2.801   1.848  12.523  0.2890 -0.0463 -0.1569
   77MPD2    C5 1200   2.865   1.925  12.435 -0.5880 -0.2787  0.2491
   77MPD2     H 1201   2.485   1.920  12.434 -0.6752  0.2975 -1.2176
   77MPD2    H1 1202   2.861   1.803  12.601  1.6825  0.5228 -0.8827
   77MPD2    H2 1203   2.850   2.053  12.271  0.5036 -0.5725 -1.0165
   77MPD2    H3 1204   2.972   1.933  12.424 -0.3871 -0.5722  2.0053
   77MPD2     N 1205   2.599   1.765  12.629  0.6245 -0.3032  0.6461
   77MPD2    H5 1206   2.658   1.710  12.690 -0.2617 -0.8491  1.0054
   77MPD2    N1 1207   2.592   2.039  12.209  0.0998 -0.5040  0.1029
   77MPD2    H7 1208   2.491   2.036  12.211  0.0635  1.1082  0.7362
   78TMC2    C1 1209   1.522   1.623   2.878  0.6302 -0.1249 -0.7033
   78TMC2    C2 1210   1.632   1.540   2.869  0.3400  0.3315 -0.5100
   78TMC2    C3 1211   1.657   1.480   2.751 -0.0980  0.7914 -0.8045
   78TMC2    C4 1212   1.454   1.656   2.772 -0.1581 -0.4304  0.2042
   78TMC2    C5 1213   1.485   1.596   2.655  0.3607  0.0042  1.0496
   78TMC2    C6 1214   1.586   1.509   2.640  0.2837 -0.4193  0.9648
   78TMC2     C 1215   1.487   1.675   3.009  0.5491 -0.7960 -0.2141
   78TMC2     O 1216   1.560   1.618   3.094 -0.3749  0.7151  0.4314
   78TMC2     H 1217   1.697   1.520   2.954 -3.0317 -1.3768  1.6904
   78TMC2    H1 1218   1.381   1.736   2.776 -0.0604 -0.2510 -1.9076
   78TMC2    H2 1219   1.612   1.471   2.542 -1.4777  0.7344  0.0505
   78TMC2    C7 1220   1.418   1.646   2.542  0.1584 -0.5319 -0.0711
   78TMC2    C8 1221   1.723   1.349   2.744 -0.6501  0.0975  0.0167
   78TMC2    O1 1222   1.474   1.614   2.436  0.0954 -0.5010 -0.6813
   78TMC2    O2 1223   1.715   1.270   2.650  0.4389 -0.8098  0.2837
   78TMC2    O5 1224   1.841   1.358   2.816  0.2059 -0.0040  0.0114
   78TMC2    H5 1225   1.869   1.446   2.850 -2.0373  1.3220 -1.5272
   79MPD1     C 1226   1.257   1.947   3.371 -0.6603 -0.3735 -0.0081
   79MPD1    C1 1227   1.313   1.819   3.375  0.2609  0.6578 -0.0438
   79MPD1    C2 1228   1.362   1.757   3.261  0.0486 -0.0602 -0.3555
   79MPD1    C3 1229   1.354   1.824   3.145 -0.2360  0.3377  0.4515
   79MPD1    C4 1230   1.303   1.953   3.136 -0.1039  0.0663  0.3603
   79MPD1    C5 1231   1.254   2.013   3.251  0.6836  0.9346  0.0002
   79MPD1     H 1232   1.411   1.661   3.268 -1.2472 -0.7540 -0.6906
   79MPD1    H1 1233   1.289   2.009   3.044  0.5470 -1.0652 -0.4230
   79MPD1    H2 1234   1.214   1.994   3.459 -0.5801 -1.6013  0.6902
   79MPD1    H3 1235   1.207   2.111   3.255  0.5944  0.9599 -1.6767
   79MPD1     N 1236   1.389   1.769   3.021  0.2276 -0.0045  0.4115
   79MPD1    H5 1237   1.357   1.811   2.934 -1.0817 -1.8297  0.0090
   79MPD1    N1 1238   1.306   1.750   3.497  0.0222  0.1062 -0.3261
   79MPD1    H6 1239   1.293   1.808   3.580 -0.5079 -1.6810  0.8478
   79MPD1    H7 1240   1.400   1.711   3.499 -0.3147 -0.6187  1.4235
   80TMC2    C1 1241   1.807   1.743  12.598 -0.3204 -0.2328  0.6114
   80TMC2    C2 1242   1.695   1.815  12.574  0.0606 -0.0206 -0.6034
   80TMC2    C3 1243   1.604   1.757  12.486  0.2016  0.1654  0.3882
   80TMC2    C4 1244   1.813   1.607  12.563 -0.6927  0.2416 -0.0100
   80TMC2    C5 1245   1.718   1.550  12.481  0.7933  0.2113 -0.1542
   80TMC2    C6 1246   1.615   1.626  12.437 -0.0673  0.4974 -0.5006
   80TMC2     C 1247   1.887   1.779  12.712  0.2409 -0.4115  0.2219
   80TMC2     O 1248   2.002   1.742  12.715  0.1351  0.1072 -0.0870
   80TMC2     H 1249   1.684   1.921  12.592  0.9767 -0.4660  2.6644
   80TMC2    H1 1250   1.893   1.540  12.591  0.7991  1.7026 -0.7771
   80TMC2    H2 1251   1.541   1.584  12.370  0.4149 -0.6300 -0.3225
   80TMC2    C7 1252   1.686   1.412  12.468  0.0810 -0.3245  0.3786
   80TMC2    C8 1253   1.519   1.844  12.424 -0.0359 -0.4145  0.2000
   80TMC2    O1 1254   1.607   1.374  12.385 -0.4877  0.5226  0.1529
   80TMC2    O2 1255   1.472   1.941  12.486  0.9002  0.3019  0.2172
   80TMC2    O5 1256   1.561   1.840  12.294  0.0913  0.2351 -0.0600
   80TMC2    H5 1257   1.616   1.759  12.284  3.2404  2.3646 -0.0061
   81MPD2     C 1258   1.912   1.797  13.006  0.5803  0.1133  0.2375
   81MPD2    C1 1259   1.799   1.832  12.940  0.3351 -0.6884 -0.5219
   81MPD2    C2 1260   1.686   1.846  13.007  0.3931 -0.3210  0.1102
   81MPD2    C3 1261   1.676   1.811  13.142  0.2166  0.3912  0.4636
   81MPD2    C4 1262   1.788   1.779  13.213  0.1643  0.1824  0.2229
   81MPD2    C5 1263   1.908   1.774  13.144  0.1812  0.1040  0.5028
   81MPD2     H 1264   1.601   1.864  12.942 -0.1719 -2.4409  0.2752
   81MPD2    H1 1265   1.779   1.737  13.312 -0.8089 -1.5463 -0.6106
   81MPD2    H2 1266   2.004   1.787  12.949  0.4711 -0.8252  0.2304
   81MPD2    H3 1267   2.000   1.746  13.194  1.3550  0.2885 -1.5587
   81MPD2     N 1268   1.547   1.790  13.194  0.0883 -0.8212 -0.4679
   81MPD2    H5 1269   1.537   1.734  13.278  1.2113  1.0588  0.9447
   81MPD2    N1 1270   1.792   1.832  12.799  0.3198 -0.9811  0.1924
   81MPD2    H7 1271   1.698   1.856  12.769  0.0627  0.5283  2.2130
   82TMC2    C1 1272   0.159   0.910  11.860  0.0399 -0.1862 -0.5407
   82TMC2    C2 1273   0.255   0.972  11.782 -0.6411 -0.8169  0.4283
   82TMC2    C3 1274   0.345   0.900  11.709 -0.0009  0.6897  0.1996
   82TMC2    C4 1275   0.154   0.779  11.870  0.0905 -0.0030  0.5747
   82TMC2    C5 1276   0.241   0.711  11.787 -0.5524  0.9126  0.4815
   82TMC2    C6 1277   0.332   0.762  11.706  0.1885 -0.4355 -0.0525
   82TMC2     C 1278   0.029   0.970  11.835 -0.0542  0.3398 -0.3718
   82TMC2     O 1279   0.005   1.013  11.724  0.0016 -0.4003  0.0069
   82TMC2     H 1280   0.241   1.080  11.777  0.8034 -0.6776 -0.4601
   82TMC2    H1 1281   0.089   0.734  11.945 -0.0750 -0.9730 -0.1435
   82TMC2    H2 1282   0.406   0.703  11.653 -0.3047  1.0330 -2.3575
   82TMC2    C7 1283   0.222   0.570  11.790  0.1162 -0.7345 -0.6327
   82TMC2    C8 1284   0.417   0.958  11.601 -0.0096 -0.3346 -0.4001
   82TMC2    O1 1285   0.199   0.514  11.897 -0.1086  0.1400  0.1912
   82TMC2    O2 1286   0.406   0.910  11.492 -0.2086 -0.2406  0.1288
   82TMC2    O5 1287   0.423   1.090  11.621 -0.4796 -0.3076  0.0454
   82TMC2    H5 1288   0.430   1.105  11.718 -1.6452 -0.1193  0.1064
   83MPD2     C 1289   4.281   1.022  11.984  0.2408 -0.2925 -0.5702
   83MPD2    C1 1290   4.338   1.017  11.859  0.0559 -0.4741 -0.8540
   83MPD2    C2 1291   4.474   0.987  11.841 -0.0506 -0.3281  0.6739
   83MPD2    C3 1292   4.551   0.971  11.953  0.7427 -0.1290 -0.0031
   83MPD2    C4 1293   4.497   0.989  12.078  0.9793 -0.2446 -0.0806
   83MPD2    C5 1294   4.363   1.005  12.094  1.2861 -0.3378 -0.8911
   83MPD2     H 1295   4.517   0.972  11.743  0.7419  1.0132  0.8081
   83MPD2    H1 1296   4.556   0.981  12.169  0.0556  1.8991  0.6903
   83MPD2    H2 1297   4.177   1.040  12.007  0.3079 -2.7658  1.7220
   83MPD2    H3 1298   4.315   1.020  12.190  2.4054 -1.6598 -0.1216
   83MPD2     N 1299   4.689   0.953  11.944  0.0243 -0.5876  0.2135
   83MPD2    H5 1300   4.733   0.937  12.034 -1.0878  0.8883  1.0197
   83MPD2    N1 1301   4.243   1.024  11.752 -1.0765 -0.7732 -0.1102
   83MPD2    H7 1302   4.147   1.038  11.779 -0.2728 -1.3880  3.0820
   84TMC2    C1 1303   1.288   0.353  11.273  0.6267  0.6973  0.0782
   84TMC2    C2 1304   1.198   0.254  11.291 -0.0670  0.5446 -0.5504
   84TMC2    C3 1305   1.250   0.133  11.256 -0.1660 -0.0992 -0.5920
   84TMC2    C4 1306   1.418   0.337  11.240 -0.4300  0.1398  0.3490
   84TMC2    C5 1307   1.466   0.209  11.214 -0.2184 -0.4549  0.2931
   84TMC2    C6 1308   1.382   0.103  11.225 -0.2184  0.4030  0.5625
   84TMC2     C 1309   1.220   0.481  11.252  0.2809 -0.6244  0.1080
   84TMC2     O 1310   1.113   0.505  11.305 -0.1132 -0.6034  0.0461
   84TMC2     H 1311   1.093   0.267  11.317 -0.2676 -0.4918 -0.8198
   84TMC2    H1 1312   1.484   0.423  11.235  1.8217 -1.7300 -1.7528
   84TMC2    H2 1313   1.401   4.737  11.210  2.2626  1.1550 -1.5528
   84TMC2    C7 1314   1.590   0.180  11.143  0.6376  0.4589  0.6530
   84TMC2    C8 1315   1.159   0.014  11.250 -0.4866 -0.4186  0.5280
   84TMC2    O1 1316   1.598   0.071  11.087  0.2575  0.0793  0.1705
   84TMC2    O2 1317   1.182   4.649  11.309  0.2127 -0.4369  0.0992
   84TMC2    O5 1318   1.044   0.055  11.194  0.3705  0.2486  0.0415
   84TMC2    H5 1319   1.049   0.146  11.156 -1.4735  0.8703  1.3308
   85TMC2    C1 1320   2.560   2.764  16.100 -0.1360  0.1582 -0.2281
   85TMC2    C2 1321   2.452   2.843  16.070 -0.6106 -0.2900 -0.1679
   85TMC2    C3 1322   2.467   2.961  16.006 -0.3528 -0.0297  0.8022
   85TMC2    C4 1323   2.688   2.792  16.053  0.1601  0.3503  0.3066
   85TMC2    C5 1324   2.705   2.906  15.978  0.4748  0.1418 -0.4240
   85TMC2    C6 1325   2.593   2.996  15.960  0.0559  0.3292  0.4996
   85TMC2     C 1326   2.549   2.653  16.192 -0.5756 -0.0095 -0.4115
   85TMC2     O 1327   2.640   2.626  16.269  0.4895  1.0770  0.4630
   85TMC2     H 1328   2.356   2.821  16.116 -0.4764  0.8982  0.6766
   85TMC2    H1 1329   2.775   2.728  16.063 -1.6123 -2.0283  0.5756
   85TMC2    H2 1330   2.602   3.077  15.888  0.5184  0.5275  0.7793
   85TMC2    C7 1331   2.809   2.900  15.878  0.1741 -0.7380 -0.2239
   85TMC2    C8 1332   2.340   3.038  15.994 -0.4053  0.1981 -0.2074
   85TMC2    O1 1333   2.903   2.822  15.894  0.2131 -0.7994 -0.5918
   85TMC2    O2 1334   2.233   2.978  15.992  0.1568 -0.1343 -0.1808
   85TMC2    O5 1335   2.367   3.143  16.068  0.3221 -0.7223  0.5647
   85TMC2    H5 1336   2.459   3.177  16.057  0.7029 -3.0577 -3.4317
   86MPD2     C 1337   2.272   2.292  16.432  0.3025  0.3405  0.3557
   86MPD2    C1 1338   2.202   2.320  16.317  0.0865  0.4134  0.1399
   86MPD2    C2 1339   2.257   2.427  16.239 -0.9695  0.1149 -0.1189
   86MPD2    C3 1340   2.375   2.496  16.272  0.0118 -0.3056  0.7135
   86MPD2    C4 1341   2.441   2.456  16.385  0.5786 -0.1842  0.0215
   86MPD2    C5 1342   2.384   2.361  16.471 -0.2940 -0.0912  0.5235
   86MPD2     H 1343   2.202   2.457  16.150 -2.8607  1.1228  1.3814
   86MPD2    H1 1344   2.521   2.522  16.418 -3.2659  1.9519  5.0657
   86MPD2    H2 1345   2.249   2.212  16.500  0.7945  0.8409  1.1109
   86MPD2    H3 1346   2.442   2.329  16.557 -0.9987 -1.1871  0.5977
   86MPD2     N 1347   2.424   2.597  16.184  0.0871  0.6809 -0.6163
   86MPD2    H5 1348   2.356   2.626  16.115 -1.0330  0.6720  0.4764
   86MPD2    N1 1349   2.092   2.243  16.275 -0.8588  0.0885 -0.0676
   86MPD2    H7 1350   2.048   2.266  16.187  1.7054  2.1115 -0.8046
   87TMC2    C1 1351   0.914   0.806   1.790  0.0095  0.5552  0.0443
   87TMC2    C2 1352   0.894   0.740   1.910  0.3184  0.4723  1.0908
   87TMC2    C3 1353   0.864   0.819   2.020 -0.3317  0.2117  0.0986
   87TMC2    C4 1354   0.907   0.941   1.788  0.9460  0.7020  0.3986
   87TMC2    C5 1355   0.858   1.014   1.896 -0.1043  0.3127  0.0759
   87TMC2    C6 1356   0.842   0.953   2.020  0.4464 -0.4190 -0.7873
   87TMC2     C 1357   0.966   0.732   1.675 -0.2622  0.2891 -0.4277
   87TMC2     O 1358   0.979   0.796   1.574 -0.3208 -0.3742  0.2357
   87TMC2     H 1359   0.877   0.633   1.904 -1.5522  0.8584 -0.5085
   87TMC2    H1 1360   0.922   0.990   1.692 -3.5600 -0.9069 -1.1424
   87TMC2    H2 1361   0.808   1.005   2.110  0.2045  0.6908 -1.5131
   87TMC2    C7 1362   0.784   1.133   1.858 -0.6531 -0.5050  0.1485
   87TMC2    C8 1363   0.845   0.752   2.143  0.0204  0.6806 -0.6706
   87TMC2    O1 1364   0.745   1.142   1.739 -0.6113 -0.0716 -0.4056
   87TMC2    O2 1365   0.768   0.794   2.231 -0.0922 -0.0401 -0.2794
   87TMC2    O5 1366   0.949   0.658   2.152  0.2222 -0.5048  0.2658
   87TMC2    H5 1367   1.016   0.670   2.082  1.4709 -0.7474  1.4117
   88MPD2     C 1368   0.692   1.412   2.083  0.1753  0.3095  0.6055
   88MPD2    C1 1369   0.693   1.335   1.964  0.3363 -0.6854 -0.3982
   88MPD2    C2 1370   0.633   1.393   1.854 -0.2321 -0.8584 -0.1492
   88MPD2    C3 1371   0.562   1.517   1.868  0.2318  0.6362  0.3895
   88MPD2    C4 1372   0.570   1.593   1.982  0.2617 -0.1432 -0.5092
   88MPD2    C5 1373   0.633   1.538   2.089  0.0639 -0.1146  0.0002
   88MPD2     H 1374   0.627   1.344   1.757  2.6000 -0.7609 -0.3844
   88MPD2    H1 1375   0.517   1.687   1.981  1.9602  0.8233  1.8571
   88MPD2    H2 1376   0.736   1.374   2.175 -1.9113 -0.0531  1.4486
   88MPD2    H3 1377   0.627   1.594   2.181  3.8780  0.1664  0.0787
   88MPD2     N 1378   0.485   1.576   1.770 -0.0442 -0.2957 -0.5337
   88MPD2    H5 1379   0.446   1.664   1.801  0.8593  0.5230 -1.7713
   88MPD2    N1 1380   0.767   1.219   1.964  0.0019 -0.1513 -0.3945
   88MPD2    H7 1381   0.827   1.198   2.043 -0.2888  0.4773 -0.0065
   89TMC2    C1 1382   1.358   4.476   2.294 -0.1949  0.6511  1.0955
   89TMC2    C2 1383   1.461   4.560   2.255  1.0686 -0.2343 -0.2667
   89TMC2    C3 1384   1.449   4.636   2.144  0.6488 -0.5847 -0.4388
   89TMC2    C4 1385   1.254   4.455   2.214 -0.2634 -0.9153 -0.9565
   89TMC2    C5 1386   1.257   4.507   2.086  0.2123 -0.4205  0.2833
   89TMC2    C6 1387   1.355   4.600   2.053  0.0550  0.1243  0.3055
   89TMC2     C 1388   1.396   4.359   2.373 -0.1109  0.1450 -0.5431
   89TMC2     O 1389   1.515   4.332   2.380  0.2941  0.1908 -0.1487
   89TMC2     H 1390   1.553   4.570   2.312  0.7391 -0.7953  0.3604
   89TMC2    H1 1391   1.173   4.387   2.234 -0.1959 -1.0064 -0.9906
   89TMC2    H2 1392   1.353   4.653   1.959  1.2163 -0.6879 -0.1783
   89TMC2    C7 1393   1.182   4.441   1.982 -0.3224  1.2693 -0.1490
   89TMC2    C8 1394   1.562   4.717   2.100  0.7336 -0.3838 -0.8269
   89TMC2    O1 1395   1.083   4.375   2.008 -0.1139 -0.1278  0.2396
   89TMC2    O2 1396   1.575   0.006   1.983  0.4987 -0.3003 -0.1979
   89TMC2    O5 1397   1.597   0.043   2.213 -0.0544 -0.0789 -0.4966
   89TMC2    H5 1398   1.536   0.010   2.283 -1.0108  2.1388 -0.2958
   90MPD2     C 1399   1.191   3.895   2.465 -0.1874  0.5578  0.3391
   90MPD2    C1 1400   1.096   3.987   2.477  0.2645  0.6021  0.2611
   90MPD2    C2 1401   1.137   4.119   2.469  0.1418 -0.9551 -0.0406
   90MPD2    C3 1402   1.266   4.161   2.454 -0.2242 -0.6029 -0.0166
   90MPD2    C4 1403   1.358   4.068   2.440 -0.3709 -0.3893 -0.0507
   90MPD2    C5 1404   1.319   3.936   2.442 -1.3890  0.3887  0.2563
   90MPD2     H 1405   1.068   4.202   2.461  0.3498 -0.8666 -0.9318
   90MPD2    H1 1406   1.464   4.088   2.424  0.0557 -2.1996  0.5242
   90MPD2    H2 1407   1.187   3.787   2.463 -0.1723  0.5454  0.9377
   90MPD2    H3 1408   1.390   3.855   2.429 -0.6084  0.9310  1.1363
   90MPD2     N 1409   1.281   4.299   2.419 -0.1305 -0.1398 -0.2320
   90MPD2    H5 1410   1.200   4.357   2.435 -1.1020 -1.3495 -0.7751
   90MPD2    N1 1411   0.961   3.951   2.488 -0.8927  0.8459 -0.1690
   90MPD2    H7 1412   0.898   4.031   2.492  1.3398  2.4926  2.0811
   91TMC2    C1 1413   2.710   3.505  16.871  0.0902  0.2090 -0.1391
   91TMC2    C2 1414   2.835   3.449  16.892 -0.0409 -0.7902  0.0571
   91TMC2    C3 1415   2.831   3.321  16.946 -0.4300 -0.4285  0.7469
   91TMC2    C4 1416   2.596   3.431  16.880  0.3810  0.0711 -0.2494
   91TMC2    C5 1417   2.601   3.306  16.929  1.0368  0.1014 -0.4285
   91TMC2    C6 1418   2.718   3.253  16.969 -1.0831  0.4860  0.0315
   91TMC2     C 1419   2.707   3.642  16.829  0.0600 -0.6001 -0.2043
   91TMC2     O 1420   2.600   3.697  16.800  0.0859 -0.1118 -0.1726
   91TMC2     H 1421   2.932   3.484  16.860 -0.5193  0.2702 -0.2473
   91TMC2    H1 1422   2.502   3.479  16.857 -0.8473 -2.0897  0.3310
   91TMC2    H2 1423   2.724   3.148  16.995 -0.2509  0.6108  0.3548
   91TMC2    C7 1424   2.491   3.218  16.951 -0.4925  0.2732  0.5049
   91TMC2    C8 1425   2.953   3.241  16.954  0.2735  0.2743 -0.2205
   91TMC2    O1 1426   2.497   3.121  17.024  0.1291  0.6346  0.1733
   91TMC2    O2 1427   2.949   3.123  16.969 -0.4467  0.3875  0.1511
   91TMC2    O5 1428   3.060   3.313  16.986 -0.4913  0.2926 -0.5028
   91TMC2    H5 1429   3.053   3.411  16.987 -0.0304  0.3031  1.5808
   92MPD2     C 1430   2.775   3.899  16.706  0.3135 -0.0504  0.3859
   92MPD2    C1 1431   2.861   3.830  16.792  0.6261  0.0996  0.5670
   92MPD2    C2 1432   2.979   3.884  16.836 -0.0414  0.1400 -0.3783
   92MPD2    C3 1433   3.021   4.010  16.801  0.0272  0.0479  0.3617
   92MPD2    C4 1434   2.949   4.073  16.704  0.7180 -0.3252  0.1303
   92MPD2    C5 1435   2.832   4.016  16.661 -0.2109 -0.1792 -0.3404
   92MPD2     H 1436   3.042   3.829  16.904 -0.7724 -0.7667 -0.4344
   92MPD2    H1 1437   2.987   4.164  16.660  1.0440 -0.7343 -0.4461
   92MPD2    H2 1438   2.674   3.878  16.671  0.6021  0.7174 -0.8925
   92MPD2    H3 1439   2.781   4.071  16.582  0.1939 -0.3065 -0.6849
   92MPD2     N 1440   3.153   4.054  16.843  0.2112 -0.0155 -0.1300
   92MPD2    H5 1441   3.195   4.007  16.923  1.0897 -0.0624 -0.6197
   92MPD2    N1 1442   2.833   3.701  16.842 -0.3330 -0.0141 -0.8025
   92MPD2    H7 1443   2.897   3.653  16.904 -0.3392  0.3039 -0.5495
   93TMC2    C1 1444   4.415   3.573  14.092  0.3696  0.8405  0.2609
   93TMC2    C2 1445   4.359   3.586  14.218  0.0191 -0.0777 -0.9203
   93TMC2    C3 1446   4.424   3.669  14.305  0.1851 -0.1928 -0.5326
   93TMC2    C4 1447   4.522   3.643  14.047  1.0227  0.1947 -0.0207
   93TMC2    C5 1448   4.581   3.721  14.136 -0.4767  1.2503  0.2554
   93TMC2    C6 1449   4.545   3.727  14.266 -0.4770  0.2451 -0.3140
   93TMC2     C 1450   4.321   3.524  13.991  0.1007  0.3529  0.2154
   93TMC2     O 1451   4.373   3.482  13.885  0.8248  0.0046  0.1705
   93TMC2     H 1452   4.273   3.526  14.247  0.0324  0.6224  0.5353
   93TMC2    H1 1453   4.551   3.648  13.943 -0.0954 -0.7306 -0.3727
   93TMC2    H2 1454   4.614   3.765  14.340  1.1882 -1.9234 -0.7562
   93TMC2    C7 1455   4.691   3.807  14.096  0.4582  0.3992  0.1188
   93TMC2    C8 1456   4.419   3.639  14.451 -0.4104  0.9177 -0.6503
   93TMC2    O1 1457   0.030   3.759  14.013  0.2605 -0.0218 -0.4326
   93TMC2    O2 1458   4.516   3.615  14.518  0.4322  0.1527 -0.0883
   93TMC2    O5 1459   4.290   3.613  14.486  0.7043 -0.2903  0.3539
   93TMC2    H5 1460   4.213   3.640  14.431  0.3381 -0.6633  0.6815
   94MPD2     C 1461   4.086   3.461  13.822  1.0768 -0.0899  0.1215
   94MPD2    C1 1462   4.080   3.539  13.938 -0.1474 -0.3873 -0.1833
   94MPD2    C2 1463   3.962   3.592  13.979  0.3353  0.1861 -0.1795
   94MPD2    C3 1464   3.851   3.586  13.896  0.4327 -0.3950  0.2928
   94MPD2    C4 1465   3.858   3.512  13.781 -0.4646  0.4323  0.2346
   94MPD2    C5 1466   3.976   3.455  13.747 -0.0739  0.7286  0.7227
   94MPD2     H 1467   3.963   3.636  14.078 -2.6996  0.9541 -0.5064
   94MPD2    H1 1468   3.768   3.503  13.720 -0.7681 -1.7066  0.9750
   94MPD2    H2 1469   4.165   3.388  13.804  1.0398 -0.2221  0.5043
   94MPD2    H3 1470   3.978   3.391  13.659  2.0610 -1.1892  2.1519
   94MPD2     N 1471   3.728   3.641  13.932  0.1757 -0.1601  0.7251
   94MPD2    H5 1472   3.648   3.633  13.870 -0.2408 -1.5379  1.4306
   94MPD2    N1 1473   4.194   3.555  14.022  0.2495  0.1038 -0.0609
   94MPD2    H7 1474   4.183   3.610  14.106  2.8583 -0.2542  0.4890
   95TMC2    C1 1475   4.376   4.625  16.218 -0.9138  0.3490  0.0059
   95TMC2    C2 1476   4.410   4.599  16.350 -0.3978  0.1782  0.8319
   95TMC2    C3 1477   4.371   4.476  16.392  0.9731 -0.3381  1.0197
   95TMC2    C4 1478   4.322   4.534  16.135  0.2655 -0.1954  0.9544
   95TMC2    C5 1479   4.282   4.417  16.185  0.4628  0.4832 -0.6128
   95TMC2    C6 1480   4.313   4.382  16.310 -0.1311  0.4019 -0.4917
   95TMC2     C 1481   4.407   0.017  16.169  0.1898  0.7761  0.2767
   95TMC2     O 1482   4.434   0.023  16.052 -0.1171  0.2813 -0.1509
   95TMC2     H 1483   4.472   4.661  16.414  1.5280 -2.3220  1.3658
   95TMC2    H1 1484   4.293   4.549  16.032  2.7088  0.2721  0.3345
   95TMC2    H2 1485   4.278   4.288  16.351  1.2215 -0.6055 -1.6273
   95TMC2    C7 1486   4.159   4.363  16.130  0.7006 -1.1055  0.3182
   95TMC2    C8 1487   4.418   4.445  16.521 -0.5216  0.6023  0.1422
   95TMC2    O1 1488   4.078   4.442  16.075  0.0477  0.1674  0.2068
   95TMC2    O2 1489   4.446   4.337  16.568 -0.3082 -0.6183 -1.1609
   95TMC2    O5 1490   4.404   4.556  16.602  0.6316 -0.1483 -0.3497
   95TMC2    H5 1491   4.357   4.635  16.568  1.1497 -0.1355 -1.0308
   96MPD2     C 1492   4.490   0.506  16.219 -0.7580 -0.2924 -0.4075
   96MPD2    C1 1493   4.559   0.417  16.136 -0.0706 -1.1860  0.5672
   96MPD2    C2 1494   4.527   0.283  16.148  0.2600 -0.6508 -0.0608
   96MPD2    C3 1495   4.437   0.248  16.251  0.1026  0.0683 -0.0242
   96MPD2    C4 1496   4.393   0.340  16.344 -0.1944 -0.2651  0.2143
   96MPD2    C5 1497   4.414   0.470  16.325  0.2751  0.3014  0.1813
   96MPD2     H 1498   4.565   0.205  16.084 -2.9119 -1.8912 -0.4174
   96MPD2    H1 1499   4.327   0.310  16.424 -0.2905 -1.0700 -0.1651
   96MPD2    H2 1500   4.510   0.613  16.219 -1.4959 -0.1584  0.4380
   96MPD2    H3 1501   4.374   0.552  16.385  0.9694 -0.2446  1.3992
   96MPD2     N 1502   4.388   0.116  16.266 -0.3209  0.5963 -0.2113
   96MPD2    H5 1503   4.355   0.085  16.357 -0.5483  1.8563  0.1340
   96MPD2    N1 1504   4.651   0.479  16.049 -0.1283  0.1829 -1.0134
   96MPD2    H7 1505   4.647   0.580  16.046 -0.5065  0.3175  4.4965
   97TMC2    C1 1506   1.692   3.304   0.149 -0.3613 -0.5119 -0.3808
   97TMC2    C2 1507   1.578   3.308   0.077 -0.2165  0.5339  0.5180
   97TMC2    C3 1508   1.575   3.394  17.725 -0.2083 -0.3826  0.0726
   97TMC2    C4 1509   1.802   3.370   0.104 -0.0490  0.1378 -0.1495
   97TMC2    C5 1510   1.799   3.451  17.744 -0.0064 -0.4444 -0.2054
   97TMC2    C6 1511   1.677   3.467  17.684 -0.3079 -0.1861  0.4115
   97TMC2     C 1512   1.693   3.224   0.263  0.4386 -0.2887  0.2525
   97TMC2     O 1513   1.596   3.153   0.287 -0.2457  0.1355  0.1415
   97TMC2     H 1514   1.487   3.272   0.124 -1.3255  1.2225 -1.0841
   97TMC2    H1 1515   1.905   3.359   0.137  0.2897 -1.0350 -1.5878
   97TMC2    H2 1516   1.660   3.537  17.603  0.4078  0.7481  1.0814
   97TMC2    C7 1517   1.931   3.509  17.700  0.5414  0.1197  0.1131
   97TMC2    C8 1518   1.457   3.401  17.639 -0.0916  0.9259 -0.3750
   97TMC2    O1 1519   2.028   3.511   0.020 -0.5422  0.1806  0.4910
   97TMC2    O2 1520   1.436   3.489  17.558 -0.5630  0.3056 -0.2241
   97TMC2    O5 1521   1.398   3.280  17.644 -0.0941  0.3209 -0.5729
   97TMC2    H5 1522   1.449   3.219  17.702 -0.3437  0.5303 -0.1308
   98MPD2     C 1523   1.879   3.083   0.727 -1.0924 -0.3114  0.5660
   98MPD2    C1 1524   1.767   3.032   0.661 -0.5263  0.5809 -0.3498
   98MPD2    C2 1525   1.735   3.087   0.539 -0.0760  0.2810 -0.2742
   98MPD2    C3 1526   1.823   3.175   0.475  0.2337  0.1422  0.1834
   98MPD2    C4 1527   1.924   3.221   0.546  0.2139  0.0131 -0.0800
   98MPD2    C5 1528   1.964   3.172   0.665  0.1027 -0.0242  0.3730
   98MPD2     H 1529   1.641   3.053   0.497 -1.6095  2.7311  1.1673
   98MPD2    H1 1530   1.980   3.298   0.494 -1.9098  1.7408  0.1603
   98MPD2    H2 1531   1.901   3.049   0.827 -3.8369 -2.5518  0.4259
   98MPD2    H3 1532   2.054   3.207   0.713  1.2397 -2.5512  0.0675
   98MPD2     N 1533   1.800   3.240   0.349  0.1910  0.4471  0.4810
   98MPD2    H5 1534   1.875   3.302   0.323  0.9577 -1.4163 -1.7764
   98MPD2    N1 1535   1.683   2.940   0.730  0.0619 -0.3301 -0.1703
   98MPD2    H7 1536   1.724   2.900   0.814 -0.2309 -0.7794 -0.2447
   99TMC2    C1 1537   1.027   0.024   2.419 -0.8635 -0.6963  0.5148
   99TMC2    C2 1538   1.103   0.025   2.530 -0.2811  0.7408  0.1573
   99TMC2    C3 1539   1.042   0.050   2.652  0.3310  0.2039 -0.2437
   99TMC2    C4 1540   0.896   0.067   2.435 -0.3498  0.7012 -0.2495
   99TMC2    C5 1541   0.842   0.098   2.559 -0.4835 -0.0730  0.0105
   99TMC2    C6 1542   0.917   0.094   2.673 -0.2992  0.2472 -0.2084
   99TMC2     C 1543   1.088   0.051   2.287  0.2493  0.3847 -0.0637
   99TMC2     O 1544   1.210   0.045   2.282  0.4327  0.2630  0.1256
   99TMC2     H 1545   1.202   4.722   2.520 -1.4433 -1.1867 -2.9792
   99TMC2    H1 1546   0.833   0.069   2.347 -0.8422 -1.6173  0.0520
   99TMC2    H2 1547   0.881   0.135   2.766  1.7154  1.0132  0.2302
   99TMC2    C7 1548   0.705   0.143   2.571  0.1166  0.0064 -0.4619
   99TMC2    C8 1549   1.139   0.088   2.752  0.5817  0.4343 -0.0110
   99TMC2    O1 1550   0.678   0.223   2.657 -0.0472 -0.0750  0.2183
   99TMC2    O2 1551   1.249   0.130   2.715  0.2308  0.3930 -0.1016
   99TMC2    O5 1552   1.087   0.067   2.875 -0.1899  0.6430  0.2171
   99TMC2    H5 1553   0.999   0.024   2.882 -0.4238  1.1869  0.6033
  100MPD2     C 1554   1.168   0.099   1.988 -0.7446 -0.4402 -0.1658
  100MPD2    C1 1555   1.041   0.054   2.035 -0.2162  0.2018 -0.5780
  100MPD2    C2 1556   0.959   4.737   1.943 -0.1688  0.3176 -0.4778
  100MPD2    C3 1557   0.994   4.725   1.808  0.0228 -0.2374 -0.6445
  100MPD2    C4 1558   1.119   0.032   1.762  0.3673 -0.2239 -0.6397
  100MPD2    C5 1559   1.206   0.087   1.857  0.1339 -0.6464  0.3559
  100MPD2     H 1560   0.861   4.709   1.980  1.3104 -2.0308  1.6402
  100MPD2    H1 1561   1.137   0.029   1.655 -0.6388 -0.6892 -0.8041
  100MPD2    H2 1562   1.241   0.143   2.055  0.9743 -3.0024 -0.3601
  100MPD2    H3 1563   1.305   0.122   1.829 -1.2748  2.4868 -0.7560
  100MPD2     N 1564   0.896   4.666   1.721  1.0707  0.2567  0.7337
  100MPD2    H5 1565   0.817   4.630   1.773  0.6034  0.7371  0.3622
  100MPD2    N1 1566   1.002   0.040   2.176 -0.0613  0.1635  0.1230
  100MPD2    H7 1567   0.910   0.002   2.195  0.0324 -0.2309 -0.2157
  101TMC2    C1 1568   0.674   1.598  13.749 -0.0477  0.6714 -0.5296
  101TMC2    C2 1569   0.570   1.626  13.838 -0.9453  0.1665  0.3531
  101TMC2    C3 1570   0.522   1.752  13.835  0.5033  0.2029 -0.1251
  101TMC2    C4 1571   0.727   1.693  13.671 -0.2398  0.0244  0.5303
  101TMC2    C5 1572   0.671   1.818  13.665  0.3007 -0.1160  0.1504
  101TMC2    C6 1573   0.572   1.849  13.750 -0.2125 -0.1441 -0.1374
  101TMC2     C 1574   0.700   1.462  13.723 -0.7563  0.1172  0.3426
  101TMC2     O 1575   0.616   1.384  13.765 -0.6191  0.4747  0.5390
  101TMC2     H 1576   0.523   1.542  13.888  1.1474 -0.9508  0.4273
  101TMC2    H1 1577   0.803   1.666  13.598 -1.6495 -1.9478 -0.2015
  101TMC2    H2 1578   0.516   1.942  13.743 -3.3696 -1.9527  0.7067
  101TMC2    C7 1579   0.707   1.898  13.553 -0.3274 -0.4700 -0.1408
  101TMC2    C8 1580   0.417   1.794  13.919 -0.5548  0.4611 -0.0078
  101TMC2    O1 1581   0.823   1.894  13.513 -0.1690 -0.9289 -0.3628
  101TMC2    O2 1582   0.340   1.889  13.908 -0.1577  0.0428  0.0296
  101TMC2    O5 1583   0.429   1.730  14.040 -0.4920  0.5132  0.0281
  101TMC2    H5 1584   0.505   1.667  14.046 -0.6915  0.3225  0.6234
  102MPD2     C 1585   1.019   1.322  13.602  0.3419  0.2340  0.2632
  102MPD2    C1 1586   0.885   1.319  13.644 -0.0604  0.6392  0.6369
  102MPD2    C2 1587   0.817   1.205  13.661  0.6751 -0.4626 -0.0699
  102MPD2    C3 1588   0.875   1.082  13.645 -0.1269 -0.2016  0.2010
  102MPD2    C4 1589   1.010   1.075  13.611 -0.3233 -0.0884 -0.8863
  102MPD2    C5 1590   1.080   1.194  13.590 -0.1777 -0.5924  0.5273
  102MPD2     H 1591   0.716   1.195  13.699 -0.3059 -2.1538 -3.1052
  102MPD2    H1 1592   1.069   0.985  13.603  0.1570  0.0463  1.1614
  102MPD2    H2 1593   1.086   1.405  13.582 -1.1599  1.0461 -1.3988
  102MPD2    H3 1594   1.187   1.177  13.580  0.0707  2.3206 -2.2152
  102MPD2     N 1595   0.792   0.971  13.677  0.0080 -0.5683 -0.1569
  102MPD2    H5 1596   0.701   0.996  13.714  0.5489 -0.8335  1.3425
  102MPD2    N1 1597   0.827   1.440  13.666 -0.1799 -0.2982 -0.3983
  102MPD2    H7 1598   0.891   1.518  13.650 -0.3392  0.0234  0.5708
  103TMC2    C1 1599   3.335   1.632  13.152 -0.3488 -0.2702  0.1721
  103TMC2    C2 1600   3.413   1.608  13.043 -0.2943 -0.1089  0.6139
  103TMC2    C3 1601   3.549   1.611  13.053 -0.0962  0.1822 -0.6901
  103TMC2    C4 1602   3.384   1.675  13.268  0.3724  0.9356  0.1098
  103TMC2    C5 1603   3.520   1.663  13.282  0.4319  0.1646  0.9512
  103TMC2    C6 1604   3.604   1.623  13.178  0.3528  0.4066  0.4038
  103TMC2     C 1605   3.194   1.615  13.125 -0.0534  0.0074  0.2760
  103TMC2     O 1606   3.158   1.630  13.010 -0.3542  0.0659  0.1250
  103TMC2     H 1607   3.370   1.562  12.954  2.4199 -0.0245 -0.7374
  103TMC2    H1 1608   3.317   1.704  13.348 -0.3458 -2.4266  0.7637
  103TMC2    H2 1609   3.708   1.599  13.194  0.3632 -0.7985 -1.4749
  103TMC2    C7 1610   3.558   1.667  13.422 -0.3308  0.1143  0.1571
  103TMC2    C8 1611   3.616   1.512  12.970  0.0968  0.7689 -0.0104
  103TMC2    O1 1612   3.489   1.733  13.501 -0.0022  0.1917  0.3623
  103TMC2    O2 1613   3.556   1.412  12.938 -0.2327 -0.3938  0.6610
  103TMC2    O5 1614   3.749   1.516  12.971 -0.2058 -0.0794 -0.8337
  103TMC2    H5 1615   3.784   1.602  13.004 -2.2511  0.5571 -0.3287
  104MPD2     C 1616   2.942   1.510  13.370 -0.5212  0.0332  0.2045
  104MPD2    C1 1617   2.977   1.551  13.243 -0.1775  0.7518  0.2058
  104MPD2    C2 1618   2.878   1.552  13.138  1.2727  0.3719 -0.6481
  104MPD2    C3 1619   2.748   1.525  13.167 -0.1915  0.0944 -0.4825
  104MPD2    C4 1620   2.714   1.478  13.292  0.2261 -0.4446  0.0523
  104MPD2    C5 1621   2.809   1.474  13.391 -0.0531  0.6587  0.1004
  104MPD2     H 1622   2.901   1.601  13.044  0.1081  0.5162 -0.8550
  104MPD2    H1 1623   2.617   1.439  13.321 -0.1370  0.9716  0.7564
  104MPD2    H2 1624   3.011   1.500  13.453 -0.6713 -1.0778  0.1931
  104MPD2    H3 1625   2.787   1.424  13.485  1.5257 -0.9884 -0.3945
  104MPD2     N 1626   2.658   1.547  13.061 -0.0973  0.0417 -0.5140
  104MPD2    H5 1627   2.693   1.584  12.973  1.4212  0.4485  0.2565
  104MPD2    N1 1628   3.123   1.579  13.238  0.2277  0.9577 -0.6192
  104MPD2    H7 1629   3.173   1.563  13.325 -1.0121 -1.3070 -0.2873
  105TMC2    C1 1630   1.307   0.516   0.803  0.2770  0.7773 -0.4124
  105TMC2    C2 1631   1.302   0.653   0.795 -0.6379  0.0195  0.3786
  105TMC2    C3 1632   1.287   0.729   0.913 -0.1493 -0.1018  0.5497
  105TMC2    C4 1633   1.304   0.459   0.926  0.1074  0.4921  0.6678
  105TMC2    C5 1634   1.285   0.537   1.037 -0.1415  0.2591 -0.3461
  105TMC2    C6 1635   1.283   0.674   1.029  0.2522  0.2670 -0.3525
  105TMC2     C 1636   1.355   0.434   0.690  0.7202 -0.4105  0.1194
  105TMC2     O 1637   1.366   0.314   0.713 -0.1371  0.3725 -0.1449
  105TMC2     H 1638   1.280   0.699   0.700  0.3836 -1.5524 -0.6335
  105TMC2    H1 1639   1.302   0.352   0.939 -0.8044  0.4299  0.0077
  105TMC2    H2 1640   1.271   0.736   1.117  0.2780 -0.2482  0.0099
  105TMC2    C7 1641   1.282   0.465   1.160 -0.5449 -0.0519  0.2983
  105TMC2    C8 1642   1.304   0.869   0.911 -0.5103  1.0654 -0.0043
  105TMC2    O1 1643   1.336   0.355   1.162  0.8403 -0.3686 -0.0225
  105TMC2    O2 1644   1.275   0.944   1.003 -0.2235 -0.1409  0.4523
  105TMC2    O5 1645   1.383   0.910   0.806 -0.6058 -0.4719 -0.3185
  105TMC2    H5 1646   1.415   0.847   0.738  0.5059 -1.5622  1.2160
  106MPD2     C 1647   1.436   0.319   0.201 -0.0074 -0.6990  0.1361
  106MPD2    C1 1648   1.395   0.447   0.209 -0.3543 -0.5465  0.5474
  106MPD2    C2 1649   1.385   0.509   0.332  0.2693  0.2481 -0.6712
  106MPD2    C3 1650   1.397   0.430   0.448 -0.1988 -0.7738 -0.3286
  106MPD2    C4 1651   1.440   0.303   0.431  0.7883  0.8190  0.3392
  106MPD2    C5 1652   1.446   0.242   0.308 -0.0509 -0.3734  0.1477
  106MPD2     H 1653   1.360   0.614   0.343 -0.0735  0.1623 -0.6430
  106MPD2    H1 1654   1.460   0.240   0.516  1.4519  0.9862  0.3061
  106MPD2    H2 1655   1.447   0.275   0.102  1.8857 -0.9419  0.4636
  106MPD2    H3 1656   1.494   0.145   0.304  1.6384  0.4224  1.0515
  106MPD2     N 1657   1.365   0.497   0.570 -0.1836 -0.2658  0.2150
  106MPD2    H5 1658   1.361   0.598   0.566 -2.0634 -0.3225  0.6597
  106MPD2    N1 1659   1.382   0.524   0.099  0.2949  0.5277  0.5248
  106MPD2    H7 1660   1.373   0.625   0.110  0.3734  0.6949 -0.8466
  107TMC2    C1 1661   0.865   1.117  11.596 -0.4918  0.5683 -0.3363
  107TMC2    C2 1662   0.853   1.252  11.607  0.6122  0.0663  0.1306
  107TMC2    C3 1663   0.897   1.342  11.512  1.0226  0.2931 -0.2495
  107TMC2    C4 1664   0.930   1.070  11.488 -0.4584  0.7762 -0.2556
  107TMC2    C5 1665   0.971   1.155  11.385  0.1489 -0.0225  0.6610
  107TMC2    C6 1666   0.951   1.291  11.403 -1.0532  0.4044  0.1116
  107TMC2     C 1667   0.795   1.037  11.695 -0.0858 -0.0593 -0.0527
  107TMC2     O 1668   0.754   1.091  11.796 -0.1966 -0.0049 -0.3650
  107TMC2     H 1669   0.792   1.285  11.690  1.6899  1.4940  0.3594
  107TMC2    H1 1670   0.952   0.965  11.473  0.0322  1.1629 -2.3723
  107TMC2    H2 1671   0.986   1.357  11.325  0.3441  0.9108  1.1658
  107TMC2    C7 1672   1.046   1.106  11.266  0.0535  0.3254  0.8039
  107TMC2    C8 1673   0.845   1.479  11.512  0.5386  0.4282  0.4699
  107TMC2    O1 1674   1.092   1.189  11.190 -0.0063  0.2351 -0.1052
  107TMC2    O2 1675   0.862   1.552  11.415 -0.0723 -0.1657  0.3228
  107TMC2    O5 1676   0.837   1.515  11.637  0.1576  0.8797 -0.4381
  107TMC2    H5 1677   0.859   1.444  11.701  1.0873  1.8101  0.2909
  108MPD2     C 1678   0.746   0.675  11.675 -0.0782  0.0232  0.2433
  108MPD2    C1 1679   0.727   0.799  11.730  0.2303 -0.3600 -0.1174
  108MPD2    C2 1680   0.661   0.815  11.849  0.3088  0.1496 -0.5164
  108MPD2    C3 1681   0.616   0.702  11.914 -0.1521  0.7093  0.1983
  108MPD2    C4 1682   0.643   0.577  11.867  0.1664  0.2869  0.3132
  108MPD2    C5 1683   0.713   0.564  11.746  0.1966 -0.0759  0.2583
  108MPD2     H 1684   0.647   0.914  11.892  2.0906 -0.1144  0.6613
  108MPD2    H1 1685   0.601   0.490  11.916  0.5033  0.7286  1.3962
  108MPD2    H2 1686   0.795   0.673  11.579 -1.5922  0.3674 -0.5321
  108MPD2    H3 1687   0.725   0.469  11.696  1.9815 -0.9957  2.4328
  108MPD2     N 1688   0.546   0.712  12.036 -1.0063 -1.2366  0.0166
  108MPD2    H5 1689   0.536   0.625  12.088 -0.0287 -0.5708  1.3189
  108MPD2    N1 1690   0.778   0.907  11.652 -0.1522 -0.6580  0.2996
  108MPD2    H7 1691   0.804   0.885  11.557 -0.8867 -1.2383  0.2317
  109TMC2    C1 1692   0.768   1.819   0.996 -0.1789  0.4161  0.0668
  109TMC2    C2 1693   0.762   1.713   0.915  0.6658 -0.6330  0.4071
  109TMC2    C3 1694   0.819   1.723   0.792 -0.4383 -0.3357 -0.6666
  109TMC2    C4 1695   0.834   1.934   0.967 -0.0800  0.0983  0.3351
  109TMC2    C5 1696   0.889   1.943   0.839 -0.6825  0.3337  0.0484
  109TMC2    C6 1697   0.896   1.832   0.754 -1.4106  0.7008  0.9663
  109TMC2     C 1698   0.748   1.772   1.139  0.3514  0.9680  0.2094
  109TMC2     O 1699   0.666   1.686   1.153 -0.0615  0.0939  0.4527
  109TMC2     H 1700   0.714   1.619   0.941 -1.5481  0.7033  1.1723
  109TMC2    H1 1701   0.829   2.018   1.037 -1.8932  0.7461 -0.5470
  109TMC2    H2 1702   0.945   1.842   0.657 -0.9908  1.2207  1.2282
  109TMC2    C7 1703   0.953   2.069   0.805  0.8800 -0.7010  0.1535
  109TMC2    C8 1704   0.827   1.607   0.705  0.3133  0.2906 -1.0193
  109TMC2    O1 1705   0.971   2.144   0.899 -0.6053  0.2690  0.1299
  109TMC2    O2 1706   0.919   1.592   0.623  0.2032  0.2076 -0.0478
  109TMC2    O5 1707   0.701   1.572   0.667  0.2878 -0.1918 -0.0681
  109TMC2    H5 1708   0.625   1.611   0.714  1.2464  0.1799  1.1686
  110MPD2     C 1709   0.880   1.761   1.636  0.1217  0.0953  0.4756
  110MPD2    C1 1710   0.973   1.841   1.570 -0.3913 -0.2759 -0.0118
  110MPD2    C2 1711   0.954   1.862   1.435  0.5841 -0.7494  0.4394
  110MPD2    C3 1712   0.859   1.790   1.362  0.4012 -0.0716  0.6082
  110MPD2    C4 1713   0.780   1.704   1.429  0.7697  0.6107 -0.1233
  110MPD2    C5 1714   0.781   1.698   1.564 -0.1110  0.1913 -0.0295
  110MPD2     H 1715   1.015   1.931   1.379  0.3070 -1.2857 -0.5197
  110MPD2    H1 1716   0.694   1.657   1.382  0.6226  1.7499 -1.0080
  110MPD2    H2 1717   0.885   1.739   1.742  2.0846  0.4218  0.4506
  110MPD2    H3 1718   0.700   1.649   1.619 -2.3068  2.8143 -0.9087
  110MPD2     N 1719   0.839   1.824   1.225  0.1435 -0.7668  0.2625
  110MPD2    H5 1720   0.896   1.899   1.187 -0.2787  0.1796  1.4763
  110MPD2    N1 1721   1.070   1.892   1.655 -0.6269  0.3844  0.2856
  110MPD2    H7 1722   1.072   1.870   1.754 -2.2190 -1.2766 -0.0489
  111TMC2    C1 1723   0.457   2.592  11.989 -0.6615  0.0962  0.0474
  111TMC2    C2 1724   0.374   2.689  12.041  0.6534 -0.0781  0.5283
  111TMC2    C3 1725   0.362   2.689  12.178 -0.1108 -0.6532  0.1378
  111TMC2    C4 1726   0.543   2.523  12.070  0.1164  0.2788  0.5084
  111TMC2    C5 1727   0.534   2.540  12.205  1.0162  0.4789  0.2460
  111TMC2    C6 1728   0.450   2.626  12.267  0.2437 -0.6505 -0.2915
  111TMC2     C 1729   0.499   2.600  11.851 -0.2091  0.4837 -0.6274
  111TMC2     O 1730   0.489   2.711  11.804 -0.3348  0.0508  0.1928
  111TMC2     H 1731   0.319   2.764  11.985  2.6116 -0.9935 -2.6329
  111TMC2    H1 1732   0.616   2.452  12.034  0.0767 -0.0659  1.1268
  111TMC2    H2 1733   0.448   2.636  12.375 -0.2899 -2.7365 -0.1122
  111TMC2    C7 1734   0.640   2.483  12.290 -0.3116 -0.0749 -0.3900
  111TMC2    C8 1735   0.309   2.809  12.239 -0.0893  0.1769 -0.6625
  111TMC2    O1 1736   0.605   2.450  12.405 -0.0340 -0.5454  0.2058
  111TMC2    O2 1737   0.307   2.913  12.177  0.1760  1.0278 -0.3090
  111TMC2    O5 1738   0.268   2.783  12.357 -0.0277  0.2004  0.3105
  111TMC2    H5 1739   0.264   2.688  12.383  1.2623  0.4461  1.4283
  112MPD2     C 1740   0.740   2.384  11.453 -0.5420 -0.8581 -0.0065
  112MPD2    C1 1741   0.706   2.515  11.475  1.0927 -0.9029  0.3797
  112MPD2    C2 1742   0.650   2.548  11.594 -0.1149 -0.3911  0.4973
  112MPD2    C3 1743   0.614   2.455  11.684  0.0355 -0.0532  0.7597
  112MPD2    C4 1744   0.638   2.321  11.653  0.0161 -0.1835  0.4945
  112MPD2    C5 1745   0.702   2.287  11.537 -0.0119 -0.0832  0.3073
  112MPD2     H 1746   0.647   2.654  11.612 -0.7821 -0.6265  1.7689
  112MPD2    H1 1747   0.608   2.239  11.717  1.3011 -0.0383  1.2954
  112MPD2    H2 1748   0.779   2.339  11.363  2.2080 -0.5959  1.0443
  112MPD2    H3 1749   0.704   2.180  11.515  0.3774 -0.0578  0.2116
  112MPD2     N 1750   0.562   2.483  11.812  0.1670  0.8292  0.4291
  112MPD2    H5 1751   0.554   2.403  11.874 -0.2432  0.0474 -0.6285
  112MPD2    N1 1752   0.731   2.624  11.381 -0.1209  0.1688  0.4434
  112MPD2    H7 1753   0.691   2.715  11.402  1.3787  1.2671 -1.4159
  113TMC2    C1 1754   0.084   0.025   1.501 -0.0408  0.6404 -0.0579
  113TMC2    C2 1755   0.098   0.097   1.386 -0.4583  0.9024 -0.3533
  113TMC2    C3 1756   0.058   0.041   1.271 -0.1345  0.4785  0.2203
  113TMC2    C4 1757   0.013   4.645   1.498 -0.2735  0.1640  0.5200
  113TMC2    C5 1758   4.697   4.604   1.383  0.3673 -0.2427 -0.9172
  113TMC2    C6 1759   4.720   4.671   1.262  0.1892  0.5442 -0.0035
  113TMC2     C 1760   0.181   0.047   1.601 -0.2552  0.4135  0.6799
  113TMC2     O 1761   0.201   0.162   1.624  0.2962  0.1963  0.0510
  113TMC2     H 1762   0.166   0.182   1.381 -0.4206  0.8867 -0.1058
  113TMC2    H1 1763   0.018   4.585   1.588  0.0441  1.0262  1.0758
  113TMC2    H2 1764   4.686   4.633   1.166 -0.9348 -0.7869  0.9105
  113TMC2    C7 1765   4.676   4.463   1.378 -0.3627  0.1322  0.0536
  113TMC2    C8 1766   0.112   0.087   1.140  0.2624  0.2294 -0.6761
  113TMC2    O1 1767   4.695   4.407   1.272  0.3318 -0.6729 -0.1832
  113TMC2    O2 1768   0.051   0.098   1.033 -0.4456  0.3600  0.0716
  113TMC2    O5 1769   0.240   0.126   1.164  0.4952  0.0868  0.2808
  113TMC2    H5 1770   0.288   0.093   1.243  1.3209  0.1398 -0.1905
  114MPD2     C 1771   0.531   4.668   1.945  0.1734  0.5453  0.4337
  114MPD2    C1 1772   0.450   0.041   1.937  0.8526  0.1997 -0.8513
  114MPD2    C2 1773   0.355   0.037   1.840 -0.7242  0.4151  0.6475
  114MPD2    C3 1774   0.345   4.677   1.748 -0.3453  0.5539  0.4057
  114MPD2    C4 1775   0.417   4.562   1.764  0.5105 -0.2578  0.0220
  114MPD2    C5 1776   0.504   4.560   1.865 -0.4481 -0.7275 -0.2015
  114MPD2     H 1777   0.293   0.124   1.826 -3.6358 -1.3080  2.8030
  114MPD2    H1 1778   0.412   4.475   1.699 -0.2277  1.1930 -1.8608
  114MPD2    H2 1779   0.596   4.645   2.029  1.3559  0.5773 -0.4854
  114MPD2    H3 1780   0.571   4.476   1.877 -2.1411 -1.9561  0.6511
  114MPD2     N 1781   0.239   4.673   1.649  0.1681 -0.1687  0.2298
  114MPD2    H5 1782   0.212   4.583   1.612  0.2514 -0.5399  1.0613
  114MPD2    N1 1783   0.463   0.156   2.020  0.2226 -0.4184  0.2056
  114MPD2    H7 1784   0.399   0.232   1.999  0.3260 -0.4991 -0.4324
  115TMC2    C1 1785   0.445   2.473   0.191 -0.1257  0.0923 -0.1218
  115TMC2    C2 1786   0.581   2.473   0.211 -0.2704  0.6315 -0.2864
  115TMC2    C3 1787   0.640   2.589   0.238 -0.0958 -0.2509  0.5856
  115TMC2    C4 1788   0.376   2.585   0.209 -0.1253 -0.8257 -0.6514
  115TMC2    C5 1789   0.439   2.704   0.242  0.6392 -0.0918 -0.4610
  115TMC2    C6 1790   0.572   2.706   0.247 -0.5665  0.1477  0.5256
  115TMC2     C 1791   0.377   2.346   0.150  0.0375 -0.0143 -0.0440
  115TMC2     O 1792   0.459   2.256   0.129  0.6451  0.0367  0.3775
  115TMC2     H 1793   0.631   2.377   0.204  0.3837  0.9695 -0.2677
  115TMC2    H1 1794   0.269   2.587   0.227  0.1985  3.0133  0.9174
  115TMC2    H2 1795   0.637   2.791   0.264 -0.0138 -0.1858  0.0721
  115TMC2    C7 1796   0.376   2.834   0.211  0.5412  0.2375  0.3623
  115TMC2    C8 1797   0.781   2.599   0.276  0.7720  0.0739  0.4098
  115TMC2    O1 1798   0.259   2.851   0.246  0.2747 -0.3864  0.3019
  115TMC2    O2 1799   0.842   2.704   0.269 -0.1521 -0.0807 -0.1762
  115TMC2    O5 1800   0.806   2.495   0.361  0.1463 -0.2672  0.1679
  115TMC2    H5 1801   0.749   2.416   0.354 -2.2420  1.5038 -0.1343
  116MPD2     C 1802   4.736   2.006   0.128  0.3391 -0.3035 -0.0804
  116MPD2    C1 1803   0.117   2.009   0.059 -0.5041 -0.0561  0.1024
  116MPD2    C2 1804   0.204   2.114   0.076  0.6976  0.1317 -0.0432
  116MPD2    C3 1805   0.170   2.215   0.164  0.0921  0.0168  0.0483
  116MPD2    C4 1806   0.050   2.211   0.233  0.1521  0.0622  0.6736
  116MPD2    C5 1807   4.702   2.112   0.207 -0.0571 -0.2196 -0.4152
  116MPD2     H 1808   0.296   2.123   0.020 -0.0054  2.0540 -0.8818
  116MPD2    H1 1809   0.008   2.289   0.296 -2.5671  0.4776 -1.6660
  116MPD2    H2 1810   4.663   1.930   0.102 -1.3134  0.0280  3.6895
  116MPD2    H3 1811   4.605   2.118   0.255  1.3930 -1.2607  2.6569
  116MPD2     N 1812   0.246   2.338   0.179  0.8667  0.4952 -0.0266
  116MPD2    H5 1813   0.203   2.412   0.233  2.5566  2.1706 -0.9930
  116MPD2    N1 1814   0.137   1.907  17.715  0.7244 -0.1471 -0.6266
  116MPD2    H7 1815   0.066   1.835  17.706 -0.3472  0.8269 -0.1141
  117TMC2    C1 1816   3.286   3.967  14.377 -0.2818 -0.5966  0.2241
  117TMC2    C2 1817   3.288   3.916  14.498 -0.6706  0.6438 -0.0695
  117TMC2    C3 1818   3.398   3.941  14.575 -0.3869 -0.3382  0.3247
  117TMC2    C4 1819   3.369   4.064  14.332  0.0413  0.5758 -0.1579
  117TMC2    C5 1820   3.476   4.093  14.408  0.1029 -0.6280 -0.4981
  117TMC2    C6 1821   3.492   4.032  14.531 -0.4556  0.7482 -0.1892
  117TMC2     C 1822   3.173   3.924  14.297  0.4061 -0.4877  0.2045
  117TMC2     O 1823   3.165   3.806  14.282 -0.2303 -0.9505  0.0392
  117TMC2     H 1824   3.198   3.862  14.522  0.7949 -1.0976  1.4992
  117TMC2    H1 1825   3.358   4.113  14.236  0.6489 -0.1212 -0.5790
  117TMC2    H2 1826   3.564   4.061  14.606 -1.2072  0.0468  0.8084
  117TMC2    C7 1827   3.578   4.186  14.363  1.0588 -0.1275  0.6320
  117TMC2    C8 1828   3.409   3.896  14.713 -0.2934  0.7480  0.2882
  117TMC2    O1 1829   3.548   4.296  14.315 -0.2768  0.5935 -0.1770
  117TMC2    O2 1830   3.440   3.980  14.796  0.1970 -0.7660 -0.2702
  117TMC2    O5 1831   3.303   3.817  14.730  0.0821 -0.1231 -0.1341
  117TMC2    H5 1832   3.307   3.744  14.665  1.0897  0.1866 -0.4334
  118MPD2     C 1833   3.937   4.119  14.431  0.5129 -0.2590 -0.4165
  118MPD2    C1 1834   3.831   4.204  14.400 -0.5430  0.0160 -0.2079
  118MPD2    C2 1835   3.849   4.339  14.384 -0.0035  0.4211  0.0142
  118MPD2    C3 1836   3.980   4.388  14.374 -0.6192 -0.2840 -0.2685
  118MPD2    C4 1837   4.086   4.303  14.408 -0.0342  0.3802 -0.2708
  118MPD2    C5 1838   4.064   4.174  14.434 -0.4666 -0.3992  0.4045
  118MPD2     H 1839   3.767   4.404  14.352  1.1572  1.0200 -1.7690
  118MPD2    H1 1840   4.189   4.339  14.412  0.1229 -0.1883  0.8363
  118MPD2    H2 1841   3.928   4.011  14.434 -1.7900 -0.0276  0.2244
  118MPD2    H3 1842   4.150   4.113  14.459 -1.0991 -2.3714 -2.2017
  118MPD2     N 1843   4.015   4.520  14.355  0.1431 -0.0042  0.2484
  118MPD2    H5 1844   4.111   4.548  14.369  0.0404  1.8948 -2.6996
  118MPD2    N1 1845   3.704   4.136  14.401  0.0306  0.7945  0.5138
  118MPD2    H7 1846   3.700   4.037  14.423 -0.3111  0.2787 -1.9546
  119TMC2    C1 1847   1.424   0.522  13.659 -0.3216  0.6150  0.1832
  119TMC2    C2 1848   1.437   0.471  13.530 -0.4012 -0.1161  0.9172
  119TMC2    C3 1849   1.331   0.409  13.467 -0.3432  0.6408 -0.1266
  119TMC2    C4 1850   1.319   0.493  13.733  0.2015 -0.5533 -0.3212
  119TMC2    C5 1851   1.216   0.430  13.672  0.0086 -0.4897  0.1901
  119TMC2    C6 1852   1.221   0.390  13.540 -0.1486 -0.2314 -0.5497
  119TMC2     C 1853   1.489   0.649  13.691 -0.5531  0.4507 -0.6941
  119TMC2     O 1854   1.443   0.712  13.785 -0.3331 -0.3193  0.6394
  119TMC2     H 1855   1.521   0.503  13.469 -0.1257 -1.0143  0.8257
  119TMC2    H1 1856   1.316   0.533  13.834  2.7962  2.5085 -1.4624
  119TMC2    H2 1857   1.133   0.347  13.492 -0.4109 -0.2075 -0.0867
  119TMC2    C7 1858   1.090   0.444  13.731  0.1276 -0.0092  0.5354
  119TMC2    C8 1859   1.327   0.390  13.322  0.2325  0.2171  0.2659
  119TMC2    O1 1860   0.991   0.443  13.656  0.5648  0.2980 -0.2904
  119TMC2    O2 1861   1.228   0.383  13.255  0.3090 -0.3027 -0.4315
  119TMC2    O5 1862   1.452   0.374  13.281  0.5440 -0.4314  0.7984
  119TMC2    H5 1863   1.510   0.343  13.354  0.5732 -0.3272  0.8195
  120MPD2     C 1864   1.793   1.026  13.546 -0.6060  0.0076  0.4858
  120MPD2    C1 1865   1.666   1.024  13.599  0.0226  0.4645  0.2951
  120MPD2    C2 1866   1.614   0.904  13.627  0.0754 -0.1287 -0.3254
  120MPD2    C3 1867   1.673   0.778  13.609 -0.1894  0.4067 -0.1957
  120MPD2    C4 1868   1.803   0.784  13.559 -0.5156  0.4493 -0.5997
  120MPD2    C5 1869   1.861   0.905  13.529 -0.1502 -0.1983  0.0184
  120MPD2     H 1870   1.509   0.905  13.655  0.5084 -0.0044  1.2833
  120MPD2    H1 1871   1.863   0.695  13.544  0.2273  0.8696 -0.1066
  120MPD2    H2 1872   1.833   1.122  13.514 -1.3185  0.4653  0.9800
  120MPD2    H3 1873   1.959   0.907  13.482 -0.5965 -0.1066 -0.9282
  120MPD2     N 1874   1.620   0.657  13.641  0.2950 -0.2898 -0.2567
  120MPD2    H5 1875   1.661   0.566  13.619 -0.5477  0.0755 -3.3646
  120MPD2    N1 1876   1.607   1.146  13.644 -0.1992  0.5821  0.2256
  120MPD2    H7 1877   1.634   1.228  13.590  0.4162 -0.3824 -0.9324
  121TMC2    C1 1878   2.735   2.435  14.162  0.2912 -0.3920 -0.5673
  121TMC2    C2 1879   2.817   2.325  14.153 -0.3694 -0.9907 -0.6009
  121TMC2    C3 1880   2.788   2.216  14.229 -0.0269  0.4794 -0.4556
  121TMC2    C4 1881   2.622   2.432  14.243  0.5356 -0.4626  0.4431
  121TMC2    C5 1882   2.588   2.315  14.305  0.0771  0.2665 -0.2022
  121TMC2    C6 1883   2.672   2.210  14.303  0.5223  0.1216  0.7266
  121TMC2     C 1884   2.790   2.566  14.129  0.0828  0.1444 -0.5649
  121TMC2     O 1885   2.751   2.659  14.198 -0.0988  0.2813  0.4496
  121TMC2     H 1886   2.906   2.326  14.092  1.2293  0.5369  1.7303
  121TMC2    H1 1887   2.548   2.511  14.232  2.0160  0.6378 -1.6923
  121TMC2    H2 1888   2.633   2.114  14.334  0.4817  0.1993  0.9186
  121TMC2    C7 1889   2.449   2.284  14.347 -0.2805 -0.8653 -0.2679
  121TMC2    C8 1890   2.874   2.098  14.234 -0.1741  0.1128 -0.6469
  121TMC2    O1 1891   2.427   2.163  14.364  0.0998 -0.0235 -0.5274
  121TMC2    O2 1892   2.833   1.990  14.274 -0.0695  0.0844 -0.3512
  121TMC2    O5 1893   2.984   2.131  14.169  0.2789 -0.6806  0.5000
  121TMC2    H5 1894   3.057   2.069  14.189 -0.0470 -1.2721 -0.1495
  122MPD2     C 1895   2.918   2.807  14.025 -0.2871 -0.0506  0.8402
  122MPD2    C1 1896   2.920   2.691  13.964  0.0880  0.0981 -0.7878
  122MPD2    C2 1897   2.972   2.683  13.835 -0.5400 -0.4701  0.1753
  122MPD2    C3 1898   3.012   2.798  13.762 -0.1587 -0.4417 -0.1359
  122MPD2    C4 1899   3.025   2.915  13.838  0.8759  0.3852 -0.6428
  122MPD2    C5 1900   2.969   2.922  13.972  0.4888 -0.4519  0.0644
  122MPD2     H 1901   2.964   2.587  13.784 -2.6474 -1.1699  1.8389
  122MPD2    H1 1902   3.046   3.013  13.797 -0.3337  0.3108 -1.4528
  122MPD2    H2 1903   2.877   2.811  14.125  0.3143 -1.5133  1.1497
  122MPD2    H3 1904   2.960   3.010  14.035 -1.8145  1.6674 -3.1874
  122MPD2     N 1905   3.054   2.796  13.622 -0.3977 -0.4452 -0.0406
  122MPD2    H5 1906   3.067   2.882  13.571 -1.0293 -0.7587 -0.7176
  122MPD2    N1 1907   2.868   2.568  14.017  0.0487 -0.5477  0.3961
  122MPD2    H7 1908   2.876   2.487  13.956 -0.7562  0.9432 -1.6882
  123TMC2    C1 1909   1.236   1.268  10.645  0.6927 -0.4056 -0.0454
  123TMC2    C2 1910   1.268   1.362  10.743  0.0656  0.2578 -0.0527
  123TMC2    C3 1911   1.261   1.495  10.700 -0.1570  0.2557 -0.7850
  123TMC2    C4 1912   1.222   1.289  10.514  0.4655  0.2014 -0.6495
  123TMC2    C5 1913   1.230   1.421  10.478  0.0999  0.4785 -0.3058
  123TMC2    C6 1914   1.247   1.526  10.566 -0.0215  0.6730  0.4099
  123TMC2     C 1915   1.212   1.132  10.689  0.0604  0.1565 -0.7473
  123TMC2     O 1916   1.235   1.109  10.807 -0.3204 -0.9065  0.2366
  123TMC2     H 1917   1.296   1.326  10.841  1.6689 -1.2672 -1.0680
  123TMC2    H1 1918   1.223   1.214  10.436 -1.9088  1.1666 -1.6082
  123TMC2    H2 1919   1.248   1.626  10.523  1.2812 -0.5033 -2.3125
  123TMC2    C7 1920   1.150   1.444  10.361  0.2202  0.6590 -0.3420
  123TMC2    C8 1921   1.322   1.595  10.784  0.0422  0.0848  0.0348
  123TMC2    O1 1922   1.141   1.349  10.281  0.1906 -0.3064 -0.2571
  123TMC2    O2 1923   1.379   1.681  10.722 -0.2296  0.0830 -0.0519
  123TMC2    O5 1924   1.369   1.535  10.897  0.6919 -0.6871  0.7416
  123TMC2    H5 1925   1.313   1.462  10.930  0.1968 -1.2413 -1.3522
  124MPD2     C 1926   1.018   0.658  10.634  0.5790  0.8992  0.3393
  124MPD2    C1 1927   0.943   0.743  10.556  0.7445  0.5966 -0.2277
  124MPD2    C2 1928   0.986   0.873  10.552  0.2399  0.6874  0.4611
  124MPD2    C3 1929   1.092   0.921  10.622  0.5456  0.0914  0.0687
  124MPD2    C4 1930   1.162   0.836  10.704 -0.2671  0.5764  0.2866
  124MPD2    C5 1931   1.124   0.708  10.708 -0.1130  0.4042 -0.1808
  124MPD2     H 1932   0.931   0.954  10.504  1.3363  0.8025 -0.5959
  124MPD2    H1 1933   1.249   0.864  10.762  0.4098  0.0784 -0.4879
  124MPD2    H2 1934   0.989   0.558  10.664  0.6928  0.2036 -1.9187
  124MPD2    H3 1935   1.181   0.647  10.778  1.8187  0.7247 -1.4904
  124MPD2     N 1936   1.123   1.058  10.606 -0.1768 -1.0669  0.0284
  124MPD2    H5 1937   1.088   1.104  10.523 -0.2646  1.3346  1.4014
  124MPD2    N1 1938   0.832   0.695  10.475  0.6172  0.7479 -0.4592
  124MPD2    H7 1939   0.798   0.601  10.492 -0.7779  1.2008 -0.7485
  125TMC2    C1 1940   2.587   2.352   9.248  0.1622 -0.3683 -0.1401
  125TMC2    C2 1941   2.533   2.243   9.177  0.2631 -0.6822  0.4597
  125TMC2    C3 1942   2.623   2.139   9.152  0.0873  0.4681  0.3304
  125TMC2    C4 1943   2.713   2.363   9.297 -0.3534  0.1309  0.1933
  125TMC2    C5 1944   2.793   2.249   9.284 -0.2788  0.0225  0.1484
  125TMC2    C6 1945   2.752   2.142   9.214  0.4407  0.2976 -0.7870
  125TMC2     C 1946   2.499   2.456   9.305  0.2243  0.7673 -0.8430
  125TMC2     O 1947   2.539   2.522   9.397  0.9328 -0.1961  0.0465
  125TMC2     H 1948   2.427   2.236   9.154 -0.1507  1.1905  1.7791
  125TMC2    H1 1949   2.748   2.453   9.345  1.4899 -0.7807  0.6002
  125TMC2    H2 1950   2.808   2.049   9.208  0.3808  0.2454 -0.5345
  125TMC2    C7 1951   2.920   2.234   9.361  0.1919  0.5205  0.0617
  125TMC2    C8 1952   2.573   2.028   9.074  0.2749 -0.0058 -0.1630
  125TMC2    O1 1953   2.972   2.121   9.357  0.0844 -0.1561  0.0886
  125TMC2    O2 1954   2.458   1.998   9.060 -0.0821  0.7933  0.3186
  125TMC2    O5 1955   2.682   1.976   9.008 -0.1353  0.1773 -0.0152
  125TMC2    H5 1956   2.768   2.012   9.039  0.4320 -0.1625 -1.1917
  126MPD1     C 1957   2.099   2.767   9.270 -0.5711  0.5777  0.8718
  126MPD1    C1 1958   2.115   2.693   9.154 -0.1166 -0.0210 -0.2481
  126MPD1    C2 1959   2.214   2.603   9.135  0.1787  0.2847  0.0062
  126MPD1    C3 1960   2.306   2.590   9.234 -0.0412  0.1696  0.6709
  126MPD1    C4 1961   2.309   2.674   9.344  0.5598 -0.4041 -0.4867
  126MPD1    C5 1962   2.198   2.752   9.363  0.4423 -0.2447  0.5633
  126MPD1     H 1963   2.219   2.546   9.043 -3.1609  0.0175 -0.0186
  126MPD1    H1 1964   2.378   2.659   9.427  1.7765 -0.2182 -1.4662
  126MPD1    H2 1965   2.015   2.824   9.308 -1.7324 -0.8967  0.4657
  126MPD1    H3 1966   2.185   2.790   9.464 -0.8734  1.7451 -0.3591
  126MPD1     N 1967   2.401   2.490   9.213 -0.1855  0.1887 -0.0555
  126MPD1    H5 1968   2.382   2.432   9.132  1.1297  0.6498 -0.7028
  126MPD1    N1 1969   2.020   2.721   9.054  0.6526 -0.0965 -0.6321
  126MPD1    H6 1970   1.975   2.639   9.014  0.8442 -0.8936  0.8001
  126MPD1    H7 1971   1.947   2.787   9.079  0.2863 -1.1972  1.1926
  127TMC2    C1 1972   3.221   1.701  10.155  0.0704  0.3852  0.5803
  127TMC2    C2 1973   3.204   1.571  10.196 -0.3849 -0.2124  0.1339
  127TMC2    C3 1974   3.081   1.552  10.258  0.1353 -0.0940  0.3598
  127TMC2    C4 1975   3.135   1.804  10.190 -0.3858 -0.4944  0.6507
  127TMC2    C5 1976   3.020   1.773  10.268 -0.0499  0.0357 -0.2205
  127TMC2    C6 1977   2.993   1.646  10.294 -0.6145 -0.1237  0.6503
  127TMC2     C 1978   3.351   1.719  10.087  0.6679  0.4498  0.2059
  127TMC2     O 1979   3.391   1.624  10.018 -0.6022 -0.6429  0.4973
  127TMC2     H 1980   3.269   1.489  10.167  2.1440  0.7962  2.9855
  127TMC2    H1 1981   3.165   1.907  10.174 -2.5726  0.2608  1.5319
  127TMC2    H2 1982   2.893   1.619  10.326 -0.7226  0.4996  0.8418
  127TMC2    C7 1983   2.987   1.877  10.366  0.2498  0.3443 -0.2135
  127TMC2    C8 1984   3.040   1.422  10.292  0.0426 -0.0677  0.2940
  127TMC2    O1 1985   3.025   1.989  10.352 -0.3554 -0.6028 -0.1266
  127TMC2    O2 1986   2.969   1.402  10.394 -0.1908 -0.3414  0.7490
  127TMC2    O5 1987   3.030   1.353  10.180 -0.0368 -0.1970  0.1285
  127TMC2    H5 1988   3.078   1.391  10.103  0.5998 -0.5607  0.3512
  128MPD2     C 1989   3.570   1.823   9.924 -0.0050 -0.3169  0.4749
  128MPD2    C1 1990   3.525   1.890  10.029  1.1591  1.2506 -0.2905
  128MPD2    C2 1991   3.587   2.005  10.082 -0.1694  0.1398 -0.0651
  128MPD2    C3 1992   3.711   2.022  10.040  0.7521 -0.2943 -0.0627
  128MPD2    C4 1993   3.761   1.956   9.931 -0.2495 -0.2055 -0.2056
  128MPD2    C5 1994   3.691   1.856   9.866  0.5967 -0.3922 -0.4970
  128MPD2     H 1995   3.545   2.066  10.161  0.3663  0.5621 -0.1088
  128MPD2    H1 1996   3.854   1.980   9.880  0.9667 -0.5435  1.8651
  128MPD2    H2 1997   3.516   1.740   9.879 -1.1379  0.1309  1.0072
  128MPD2    H3 1998   3.729   1.803   9.779  1.2539 -2.2008  0.8885
  128MPD2     N 1999   3.799   2.126  10.079  0.3623  0.2943 -0.0192
  128MPD2    H5 2000   3.895   2.125  10.044  0.1656  2.3440 -0.6112
  128MPD2    N1 2001   3.409   1.847  10.103  0.8398 -0.5709 -0.1667
  128MPD2    H7 2002   3.371   1.912  10.170 -1.0823 -0.6203 -1.2057
  129TMC2    C1 2003   1.130   2.156   2.349  0.3863 -0.2731  0.5104
  129TMC2    C2 2004   1.051   2.198   2.453 -0.3291  0.2710 -0.5832
  129TMC2    C3 2005   1.110   2.196   2.576  0.6494 -0.0668  0.2732
  129TMC2    C4 2006   1.258   2.106   2.353 -0.1613  0.0231 -0.0580
  129TMC2    C5 2007   1.311   2.093   2.481  0.1459 -0.0251  0.6586
  129TMC2    C6 2008   1.243   2.143   2.586 -0.0379 -0.7031 -0.2707
  129TMC2     C 2009   1.082   2.179   2.215  0.0781  0.3162  0.6365
  129TMC2     O 2010   0.965   2.154   2.186 -0.3772 -0.2954 -0.4021
  129TMC2     H 2011   0.958   2.248   2.428 -0.1159  2.1542  2.4227
  129TMC2    H1 2012   1.304   2.063   2.265  0.0517  2.3321 -1.0736
  129TMC2    H2 2013   1.286   2.135   2.685 -1.5018 -0.3270  0.3877
  129TMC2    C7 2014   1.439   2.026   2.492 -0.5186 -0.0260  0.7008
  129TMC2    C8 2015   1.033   2.225   2.697 -0.5147 -0.2061 -0.9693
  129TMC2    O1 2016   1.496   1.989   2.392 -0.5996  0.1748  0.2952
  129TMC2    O2 2017   1.049   2.160   2.798  0.1065  0.3380  0.5495
  129TMC2    O5 2018   0.947   2.325   2.666  0.5070  0.2700  0.3587
  129TMC2    H5 2019   0.964   2.363   2.577  0.2921  0.0509  0.2260
  130MPD2     C 2020   1.053   2.264   1.938 -1.1947 -0.2280 -0.8229
  130MPD2    C1 2021   1.169   2.290   2.013 -0.1183 -0.2697 -0.4961
  130MPD2    C2 2022   1.283   2.356   1.955  0.1967 -0.0963  0.1573
  130MPD2    C3 2023   1.288   2.381   1.823  0.1622  0.6474 -0.1496
  130MPD2    C4 2024   1.182   2.344   1.742  0.1511  0.1135 -0.0843
  130MPD2    C5 2025   1.066   2.295   1.802 -0.2037  0.1743 -0.5341
  130MPD2     H 2026   1.366   2.384   2.019 -1.2432 -1.0192  2.4350
  130MPD2    H1 2027   1.175   2.358   1.634  1.9834 -0.7629 -0.3282
  130MPD2    H2 2028   0.958   2.235   1.981 -0.6167 -0.0595  0.5492
  130MPD2    H3 2029   0.971   2.280   1.752 -0.3976 -0.3967  0.0085
  130MPD2     N 2030   1.403   2.441   1.765  0.3911  0.1787 -0.0763
  130MPD2    H5 2031   1.477   2.485   1.818  0.4576  0.7976 -0.6829
  130MPD2    N1 2032   1.183   2.236   2.140  0.0242  1.1170  0.1156
  130MPD2    H7 2033   1.271   2.249   2.189  0.2573  0.4261 -0.1229
  131TMC2    C1 2034   0.407   1.477   9.783 -0.1612 -0.4683 -0.1803
  131TMC2    C2 2035   0.305   1.517   9.700 -0.0442 -0.3144 -0.3135
  131TMC2    C3 2036   0.327   1.642   9.645 -0.4228  0.4940  0.3344
  131TMC2    C4 2037   0.523   1.549   9.806  0.4044  0.8582 -0.1246
  131TMC2    C5 2038   0.536   1.666   9.737  0.4746  0.3991 -0.0772
  131TMC2    C6 2039   0.441   1.721   9.662  0.5987 -0.3607  0.3863
  131TMC2     C 2040   0.394   1.356   9.860 -0.0183 -0.2724  0.0903
  131TMC2     O 2041   0.464   1.342   9.961  0.3682  0.4591 -0.2455
  131TMC2     H 2042   0.220   1.458   9.670 -1.5997  1.3697  0.8365
  131TMC2    H1 2043   0.603   1.512   9.869  1.5653  0.6059 -1.7502
  131TMC2    H2 2044   0.441   1.826   9.636 -1.8936 -0.7519 -1.1855
  131TMC2    C7 2045   0.663   1.740   9.757 -0.1864  1.0305  0.6362
  131TMC2    C8 2046   0.218   1.698   9.566 -0.1366  0.0381  0.2482
  131TMC2    O1 2047   0.725   1.708   9.857  0.1327  0.4626 -0.1170
  131TMC2    O2 2048   0.105   1.663   9.590  0.6763  0.3246 -0.0346
  131TMC2    O5 2049   0.268   1.768   9.457 -0.6082 -0.1491 -0.1547
  131TMC2    H5 2050   0.365   1.767   9.464 -0.4851  2.8262 -1.5402
  132MPD2     C 2051   0.233   1.032   9.739 -0.1904  0.0376  0.3200
  132MPD2    C1 2052   0.294   1.123   9.827 -0.6423  0.0903 -0.4132
  132MPD2    C2 2053   0.337   1.065   9.944 -0.3257  0.3912  0.5320
  132MPD2    C3 2054   0.329   0.927   9.969 -0.6457  0.5407  0.1529
  132MPD2    C4 2055   0.247   0.851   9.884  0.5846 -0.2971  1.1436
  132MPD2    C5 2056   0.199   0.910   9.771  0.3133 -0.0320 -0.3775
  132MPD2     H 2057   0.396   1.118  10.018  0.8658 -0.7818  0.4209
  132MPD2    H1 2058   0.244   0.743   9.878  3.1595 -0.3775  0.9575
  132MPD2    H2 2059   0.194   1.062   9.643  0.4236  2.2505  0.7482
  132MPD2    H3 2060   0.152   0.849   9.695 -0.1319 -1.4997  1.0869
  132MPD2     N 2061   0.398   0.866  10.085  0.4488  0.2530 -0.1756
  132MPD2    H5 2062   0.456   0.921  10.147  1.1332  0.9290 -1.3995
  132MPD2    N1 2063   0.316   1.266   9.792 -0.2624 -0.2838  0.2252
  132MPD2    H7 2064   0.272   1.303   9.708 -0.9843 -2.2579 -0.2626
  133TMC2    C1 2065   4.528   1.026  10.172  0.8226 -0.0551 -0.4287
  133TMC2    C2 2066   4.445   0.936  10.107 -0.1111 -0.1016  0.0595
  133TMC2    C3 2067   4.406   0.823  10.171  0.2060  0.8207 -0.1315
  133TMC2    C4 2068   4.566   1.005  10.299 -0.5176 -0.6642  0.9142
  133TMC2    C5 2069   4.525   0.891  10.362  0.1340 -0.5105  0.4171
  133TMC2    C6 2070   4.448   0.801  10.305  0.6350  0.5909 -0.0278
  133TMC2     C 2071   4.571   1.147  10.107  0.2632  0.4471 -0.2753
  133TMC2     O 2072   4.612   1.238  10.182 -0.2982  0.0299  0.5712
  133TMC2     H 2073   4.402   0.970  10.014 -1.6906  1.7951  1.4723
  133TMC2    H1 2074   4.631   1.078  10.346 -0.8794  1.0231 -1.2515
  133TMC2    H2 2075   4.408   0.712  10.351  2.0506  0.6696  1.3404
  133TMC2    C7 2076   4.561   0.869  10.502 -0.3897  0.8772  1.2304
  133TMC2    C8 2077   4.282   0.757  10.122  0.5729 -0.2539 -0.3884
  133TMC2    O1 2078   4.602   0.965  10.567  0.5241 -0.5330  0.1715
  133TMC2    O2 2079   4.275   0.679  10.026 -0.0312 -0.1606 -0.5614
  133TMC2    O5 2080   4.178   0.819  10.183 -0.4042  0.3388 -0.7448
  133TMC2    H5 2081   4.210   0.897  10.233 -0.6538  0.0612 -0.1515
  134MPD2     C 2082   4.659   1.167   9.766 -0.9098  0.2271  0.1768
  134MPD2    C1 2083   4.625   1.223   9.889 -0.0164 -0.7598  0.2853
  134MPD2    C2 2084   4.621   1.358   9.912  0.1565 -0.4746  0.5033
  134MPD2    C3 2085   4.659   1.442   9.813 -1.2185  0.3562  0.3279
  134MPD2    C4 2086   4.710   1.387   9.696  0.3685 -0.0144  0.0959
  134MPD2    C5 2087   4.701   1.254   9.671  0.5010  1.0365  0.3368
  134MPD2     H 2088   4.593   1.397  10.009  3.3217 -1.6266  1.8934
  134MPD2    H1 2089   0.007   1.456   9.622  0.8752  0.8055  1.1088
  134MPD2    H2 2090   4.655   1.062   9.740  0.2343  0.3248 -0.3805
  134MPD2    H3 2091   4.736   1.211   9.578 -0.9465 -0.9330  0.7052
  134MPD2     N 2092   4.660   1.583   9.812 -0.0820 -0.3305  0.4607
  134MPD2    H5 2093   4.721   1.634   9.750  2.4504 -1.4446  2.0294
  134MPD2    N1 2094   4.572   1.130   9.976  0.0674  0.4457  0.8353
  134MPD2    H7 2095   4.568   1.036   9.938  0.7172  0.9849 -0.5334
  135TMC2    C1 2096   2.418   2.769   9.736 -0.4998 -0.4900 -0.5132
  135TMC2    C2 2097   2.527   2.695   9.690  0.0195  0.1464 -1.3754
  135TMC2    C3 2098   2.586   2.604   9.772  0.0571 -0.2141 -0.0998
  135TMC2    C4 2099   2.374   2.742   9.861 -0.6953  0.2540 -0.1916
  135TMC2    C5 2100   2.431   2.644   9.936  0.7629  0.3946 -0.1173
  135TMC2    C6 2101   2.535   2.576   9.896 -0.9605  0.0991  0.1117
  135TMC2     C 2102   2.374   2.885   9.669  0.2857  0.4836 -0.0172
  135TMC2     O 2103   2.257   2.917   9.697  0.4565  0.5279 -0.1413
  135TMC2     H 2104   2.561   2.705   9.587 -0.8596  1.8017 -1.5047
  135TMC2    H1 2105   2.288   2.797   9.899  0.0512 -0.4707  2.5451
  135TMC2    H2 2106   2.590   2.507   9.959 -0.5172  1.6198  1.4142
  135TMC2    C7 2107   2.399   2.644  10.081 -0.3064 -0.4314 -0.4302
  135TMC2    C8 2108   2.664   2.488   9.719 -0.0622 -0.2345 -0.0380
  135TMC2    O1 2109   2.379   2.752  10.136 -0.5013 -0.7311  0.4553
  135TMC2    O2 2110   2.677   2.380   9.777 -0.3909 -0.2688  0.4435
  135TMC2    O5 2111   2.746   2.543   9.631  0.3664 -0.4841 -0.2476
  135TMC2    H5 2112   2.739   2.640   9.617 -0.9592 -0.5695 -0.2414
  136MPD2     C 2113   2.332   3.096   9.454  0.1308 -0.5121  0.0049
  136MPD2    C1 2114   2.442   3.019   9.472 -0.2622  0.0858 -0.4096
  136MPD2    C2 2115   2.552   3.046   9.391  0.4633  0.7803  0.2760
  136MPD2    C3 2116   2.545   3.147   9.294  0.1645 -0.1121 -0.4584
  136MPD2    C4 2117   2.436   3.224   9.285  0.3904  0.2917 -0.3616
  136MPD2    C5 2118   2.325   3.196   9.367  0.0571  0.6990 -0.6049
  136MPD2     H 2119   2.642   2.986   9.400  0.1817  0.0021 -1.9799
  136MPD2    H1 2120   2.430   3.291   9.200 -0.4442  1.8378  0.9440
  136MPD2    H2 2121   2.243   3.080   9.514  0.0107 -0.8941 -0.2728
  136MPD2    H3 2122   2.247   3.271   9.358  0.8240  1.5768  0.0250
  136MPD2     N 2123   2.658   3.180   9.204 -0.6818  0.0066  0.5687
  136MPD2    H5 2124   2.641   3.261   9.145 -1.8348  0.2168  1.1909
  136MPD2    N1 2125   2.456   2.919   9.567 -0.1160 -0.6009 -0.1099
  136MPD2    H7 2126   2.544   2.868   9.562  1.0018  1.2900  0.1585
  137TMC2    C1 2127   2.111   2.519   9.594  0.2879  0.4402  0.7181
  137TMC2    C2 2128   2.009   2.510   9.505 -1.2960  0.0523  0.5431
  137TMC2    C3 2129   1.885   2.554   9.540  0.4240  0.2776  0.0877
  137TMC2    C4 2130   2.096   2.565   9.719 -0.4407 -0.7461  0.2025
  137TMC2    C5 2131   1.971   2.597   9.753  0.3238 -0.5080  0.1125
  137TMC2    C6 2132   1.864   2.592   9.668  0.0667 -0.5103  0.0181
  137TMC2     C 2133   2.226   2.430   9.581 -0.2069  0.0599 -0.1565
  137TMC2     O 2134   2.306   2.437   9.670 -0.3288  0.2122  0.5954
  137TMC2     H 2135   2.033   2.483   9.403 -0.6691 -0.8484  0.9243
  137TMC2    H1 2136   2.177   2.567   9.791 -0.2221 -0.1304 -0.0544
  137TMC2    H2 2137   1.764   2.591   9.711  0.5234 -2.5821  1.0061
  137TMC2    C7 2138   1.951   2.601   9.895  0.4835  0.4969 -0.1701
  137TMC2    C8 2139   1.778   2.536   9.443  0.4845 -0.3185  0.3785
  137TMC2    O1 2140   2.050   2.641   9.957 -0.2876  0.3133  0.3183
  137TMC2    O2 2141   1.787   2.468   9.345 -0.9672 -0.1438  0.3160
  137TMC2    O5 2142   1.679   2.613   9.481 -0.6059  0.1709  0.3786
  137TMC2    H5 2143   1.689   2.675   9.556  0.8204  1.6275 -1.0227
  138MPD2     C 2144   2.256   2.122   9.371 -0.3180  0.2644 -0.3604
  138MPD2    C1 2145   2.294   2.223   9.458  0.2516  0.0468  0.2323
  138MPD2    C2 2146   2.407   2.199   9.533  0.1012  0.6835 -0.1374
  138MPD2    C3 2147   2.485   2.086   9.515 -0.3011 -0.2361  0.8532
  138MPD2    C4 2148   2.450   1.994   9.421  0.3402  0.5659 -0.3763
  138MPD2    C5 2149   2.329   2.009   9.356  0.5445  0.0187 -0.1749
  138MPD2     H 2150   2.435   2.275   9.605 -2.3128 -0.0639  1.5904
  138MPD2    H1 2151   2.493   1.895   9.413  0.8098  0.8394 -1.2563
  138MPD2    H2 2152   2.172   2.136   9.304  1.2517  2.1507 -1.9377
  138MPD2    H3 2153   2.294   1.935   9.285  1.4079  0.0486 -0.6295
  138MPD2     N 2154   2.600   2.071   9.597  0.2688  0.4926  0.0803
  138MPD2    H5 2155   2.606   2.132   9.678 -3.8504  0.4001  0.4130
  138MPD2    N1 2156   2.211   2.331   9.483  0.6824 -0.2033 -0.0237
  138MPD2    H7 2157   2.126   2.332   9.427 -0.1109  0.5935  1.2064
  139TMC2    C1 2158   2.989   0.829  13.633 -0.1993 -0.5223  0.3081
  139TMC2    C2 2159   3.040   0.953  13.613 -0.4112 -0.6259  0.5312
  139TMC2    C3 2160   2.957   1.057  13.631  0.0309 -0.3190 -0.1699
  139TMC2    C4 2161   2.860   0.809  13.643  0.0316 -0.2648  0.1655
  139TMC2    C5 2162   2.775   0.916  13.644  0.2613  0.1119 -0.2273
  139TMC2    C6 2163   2.826   1.041  13.637 -0.3882  0.0096 -0.2301
  139TMC2     C 2164   3.075   0.713  13.627  0.1848 -0.4407  0.6607
  139TMC2     O 2165   3.020   0.604  13.619 -0.2124 -0.0222 -0.5299
  139TMC2     H 2166   3.145   0.967  13.589 -1.0972  1.2174 -1.3562
  139TMC2    H1 2167   2.819   0.709  13.653 -1.7335  0.6374  1.9714
  139TMC2    H2 2168   2.759   1.125  13.651  2.8433  2.2228  2.0160
  139TMC2    C7 2169   2.632   0.897  13.669 -1.0874  0.4878 -0.8738
  139TMC2    C8 2170   3.008   1.187  13.672  0.2650  0.1111  0.1843
  139TMC2    O1 2171   2.568   0.998  13.680  0.6523 -1.2534 -0.4412
  139TMC2    O2 2172   2.954   1.295  13.674  0.1002  0.1704 -1.0147
  139TMC2    O5 2173   3.134   1.170  13.705 -0.4375 -0.4185 -0.4336
  139TMC2    H5 2174   3.159   1.079  13.732 -2.3136 -0.3312  1.6592
  140MPD2     C 2175   3.440   0.724  13.666  1.0171 -0.1920 -0.0829
  140MPD2    C1 2176   3.319   0.662  13.641 -0.9282 -0.0950 -0.2603
  140MPD2    C2 2177   3.310   0.531  13.608  0.5023 -0.3579 -0.0279
  140MPD2    C3 2178   3.424   0.460  13.581 -0.0904 -0.1799 -0.2463
  140MPD2    C4 2179   3.543   0.516  13.602  0.1920 -0.2052 -0.0484
  140MPD2    C5 2180   3.553   0.649  13.647 -0.3393 -0.0007  0.4533
  140MPD2     H 2181   3.212   0.488  13.588  1.1037 -1.3226 -0.9376
  140MPD2    H1 2182   3.637   0.466  13.583  0.5749  1.6335 -3.0445
  140MPD2    H2 2183   3.467   0.821  13.704 -0.4660 -0.0597  0.6127
  140MPD2    H3 2184   3.645   0.704  13.661  0.1551 -0.4765 -0.9156
  140MPD2     N 2185   3.426   0.322  13.539  0.4287 -0.4653 -0.3499
  140MPD2    H5 2186   3.509   0.264  13.529 -0.4396 -1.5461 -1.4113
  140MPD2    N1 2187   3.205   0.743  13.648 -0.7375 -0.1126  0.4146
  140MPD2    H7 2188   3.217   0.834  13.692 -3.0315 -0.6766  2.1937
  141TMC2    C1 2189   3.352   1.790  15.184 -0.2320 -0.8394 -0.4377
  141TMC2    C2 2190   3.369   1.728  15.306  0.3548 -0.0181 -0.3882
  141TMC2    C3 2191   3.404   1.806  15.411  0.0414 -0.2315 -0.3150
  141TMC2    C4 2192   3.359   1.927  15.181  0.2821 -0.4120  0.6046
  141TMC2    C5 2193   3.395   2.000  15.285  0.0632  0.2019  0.2929
  141TMC2    C6 2194   3.415   1.939  15.404  0.5350  0.6141  0.3611
  141TMC2     C 2195   3.380   1.733  15.054 -0.2184  0.0074 -0.8236
  141TMC2     O 2196   3.388   1.815  14.965 -0.2829  0.3510  0.3137
  141TMC2     H 2197   3.370   1.620  15.319 -0.3152  0.2365  1.8273
  141TMC2    H1 2198   3.344   1.994  15.098 -0.0992 -0.6677  0.4650
  141TMC2    H2 2199   3.446   2.003  15.486 -1.2841  0.6428  1.0470
  141TMC2    C7 2200   3.424   2.140  15.271 -0.2616  0.5702 -0.1586
  141TMC2    C8 2201   3.409   1.743  15.547  1.2786  0.1573  0.4206
  141TMC2    O1 2202   3.372   2.203  15.176 -0.3646 -0.4270 -0.1329
  141TMC2    O2 2203   3.470   1.636  15.551 -0.3256  0.0467  0.2031
  141TMC2    O5 2204   3.404   1.836  15.645  0.5901 -0.1240  0.2763
  141TMC2    H5 2205   3.326   1.892  15.622 -0.3876 -2.0602 -1.2088
  142TMC2    C1 2206   0.712   0.916   9.886  0.0493 -0.7503 -0.4786
  142TMC2    C2 2207   0.666   0.954   9.759  0.3633 -0.2919 -0.0494
  142TMC2    C3 2208   0.665   1.091   9.742 -0.4805 -0.3163  0.0867
  142TMC2    C4 2209   0.755   0.995   9.986  0.3271 -0.4474 -0.7066
  142TMC2    C5 2210   0.724   1.128   9.966 -0.0898  0.5713  0.4392
  142TMC2    C6 2211   0.691   1.183   9.846  0.4751 -0.4303 -0.1295
  142TMC2     C 2212   0.754   0.774   9.891  0.3911  0.7124 -0.9429
  142TMC2     O 2213   0.694   0.687   9.829  0.8174  0.0155  0.1170
  142TMC2     H 2214   0.638   0.887   9.678  0.8790  0.2478 -0.6838
  142TMC2    H1 2215   0.777   0.960  10.086  0.1797  1.5885  0.0271
  142TMC2    H2 2216   0.673   1.289   9.833  0.8053 -0.5057 -1.2083
  142TMC2    C7 2217   0.755   1.218  10.084  0.5882  0.0628  0.5728
  142TMC2    C8 2218   0.627   1.141   9.611  0.0661 -0.3618  0.0062
  142TMC2    O1 2219   0.838   1.173  10.157 -0.0684  0.0160  0.1781
  142TMC2    O2 2220   0.545   1.065   9.557 -0.1440 -0.1836 -0.7088
  142TMC2    O5 2221   0.713   1.229   9.558  0.0420  0.0905  0.3799
  142TMC2    H5 2222   0.756   1.285   9.626  0.1476 -1.0436  1.2569
  143MPD2     C 2223   0.988   0.437  10.191 -0.3454 -0.4792 -0.2622
  143MPD2    C1 2224   0.882   0.422  10.099  0.2523  0.1048  0.4979
  143MPD2    C2 2225   0.840   0.529  10.023  0.1652  0.3999 -0.1313
  143MPD2    C3 2226   0.904   0.648  10.044 -0.1183  0.5866  0.1291
  143MPD2    C4 2227   1.004   0.670  10.134  1.2180 -0.2836 -0.9071
  143MPD2    C5 2228   1.044   0.562  10.208  0.6760  0.0543  0.2560
  143MPD2     H 2229   0.759   0.513   9.953 -1.1431 -0.0192  1.4882
  143MPD2    H1 2230   1.044   0.768  10.154 -0.3963 -0.2075  1.8752
  143MPD2    H2 2231   1.027   0.352  10.245  2.3638  1.8749  1.5158
  143MPD2    H3 2232   1.115   0.567  10.291 -0.1793  0.8292  0.9400
  143MPD2     N 2233   0.868   0.762   9.974  0.2035  0.1863 -0.5138
  143MPD2    H5 2234   0.911   0.849  10.006 -2.0161  1.7797 -1.8498
  143MPD2    N1 2235   0.848   0.286  10.070 -0.3575 -0.0814 -0.1910
  143MPD2    H7 2236   0.895   0.211  10.120  2.4227  1.6710 -0.2052
  144TMC2    C1 2237   0.252   3.615   1.281  0.6167 -0.6614  0.3941
  144TMC2    C2 2238   0.330   3.571   1.179  0.2337 -0.3402 -0.0535
  144TMC2    C3 2239   0.461   3.606   1.182  0.2409 -0.7340  0.0358
  144TMC2    C4 2240   0.306   3.700   1.379  0.2162  0.2183  0.7669
  144TMC2    C5 2241   0.442   3.721   1.383  0.1840  0.2503  0.1425
  144TMC2    C6 2242   0.527   3.675   1.285 -0.3202  0.7973 -0.2731
  144TMC2     C 2243   0.107   3.625   1.258 -0.5354 -0.0754 -0.3618
  144TMC2     O 2244   0.071   3.601   1.143  1.0333 -0.3870  0.0543
  144TMC2     H 2245   0.290   3.517   1.094 -0.2176  1.0663 -0.7226
  144TMC2    H1 2246   0.234   3.737   1.451  0.9729  0.2838  1.4899
  144TMC2    H2 2247   0.630   3.706   1.275  0.1282 -0.3059  0.9660
  144TMC2    C7 2248   0.492   3.811   1.484  0.2340  0.2592 -0.3787
  144TMC2    C8 2249   0.553   3.554   1.080 -0.4503  0.0793  0.1304
  144TMC2    O1 2250   0.610   3.784   1.501  0.5896 -0.0530 -0.2765
  144TMC2    O2 2251   0.518   3.538   0.959  0.2242  0.1140  0.0385
  144TMC2    O5 2252   0.660   3.504   1.144 -0.2042  0.0658 -0.5980
  144TMC2    H5 2253   0.654   3.526   1.239 -1.4479 -0.8937 -0.4572
  145MPD2     C 2254   4.373   3.784   1.340 -0.4950  0.1774  0.5128
  145MPD2    C1 2255   4.453   3.797   1.226  0.0550  0.2131 -0.6454
  145MPD2    C2 2256   4.584   3.758   1.238  0.7882 -0.3103 -0.6549
  145MPD2    C3 2257   4.638   3.711   1.357 -0.2061  0.0990 -0.4781
  145MPD2    C4 2258   4.558   3.711   1.469 -0.3272 -0.4716 -0.4913
  145MPD2    C5 2259   4.426   3.736   1.462  0.5864 -0.3097 -0.7219
  145MPD2     H 2260   4.648   3.766   1.151  0.4764  1.6029 -0.7131
  145MPD2    H1 2261   4.597   3.678   1.565  3.3819 -1.2220 -2.2510
  145MPD2    H2 2262   4.269   3.815   1.346 -0.9801 -1.2096 -0.7831
  145MPD2    H3 2263   4.362   3.744   1.549  1.0638  0.8745 -0.4781
  145MPD2     N 2264   0.028   3.654   1.368 -0.4717 -0.4368 -0.0323
  145MPD2    H5 2265   0.076   3.652   1.458  2.7480  2.8968 -1.7058
  145MPD2    N1 2266   4.410   3.850   1.103 -0.1153 -0.1918  0.5654
  145MPD2    H7 2267   4.476   3.850   1.025 -2.3335 -0.3124 -1.3085
  146TMC2    C1 2268   0.302   3.096  12.904 -0.7440 -0.2452 -0.2713
  146TMC2    C2 2269   0.179   3.137  12.860  0.1529  0.4869 -0.4781
  146TMC2    C3 2270   0.149   3.105  12.726 -0.2047  1.1937  0.0029
  146TMC2    C4 2271   0.395   3.029  12.823 -0.0600 -0.3707  0.4503
  146TMC2    C5 2272   0.359   3.002  12.693  0.5210  0.2104  0.1672
  146TMC2    C6 2273   0.240   3.040  12.640 -0.7343  0.8367 -0.0418
  146TMC2     C 2274   0.359   3.148  13.022  0.0678 -0.7336  0.1199
  146TMC2     O 2275   0.300   3.246  13.065  0.1283 -0.7626  0.3442
  146TMC2     H 2276   0.100   3.173  12.925  1.0028  1.6767 -0.1175
  146TMC2    H1 2277   0.497   3.019  12.857  0.8788  1.8967 -1.6248
  146TMC2    H2 2278   0.226   3.031  12.533 -0.0226  2.3214 -0.2591
  146TMC2    C7 2279   0.454   2.952  12.601  0.3737 -0.3412 -0.0813
  146TMC2    C8 2280   0.030   3.162  12.669 -0.1348 -0.9245  0.4240
  146TMC2    O1 2281   0.441   2.987  12.486  0.2761 -0.0890 -0.2111
  146TMC2    O2 2282   4.709   3.250  12.729 -0.5713  0.1151  0.2507
  146TMC2    O5 2283   4.704   3.058  12.617  0.2355  0.6475 -0.3118
  146TMC2    H5 2284   0.019   2.982  12.588 -0.6193 -0.4210  0.8894
  147MPD2     C 2285   0.915   2.748  12.508 -0.0643 -0.1458 -0.5486
  147MPD2    C1 2286   0.884   2.721  12.641 -0.5476 -0.1764  0.9682
  147MPD2    C2 2287   0.758   2.764  12.683  0.0618 -0.5610 -0.1823
  147MPD2    C3 2288   0.669   2.831  12.599  0.0596 -0.5309  0.2331
  147MPD2    C4 2289   0.702   2.841  12.467 -0.0962 -0.1558 -0.7956
  147MPD2    C5 2290   0.827   2.813  12.422  0.6738 -0.1839  0.1475
  147MPD2     H 2291   0.725   2.764  12.786 -1.3863  0.1325 -0.6405
  147MPD2    H1 2292   0.630   2.876  12.394  0.5985  0.4847 -1.1665
  147MPD2    H2 2293   1.012   2.719  12.468  0.0307  0.1457 -0.5286
  147MPD2    H3 2294   0.864   2.833  12.322 -0.4963 -0.7565 -0.4037
  147MPD2     N 2295   0.549   2.874  12.660  0.5590 -0.2943  0.0988
  147MPD2    H5 2296   0.532   2.833  12.751  0.7279 -0.8938 -0.1356
  147MPD2    N1 2297   0.987   2.672  12.720  0.7586 -0.1193  0.2077
  147MPD2    H7 2298   1.078   2.661  12.675  0.4284 -0.5291 -0.3659
  148TMC2    C1 2299   0.838   2.064  10.542 -0.5231  0.5758  0.0568
  148TMC2    C2 2300   0.923   2.133  10.461 -0.8833  0.6730 -0.3084
  148TMC2    C3 2301   1.053   2.104  10.487 -0.3588  0.1014  0.4729
  148TMC2    C4 2302   0.882   1.971  10.630  0.0831  0.2710 -0.9979
  148TMC2    C5 2303   1.012   1.946  10.649  0.0903 -0.1410  0.5975
  148TMC2    C6 2304   1.097   2.003  10.564  0.1061  0.5671 -0.4277
  148TMC2     C 2305   0.699   2.088  10.523  0.5094 -0.1274 -0.4975
  148TMC2     O 2306   0.668   2.200  10.497  0.0837 -0.4962  0.2766
  148TMC2     H 2307   0.890   2.197  10.380 -0.4477  1.3591  0.0462
  148TMC2    H1 2308   0.819   1.910  10.692  1.6289 -0.1947  0.1110
  148TMC2    H2 2309   1.202   1.976  10.568  0.4461  1.9046 -0.3821
  148TMC2    C7 2310   1.040   1.808  10.677 -0.0582 -0.3633  0.2093
  148TMC2    C8 2311   1.152   2.142  10.394  0.3654 -0.2244 -0.1862
  148TMC2    O1 2312   1.016   1.736  10.580  0.4630  0.4307  0.7226
  148TMC2    O2 2313   1.260   2.179  10.432  0.1307  0.0442 -0.5832
  148TMC2    O5 2314   1.145   2.062  10.290 -0.6040  0.2270  0.3419
  148TMC2    H5 2315   1.057   2.032  10.256  0.1300 -1.5060 -0.0336
  149MPD2     C 2316   0.398   2.045  10.507  0.0766 -0.2781 -0.1248
  149MPD2    C1 2317   0.491   1.945  10.514 -1.2643 -0.1065 -0.4480
  149MPD2    C2 2318   0.446   1.812  10.519 -0.2884  0.1467  0.2879
  149MPD2    C3 2319   0.316   1.780  10.530  0.6490  0.7974  0.0246
  149MPD2    C4 2320   0.224   1.882  10.532 -0.5407  0.4067  0.4162
  149MPD2    C5 2321   0.263   2.015  10.517  0.4602  0.8400  0.0575
  149MPD2     H 2322   0.516   1.729  10.520 -0.2205  0.1987 -0.4525
  149MPD2    H1 2323   0.118   1.869  10.548 -0.6154 -1.0503 -1.3490
  149MPD2    H2 2324   0.435   2.147  10.498  0.0903 -0.1880  0.8770
  149MPD2    H3 2325   0.185   2.089  10.516  0.1713  0.5288 -0.5918
  149MPD2     N 2326   0.276   1.648  10.539  0.2118 -0.4869  0.6260
  149MPD2    H5 2327   0.175   1.640  10.539  0.0059  1.9210 -1.7304
  149MPD2    N1 2328   0.630   1.966  10.524 -0.1165  0.6949 -0.5427
  149MPD2    H7 2329   0.683   1.886  10.555 -1.9414 -0.1300  0.4295
  150TMC2    C1 2330   3.211   1.138  12.605 -0.0948 -0.0980  0.1766
  150TMC2    C2 2331   3.219   1.273  12.622  1.0282 -0.6383 -0.1442
  150TMC2    C3 2332   3.348   1.326  12.620  0.4926  0.3638 -0.5778
  150TMC2    C4 2333   3.318   1.057  12.601  0.4357  0.8883  0.6539
  150TMC2    C5 2334   3.440   1.110  12.614  0.0102  0.5256  0.1722
  150TMC2    C6 2335   3.456   1.247  12.618  0.3134  0.0802  0.4631
  150TMC2     C 2336   3.079   1.077  12.591  0.4653 -0.0683 -0.2547
  150TMC2     O 2337   3.056   0.957  12.592 -1.0770  0.6384 -0.1960
  150TMC2     H 2338   3.132   1.337  12.628  1.6506  0.2811 -0.9783
  150TMC2    H1 2339   3.305   0.951  12.582 -2.0902  1.2918  0.1154
  150TMC2    H2 2340   3.552   1.297  12.631 -0.2073  1.4773 -1.0524
  150TMC2    C7 2341   3.552   1.020  12.614 -0.3885 -0.3997 -0.3198
  150TMC2    C8 2342   3.357   1.474  12.632  0.0233 -0.1349 -0.3970
  150TMC2    O1 2343   3.656   1.062  12.568  0.0280  0.5965 -0.6470
  150TMC2    O2 2344   3.432   1.533  12.705  1.4475  0.7456  0.2480
  150TMC2    O5 2345   3.271   1.532  12.552 -0.3015 -0.2619 -0.7480
  150TMC2    H5 2346   3.232   1.466  12.491  1.9042 -0.9455 -1.3981
  151MPD2     C 2347   2.580   1.123  12.517 -0.4508  0.3154  0.2680
  151MPD2    C1 2348   2.636   1.243  12.480 -0.4235 -0.1911 -0.6973
  151MPD2    C2 2349   2.776   1.254  12.477  0.1247 -0.0367 -0.1222
  151MPD2    C3 2350   2.848   1.148  12.536  0.3708  0.6059  0.1968
  151MPD2    C4 2351   2.790   1.034  12.584  0.2200 -0.1113  0.2420
  151MPD2    C5 2352   2.648   1.024  12.579  0.4433 -0.6322  0.1653
  151MPD2     H 2353   2.837   1.330  12.430 -1.0822  2.6112  2.6078
  151MPD2    H1 2354   2.845   0.955  12.633  0.5566 -1.1597 -1.8300
  151MPD2    H2 2355   2.473   1.108  12.516 -0.0445 -2.7779  1.4987
  151MPD2    H3 2356   2.605   0.935  12.626 -0.2053 -0.1014  0.5798
  151MPD2     N 2357   2.990   1.173  12.547  0.0956 -0.0813 -0.1756
  151MPD2    H5 2358   3.011   1.271  12.533 -1.7126 -0.0151 -2.4430
  151MPD2    N1 2359   2.554   1.345  12.427 -1.0766  0.2112  0.5266
  151MPD2    H7 2360   2.454   1.327  12.426 -1.5135  2.6489 -0.4721
  152TMC2    C1 2361   2.684   0.583  12.959 -0.3423 -0.2657  0.7748
  152TMC2    C2 2362   2.774   0.478  12.969  0.3458  0.1137 -0.2107
  152TMC2    C3 2363   2.904   0.496  12.944  0.4715 -0.5721 -0.2553
  152TMC2    C4 2364   2.736   0.706  12.938  0.2267 -0.0492 -0.1783
  152TMC2    C5 2365   2.865   0.713  12.924 -0.0122 -0.1701  0.2199
  152TMC2    C6 2366   2.961   0.611  12.925 -0.2332  0.5731  1.1619
  152TMC2     C 2367   2.547   0.581  13.012 -0.5575  0.0032 -0.4034
  152TMC2     O 2368   2.474   0.667  12.966 -0.2379 -0.3150  0.4415
  152TMC2     H 2369   2.738   0.378  12.989  0.7603 -0.0285 -0.1754
  152TMC2    H1 2370   2.676   0.796  12.944  2.2871  1.3142  0.0395
  152TMC2    H2 2371   3.065   0.629  12.901 -0.7745 -0.1092 -1.7089
  152TMC2    C7 2372   2.909   0.852  12.935 -0.1804  0.0022 -0.4235
  152TMC2    C8 2373   2.987   0.388  12.986  0.2245  0.0398 -0.2995
  152TMC2    O1 2374   2.836   0.945  12.912  0.4998 -0.1175  0.5033
  152TMC2    O2 2375   2.937   0.284  13.023 -0.0155 -0.7292 -0.3239
  152TMC2    O5 2376   3.122   0.420  13.004 -0.2096  0.3928 -0.2887
  152TMC2    H5 2377   3.158   0.511  13.001 -1.5018  0.8606 -1.6605
  153MPD2     C 2378   2.419   0.367  13.273  0.2075  1.2016  0.1287
  153MPD2    C1 2379   2.403   0.444  13.161  0.3888  0.0683 -0.7008
  153MPD2    C2 2380   2.282   0.500  13.129  0.1793 -0.5043 -0.2453
  153MPD2    C3 2381   2.177   0.485  13.211 -0.1279  0.3404  0.5290
  153MPD2    C4 2382   2.190   0.404  13.318 -0.5533 -0.7258  0.0932
  153MPD2    C5 2383   2.308   0.342  13.349  0.2205 -0.1060  0.3899
  153MPD2     H 2384   2.274   0.571  13.048 -0.8047 -0.6203 -0.2475
  153MPD2    H1 2385   2.104   0.392  13.383  0.4384 -0.3733  1.4634
  153MPD2    H2 2386   2.515   0.331  13.308 -1.1344 -2.9847 -0.4323
  153MPD2    H3 2387   2.315   0.278  13.436 -0.3514  0.6477  0.9908
  153MPD2     N 2388   2.056   0.550  13.179  0.9847  0.2786  0.0859
  153MPD2    H5 2389   2.062   0.620  13.105  0.4398 -1.4506 -1.5711
  153MPD2    N1 2390   2.522   0.472  13.088 -0.1550 -0.0421 -0.4828
  153MPD2    H7 2391   2.602   0.417  13.115  2.9431  3.9719 -1.6024
  154TMC2    C1 2392   1.012   0.438   0.486 -0.0129 -0.3140  0.2098
  154TMC2    C2 2393   0.993   0.314   0.436  0.0603 -0.9223  0.2934
  154TMC2    C3 2394   1.033   0.293   0.309 -0.3430  0.3007  0.6161
  154TMC2    C4 2395   1.054   0.545   0.413 -0.5193 -0.4055  1.4281
  154TMC2    C5 2396   1.066   0.521   0.273 -0.2909 -0.4354  0.8601
  154TMC2    C6 2397   1.066   0.398   0.228 -0.0607  0.5416  0.7894
  154TMC2     C 2398   0.977   0.465   0.625  0.2365 -0.2509  0.5212
  154TMC2     O 2399   0.937   0.579   0.655 -0.2619 -0.5046  0.2659
  154TMC2     H 2400   0.958   0.224   0.486 -0.0903 -0.3263  1.2618
  154TMC2    H1 2401   1.037   0.647   0.445  2.8351  1.2290 -2.0072
  154TMC2    H2 2402   1.099   0.377   0.127 -0.3976  0.6883  0.6488
  154TMC2    C7 2403   1.051   0.629   0.185  0.3407 -0.8519  0.0912
  154TMC2    C8 2404   1.041   0.165   0.256 -0.0592 -0.7953 -0.5208
  154TMC2    O1 2405   1.092   0.743   0.225  0.3766 -0.3103 -0.6237
  154TMC2    O2 2406   1.040   0.148   0.133 -0.0895 -0.0705 -0.4412
  154TMC2    O5 2407   1.113   0.080   0.337  0.1076 -0.1833 -0.0403
  154TMC2    H5 2408   1.122   0.123   0.424  1.1580 -0.5516  0.0288
  155MPD2     C 2409   1.030   0.237   0.901 -0.5467  0.6205 -0.1853
  155MPD2    C1 2410   0.997   0.360   0.848  0.2383  0.5038  0.3956
  155MPD2    C2 2411   0.933   0.458   0.924  0.6992  0.0649 -0.2294
  155MPD2    C3 2412   0.891   0.426   1.050 -0.8165  0.4345  0.4415
  155MPD2    C4 2413   0.907   0.297   1.092 -0.4598  0.7456 -0.4582
  155MPD2    C5 2414   0.984   0.205   1.027  0.0713 -0.2561 -0.2971
  155MPD2     H 2415   0.913   0.561   0.895 -3.1908 -0.1969  1.4838
  155MPD2    H1 2416   0.862   0.267   1.186 -0.6562  2.6055  0.0501
  155MPD2    H2 2417   1.070   0.159   0.837  1.1470  0.3884  1.1629
  155MPD2    H3 2418   0.993   0.105   1.068  0.9392 -0.4677 -1.0125
  155MPD2     N 2419   0.837   0.531   1.133 -0.3834  0.1029 -0.1353
  155MPD2    H5 2420   0.823   0.622   1.092 -1.9021 -0.5029 -0.9690
  155MPD2    N1 2421   1.019   0.364   0.709 -0.4978  0.3376  0.4854
  155MPD2    H7 2422   1.068   0.291   0.657 -2.3554  0.7354 -1.8337
  156TMC2    C1 2423   2.149   3.386  12.164 -0.1010 -0.9844 -0.2067
  156TMC2    C2 2424   2.068   3.312  12.086  0.2111 -1.3191 -0.1408
  156TMC2    C3 2425   2.054   3.346  11.957  0.7428  0.1593 -0.3101
  156TMC2    C4 2426   2.209   3.497  12.117 -0.1578  0.8390 -0.2146
  156TMC2    C5 2427   2.195   3.527  11.986  0.4645  0.4273 -0.3332
  156TMC2    C6 2428   2.120   3.457  11.897 -0.0503 -0.7394  0.5136
  156TMC2     C 2429   2.170   3.363  12.308 -0.1372 -0.1975  0.0043
  156TMC2     O 2430   2.224   3.449  12.379 -0.5928  0.6690 -0.0295
  156TMC2     H 2431   2.026   3.221  12.127  2.0910 -1.8058  0.7316
  156TMC2    H1 2432   2.266   3.559  12.185 -0.2213 -0.0831  0.6814
  156TMC2    H2 2433   2.135   3.473  11.790 -0.7682  0.2673  0.5687
  156TMC2    C7 2434   2.265   3.646  11.940  0.3706 -0.0759  0.3665
  156TMC2    C8 2435   2.016   3.231  11.867 -0.2585 -0.2656 -0.8586
  156TMC2    O1 2436   2.381   3.669  11.976  0.3059 -1.0229  0.0257
  156TMC2    O2 2437   1.993   3.123  11.919  0.4220  0.4661  0.0468
  156TMC2    O5 2438   1.993   3.261  11.739 -0.1408  0.1743  0.4226
  156TMC2    H5 2439   1.993   3.356  11.712  1.3053  0.4078  1.2821
  157MPD2     C 2440   1.954   3.144  12.514 -0.1930  0.8486 -0.3096
  157MPD2    C1 2441   2.059   3.228  12.485 -0.8657 -0.5108  0.0411
  157MPD2    C2 2442   2.142   3.272  12.589 -0.2302 -0.2496  0.2893
  157MPD2    C3 2443   2.126   3.233  12.721 -0.2500 -0.1144  0.3706
  157MPD2    C4 2444   2.020   3.151  12.744 -0.7143 -0.5317 -0.6598
  157MPD2    C5 2445   1.941   3.107  12.642  0.0359 -0.3254 -0.1652
  157MPD2     H 2446   2.228   3.335  12.569 -2.1824  1.7877 -1.6206
  157MPD2    H1 2447   1.996   3.116  12.843  1.4937 -1.5647 -0.4912
  157MPD2    H2 2448   1.880   3.112  12.441 -0.8825  0.5629  0.5099
  157MPD2    H3 2449   1.868   3.031  12.667  0.2293  0.4479  2.7820
  157MPD2     N 2450   2.210   3.286  12.819 -0.1903 -0.7095 -0.1133
  157MPD2    H5 2451   2.292   3.329  12.778 -1.8237  1.0999 -1.4946
  157MPD2    N1 2452   2.078   3.271  12.351 -0.0894  0.6127  0.2442
  157MPD2    H7 2453   2.022   3.229  12.278 -1.2570  1.2183  0.7962
  158TMC2    C1 2454   2.486   2.123  13.626  0.1628  0.2275 -0.3030
  158TMC2    C2 2455   2.468   2.224  13.536  0.1522  0.5420 -0.3230
  158TMC2    C3 2456   2.337   2.274  13.533  0.3618  0.3542  0.6589
  158TMC2    C4 2457   2.386   2.060  13.697 -0.4383  0.5115 -0.3436
  158TMC2    C5 2458   2.272   2.129  13.704  0.4739 -0.0569  0.3833
  158TMC2    C6 2459   2.242   2.232  13.620 -0.6030 -0.0489 -0.2783
  158TMC2     C 2460   2.611   2.047  13.603 -0.3667  0.5304 -0.0932
  158TMC2     O 2461   2.692   2.090  13.523  0.0738  0.3828 -0.1159
  158TMC2     H 2462   2.550   2.271  13.484 -0.3893  2.3486  0.4424
  158TMC2    H1 2463   2.401   1.971  13.757 -1.1808  2.0713  2.1362
  158TMC2    H2 2464   2.147   2.284  13.609  0.7097  2.7566  1.6043
  158TMC2    C7 2465   2.148   2.078  13.769  0.2416  0.3672  0.2356
  158TMC2    C8 2466   2.314   2.380  13.441 -0.2102 -0.1372 -0.0924
  158TMC2    O1 2467   2.045   2.137  13.742 -0.2638 -0.3588 -0.0189
  158TMC2    O2 2468   2.242   2.475  13.471 -0.8602  0.6476  0.0507
  158TMC2    O5 2469   2.403   2.369  13.337  0.1746 -0.3202 -0.1509
  158TMC2    H5 2470   2.442   2.281  13.319  0.2604 -0.3471  0.1657
  159MPD2     C 2471   2.924   1.642  13.677  0.5983  0.1852  0.6403
  159MPD2    C1 2472   2.808   1.618  13.739 -0.1587 -0.0366 -0.0601
  159MPD2    C2 2473   2.708   1.714  13.733  0.4732  0.4751 -0.4435
  159MPD2    C3 2474   2.728   1.834  13.663  0.1947  0.3713  0.2685
  159MPD2    C4 2475   2.848   1.855  13.599 -0.7753  0.4023 -0.8130
  159MPD2    C5 2476   2.944   1.761  13.605 -0.2457 -0.1785  0.3329
  159MPD2     H 2477   2.610   1.707  13.780  0.5361 -0.8094 -0.5116
  159MPD2    H1 2478   2.871   1.943  13.540 -1.2723  0.8287 -0.3797
  159MPD2    H2 2479   2.996   1.563  13.670 -0.0032 -0.3961  0.9641
  159MPD2    H3 2480   3.029   1.771  13.539 -0.2995  0.6977  0.4019
  159MPD2     N 2481   2.625   1.931  13.674  0.5118 -0.1657  0.6682
  159MPD2    H5 2482   2.548   1.905  13.735  1.6059 -1.1414  1.6236
  159MPD2    N1 2483   2.783   1.485  13.783  0.2467  0.0280  0.4289
  159MPD2    H7 2484   2.856   1.417  13.759 -0.8052 -0.3934 -1.5865
  160TMC2    C1 2485   3.464   4.372   1.546 -0.5221 -0.0979 -0.1361
  160TMC2    C2 2486   3.375   4.270   1.569 -0.0266 -0.2313  0.0601
  160TMC2    C3 2487   3.423   4.149   1.614  0.1905  0.1291 -0.2533
  160TMC2    C4 2488   3.601   4.338   1.533 -0.5895  0.0096  0.4967
  160TMC2    C5 2489   3.644   4.214   1.562 -0.0870 -0.0182  0.1301
  160TMC2    C6 2490   3.561   4.118   1.617 -0.3217 -0.5665  0.5103
  160TMC2     C 2491   3.432   4.510   1.585 -0.0316  0.0873  0.7090
  160TMC2     O 2492   3.522   4.570   1.640 -0.7648  0.5546 -0.2430
  160TMC2     H 2493   3.268   4.287   1.567  0.1541  1.1522  1.8224
  160TMC2    H1 2494   3.664   4.424   1.518 -0.7961 -0.0455 -0.6769
  160TMC2    H2 2495   3.600   4.023   1.652  0.0074 -0.1523  1.2587
  160TMC2    C7 2496   3.781   4.169   1.513  0.1426 -0.1013 -0.2244
  160TMC2    C8 2497   3.323   4.043   1.630  0.2127  0.3983 -0.1706
  160TMC2    O1 2498   3.836   4.066   1.555  0.3988  0.4553  0.2052
  160TMC2    O2 2499   3.203   4.060   1.632 -0.5296 -0.7061  0.3658
  160TMC2    O5 2500   3.371   3.927   1.590 -0.0531 -0.1003 -0.3490
  160TMC2    H5 2501   3.469   3.919   1.582 -0.0768 -0.0813 -0.6669
  161MPD2     C 2502   3.316   0.044   1.585 -0.0544 -0.0429 -0.5986
  161MPD2    C1 2503   3.254   4.677   1.520  0.7949  1.2084 -0.1611
  161MPD2    C2 2504   3.141   4.689   1.438 -0.6334  0.1307 -0.2552
  161MPD2    C3 2505   3.096   0.077   1.418  0.7646 -0.7705  0.5699
  161MPD2    C4 2506   3.149   0.180   1.495 -0.0511  0.2109 -0.0945
  161MPD2    C5 2507   3.262   0.165   1.573  0.8666 -0.2536 -0.1029
  161MPD2     H 2508   3.099   4.600   1.392 -1.6215  0.7828 -0.6122
  161MPD2    H1 2509   3.116   0.283   1.490  1.5406  0.6941 -0.4510
  161MPD2    H2 2510   3.407   0.026   1.640 -1.2598  0.9462  1.7082
  161MPD2    H3 2511   3.306   0.250   1.624  0.1914 -0.5275  0.9497
  161MPD2     N 2512   3.002   0.119   1.323 -0.3192  0.5775  0.5862
  161MPD2    H5 2513   2.980   0.218   1.318  3.4499  1.3574 -0.7501
  161MPD2    N1 2514   3.303   4.542   1.539 -0.4371  0.5777 -0.0532
  161MPD2    H7 2515   3.238   4.478   1.495  1.0729 -1.1891  0.2712
  162TMC2    C1 2516   1.247   1.575   1.434 -0.4012 -0.0975  0.1397
  162TMC2    C2 2517   1.181   1.508   1.537  0.1143 -0.0701 -0.2848
  162TMC2    C3 2518   1.215   1.538   1.667  0.1063  0.4023 -0.0191
  162TMC2    C4 2519   1.350   1.649   1.459 -0.8643  0.1529  0.0667
  162TMC2    C5 2520   1.391   1.672   1.584 -0.2549  0.3899  0.4688
  162TMC2    C6 2521   1.323   1.622   1.691 -0.5380 -0.0726 -0.2778
  162TMC2     C 2522   1.228   1.545   1.295 -0.0812 -0.5712  0.1705
  162TMC2     O 2523   1.324   1.560   1.223 -0.2983 -0.4363  0.1961
  162TMC2     H 2524   1.094   1.444   1.525  0.6123 -0.5572 -1.2917
  162TMC2    H1 2525   1.403   1.694   1.376 -0.8028 -1.4840 -0.7832
  162TMC2    H2 2526   1.345   1.642   1.796 -2.1497 -0.5100  0.1389
  162TMC2    C7 2527   1.528   1.724   1.604 -0.5841  0.3569 -0.4226
  162TMC2    C8 2528   1.119   1.529   1.784  0.2181  0.1023 -0.5104
  162TMC2    O1 2529   1.568   1.807   1.525  0.4430  0.1220  0.2195
  162TMC2    O2 2530   1.144   1.578   1.894  0.0701 -0.5128  0.2870
  162TMC2    O5 2531   1.005   1.460   1.750  0.0817  0.0553  0.0074
  162TMC2    H5 2532   1.021   1.380   1.696  0.4694 -0.2845  0.6200
  163MPD2     C 2533   0.968   1.385   0.900 -0.3373 -0.0118  0.1877
  163MPD2    C1 2534   1.099   1.381   0.922 -0.0752 -0.1556  0.3144
  163MPD2    C2 2535   1.146   1.421   1.047 -0.4696  0.1566 -0.1491
  163MPD2    C3 2536   1.046   1.475   1.138 -0.7783  0.0635  0.0454
  163MPD2    C4 2537   0.913   1.454   1.116  0.0726  0.0810 -0.1714
  163MPD2    C5 2538   0.875   1.418   0.996 -0.2967  0.0069 -0.3685
  163MPD2     H 2539   1.252   1.414   1.070 -0.4832 -0.3532 -0.2298
  163MPD2    H1 2540   0.837   1.473   1.190 -0.7609  0.5855 -1.1561
  163MPD2    H2 2541   0.928   1.344   0.808 -2.8512 -0.1870  1.3634
  163MPD2    H3 2542   0.776   1.381   0.971 -1.1693  3.0891 -1.3753
  163MPD2     N 2543   1.094   1.523   1.262 -0.2235 -0.2043 -0.4810
  163MPD2    H5 2544   1.021   1.528   1.332  1.0882 -2.7626  1.0729
  163MPD2    N1 2545   1.183   1.330   0.820  0.4494  0.4978 -0.0781
  163MPD2    H7 2546   1.147   1.303   0.729  1.3787  1.0395 -0.6142
  164TMC2    C1 2547   1.475   1.631  11.272 -0.3271 -0.3311  0.3176
  164TMC2    C2 2548   1.605   1.675  11.247  0.2159 -0.1157 -0.5516
  164TMC2    C3 2549   1.632   1.799  11.186  0.0069 -0.1068 -0.4471
  164TMC2    C4 2550   1.367   1.716  11.249 -0.1986 -0.2124  0.6500
  164TMC2    C5 2551   1.403   1.847  11.205 -0.7616  0.0037 -0.6077
  164TMC2    C6 2552   1.534   1.892  11.174 -0.2085  0.7526 -0.2926
  164TMC2     C 2553   1.442   1.486  11.276 -0.2153 -0.0098 -0.3620
  164TMC2     O 2554   1.326   1.448  11.299  0.2066 -0.3073  0.6380
  164TMC2     H 2555   1.683   1.608  11.281  0.2007 -0.5298 -1.3251
  164TMC2    H1 2556   1.262   1.689  11.251 -0.4339  0.5404 -2.8666
  164TMC2    H2 2557   1.559   1.988  11.130 -1.5758  1.0632 -0.3968
  164TMC2    C7 2558   1.293   1.928  11.150 -0.0744 -0.4201  1.0756
  164TMC2    C8 2559   1.763   1.846  11.208 -0.3866  0.5752 -0.5942
  164TMC2    O1 2560   1.182   1.901  11.189 -0.0796  0.1525  0.3820
  164TMC2    O2 2561   1.791   1.965  11.230 -0.1774  0.5317  0.1551
  164TMC2    O5 2562   1.851   1.742  11.196 -0.2548 -0.0990  0.8179
  164TMC2    H5 2563   1.809   1.656  11.175 -0.0219  0.2476 -1.0080
  165TMC2    C1 2564   2.880   3.796   1.899  0.3440 -0.6833 -0.8368
  165TMC2    C2 2565   2.874   3.685   1.974 -0.0002  0.0713 -0.3348
  165TMC2    C3 2566   2.989   3.649   2.041  0.3547  0.4910  0.1983
  165TMC2    C4 2567   2.991   3.873   1.879 -0.2220 -0.2799 -0.1911
  165TMC2    C5 2568   3.101   3.830   1.941  0.3020 -0.3387 -0.1266
  165TMC2    C6 2569   3.099   3.719   2.013  0.1312  0.1752 -1.3484
  165TMC2     C 2570   2.770   3.801   1.805 -0.2947  0.5440  0.1708
  165TMC2     O 2571   2.707   3.699   1.784 -0.5017 -0.3730 -0.5055
  165TMC2     H 2572   2.780   3.632   1.982 -0.0409 -0.4012 -3.7671
  165TMC2    H1 2573   2.987   3.961   1.815 -0.3044  0.7938  1.2819
  165TMC2    H2 2574   3.188   3.689   2.067 -1.0126  1.3058  1.2218
  165TMC2    C7 2575   3.214   3.910   1.965 -0.0917 -0.0323  0.3615
  165TMC2    C8 2576   2.999   3.514   2.097  0.6522 -0.4573  0.0931
  165TMC2    O1 2577   3.317   3.844   1.973  0.4133  0.4090 -0.3128
  165TMC2    O2 2578   2.926   3.429   2.056 -0.4993  0.6177  0.4885
  165TMC2    O5 2579   3.110   3.489   2.170 -0.2137 -0.1740 -0.5325
  165TMC2    H5 2580   3.147   3.569   2.214  0.7341  0.6723 -2.8746
  166MPD2     C 2581   2.467   4.027   1.458 -0.0577 -0.5216  0.4378
  166MPD2    C1 2582   2.455   3.902   1.514  0.7564 -0.1756  0.6247
  166MPD2    C2 2583   2.545   3.864   1.616  0.0385  0.1842 -0.1165
  166MPD2    C3 2584   2.638   3.959   1.666 -0.8666  0.3708  0.1868
  166MPD2    C4 2585   2.634   4.083   1.611  0.1360  0.1756 -0.4498
  166MPD2    C5 2586   2.560   4.120   1.503  0.4116  0.4134  0.1046
  166MPD2     H 2587   2.547   3.758   1.640  0.0211 -0.0210 -1.0318
  166MPD2    H1 2588   2.707   4.156   1.647 -1.8578  0.3839  3.1387
  166MPD2    H2 2589   2.400   4.052   1.376 -0.6653  0.8823  1.3658
  166MPD2    H3 2590   2.557   4.223   1.470  0.1962  0.5389  0.5215
  166MPD2     N 2591   2.738   3.933   1.764 -0.2281  0.2027 -0.5984
  166MPD2    H5 2592   2.805   4.006   1.787  0.0474 -0.4827  0.7745
  166MPD2    N1 2593   2.358   3.818   1.462 -0.2692 -0.1526  0.4482
  166MPD2    H7 2594   2.321   3.856   1.375 -0.9695  1.7725  1.5874
  167TMC2    C1 2595   0.347   1.666  13.257 -0.6428  0.1933  0.6184
  167TMC2    C2 2596   0.283   1.691  13.372  0.1492 -0.1157  0.5493
  167TMC2    C3 2597   0.325   1.618  13.475 -0.2617 -0.4404 -0.1335
  167TMC2    C4 2598   0.455   1.577  13.255 -0.2295  0.4390  0.2795
  167TMC2    C5 2599   0.486   1.500  13.365  0.8476 -0.4647  0.1351
  167TMC2    C6 2600   0.423   1.532  13.482 -0.9236 -0.2780 -0.2211
  167TMC2     C 2601   0.303   1.740  13.139 -0.1454 -0.0072  0.4969
  167TMC2     O 2602   0.220   1.830  13.152 -0.9128 -1.1369 -0.2955
  167TMC2     H 2603   0.203   1.764  13.378  2.1521  2.1770 -0.4748
  167TMC2    H1 2604   0.511   1.576  13.162  0.2820 -0.2624  0.5964
  167TMC2    H2 2605   0.449   1.485  13.576 -1.5458  0.2938  0.2303
  167TMC2    C7 2606   0.572   1.385  13.370 -0.1236  0.3372 -0.1898
  167TMC2    C8 2607   0.235   1.610  13.591 -0.1267  0.0526  0.6357
  167TMC2    O1 2608   0.567   1.317  13.470  0.0303  0.4848 -0.0354
  167TMC2    O2 2609   0.272   1.581  13.706  0.1017  0.4232  0.2191
  167TMC2    O5 2610   0.111   1.580  13.540 -0.8378  0.2740 -0.1488
  167TMC2    H5 2611   0.107   1.598  13.444  0.0867 -1.0571 -0.4405
  168MPD2     C 2612   0.280   1.843  12.863  0.1196  0.5861  0.1554
  168MPD2    C1 2613   0.314   1.709  12.889 -0.3449 -0.9673  0.7472
  168MPD2    C2 2614   0.335   1.631  12.777  0.2493 -0.2725 -0.1209
  168MPD2    C3 2615   0.330   1.667  12.644 -0.1589  0.1468  0.0964
  168MPD2    C4 2616   0.292   1.799  12.620 -0.2467  0.2299  0.5403
  168MPD2    C5 2617   0.276   1.887  12.731 -0.4366 -0.1974  0.3782
  168MPD2     H 2618   0.376   1.534  12.803  0.9394 -0.4396 -1.7934
  168MPD2    H1 2619   0.281   1.839  12.520  0.1644  0.0711  0.4325
  168MPD2    H2 2620   0.286   1.916  12.944  0.1873 -0.0554  0.7315
  168MPD2    H3 2621   0.273   1.994  12.716  0.7752 -0.2976 -0.5283
  168MPD2     N 2622   0.358   1.569  12.548 -0.0701 -0.3149  0.3148
  168MPD2    H5 2623   0.374   1.474  12.578  0.6654 -0.1042  0.5971
  168MPD2    N1 2624   0.333   1.662  13.021 -0.2642 -0.6495  0.8139
  168MPD2    H7 2625   0.382   1.573  13.023 -1.1170 -1.1200  0.7811
  169MPD1     C 2626   4.644   3.982   9.918  0.1496 -0.5300  0.6974
  169MPD1    C1 2627   4.660   4.118   9.948  0.1453 -0.4111  0.7370
  169MPD1    C2 2628   4.552   4.200   9.931  0.0904 -0.3043 -0.5443
  169MPD1    C3 2629   4.422   4.152   9.905  0.2879 -0.4507 -0.1264
  169MPD1    C4 2630   4.412   4.020   9.873  0.3886  0.3178  0.3552
  169MPD1    C5 2631   4.523   3.938   9.882  0.5049  0.5154  0.3007
  169MPD1     H 2632   4.564   4.303   9.961  1.5365 -0.8970  0.8651
  169MPD1    H1 2633   4.316   3.976   9.849  0.7211  0.1681 -0.6854
  169MPD1    H2 2634   4.723   3.910   9.904  0.9845  0.5851 -0.3465
  169MPD1    H3 2635   4.508   3.833   9.859 -2.5649  1.1572 -0.6352
  169MPD1     N 2636   4.309   4.241   9.907  1.0718 -0.2335  0.4121
  169MPD1    H5 2637   4.327   4.334   9.944  3.2673 -0.7129  0.5048
  169MPD1    N1 2638   0.052   4.177   9.962  0.2483  0.7723  0.5066
  169MPD1    H6 2639   0.119   4.112  10.004  0.7501  0.7535 -0.3342
  169MPD1    H7 2640   0.049   4.266  10.011  1.8907  0.5071  1.1035
  170MPD1     C 2641   2.056   4.224  13.208  0.4581  0.0906 -0.0017
  170MPD1    C1 2642   1.925   4.257  13.233 -0.4224 -0.2612  0.2902
  170MPD1    C2 2643   1.871   4.196  13.339 -0.0798 -0.0130 -0.1082
  170MPD1    C3 2644   1.927   4.097  13.417 -0.6724 -0.1310  0.0057
  170MPD1    C4 2645   2.058   4.063  13.393 -1.1098  0.1571  0.5705
  170MPD1    C5 2646   2.116   4.125  13.280  0.1837 -0.0538  0.5025
  170MPD1     H 2647   1.768   4.222  13.361  0.1748  1.8648 -1.1255
  170MPD1    H1 2648   2.111   3.993  13.456 -1.1605 -0.2507  0.1553
  170MPD1    H2 2649   2.121   4.267  13.133 -2.8199  0.0888 -2.8293
  170MPD1    H3 2650   2.215   4.093  13.251  0.7749  1.5584  0.7430
  170MPD1     N 2651   1.852   4.038  13.519 -0.1933 -0.3948  0.0360
  170MPD1    H5 2652   1.764   4.086  13.534 -0.9052 -2.1997  1.6752
  170MPD1    N1 2653   1.857   4.335  13.136 -0.3640  0.2009 -0.3811
  170MPD1    H6 2654   1.801   4.404  13.186 -0.3277  0.1678 -0.2951
  170MPD1    H7 2655   1.920   4.378  13.070 -1.9535  1.0348 -1.3543
  171MPD1     C 2656   0.003   0.028  16.335  0.6719 -0.3715 -0.0374
  171MPD1    C1 2657   0.035   4.677  16.432 -0.3985  0.7518 -0.5060
  171MPD1    C2 2658   0.130   4.584  16.403  0.0509 -0.4438  0.0154
  171MPD1    C3 2659   0.189   4.568  16.277  0.1576 -0.2586 -0.4167
  171MPD1    C4 2660   0.138   4.650  16.176 -0.4024 -0.2689 -0.1078
  171MPD1    C5 2661   0.051   0.008  16.203 -0.1936 -0.4544  0.0002
  171MPD1     H 2662   0.139   4.519  16.490  0.6001 -1.5738 -0.8864
  171MPD1    H1 2663   0.168   4.624  16.075 -0.8936 -1.8004  0.1385
  171MPD1    H2 2664   4.673   0.110  16.353 -1.2049 -2.0561  0.4416
  171MPD1    H3 2665   0.020   0.071  16.121 -1.0966 -0.4794  0.3191
  171MPD1     N 2666   0.291   4.471  16.251  0.4024 -0.6942 -0.2461
  171MPD1    H5 2667   0.319   4.468  16.154 -1.6525  0.4333 -0.8610
  171MPD1    N1 2668   4.730   4.690  16.566 -0.1196 -0.1902 -1.0225
  171MPD1    H6 2669   4.729   4.610  16.629  1.8927  1.5046  1.1615
  171MPD1    H7 2670   4.656   0.018  16.581 -1.2722 -1.4092 -1.2970
  172MPD1     C 2671   1.089   3.682   1.082  0.1256 -0.0835  0.1758
  172MPD1    C1 2672   1.016   3.786   1.134  0.2526  0.4461 -0.3935
  172MPD1    C2 2673   0.886   3.803   1.093 -1.3630 -0.7545  0.4291
  172MPD1    C3 2674   0.834   3.747   0.978  0.4638 -0.6196 -0.2111
  172MPD1    C4 2675   0.915   3.657   0.913 -0.8249 -0.3417  0.3626
  172MPD1    C5 2676   1.037   3.618   0.975  0.3230 -0.1295  0.4622
  172MPD1     H 2677   0.838   3.891   1.135 -1.6953 -1.3715  1.3441
  172MPD1    H1 2678   0.885   3.615   0.818 -2.5671  0.7351  0.4221
  172MPD1    H2 2679   1.186   3.653   1.119  0.3307  0.5376  0.1197
  172MPD1    H3 2680   1.106   3.548   0.930 -0.9624 -0.4100 -1.0736
  172MPD1     N 2681   0.715   3.791   0.912 -0.4339  0.5514  0.1021
  172MPD1    H5 2682   0.690   3.741   0.827 -2.8829 -1.1105  1.7879
  172MPD1    N1 2683   1.056   3.868   1.242  0.0843  0.3353 -0.7518
  172MPD1    H6 2684   1.155   3.889   1.252  0.0009 -1.2584  3.4712
  172MPD1    H7 2685   1.024   3.964   1.237 -0.4777  0.2630  1.2063
  173MPD1     C 2686   0.786   4.212  14.117  0.1451  0.7344  0.5444
  173MPD1    C1 2687   0.900   4.137  14.106  0.0878 -0.7547  1.0822
  173MPD1    C2 2688   0.903   4.029  14.184 -0.3696  0.2259 -0.1345
  173MPD1    C3 2689   0.801   3.998  14.273  0.2813  0.7450  0.0686
  173MPD1    C4 2690   0.680   4.072  14.270 -1.1451  0.6772 -0.2469
  173MPD1    C5 2691   0.673   4.183  14.191 -0.8392 -0.1504  0.2410
  173MPD1     H 2692   0.982   3.955  14.183 -0.5337  0.0424  0.2398
  173MPD1    H1 2693   0.597   4.057  14.338  1.2082  1.5314  2.7945
  173MPD1    H2 2694   0.776   4.304  14.060  1.7496  2.0283  2.3650
  173MPD1    H3 2695   0.580   4.238  14.191 -1.6663 -1.5221  1.1143
  173MPD1     N 2696   0.822   3.888  14.366  0.1507  0.1710 -0.4217
  173MPD1    H5 2697   0.906   3.831  14.363  2.8509  4.1544 -0.8614
  173MPD1    N1 2698   1.017   4.185  14.041  0.2092  0.0357  0.2219
  173MPD1    H6 2699   1.073   4.106  14.009 -0.0762 -1.4410  3.3905
  173MPD1    H7 2700   1.001   4.250  13.964  1.6071  0.2112  0.0832
  174MPD1     C 2701   1.568   3.499  14.472 -0.0131 -0.9992  0.6158
  174MPD1    C1 2702   1.527   3.501  14.601 -0.4971 -0.3107 -0.2441
  174MPD1    C2 2703   1.397   3.540  14.625 -0.1302  0.7618  0.9836
  174MPD1    C3 2704   1.314   3.557  14.520 -0.2872  0.0936 -0.5378
  174MPD1    C4 2705   1.361   3.560  14.392 -0.8181  0.3635 -0.3429
  174MPD1    C5 2706   1.489   3.528  14.362  0.1968  0.4818 -0.2563
  174MPD1     H 2707   1.363   3.562  14.726 -0.4473  1.1687  0.7889
  174MPD1    H1 2708   1.291   3.560  14.309 -2.0224 -0.4612  0.6748
  174MPD1    H2 2709   1.670   3.466  14.455 -0.1041  0.0107 -1.9151
  174MPD1    H3 2710   1.525   3.515  14.261 -0.6019  2.3524 -0.8007
  174MPD1     N 2711   1.177   3.572  14.533 -0.3269  0.5348 -0.1543
  174MPD1    H5 2712   1.121   3.609  14.457 -0.2972 -1.6194 -1.2180
  174MPD1    N1 2713   1.612   3.483  14.710 -0.2775 -0.1729  0.1862
  174MPD1    H6 2714   1.561   3.436  14.784 -0.0394 -0.2107  0.3245
  174MPD1    H7 2715   1.694   3.428  14.685  2.1273  2.8240  1.4366
  175MPD1     C 2716   4.560   4.314  15.935 -0.4600  0.3008  0.2010
  175MPD1    C1 2717   4.464   4.208  15.953  0.1363  0.1233  0.4802
  175MPD1    C2 2718   4.458   4.146  16.077 -0.1421  0.0020 -0.1518
  175MPD1    C3 2719   4.529   4.196  16.184  0.6421 -0.2561 -0.2477
  175MPD1    C4 2720   4.614   4.304  16.164  0.8314  0.3060 -0.2067
  175MPD1    C5 2721   4.629   4.364  16.044 -0.4174 -0.0802 -0.4493
  175MPD1     H 2722   4.391   4.061  16.086  1.5277 -1.2750  0.2491
  175MPD1    H1 2723   4.676   4.344  16.244  3.0678 -0.7123 -1.4443
  175MPD1    H2 2724   4.581   4.358  15.838 -0.4254 -2.9280 -1.2574
  175MPD1    H3 2725   4.709   4.437  16.036  0.1617 -0.7358 -0.6855
  175MPD1     N 2726   4.523   4.149  16.317  0.2907 -0.0654 -0.1892
  175MPD1    H5 2727   4.598   4.176  16.380  0.1545 -0.8680  0.3139
  175MPD1    N1 2728   4.381   4.166  15.849  0.3676  0.6274  0.4551
  175MPD1    H6 2729   4.296   4.117  15.875  0.8525 -0.8653 -0.7653
  175MPD1    H7 2730   4.367   4.235  15.775  1.3588  0.2753 -0.0627
  176MPD1     C 2731   0.281   1.954  16.962 -0.2632  0.2608  0.5617
  176MPD1    C1 2732   0.257   2.070  17.031  0.1206  0.4979 -0.1621
  176MPD1    C2 2733   0.326   2.108  17.148 -0.2565  0.3774 -0.1784
  176MPD1    C3 2734   0.398   2.009  17.211 -0.2205  0.1698 -0.3490
  176MPD1    C4 2735   0.409   1.880  17.153  0.1736 -0.3886 -0.5441
  176MPD1    C5 2736   0.353   1.858  17.025  0.1097  0.1904 -0.4330
  176MPD1     H 2737   0.321   2.205  17.196 -3.2672  1.4736 -2.7004
  176MPD1    H1 2738   0.472   1.798  17.184  1.3022  1.3190  1.6876
  176MPD1    H2 2739   0.246   1.941  16.861  2.2287 -2.0544  0.0229
  176MPD1    H3 2740   0.359   1.760  16.981 -0.8270  0.7282 -1.7384
  176MPD1     N 2741   0.463   2.038  17.334 -0.6642 -0.6848 -0.2586
  176MPD1    H5 2742   0.446   2.132  17.368  0.7357 -0.0994 -1.1448
  176MPD1    N1 2743   0.175   2.167  16.964  0.3340 -0.3106  0.4435
  176MPD1    H6 2744   0.145   2.235  17.033  1.8094  0.3236  0.4596
  176MPD1    H7 2745   0.089   2.141  16.916 -0.4955  0.5135  1.4901
  177MPD1     C 2746   4.619   1.998  10.327  0.0410 -0.7662 -0.8666
  177MPD1    C1 2747   4.514   1.930  10.264 -0.2781 -0.2065  0.2233
  177MPD1    C2 2748   4.393   1.996  10.257  0.5677 -0.5457  0.4512
  177MPD1    C3 2749   4.374   2.120  10.310  0.5009  0.2781 -0.1997
  177MPD1    C4 2750   4.478   2.184  10.373  0.6339  0.1546  0.0944
  177MPD1    C5 2751   4.601   2.123  10.382  0.1922 -0.2986  0.2477
  177MPD1     H 2752   4.312   1.936  10.216 -0.8489  0.1350  2.2291
  177MPD1    H1 2753   4.475   2.281  10.421 -0.7054  0.9526 -1.6211
  177MPD1    H2 2754   4.720   1.958  10.332  1.1084  2.2340  1.6971
  177MPD1    H3 2755   4.682   2.182  10.422 -0.7614  1.8931 -1.0096
  177MPD1     N 2756   4.250   2.178  10.290  0.5215 -0.6542  0.6161
  177MPD1    H5 2757   4.190   2.131  10.222 -0.2404  0.6590  0.3791
  177MPD1    N1 2758   4.527   1.790  10.237 -1.0217 -0.4243 -0.6527
  177MPD1    H6 2759   4.456   1.760  10.171 -0.7103 -2.2863 -0.1443
  177MPD1    H7 2760   4.617   1.766  10.196 -0.2185  0.1195  0.7984
  178MPD1     C 2761   1.827   2.683   0.506 -0.8378  0.0341  0.1607
  178MPD1    C1 2762   1.779   2.559   0.468 -0.2991  0.1171 -0.1088
  178MPD1    C2 2763   1.810   2.514   0.340 -0.3892 -0.6378  0.1451
  178MPD1    C3 2764   1.880   2.590   0.249 -0.0670  0.3394 -0.8447
  178MPD1    C4 2765   1.917   2.713   0.290  0.0849  0.1539 -0.8005
  178MPD1    C5 2766   1.891   2.763   0.414  0.5568  0.4690 -0.5342
  178MPD1     H 2767   1.765   2.418   0.319 -1.0938 -0.4713  0.8838
  178MPD1    H1 2768   1.972   2.773   0.218 -0.2221 -0.7116 -1.7613
  178MPD1    H2 2769   1.803   2.719   0.606 -0.4147  0.2802  0.1714
  178MPD1    H3 2770   1.925   2.864   0.435  1.1221  0.3008 -0.6464
  178MPD1     N 2771   1.922   2.539   0.122 -0.2055 -0.2520  0.2025
  178MPD1    H5 2772   1.986   2.588   0.062  1.2585 -1.5316  0.7076
  178MPD1    N1 2773   1.693   2.486   0.549  0.0079  0.0595 -0.0898
  178MPD1    H6 2774   1.704   2.511   0.647 -1.1231  1.6211 -0.3587
  178MPD1    H7 2775   1.714   2.387   0.545  2.8973  0.7735 -2.6520
  179MPD1     C 2776   1.248   0.858  15.285 -0.5600 -1.0514 -0.3012
  179MPD1    C1 2777   1.315   0.870  15.406 -0.1928  0.3828  0.6568
  179MPD1    C2 2778   1.364   0.755  15.470  0.8546 -0.0136  0.1740
  179MPD1    C3 2779   1.349   0.627  15.422  1.0528 -0.7782 -0.0875
  179MPD1    C4 2780   1.279   0.616  15.302 -0.0179  0.2570 -0.2947
  179MPD1    C5 2781   1.233   0.727  15.236 -0.1088 -0.0528  0.1333
  179MPD1     H 2782   1.408   0.773  15.568  1.3376 -0.3277  0.0156
  179MPD1    H1 2783   1.270   0.516  15.260 -3.2871 -0.1074  1.2998
  179MPD1    H2 2784   1.196   0.939  15.234 -1.4398 -1.2662  0.2563
  179MPD1    H3 2785   1.191   0.712  15.137 -0.6038  1.4638  0.1147
  179MPD1     N 2786   1.401   0.514  15.490 -0.0445  0.4889 -0.2717
  179MPD1    H5 2787   1.359   0.424  15.466 -0.0279  0.2070  0.7518
  179MPD1    N1 2788   1.307   0.994  15.470 -0.1923 -0.4728  0.1089
  179MPD1    H6 2789   1.315   1.080  15.415 -0.5281  0.5487  1.6544
  179MPD1    H7 2790   1.383   1.004  15.538 -0.9414  1.4877  0.6626
  180MPD1     C 2791   1.135   2.145  14.943  0.3418 -0.2115 -0.9099
  180MPD1    C1 2792   1.214   2.222  14.862 -0.5596  0.1264 -1.0901
  180MPD1    C2 2793   1.160   2.337  14.803 -0.2760 -0.9110 -0.2664
  180MPD1    C3 2794   1.032   2.364  14.828  0.4895  0.4634 -0.6014
  180MPD1    C4 2795   0.955   2.288  14.917  0.0048 -0.5682 -0.0678
  180MPD1    C5 2796   1.007   2.180  14.973  0.4383 -0.1004  0.7623
  180MPD1     H 2797   1.217   2.396  14.733  0.6092 -0.0761  1.1603
  180MPD1    H1 2798   0.852   2.312  14.940  0.4650  0.6879  0.6666
  180MPD1    H2 2799   1.164   2.046  14.976  2.2857  0.1090 -1.6145
  180MPD1    H3 2800   0.941   2.104  15.015  2.2889 -1.8913  0.4069
  180MPD1     N 2801   0.969   2.458  14.747  0.0777 -0.5072 -0.4886
  180MPD1    H5 2802   1.018   2.510  14.675 -2.6134 -1.5970 -3.1205
  180MPD1    N1 2803   1.341   2.177  14.823 -0.2066 -0.4505 -0.1517
  180MPD1    H6 2804   1.399   2.245  14.773  0.5158 -0.6328  0.4333
  180MPD1    H7 2805   1.394   2.143  14.903  0.7424 -0.0017 -0.5861
  181MPD1     C 2806   2.726   3.712  11.308  0.6433 -0.5524  0.8040
  181MPD1    C1 2807   2.759   3.838  11.359  0.3336 -0.6453  0.6983
  181MPD1    C2 2808   2.750   3.946  11.276  0.6034 -0.3789 -0.1541
  181MPD1    C3 2809   2.723   3.932  11.139  0.0505 -0.2673 -0.0096
  181MPD1    C4 2810   2.690   3.814  11.088  0.5726  0.6575  0.3386
  181MPD1    C5 2811   2.685   3.710  11.174  0.2339 -0.0884  0.0900
  181MPD1     H 2812   2.748   4.041  11.328  2.6801 -0.6818  0.4987
  181MPD1    H1 2813   2.654   3.792  10.989  1.1113 -0.2984  0.3620
  181MPD1    H2 2814   2.721   3.620  11.365 -1.5057 -0.1511  1.2636
  181MPD1    H3 2815   2.651   3.615  11.136  2.3172 -0.9017  0.2652
  181MPD1     N 2816   2.723   4.036  11.044 -0.6022 -0.0529  0.2300
  181MPD1    H5 2817   2.746   4.019  10.947  3.1095 -1.5807  1.3623
  181MPD1    N1 2818   2.757   3.851  11.498 -0.1312 -0.0036 -0.3009
  181MPD1    H6 2819   2.777   3.766  11.551  1.6218  0.0752 -0.8331
  181MPD1    H7 2820   2.814   3.926  11.535 -1.0266  0.2219  0.6143
  182MPD1     C 2821   4.411   2.989   1.685 -0.5772 -0.2470  0.5869
  182MPD1    C1 2822   4.301   3.066   1.718  0.4849 -0.5221  0.5051
  182MPD1    C2 2823   4.262   3.171   1.635  0.7894  0.4479 -0.4199
  182MPD1    C3 2824   4.323   3.179   1.506 -0.7170 -0.3340 -0.2004
  182MPD1    C4 2825   4.431   3.102   1.468 -0.8678 -0.0287  0.0372
  182MPD1    C5 2826   4.479   3.011   1.562  0.2772  0.6131  0.2584
  182MPD1     H 2827   4.186   3.240   1.668  1.2884  0.8950 -0.2004
  182MPD1    H1 2828   4.480   3.110   1.372 -1.9980  1.2829 -0.4374
  182MPD1    H2 2829   4.454   2.913   1.749 -1.3458  0.1073  1.5151
  182MPD1    H3 2830   4.574   2.966   1.537  0.3041  0.1971  1.0919
  182MPD1     N 2831   4.273   3.270   1.410 -0.9159  0.4366  0.3577
  182MPD1    H5 2832   4.312   3.248   1.319  1.1126  3.1021  0.5793
  182MPD1    N1 2833   4.239   3.065   1.849 -0.5476  0.1099 -0.2757
  182MPD1    H6 2834   4.244   2.979   1.903  2.1653 -1.0149 -2.3302
  182MPD1    H7 2835   4.140   3.088   1.845 -0.7779 -0.5589  1.5722
  183MPD1     C 2836   3.347   3.623   9.238 -0.2279 -0.0124 -1.1511
  183MPD1    C1 2837   3.440   3.718   9.235  0.2223  0.3158  0.1705
  183MPD1    C2 2838   3.416   3.834   9.305 -0.3891 -0.4122  0.6079
  183MPD1    C3 2839   3.309   3.845   9.395 -0.0594 -0.4644 -0.2232
  183MPD1    C4 2840   3.223   3.741   9.406 -0.2328 -0.3827 -0.1254
  183MPD1    C5 2841   3.238   3.640   9.320  0.2107  0.1987 -0.2955
  183MPD1     H 2842   3.493   3.910   9.301  1.2628 -2.1119  0.1562
  183MPD1    H1 2843   3.150   3.724   9.485  0.1776  0.7475  0.4908
  183MPD1    H2 2844   3.343   3.530   9.183  0.1882 -0.3312 -0.6461
  183MPD1    H3 2845   3.161   3.565   9.330  0.7095 -0.3488 -0.5792
  183MPD1     N 2846   3.297   3.947   9.482 -0.7329  0.9189  0.1263
  183MPD1    H5 2847   3.379   4.006   9.483  0.0550 -0.1384 -4.1212
  183MPD1    N1 2848   3.530   3.715   9.126 -0.6589 -0.0648 -0.0657
  183MPD1    H6 2849   3.566   3.621   9.118  0.3121  0.4118 -1.2680
  183MPD1    H7 2850   3.609   3.776   9.145 -0.0200 -0.8236 -0.3150
  184MPD1     C 2851   3.275   1.738   9.553 -0.4522  0.1167 -1.3167
  184MPD1    C1 2852   3.265   1.743   9.698 -0.3264  0.1418  0.4544
  184MPD1    C2 2853   3.274   1.863   9.759 -0.1222  0.1585  0.1987
  184MPD1    C3 2854   3.300   1.978   9.683 -0.3148  0.5544 -0.0435
  184MPD1    C4 2855   3.326   1.972   9.548  0.0974  0.0803  0.1095
  184MPD1    C5 2856   3.299   1.852   9.485 -0.4003  0.3568  0.3516
  184MPD1     H 2857   3.271   1.873   9.867  4.3604 -0.4390  0.3846
  184MPD1    H1 2858   3.342   2.064   9.495 -2.1907 -0.0729 -0.8508
  184MPD1    H2 2859   3.267   1.647   9.494 -0.1332 -0.7826  0.0103
  184MPD1    H3 2860   3.317   1.841   9.379 -1.1304 -0.4859  0.3098
  184MPD1     N 2861   3.309   2.106   9.734 -0.9245 -0.0198  0.7548
  184MPD1    H5 2862   3.336   2.180   9.670  0.1034 -1.4938 -0.5151
  184MPD1    N1 2863   3.240   1.620   9.768 -0.3280  0.2671 -0.2102
  184MPD1    H6 2864   3.277   1.542   9.714  0.5851 -1.0136  2.2295
  184MPD1    H7 2865   3.277   1.612   9.863 -1.3544  2.2325  0.3652
  185MPD1     C 2866   4.104   2.369   9.644 -0.9681 -0.3740  0.6803
  185MPD1    C1 2867   4.050   2.480   9.703 -1.1664  0.2756 -0.2532
  185MPD1    C2 2868   3.917   2.474   9.748 -0.6186  0.4481 -0.8603
  185MPD1    C3 2869   3.859   2.353   9.760 -0.5864 -0.4639  0.1161
  185MPD1    C4 2870   3.921   2.235   9.733  0.2515  0.6361  0.4070
  185MPD1    C5 2871   4.036   2.247   9.661 -0.4121  0.4788 -0.4473
  185MPD1     H 2872   3.874   2.563   9.792 -1.8604 -0.0886 -1.0036
  185MPD1    H1 2873   3.876   2.138   9.749 -0.4438  0.8001 -0.5867
  185MPD1    H2 2874   4.196   2.378   9.588 -1.9481  0.3796 -0.8172
  185MPD1    H3 2875   4.081   2.155   9.626 -2.2405 -0.3386 -0.6391
  185MPD1     N 2876   3.720   2.337   9.804 -0.6788 -0.3157 -0.2148
  185MPD1    H5 2877   3.682   2.244   9.793 -2.8127  0.7151 -1.6046
  185MPD1    N1 2878   4.111   2.603   9.684  0.6491  0.2471  0.3606
  185MPD1    H6 2879   4.089   2.664   9.763 -0.3629  3.1230 -2.1701
  185MPD1    H7 2880   4.213   2.609   9.681  0.6566 -0.1692 -0.1775
  186MPD1     C 2881   1.188   1.321  15.672  0.0449 -0.1295  0.5659
  186MPD1    C1 2882   1.326   1.333  15.657  0.2920  0.2773  0.7825
  186MPD1    C2 2883   1.407   1.348  15.772 -0.2326 -0.3647 -0.0783
  186MPD1    C3 2884   1.348   1.331  15.899 -0.0126 -0.1706  0.4857
  186MPD1    C4 2885   1.215   1.307  15.915  1.0171 -1.0113  0.1120
  186MPD1    C5 2886   1.138   1.313  15.798 -0.0526  0.2754  0.5132
  186MPD1     H 2887   1.515   1.354  15.763 -0.4620  0.8581 -2.0431
  186MPD1    H1 2888   1.161   1.290  16.008  0.3331 -4.0853 -0.8699
  186MPD1    H2 2889   1.128   1.306  15.583 -0.6106 -0.6060  1.0973
  186MPD1    H3 2890   1.032   1.292  15.796 -0.1316  0.7370 -0.0976
  186MPD1     N 2891   1.434   1.356  16.003 -0.6276 -0.2895 -0.7440
  186MPD1    H5 2892   1.532   1.377  15.987 -0.5780 -0.6125 -0.8747
  186MPD1    N1 2893   1.388   1.348  15.526 -0.0133  0.0793 -0.8258
  186MPD1    H6 2894   1.474   1.295  15.527  0.1041  0.2936  0.9094
  186MPD1    H7 2895   1.328   1.311  15.453  1.0771 -3.1758 -0.0553
  187MPD1     C 2896   1.554   2.815   0.241 -0.5054 -0.4569  0.0824
  187MPD1    C1 2897   1.422   2.783   0.262 -0.4964 -0.2081  0.3663
  187MPD1    C2 2898   1.346   2.782   0.144  0.0674  0.2211 -0.1979
  187MPD1    C3 2899   1.392   2.833   0.024 -0.3992 -0.0372 -0.1892
  187MPD1    C4 2900   1.519   2.881   0.016 -0.0925 -0.2676  0.6613
  187MPD1    C5 2901   1.599   2.875   0.126 -0.8270  0.1383  0.0147
  187MPD1     H 2902   1.244   2.744   0.148  0.3610 -0.5057  0.4100
  187MPD1    H1 2903   1.564   2.901  17.675  1.4012 -1.8887  1.0099
  187MPD1    H2 2904   1.626   2.799   0.320  0.0652 -0.4943 -0.4395
  187MPD1    H3 2905   1.706   2.892   0.128 -0.2504 -3.3519 -1.9348
  187MPD1     N 2906   1.315   2.827  17.661 -0.0369  0.1807  0.2073
  187MPD1    H5 2907   1.357   2.872  17.581 -0.0641 -0.9407 -0.4264
  187MPD1    N1 2908   1.383   2.726   0.384  0.3582 -0.5560 -0.3279
  187MPD1    H6 2909   1.426   2.780   0.457 -0.3981 -2.1898  1.3295
  187MPD1    H7 2910   1.282   2.726   0.397  0.4347 -1.0889  0.2833
  188MPD1     C 2911   0.570   3.659  10.648 -0.8372  0.1562  1.0618
  188MPD1    C1 2912   0.688   3.624  10.587  0.6460  0.1091  0.0555
  188MPD1    C2 2913   0.694   3.512  10.502  0.6429 -0.7055 -0.2892
  188MPD1    C3 2914   0.585   3.424  10.492  0.0368 -0.2073  0.2628
  188MPD1    C4 2915   0.475   3.454  10.570 -0.0006  0.2164 -0.5766
  188MPD1    C5 2916   0.467   3.564  10.651 -0.3285  0.8666 -0.5843
  188MPD1     H 2917   0.783   3.492  10.443  0.4457 -0.6128 -0.6210
  188MPD1    H1 2918   0.393   3.382  10.573 -1.0451  1.4762  1.1029
  188MPD1    H2 2919   0.562   3.748  10.711  1.2184 -0.2017  1.8278
  188MPD1    H3 2920   0.382   3.589  10.714 -1.4297  0.0458 -1.7542
  188MPD1     N 2921   0.580   3.302  10.414  0.0903  0.0852  0.1544
  188MPD1    H5 2922   0.506   3.234  10.427  0.0775 -0.1118 -0.9633
  188MPD1    N1 2923   0.790   3.721  10.577  0.0522 -0.3178  0.2245
  188MPD1    H6 2924   0.786   3.781  10.659  0.2000 -2.6526  1.9626
  188MPD1    H7 2925   0.880   3.675  10.594 -0.7599 -1.7825  0.6131
  189MPD1     C 2926   2.922   3.678   0.664  0.4046 -0.1885 -0.2567
  189MPD1    C1 2927   2.915   3.582   0.566 -0.1012  0.2588 -0.2904
  189MPD1    C2 2928   2.856   3.616   0.445  0.1356  0.3836  0.4123
  189MPD1    C3 2929   2.802   3.741   0.420  0.9507 -0.2374  0.2489
  189MPD1    C4 2930   2.814   3.832   0.519  0.0696 -0.3522  0.0417
  189MPD1    C5 2931   2.876   3.804   0.635 -0.3188  0.1637 -0.2842
  189MPD1     H 2932   2.852   3.541   0.367 -2.8837 -1.2903  2.1513
  189MPD1    H1 2933   2.789   3.936   0.502 -0.3384 -0.3524  0.6393
  189MPD1    H2 2934   2.962   3.649   0.760 -3.5275 -0.1144  1.3946
  189MPD1    H3 2935   2.896   3.880   0.709  1.0548 -3.7085  3.3600
  189MPD1     N 2936   2.749   3.780   0.295 -0.5799  0.2333 -0.5459
  189MPD1    H5 2937   2.756   3.705   0.226 -3.2311 -0.1645 -0.3680
  189MPD1    N1 2938   2.975   3.450   0.589  0.2606 -0.2229  0.2349
  189MPD1    H6 2939   2.923   3.375   0.544  4.0231 -1.6124 -1.8408
  189MPD1    H7 2940   2.975   3.421   0.687 -0.9213 -0.0779  0.2752
  190MPD1     C 2941   0.883   2.076  15.578  0.6767 -0.8828  0.4431
  190MPD1    C1 2942   0.953   1.986  15.644  0.4709  0.2087  0.5143
  190MPD1    C2 2943   1.091   2.011  15.666  0.4201  0.5102  0.4505
  190MPD1    C3 2944   1.157   2.101  15.589  0.1563 -0.3971 -0.3463
  190MPD1    C4 2945   1.080   2.194  15.528 -0.2193  0.7541 -0.1424
  190MPD1    C5 2946   0.944   2.189  15.529  0.2094 -0.2607 -0.5363
  190MPD1     H 2947   1.154   1.936  15.712 -0.3576  0.4804  1.4784
  190MPD1    H1 2948   1.135   2.271  15.476  1.2539 -0.8436 -0.9410
  190MPD1    H2 2949   0.776   2.063  15.576  0.5664 -0.1861  1.5049
  190MPD1    H3 2950   0.884   2.261  15.474  0.0722  0.8918  1.1394
  190MPD1     N 2951   1.302   2.106  15.596 -0.5357  0.2727  0.5745
  190MPD1    H5 2952   1.348   2.040  15.658  0.3049  0.5807  0.2745
  190MPD1    N1 2953   0.889   1.894  15.727  0.0064 -0.1921  0.3558
  190MPD1    H6 2954   0.796   1.875  15.688 -0.1237  0.8805  0.1537
  190MPD1    H7 2955   0.934   1.803  15.731  1.9413  0.7821  0.7478
  191MPD1     C 2956   0.307   3.896  13.634 -0.0862  0.2112 -1.2854
  191MPD1    C1 2957   0.390   3.965  13.559 -0.2466 -0.1177  0.1093
  191MPD1    C2 2958   0.348   4.090  13.521  0.6595  0.0189  0.0157
  191MPD1    C3 2959   0.230   4.145  13.570  0.4304 -0.5048 -0.9789
  191MPD1    C4 2960   0.156   4.072  13.664 -0.2542  0.4918 -0.9311
  191MPD1    C5 2961   0.194   3.952  13.690  0.5818  0.5500 -0.5103
  191MPD1     H 2962   0.403   4.146  13.447 -0.4961  0.8622 -0.2046
  191MPD1    H1 2963   0.067   4.103  13.716  0.2213 -1.2970  0.9575
  191MPD1    H2 2964   0.328   3.794  13.664  0.0595 -0.0228 -2.1916
  191MPD1    H3 2965   0.139   3.891  13.761 -0.4643  1.7267 -0.3048
  191MPD1     N 2966   0.201   4.278  13.520 -0.7067  0.3080 -0.2350
  191MPD1    H5 2967   0.266   4.325  13.458 -1.0308  0.5204 -0.4153
  191MPD1    N1 2968   0.498   3.901  13.506 -0.4917 -0.5117  0.1402
  191MPD1    H6 2969   0.568   3.959  13.459 -0.9978  0.9294  1.1790
  191MPD1    H7 2970   0.473   3.819  13.452  0.4617 -0.4835 -0.3524
  192MPD1     C 2971   4.021   4.738  13.670  0.6518  0.6906 -0.7666
  192MPD1    C1 2972   4.060   0.020  13.539  0.8873  0.2070  0.0381
  192MPD1    C2 2973   4.189   4.724  13.495 -0.1579  0.4820  0.1175
  192MPD1    C3 2974   4.281   4.661  13.576 -0.5066 -0.4400 -1.1546
  192MPD1    C4 2975   4.246   4.650  13.707 -0.7368  0.0106  0.2889
  192MPD1    C5 2976   4.118   4.679  13.753 -0.2768 -0.2177  0.0551
  192MPD1     H 2977   4.213   4.736  13.390 -4.2555  0.7490 -0.7690
  192MPD1    H1 2978   4.308   4.612  13.787 -0.0056  0.2438 -0.1642
  192MPD1    H2 2979   3.920   0.016  13.704  1.2080  1.6355  0.4186
  192MPD1    H3 2980   4.086   4.650  13.852  1.1117  1.2859  0.9221
  192MPD1     N 2981   4.404   4.614  13.534  0.3652 -0.2568 -0.0358
  192MPD1    H5 2982   4.458   4.577  13.612 -1.4619 -0.8838  0.9283
  192MPD1    N1 2983   3.963   0.087  13.454  0.0204 -0.2252 -0.3863
  192MPD1    H6 2984   3.999   0.079  13.359 -0.7415  0.7352 -0.7584
  192MPD1    H7 2985   3.873   0.039  13.446  0.0171 -0.4622  1.2256
  193MPD1     C 2986   0.485   3.901  16.478  0.0417  0.8306 -0.3107
  193MPD1    C1 2987   0.440   4.017  16.536  0.6717  0.3579  0.0336
  193MPD1    C2 2988   0.532   4.085  16.603  0.8328  0.8283  0.6691
  193MPD1    C3 2989   0.671   4.033  16.624  0.0539 -0.3441 -0.8395
  193MPD1    C4 2990   0.701   3.917  16.565  0.7941  0.4949 -0.1036
  193MPD1    C5 2991   0.609   3.845  16.496  0.0993  0.3533  0.4652
  193MPD1     H 2992   0.497   4.179  16.642  1.0135  0.7044  1.1299
  193MPD1    H1 2993   0.801   3.881  16.581  0.3233 -0.5910  0.3754
  193MPD1    H2 2994   0.412   3.842  16.423  1.1967 -1.2541  0.3907
  193MPD1    H3 2995   0.647   3.763  16.437 -2.4689 -1.1355  0.8747
  193MPD1     N 2996   0.781   4.107  16.676  0.0730 -0.4808  0.9145
  193MPD1    H5 2997   0.874   4.071  16.654  0.5336  0.6183  1.0421
  193MPD1    N1 2998   0.319   4.073  16.490  0.2593  0.3733  0.3183
  193MPD1    H6 2999   0.253   3.998  16.475  0.9917 -0.6591  2.2848
  193MPD1    H7 3000   0.289   4.147  16.553  1.4136  1.5023 -0.4530
  194MPD1     C 3001   3.451   1.656  16.693 -0.2194  0.7147 -0.2554
  194MPD1    C1 3002   3.455   1.686  16.822 -0.2080  0.5618  0.4089
  194MPD1    C2 3003   3.527   1.610  16.914  0.3275 -0.8605 -1.1834
  194MPD1    C3 3004   3.607   1.501  16.869  0.4853 -0.4698 -0.1033
  194MPD1    C4 3005   3.596   1.467  16.741  0.9284 -0.1919  0.0998
  194MPD1    C5 3006   3.522   1.544  16.653 -0.2059  0.3580  0.2656
  194MPD1     H 3007   3.500   1.632  17.017  1.1606  1.8975 -1.5747
  194MPD1    H1 3008   3.658   1.390  16.697  0.5289 -0.5456  0.1583
  194MPD1    H2 3009   3.391   1.712  16.622  0.4748 -0.7108 -1.9480
  194MPD1    H3 3010   3.522   1.531  16.545 -0.2894 -1.8902  0.5504
  194MPD1     N 3011   3.694   1.420  16.953  0.3060 -0.2434  0.1788
  194MPD1    H5 3012   3.732   1.337  16.910  0.7877  0.0370  0.0676
  194MPD1    N1 3013   3.364   1.776  16.874 -0.7142 -0.5228 -0.0958
  194MPD1    H6 3014   3.354   1.860  16.817 -2.5139 -1.0410 -0.5610
  194MPD1    H7 3015   3.392   1.804  16.967  1.6625  0.5276 -1.1306
  195MPD1     C 3016   1.173   3.837  17.629  0.4446 -0.0957 -0.6234
  195MPD1    C1 3017   1.173   3.820   0.009  0.8701 -0.7634  0.5166
  195MPD1    C2 3018   1.162   3.692   0.061  0.0200 -0.5419 -0.4698
  195MPD1    C3 3019   1.124   3.586  17.730  0.4541 -0.2142  0.3970
  195MPD1    C4 3020   1.123   3.611  17.590  0.0939  0.5227 -0.4795
  195MPD1    C5 3021   1.148   3.736  17.546  0.2814  0.2300  0.9124
  195MPD1     H 3022   1.186   3.669   0.164 -0.2383 -0.9050 -0.4882
  195MPD1    H1 3023   1.121   3.530  17.518  1.7299  1.5219 -1.6352
  195MPD1    H2 3024   1.200   3.937  17.597 -1.2900  0.7286  0.4407
  195MPD1    H3 3025   1.160   3.748  17.439 -0.5887  0.3502  0.8273
  195MPD1     N 3026   1.089   3.457   0.016  0.6569 -0.6695  0.2688
  195MPD1    H5 3027   1.081   3.392  17.694 -1.0447 -0.5142  0.3259
  195MPD1    N1 3028   1.224   3.924   0.090 -0.3391 -0.1575 -0.0836
  195MPD1    H6 3029   1.194   3.910   0.186 -1.4639 -3.1443 -0.8636
  195MPD1    H7 3030   1.206   4.017   0.053  1.0130 -0.2831 -1.0655
  196MPD1     C 3031   4.715   2.658   0.603 -0.0493  0.2284  0.6563
  196MPD1    C1 3032   0.111   2.666   0.630 -0.5993  0.3503  0.4087
  196MPD1    C2 3033   0.149   2.706   0.762  0.0008 -0.0529 -0.4112
  196MPD1    C3 3034   0.051   2.734   0.864 -0.6792 -0.3399 -0.4755
  196MPD1    C4 3035   4.667   2.704   0.829  0.0184 -0.1813  1.1963
  196MPD1    C5 3036   4.625   2.683   0.704  0.4889 -0.2059  0.2388
  196MPD1     H 3037   0.255   2.717   0.779 -0.3097  0.2808  1.3771
  196MPD1    H1 3038   4.584   2.731   0.893 -1.2204 -0.0896 -0.4328
  196MPD1    H2 3039   4.679   2.645   0.501  0.3256 -1.9337  0.8079
  196MPD1    H3 3040   4.519   2.669   0.686  0.5069  0.0255 -0.0416
  196MPD1     N 3041   0.071   2.769   0.998  0.0089  0.6385 -0.5900
  196MPD1    H5 3042   4.722   2.779   1.047  0.4805 -0.4248  0.4847
  196MPD1    N1 3043   0.208   2.682   0.526  0.6788  0.4872  0.6392
  196MPD1    H6 3044   0.301   2.644   0.542  0.5083  0.1000  0.7046
  196MPD1    H7 3045   0.161   2.641   0.445  0.2847 -2.2504  2.2734
  197MPD1     C 3046   4.414   4.343   0.269  0.1196 -0.6606  0.7761
  197MPD1    C1 3047   4.541   4.391   0.299  1.2360 -0.4907  0.5428
  197MPD1    C2 3048   4.612   4.474   0.210 -0.5659 -0.0185 -0.2482
  197MPD1    C3 3049   4.551   4.500   0.087  0.1095  0.3814 -0.8069
  197MPD1    C4 3050   4.423   4.452   0.059 -0.2458 -0.6684 -0.5850
  197MPD1    C5 3051   4.363   4.367   0.149 -0.4488  0.6924  0.6238
  197MPD1     H 3052   4.710   4.511   0.238 -0.4336  0.6718 -1.6419
  197MPD1    H1 3053   4.368   4.464  17.722 -2.1181 -1.5144  0.4156
  197MPD1    H2 3054   4.370   4.276   0.341 -0.5424 -0.2847  0.7250
  197MPD1    H3 3055   4.274   4.311   0.122 -0.0377  0.3651 -0.0463
  197MPD1     N 3056   4.614   4.572  17.737 -0.1400 -0.7340  0.9490
  197MPD1    H5 3057   4.568   4.585  17.647  0.7184 -0.9647  0.4721
  197MPD1    N1 3058   4.584   4.377   0.428 -0.0166  0.1135  0.4500
  197MPD1    H6 3059   4.552   4.288   0.465  4.0520 -0.6739  2.0908
  197MPD1    H7 3060   4.685   4.387   0.438  0.1356 -1.9752  1.0015
  198MPD1     C 3061   1.007   3.317  16.149  0.9794 -0.2454 -0.1239
  198MPD1    C1 3062   1.085   3.417  16.098 -0.0328  0.5120 -0.6020
  198MPD1    C2 3063   1.204   3.448  16.159 -0.1947 -0.1922  0.0069
  198MPD1    C3 3064   1.247   3.385  16.267 -0.2641 -0.8302  0.1192
  198MPD1    C4 3065   1.166   3.284  16.318 -0.4745 -0.0288  0.4188
  198MPD1    C5 3066   1.052   3.254  16.256 -0.3096  0.0967 -0.3108
  198MPD1     H 3067   1.283   3.515  16.128  0.5647 -0.5919  1.1063
  198MPD1    H1 3068   1.179   3.246  16.418  1.1168 -1.4613 -0.3189
  198MPD1    H2 3069   0.921   3.271  16.101 -1.7766  3.1738  1.4919
  198MPD1    H3 3070   0.991   3.174  16.297  0.8902 -0.8388 -0.3284
  198MPD1     N 3071   1.363   3.442  16.321  0.0923  0.1489  0.7208
  198MPD1    H5 3072   1.406   3.522  16.275 -3.2877  1.1054 -0.7567
  198MPD1    N1 3073   1.023   3.500  16.005 -0.1552 -0.2088 -0.1977
  198MPD1    H6 3074   0.949   3.449  15.956 -1.5251 -0.4288  2.0479
  198MPD1    H7 3075   0.977   3.576  16.054 -0.5658  0.0646 -1.0061
  199MPD1     C 3076   2.929   0.337  10.623 -0.0946 -0.3378  0.0544
  199MPD1    C1 3077   2.835   0.234  10.618 -1.2128 -0.4895 -0.2214
  199MPD1    C2 3078   2.819   0.157  10.506  0.9846 -0.4122  0.4167
  199MPD1    C3 3079   2.888   0.186  10.392 -0.5002  0.2012 -0.5648
  199MPD1    C4 3080   2.980   0.284  10.402 -0.2801 -0.2749  0.1451
  199MPD1    C5 3081   3.001   0.364  10.512 -0.3566  0.1303  0.2035
  199MPD1     H 3082   2.757   0.069  10.516 -0.2986  0.5514  1.0054
  199MPD1    H1 3083   3.035   0.311  10.313  1.0262 -0.3759  0.9279
  199MPD1    H2 3084   2.942   0.400  10.711 -0.8236 -0.2433  0.0909
  199MPD1    H3 3085   3.070   0.447  10.510  2.0996 -1.8849  0.9468
  199MPD1     N 3086   2.889   0.114  10.271 -0.2668 -0.1808  0.2449
  199MPD1    H5 3087   2.960   0.141  10.204  0.1986 -0.0768  0.7702
  199MPD1    N1 3088   2.769   0.191  10.732  0.3382  0.6095  0.1980
  199MPD1    H6 3089   2.747   0.248  10.813 -0.4351  0.5062  0.0550
  199MPD1    H7 3090   2.806   0.107  10.777  0.9800  1.8539  1.9924
  200MPD1     C 3091   2.230   4.348  15.331  0.4851  0.4181  0.0422
  200MPD1    C1 3092   2.194   4.315  15.205 -1.2411  0.8662  0.2523
  200MPD1    C2 3093   2.283   4.319  15.106 -0.1798  0.8363 -0.0469
  200MPD1    C3 3094   2.407   4.375  15.128  0.1076 -0.1023 -0.5651
  200MPD1    C4 3095   2.442   4.416  15.255 -0.5199 -0.0499 -0.0414
  200MPD1    C5 3096   2.351   4.408  15.352  0.1866  0.5150 -0.8034
  200MPD1     H 3097   2.260   4.289  15.004 -0.3186 -1.8959  0.7912
  200MPD1    H1 3098   2.534   4.467  15.283 -0.8385 -0.1480  1.1805
  200MPD1    H2 3099   2.161   4.324  15.412 -0.1637 -2.0030 -1.2239
  200MPD1    H3 3100   2.380   4.439  15.451  1.1672  1.2200 -1.3157
  200MPD1     N 3101   2.496   4.373  15.016  0.6272 -0.2998 -0.2731
  200MPD1    H5 3102   2.448   4.358  14.928  4.4248  0.3604 -2.4981
  200MPD1    N1 3103   2.060   4.283  15.174 -0.2113 -0.5405  0.0479
  200MPD1    H6 3104   2.050   4.220  15.095 -1.5700  3.4918 -3.0288
  200MPD1    H7 3105   2.007   4.243  15.251 -0.7401 -0.6946 -0.3935
  201MPD1     C 3106   4.140   3.686  13.459 -0.0192  0.5156 -0.6811
  201MPD1    C1 3107   4.176   3.639  13.332 -0.0581  0.4133  0.2181
  201MPD1    C2 3108   4.303   3.589  13.322 -0.3631  0.3312  0.3262
  201MPD1    C3 3109   4.398   3.585  13.425 -0.4313 -0.4268  0.0700
  201MPD1    C4 3110   4.362   3.642  13.542  0.3941  0.3599 -0.3850
  201MPD1    C5 3111   4.230   3.683  13.557 -0.8831 -0.5251 -0.4516
  201MPD1     H 3112   4.328   3.545  13.226 -0.6074 -0.5342  0.6555
  201MPD1    H1 3113   4.417   3.625  13.634  0.2807  0.6057 -0.2720
  201MPD1    H2 3114   4.035   3.704  13.480 -0.3258 -2.5239  0.3268
  201MPD1    H3 3115   4.185   3.704  13.654  0.8570  1.2647 -0.0257
  201MPD1     N 3116   4.522   3.526  13.392 -0.2688  0.8440  0.0678
  201MPD1    H5 3117   4.540   3.483  13.302 -0.6027  0.7393  0.0509
  201MPD1    N1 3118   4.086   3.602  13.238  0.6391  0.3856  0.2195
  201MPD1    H6 3119   4.007   3.665  13.223  0.3676 -0.4483 -1.8977
  201MPD1    H7 3120   4.125   3.583  13.146 -0.3537  3.9136 -0.9494
  202MPD1     C 3121   4.275   3.277   9.164 -0.3080 -0.2135  0.2941
  202MPD1    C1 3122   4.168   3.365   9.184 -0.1760  0.3886  0.0042
  202MPD1    C2 3123   4.154   3.413   9.315  0.4638  0.3573 -0.1332
  202MPD1    C3 3124   4.250   3.402   9.408  0.3741  0.3330 -0.1459
  202MPD1    C4 3125   4.362   3.328   9.378  0.1992  0.4042  0.3123
  202MPD1    C5 3126   4.370   3.261   9.260 -0.4600  0.5839  0.5167
  202MPD1     H 3127   4.068   3.474   9.338  1.4410  2.5217 -2.2357
  202MPD1    H1 3128   4.442   3.327   9.451 -0.7706 -0.4362  1.3638
  202MPD1    H2 3129   4.295   3.219   9.075  0.4993 -0.6250  0.7369
  202MPD1    H3 3130   4.456   3.197   9.243 -1.3589 -1.0142  1.8826
  202MPD1     N 3131   4.239   3.453   9.540 -0.1367 -0.8132 -0.0745
  202MPD1    H5 3132   4.313   3.410   9.595  0.4911  0.4069  0.0231
  202MPD1    N1 3133   4.053   3.353   9.115 -0.7063 -0.0987 -0.4228
  202MPD1    H6 3134   4.077   3.326   9.020 -1.1144  1.5225 -0.9878
  202MPD1    H7 3135   4.007   3.444   9.120  1.5295  1.0032  0.1793
  203MPD1     C 3136   2.814   4.245  12.343 -0.4011 -0.6989  0.5360
  203MPD1    C1 3137   2.756   4.132  12.278  0.4540  0.0337  0.1736
  203MPD1    C2 3138   2.803   4.000  12.306 -1.0832 -0.2878  0.3006
  203MPD1    C3 3139   2.877   3.978  12.418  0.1102  0.0013  0.0575
  203MPD1    C4 3140   2.909   4.086  12.496  0.7944  0.1796  0.0989
  203MPD1    C5 3141   2.873   4.214  12.460  0.1214 -0.2236 -0.5430
  203MPD1     H 3142   2.781   3.913  12.246  1.5390 -1.1899  0.6492
  203MPD1    H1 3143   2.983   4.075  12.574  0.1155  0.4748  0.7885
  203MPD1    H2 3144   2.796   4.346  12.310  0.2473 -0.6699  0.2730
  203MPD1    H3 3145   2.914   4.293  12.522 -1.2558 -0.3663  0.5421
  203MPD1     N 3146   2.924   3.846  12.441  0.0111 -0.7339 -0.5717
  203MPD1    H5 3147   2.895   3.762  12.391 -0.2856 -0.4677 -0.8481
  203MPD1    N1 3148   2.674   4.153  12.168 -0.6788  0.2004  0.1108
  203MPD1    H6 3149   2.614   4.073  12.148 -1.1045  0.4588  0.3678
  203MPD1    H7 3150   2.619   4.238  12.161 -2.9759 -1.4375 -2.1933
  204MPD1     C 3151   3.728   1.138  17.657 -0.4086 -0.1778 -0.5292
  204MPD1    C1 3152   3.697   1.064  17.549  0.3695  0.3303  0.5992
  204MPD1    C2 3153   3.713   0.930  17.570 -0.4654 -0.0074 -0.0083
  204MPD1    C3 3154   3.782   0.875  17.673 -0.7833  0.7583  0.0557
  204MPD1    C4 3155   3.816   0.952   0.019 -0.1522  0.2308 -0.5270
  204MPD1    C5 3156   3.782   1.083   0.012  0.0046 -0.5151 -0.3857
  204MPD1     H 3157   3.665   0.867  17.496 -0.5848 -0.4698  0.4669
  204MPD1    H1 3158   3.864   0.914   0.108 -1.2895  0.2391  0.0891
  204MPD1    H2 3159   3.690   1.239  17.660 -0.5918 -0.2838  0.6951
  204MPD1    H3 3160   3.803   1.147   0.097  0.1807 -1.6725  0.4495
  204MPD1     N 3161   3.801   0.736  17.669  0.1657  0.2011  0.3933
  204MPD1    H5 3162   3.771   0.688  17.585  0.6925  2.9054 -1.3607
  204MPD1    N1 3163   3.600   1.117  17.454 -0.4799  0.0585  1.0206
  204MPD1    H6 3164   3.608   1.070  17.364 -0.6383  1.6820  0.1579
  204MPD1    H7 3165   3.601   1.218  17.446  1.6154 -0.0577 -0.1671
  205MPD1     C 3166   2.918   4.580  16.984  0.3988  0.5148 -0.3696
  205MPD1    C1 3167   2.967   4.453  16.964  0.0768  0.0145  0.2746
  205MPD1    C2 3168   3.027   4.391  17.072  0.0775 -0.4152 -0.3791
  205MPD1    C3 3169   3.050   4.461  17.192  0.4086  0.0639 -0.2400
  205MPD1    C4 3170   3.001   4.590  17.212  0.6576  0.8397 -0.1302
  205MPD1    C5 3171   2.934   4.642  17.107 -0.0182  0.2857  0.4129
  205MPD1     H 3172   3.058   4.288  17.056  0.9764 -0.1498 -0.3808
  205MPD1    H1 3173   3.030   4.646  17.300  0.3741 -0.2284  0.6496
  205MPD1    H2 3174   2.864   4.636  16.908 -0.7267 -1.2253 -0.8391
  205MPD1    H3 3175   2.887   4.737  17.130 -0.0403  0.3905 -0.0595
  205MPD1     N 3176   3.138   4.408  17.293 -0.0847  0.0722  0.0462
  205MPD1    H5 3177   3.157   4.471  17.370  0.5533  2.5642 -2.1274
  205MPD1    N1 3178   2.933   4.391  16.842  0.7052 -0.5902 -0.3131
  205MPD1    H6 3179   2.943   4.459  16.766 -0.9187  0.6009  0.5328
  205MPD1    H7 3180   2.993   4.313  16.817 -1.0637 -2.1893  0.4726
  206MPD1     C 3181   2.622   1.508  17.167 -0.3918  0.2034  0.5496
  206MPD1    C1 3182   2.643   1.404  17.075 -0.0643  0.1775  0.3918
  206MPD1    C2 3183   2.702   1.438  16.956 -0.2963  0.0460 -0.7498
  206MPD1    C3 3184   2.714   1.570  16.921 -0.5962 -0.4413  0.2746
  206MPD1    C4 3185   2.666   1.665  17.005 -0.4641  0.6317 -0.0773
  206MPD1    C5 3186   2.631   1.636  17.131  0.7743 -0.2158 -0.0202
  206MPD1     H 3187   2.737   1.358  16.893 -1.3062  0.7631 -2.2374
  206MPD1    H1 3188   2.667   1.769  16.976  0.0766  0.4182 -0.8164
  206MPD1    H2 3189   2.596   1.487  17.270  1.4073  0.0359  0.9757
  206MPD1    H3 3190   2.612   1.721  17.195 -1.1597  0.6636 -1.7621
  206MPD1     N 3191   2.758   1.603  16.788  0.6683  0.0617  0.1500
  206MPD1    H5 3192   2.768   1.702  16.765  0.8881  0.2062  0.8491
  206MPD1    N1 3193   2.650   1.265  17.117  0.3376  0.4584  0.7644
  206MPD1    H6 3194   2.623   1.198  17.045 -0.9210 -0.2079  1.8735
  206MPD1    H7 3195   2.582   1.257  17.192  0.7805 -0.6736  1.0480
  207MPD1     C 3196   0.614   4.157   9.432 -0.1216  0.5326 -0.0893
  207MPD1    C1 3197   0.598   4.289   9.396  0.0061 -1.2987 -0.2869
  207MPD1    C2 3198   0.631   4.384   9.494  0.2763 -0.5403 -0.5128
  207MPD1    C3 3199   0.673   4.346   9.619  0.4630  0.0817 -0.8818
  207MPD1    C4 3200   0.665   4.213   9.650 -0.3521  0.2029 -0.5229
  207MPD1    C5 3201   0.645   4.115   9.558  0.1325  0.0337  0.2650
  207MPD1     H 3202   0.649   4.488   9.470 -2.0690 -0.4321 -1.8323
  207MPD1    H1 3203   0.678   4.180   9.753 -1.1702  1.7869  0.0872
  207MPD1    H2 3204   0.594   4.074   9.364 -0.6516 -0.6931  1.5656
  207MPD1    H3 3205   0.632   4.011   9.585  0.4154  0.2095  1.0692
  207MPD1     N 3206   0.690   4.440   9.725 -0.2048  0.0294 -0.2788
  207MPD1    H5 3207   0.684   4.401   9.818  0.2109  0.2654 -0.1531
  207MPD1    N1 3208   0.584   4.327   9.263 -0.1210  0.1329 -0.1715
  207MPD1    H6 3209   0.560   4.425   9.249 -0.5439  0.2603  1.3809
  207MPD1    H7 3210   0.502   4.275   9.234 -1.0902  1.5400  0.0207
  208MPD1     C 3211   0.193   3.720  17.608 -0.5977 -0.1330 -0.8339
  208MPD1    C1 3212   0.185   3.621  17.709 -0.6451 -0.3700  0.1092
  208MPD1    C2 3213   0.062   3.601   0.015 -0.4683  0.5351 -0.0407
  208MPD1    C3 3214   4.689   3.673  17.733 -0.5331  0.1971 -0.0885
  208MPD1    C4 3215   4.697   3.753  17.620  0.1656 -0.1134 -0.2284
  208MPD1    C5 3216   0.078   3.773  17.568 -0.4002  0.6631  0.4569
  208MPD1     H 3217   0.058   3.539   0.104  1.2030 -0.1188 -0.4247
  208MPD1    H1 3218   4.621   3.829  17.605  0.4337  0.6966  2.5195
  208MPD1    H2 3219   0.291   3.739  17.566 -0.0290 -0.5411  0.2964
  208MPD1    H3 3220   0.078   3.846  17.488  0.8195 -2.0082 -2.0289
  208MPD1     N 3221   4.572   3.655   0.048 -0.0822  0.1234  0.6089
  208MPD1    H5 3222   4.579   3.593   0.129  3.4070  0.0846  0.2648
  208MPD1    N1 3223   0.306   3.557  17.746  0.7730 -0.5249 -0.1086
  208MPD1    H6 3224   0.297   3.464   0.030  3.2058 -0.5392  0.4141
  208MPD1    H7 3225   0.371   3.552  17.668  2.3336 -0.6818  1.2030
  209MPD1     C 3226   0.691   4.001  11.573  0.4608 -0.0860  0.2977
  209MPD1    C1 3227   0.751   4.121  11.606 -0.2636  0.6020 -0.0882
  209MPD1    C2 3228   0.814   4.197  11.507 -0.0092 -0.0604 -0.7508
  209MPD1    C3 3229   0.793   4.165  11.370  0.4328 -0.2735 -0.1712
  209MPD1    C4 3230   0.727   4.049  11.341  0.8247  0.9279 -0.2062
  209MPD1    C5 3231   0.685   3.968  11.445 -0.2885  0.0286 -0.0764
  209MPD1     H 3232   0.859   4.293  11.531 -1.9422  0.6460  0.0400
  209MPD1    H1 3233   0.695   4.019  11.242 -1.5506 -0.6142  1.0113
  209MPD1    H2 3234   0.637   3.936  11.640  4.0838 -2.5657  0.7508
  209MPD1    H3 3235   0.633   3.877  11.416 -0.9584  0.3692  0.0611
  209MPD1     N 3236   0.839   4.263  11.277  0.0632  0.1724 -0.0678
  209MPD1    H5 3237   0.896   4.343  11.304  0.5210 -0.6722  1.4633
  209MPD1    N1 3238   0.761   4.154  11.745  0.3016  0.0414 -0.5467
  209MPD1    H6 3239   0.674   4.121  11.787  1.1024 -2.6862 -0.9826
  209MPD1    H7 3240   0.772   4.253  11.764  3.3448 -0.4263  0.0660
  210MPD1     C 3241   1.690   4.346  11.110  0.4530  0.3477  0.3746
  210MPD1    C1 3242   1.642   4.473  11.087  0.4134 -0.1787 -0.1570
  210MPD1    C2 3243   1.505   4.492  11.076  0.5224  0.5585 -0.0499
  210MPD1    C3 3244   1.414   4.390  11.100 -0.0200 -0.0515 -0.2080
  210MPD1    C4 3245   1.465   4.263  11.139  0.3473  0.3039  0.1030
  210MPD1    C5 3246   1.603   4.245  11.139  0.5638 -0.0719 -0.3146
  210MPD1     H 3247   1.459   4.587  11.050 -1.9896 -0.2481  1.3957
  210MPD1    H1 3248   1.406   4.176  11.164  3.4429 -2.1720 -1.2364
  210MPD1    H2 3249   1.796   4.322  11.119  0.8709  2.2546  0.5205
  210MPD1    H3 3250   1.651   4.152  11.168 -2.6527 -1.5469  0.2325
  210MPD1     N 3251   1.271   4.402  11.078 -0.1421 -0.0977  0.4962
  210MPD1    H5 3252   1.215   4.322  11.107 -0.3123 -0.7975 -1.7905
  210MPD1    N1 3253   1.724   4.585  11.064 -0.7732  0.2718 -0.1563
  210MPD1    H6 3254   1.803   4.594  11.127  0.6390  0.2596 -1.9187
  210MPD1    H7 3255   1.672   4.671  11.078  0.9486  1.0305  1.5185
  211MPD1     C 3256   3.592   3.518  17.276 -0.4487  0.2018  0.8542
  211MPD1    C1 3257   3.461   3.540  17.234  0.5938 -0.4833  0.1850
  211MPD1    C2 3258   3.430   3.667  17.186  0.5424  0.7681  0.1239
  211MPD1    C3 3259   3.527   3.769  17.190  0.3888  0.1629 -0.8053
  211MPD1    C4 3260   3.656   3.744  17.232  0.2136  0.3461 -0.4119
  211MPD1    C5 3261   3.688   3.613  17.270  0.1065 -0.7613  0.3385
  211MPD1     H 3262   3.331   3.690  17.148 -0.3333 -2.6542  0.3318
  211MPD1    H1 3263   3.729   3.821  17.209  2.0582 -1.1674  0.3917
  211MPD1    H2 3264   3.633   3.424  17.312 -0.0853  0.0806  0.1374
  211MPD1    H3 3265   3.792   3.591  17.289  0.4585 -0.6110 -1.3607
  211MPD1     N 3266   3.481   3.893  17.130 -0.4601 -0.2390  0.2282
  211MPD1    H5 3267   3.381   3.898  17.115 -0.4218  0.9391  0.3735
  211MPD1    N1 3268   3.369   3.435  17.228  0.1035  0.7031 -0.0991
  211MPD1    H6 3269   3.271   3.458  17.240  0.0538  0.9583 -0.9474
  211MPD1    H7 3270   3.391   3.347  17.273 -0.7295  1.1174  1.1192
  212MPD1     C 3271   2.611   2.134  16.569 -0.3394  0.2130 -0.0479
  212MPD1    C1 3272   2.587   2.030  16.481 -0.0448  0.1759 -0.1200
  212MPD1    C2 3273   2.543   1.911  16.525 -0.9102  0.2724 -0.3476
  212MPD1    C3 3274   2.536   1.879  16.656 -0.5539 -0.2975 -0.5358
  212MPD1    C4 3275   2.573   1.974  16.747 -0.4421  0.1823  0.4283
  212MPD1    C5 3276   2.610   2.098  16.699 -0.1250 -0.1722 -0.7107
  212MPD1     H 3277   2.507   1.836  16.455 -1.0658  0.9080 -0.9441
  212MPD1    H1 3278   2.583   1.956  16.853 -0.6519 -0.9968  0.2460
  212MPD1    H2 3279   2.637   2.235  16.538  1.1147 -0.0906  0.1767
  212MPD1    H3 3280   2.630   2.167  16.779 -1.7620  1.9210 -2.0928
  212MPD1     N 3281   2.471   1.763  16.702  0.1638 -0.1367 -0.1126
  212MPD1    H5 3282   2.449   1.761  16.801  0.0327 -0.1287 -0.1418
  212MPD1    N1 3283   2.575   2.060  16.343 -0.0154 -0.3562 -0.2486
  212MPD1    H6 3284   2.634   2.140  16.322 -0.2182  0.2871  1.6729
  212MPD1    H7 3285   2.594   1.982  16.280  1.4394  0.1441 -0.4417
  213MPD1     C 3286   1.251   2.337  15.995  0.5611  0.1320 -0.1049
  213MPD1    C1 3287   1.120   2.310  16.021 -0.8361 -0.6893  0.2006
  213MPD1    C2 3288   1.032   2.373  15.941  0.1167 -1.0562  0.1506
  213MPD1    C3 3289   1.068   2.425  15.817 -0.0627  0.1052 -0.2530
  213MPD1    C4 3290   1.203   2.421  15.774 -0.1476 -0.2150 -0.9394
  213MPD1    C5 3291   1.289   2.389  15.878  0.3395  0.4806 -0.3149
  213MPD1     H 3292   0.923   2.369  15.945  0.2900 -3.7702  2.1463
  213MPD1    H1 3293   1.240   2.471  15.685  0.5420  0.9486  0.0066
  213MPD1    H2 3294   1.313   2.338  16.083  0.8250  0.6337 -0.2970
  213MPD1    H3 3295   1.391   2.424  15.864  0.7406 -0.8162 -0.6465
  213MPD1     N 3296   0.962   2.472  15.736  0.6831  0.2551 -0.2507
  213MPD1    H5 3297   0.868   2.453  15.771  0.4790  0.4634 -0.6789
  213MPD1    N1 3298   1.102   2.293  16.160  0.3678  0.3751  0.0942
  213MPD1    H6 3299   1.014   2.243  16.174  0.5019  1.1717  3.7217
  213MPD1    H7 3300   1.173   2.228  16.192 -0.2164  0.5712  1.8097
  214MPD1     C 3301   0.207   2.064  15.557 -0.2834  0.4235 -0.0513
  214MPD1    C1 3302   0.173   2.193  15.566  0.5305  0.2655  0.7330
  214MPD1    C2 3303   0.278   2.285  15.571 -0.4739  0.6108  1.1599
  214MPD1    C3 3304   0.407   2.245  15.595 -0.0793  0.2030  0.1011
  214MPD1    C4 3305   0.437   2.112  15.604  0.3380 -0.2824  0.9830
  214MPD1    C5 3306   0.337   2.020  15.579 -1.0424 -0.4215  0.4308
  214MPD1     H 3307   0.245   2.388  15.572  1.8143  1.3035  3.3760
  214MPD1    H1 3308   0.540   2.083  15.624  0.4360 -1.7344 -1.5872
  214MPD1    H2 3309   0.134   1.986  15.544 -3.2049  3.3110 -0.9279
  214MPD1    H3 3310   0.355   1.914  15.587  1.1473 -0.1711 -1.4363
  214MPD1     N 3311   0.516   2.337  15.595  0.3962  0.5713  0.3363
  214MPD1    H5 3312   0.604   2.296  15.624  0.6457  0.3391 -0.7343
  214MPD1    N1 3313   0.041   2.223  15.539  0.0607  0.2298  0.1314
  214MPD1    H6 3314   4.718   2.148  15.567  1.3028 -0.1697  1.8493
  214MPD1    H7 3315   0.015   2.311  15.582 -1.9131  0.7079 -2.0541
  215MPD1     C 3316   0.032   3.724  11.360 -0.4592  0.5863  0.1320
  215MPD1    C1 3317   0.018   3.789  11.480 -0.3765  0.2486  0.3658
  215MPD1    C2 3318   0.103   3.891  11.506  0.0501 -0.0799 -0.4347
  215MPD1    C3 3319   0.181   3.950  11.413 -0.1506  0.2870 -0.4283
  215MPD1    C4 3320   0.191   3.893  11.291 -0.4489 -0.2476 -0.4342
  215MPD1    C5 3321   0.112   3.779  11.265 -0.7700 -0.3749 -0.4603
  215MPD1     H 3322   0.107   3.927  11.609 -0.3699 -1.5954  0.1171
  215MPD1    H1 3323   0.240   3.938  11.206 -1.8276  0.9207 -0.6272
  215MPD1    H2 3324   4.725   3.630  11.335  0.9765 -0.2519  0.6477
  215MPD1    H3 3325   0.122   3.739  11.165  0.0776 -0.8452 -0.1894
  215MPD1     N 3326   0.258   4.063  11.452  0.3634 -0.0097 -0.1040
  215MPD1    H5 3327   0.262   4.088  11.550  1.2623  0.3724 -0.2463
  215MPD1    N1 3328   4.667   3.732  11.579  0.5137  0.3621 -0.2057
  215MPD1    H6 3329   4.655   3.778  11.669 -0.1062  0.7250 -0.4723
  215MPD1    H7 3330   4.582   3.685  11.547 -0.1864  1.0078  0.6840
  216MPD1     C 3331   2.733   1.146  17.477 -0.1488 -0.1411  0.1470
  216MPD1    C1 3332   2.692   1.018  17.515 -0.4847 -0.1095  0.3831
  216MPD1    C2 3333   2.759   0.964  17.625  0.8017 -0.1093  0.5692
  216MPD1    C3 3334   2.831   1.052  17.706 -0.8554  0.9335  0.0579
  216MPD1    C4 3335   2.853   1.183  17.674  0.3829  0.0710 -0.1567
  216MPD1    C5 3336   2.810   1.222  17.555 -0.2766 -0.4651  0.2338
  216MPD1     H 3337   2.741   0.860  17.646  1.0065 -0.8077 -2.8056
  216MPD1    H1 3338   2.917   1.243  17.737  0.2882 -0.3659  0.3542
  216MPD1    H2 3339   2.710   1.189  17.381 -2.0649  1.6537  1.3947
  216MPD1    H3 3340   2.833   1.318  17.511  0.3508  0.0748  1.7723
  216MPD1     N 3341   2.895   0.994   0.063  0.2918  0.4406 -0.6688
  216MPD1    H5 3342   2.888   0.894   0.077 -0.4028  0.6577  0.5532
  216MPD1    N1 3343   2.618   0.936  17.428 -0.0048  0.0552 -0.3589
  216MPD1    H6 3344   2.591   0.841  17.453  2.0934 -0.2363  0.7436
  216MPD1    H7 3345   2.549   0.976  17.365 -0.9757 -0.7512  0.1856
  217MPD1     C 3346   2.763   3.795   8.612 -0.3250 -0.3569  0.3759
  217MPD1    C1 3347   2.890   3.792   8.658 -0.3958  0.6030  0.1474
  217MPD1    C2 3348   2.930   3.696   8.749 -0.0348  0.2795  0.6448
  217MPD1    C3 3349   2.838   3.595   8.791  0.2799  0.5738  0.2056
  217MPD1    C4 3350   2.708   3.597   8.746 -0.3169  0.3953 -0.0058
  217MPD1    C5 3351   2.679   3.701   8.658  0.0841 -0.0423 -0.0257
  217MPD1     H 3352   3.032   3.705   8.784  0.1278  0.7979  0.0349
  217MPD1    H1 3353   2.638   3.520   8.777  1.7915 -0.8913  1.5499
  217MPD1    H2 3354   2.719   3.866   8.543 -1.9768 -0.8768  0.8841
  217MPD1    H3 3355   2.577   3.711   8.622  0.1721  0.8699 -0.0169
  217MPD1     N 3356   2.869   3.490   8.880 -0.0426  0.3569  0.3298
  217MPD1    H5 3357   2.797   3.419   8.888  2.3071 -1.7737  2.2716
  217MPD1    N1 3358   2.987   3.866   8.594  0.0055 -0.4871  0.1469
  217MPD1    H6 3359   3.071   3.885   8.648 -1.6198  3.0138  1.4436
  217MPD1    H7 3360   2.948   3.947   8.546 -0.2975 -0.9473 -0.3777
  218MPD1     C 3361   4.488   4.110  13.475  0.5502 -0.0633  0.0824
  218MPD1    C1 3362   4.572   4.001  13.502 -0.6651 -0.4408 -0.3150
  218MPD1    C2 3363   4.693   3.993  13.426 -0.4044 -0.3980 -0.0335
  218MPD1    C3 3364   4.721   4.082  13.320  0.0917 -0.3276 -0.5550
  218MPD1    C4 3365   4.636   4.194  13.307  0.0131  0.1177 -0.0408
  218MPD1    C5 3366   4.525   4.206  13.385 -0.9562  0.1876  0.0277
  218MPD1     H 3367   0.020   3.909  13.446  0.6809  1.2600  3.2845
  218MPD1    H1 3368   4.645   4.270  13.230  0.0432 -0.8998 -1.0417
  218MPD1    H2 3369   4.395   4.135  13.525 -1.2977 -1.5812 -2.6104
  218MPD1    H3 3370   4.463   4.294  13.392 -0.4527  0.6746 -1.4778
  218MPD1     N 3371   0.076   4.053  13.216  0.0335 -0.2249  0.0620
  218MPD1    H5 3372   0.112   3.958  13.222 -0.1074 -0.2688  0.2078
  218MPD1    N1 3373   4.552   3.911  13.609 -0.0591  0.4776 -0.8042
  218MPD1    H6 3374   4.602   3.823  13.601  1.3091  1.3145 -1.6714
  218MPD1    H7 3375   4.455   3.881  13.610  0.3763 -0.8950  0.3472
  219MPD1     C 3376   0.065   4.110  12.186  0.6439 -0.9238 -0.5967
  219MPD1    C1 3377   0.182   4.145  12.241 -0.1221  0.5439  0.1100
  219MPD1    C2 3378   0.195   4.129  12.371 -0.3864 -0.0091  0.0519
  219MPD1    C3 3379   0.095   4.069  12.444  0.2815  0.4282  0.3540
  219MPD1    C4 3380   4.721   4.013  12.384  0.5345 -0.0898  0.1594
  219MPD1    C5 3381   4.709   4.038  12.249 -0.2234  0.1224  0.0583
  219MPD1     H 3382   0.288   4.159  12.417  0.3340 -1.0342 -0.7390
  219MPD1    H1 3383   4.654   3.948  12.439  2.7728 -2.3752  0.1321
  219MPD1    H2 3384   0.053   4.119  12.078  0.6477  0.3512 -0.4987
  219MPD1    H3 3385   4.628   4.005  12.185 -1.3610  0.2502  1.4145
  219MPD1     N 3386   0.110   4.035  12.582 -0.3618 -0.6565  0.4368
  219MPD1    H5 3387   0.047   3.962  12.613  2.4216 -3.0473  0.4599
  219MPD1    N1 3388   0.275   4.226  12.169  0.0441 -1.0303 -0.2253
  219MPD1    H6 3389   0.374   4.236  12.193 -0.3990 -2.0632  2.0018
  219MPD1    H7 3390   0.266   4.211  12.068 -2.0272 -1.6290  0.0597
  220MPD1     C 3391   0.083   0.724  10.257 -0.1701 -0.2727  0.1158
  220MPD1    C1 3392   0.165   0.703  10.368  0.2772  0.2402  0.2376
  220MPD1    C2 3393   0.164   0.576  10.427 -0.1038  0.8596  0.6163
  220MPD1    C3 3394   0.107   0.466  10.364  0.9522 -0.1770  0.5809
  220MPD1    C4 3395   0.037   0.488  10.246 -0.3788  0.7390 -0.5637
  220MPD1    C5 3396   0.022   0.612  10.195 -0.8403  0.0044  0.5100
  220MPD1     H 3397   0.218   0.559  10.519  0.4698  0.0605  0.1298
  220MPD1    H1 3398   4.737   0.407  10.185  1.6994  1.1154 -2.4357
  220MPD1    H2 3399   0.082   0.821  10.207 -1.8927 -0.3765 -0.0302
  220MPD1    H3 3400   4.697   0.627  10.109  0.0918 -0.1977 -0.2267
  220MPD1     N 3401   0.144   0.340  10.418 -0.1185 -0.6488  0.8099
  220MPD1    H5 3402   0.189   0.339  10.509 -1.0277 -1.8359  1.2576
  220MPD1    N1 3403   0.232   0.809  10.427 -0.1131 -0.4360  0.0270
  220MPD1    H6 3404   0.308   0.775  10.486 -1.1415 -1.3070  0.8506
  220MPD1    H7 3405   0.262   0.879  10.359 -1.9551 -0.3320 -0.6615
  221MPD1     C 3406   2.706   3.507  16.472  0.3230  0.0512 -0.8193
  221MPD1    C1 3407   2.694   3.371  16.451  0.1535  0.2348 -0.8876
  221MPD1    C2 3408   2.786   3.286  16.515 -0.4971 -0.5353  0.5255
  221MPD1    C3 3409   2.906   3.337  16.562  0.1367  0.5200  0.0227
  221MPD1    C4 3410   2.916   3.473  16.574  0.0213 -0.1585  0.2750
  221MPD1    C5 3411   2.819   3.556  16.524  0.0188 -0.2238  0.3108
  221MPD1     H 3412   2.774   3.178  16.510 -0.1761 -0.4233 -2.2290
  221MPD1    H1 3413   3.005   3.523  16.610  0.5931 -2.5440  2.1816
  221MPD1    H2 3414   2.626   3.579  16.458 -1.1591 -1.2548  1.0051
  221MPD1    H3 3415   2.830   3.664  16.523  0.6435 -0.3050 -1.4511
  221MPD1     N 3416   3.013   3.256  16.606  0.3118 -0.7938  0.0893
  221MPD1    H5 3417   3.087   3.311  16.649 -2.1399  0.3216  2.9098
  221MPD1    N1 3418   2.573   3.329  16.397  0.1540 -0.5001 -0.1876
  221MPD1    H6 3419   2.536   3.374  16.313  1.1497  1.0984  0.2115
  221MPD1    H7 3420   2.580   3.233  16.366 -2.8048 -1.0426  0.8612
  222MPD1     C 3421   1.230   1.985  17.454 -1.0077 -0.3114  0.7195
  222MPD1    C1 3422   1.163   1.926  17.558  0.7447 -0.4891  0.3547
  222MPD1    C2 3423   1.212   1.947  17.687  0.1617  0.3698  0.1135
  222MPD1    C3 3424   1.316   2.036  17.708 -0.0327  0.8767  0.0894
  222MPD1    C4 3425   1.390   2.091  17.604 -0.1189 -0.2814 -0.3303
  222MPD1    C5 3426   1.335   2.074  17.476 -0.0893  0.2194 -0.0360
  222MPD1     H 3427   1.169   1.905   0.021 -3.5584  1.4924 -1.1604
  222MPD1    H1 3428   1.488   2.136  17.617  0.2756 -1.0580 -0.6401
  222MPD1    H2 3429   1.192   1.988  17.352 -0.5971 -1.8216  0.5214
  222MPD1    H3 3430   1.375   2.107  17.381 -0.7535 -0.3321 -0.5108
  222MPD1     N 3431   1.359   2.068   0.081  0.1576 -0.4978  0.2833
  222MPD1    H5 3432   1.452   2.109   0.083 -0.2291  0.3571  0.4889
  222MPD1    N1 3433   1.073   1.820  17.533 -0.6205 -0.6090  0.0131
  222MPD1    H6 3434   1.036   1.840  17.440  1.8798  2.4746 -0.3214
  222MPD1    H7 3435   0.990   1.819  17.593 -1.6507  0.5428 -1.4032
  223MPD1     C 3436   1.237   1.860   1.157  0.4905  0.5676  0.1701
  223MPD1    C1 3437   1.323   1.972   1.151 -0.5082 -0.0311 -0.2809
  223MPD1    C2 3438   1.356   2.018   1.022  0.4980 -0.2350 -0.1109
  223MPD1    C3 3439   1.304   1.952   0.914 -0.4204  0.0325 -0.3135
  223MPD1    C4 3440   1.212   1.855   0.925 -0.0055  0.9156 -0.0556
  223MPD1    C5 3441   1.178   1.804   1.049 -0.4556  0.6691 -0.5349
  223MPD1     H 3442   1.437   2.091   1.025  0.7735 -0.5501  0.1546
  223MPD1    H1 3443   1.180   1.806   0.833 -0.1531 -0.0760  0.5258
  223MPD1    H2 3444   1.218   1.810   1.251 -0.4226 -0.6774 -0.6714
  223MPD1    H3 3445   1.110   1.723   1.072 -0.9484  0.7865 -1.5714
  223MPD1     N 3446   1.351   1.998   0.784  0.5157  1.0604  0.3655
  223MPD1    H5 3447   1.424   2.068   0.783 -0.9048  2.5084 -0.6772
  223MPD1    N1 3448   1.398   2.014   1.263 -0.5601  0.2339  0.0267
  223MPD1    H6 3449   1.418   2.113   1.253 -0.6333 -0.0443 -2.8376
  223MPD1    H7 3450   1.352   2.006   1.353 -0.0832 -0.0122  0.2482
  224MPD1     C 3451   2.478   3.373   9.821  0.2232  0.1781 -0.3249
  224MPD1    C1 3452   2.578   3.385   9.729 -0.4740 -0.3709 -0.5586
  224MPD1    C2 3453   2.677   3.484   9.747 -0.0124  0.2332  0.2215
  224MPD1    C3 3454   2.687   3.558   9.864 -0.1342  0.5386  0.4779
  224MPD1    C4 3455   2.585   3.535   9.956 -0.3241 -0.0696 -0.1703
  224MPD1    C5 3456   2.480   3.453   9.932  0.3369 -0.2996  0.6560
  224MPD1     H 3457   2.756   3.494   9.674  1.2577  0.0837  1.5859
  224MPD1    H1 3458   2.594   3.580  10.054  0.6762 -2.0667  0.6386
  224MPD1    H2 3459   2.397   3.302   9.810  0.4865 -0.1355 -0.2421
  224MPD1    H3 3460   2.406   3.433  10.009 -2.8535  2.2771 -1.7641
  224MPD1     N 3461   2.792   3.642   9.897 -0.5481  0.0771  0.0256
  224MPD1    H5 3462   2.784   3.696   9.983  1.7660 -1.0207  0.9231
  224MPD1    N1 3463   2.570   3.318   9.604 -1.2518  0.2612  0.3519
  224MPD1    H6 3464   2.526   3.226   9.613  0.1242 -0.2728  1.7056
  224MPD1    H7 3465   2.663   3.309   9.564 -2.6383 -3.4917 -2.0030
  225MPD1     C 3466   0.188   0.279  12.461  1.0820 -1.0826  0.4034
  225MPD1    C1 3467   0.132   0.193  12.365  0.3008 -0.8894 -0.8768
  225MPD1    C2 3468   0.036   0.105  12.408  1.1374  0.5822  1.0169
  225MPD1    C3 3469   4.725   0.110  12.539  0.1050 -0.4193  1.1119
  225MPD1    C4 3470   0.036   0.200  12.627  0.1527  0.1191 -0.3666
  225MPD1    C5 3471   0.145   0.272  12.593  0.8133  0.2144 -0.6704
  225MPD1     H 3472   0.008   0.027  12.338 -0.1017 -0.1577  2.3347
  225MPD1    H1 3473   0.019   0.198  12.734  0.2418 -2.1547 -0.3885
  225MPD1    H2 3474   0.263   0.350  12.427 -0.2182  0.3699  0.5433
  225MPD1    H3 3475   0.203   0.314  12.674 -1.2258 -0.0519  0.8993
  225MPD1     N 3476   4.627   0.018  12.583 -0.3278 -0.0142  0.5064
  225MPD1    H5 3477   4.600   0.012  12.681  0.1250 -2.4360  0.4838
  225MPD1    N1 3478   0.193   0.170  12.239  0.1782  0.3191  0.9611
  225MPD1    H6 3479   0.122   0.155  12.167 -0.1423 -0.0729  1.3519
  225MPD1    H7 3480   0.229   0.260  12.208  1.4623 -0.3586  0.5135
  226MPD1     C 3481   1.682   3.578  10.705 -0.2521 -0.3423  1.0734
  226MPD1    C1 3482   1.784   3.624  10.785  0.0074  0.1034  0.5313
  226MPD1    C2 3483   1.897   3.679  10.720 -0.3924  0.0838 -0.4354
  226MPD1    C3 3484   1.903   3.685  10.585 -0.4817  0.3075 -0.9306
  226MPD1    C4 3485   1.798   3.630  10.502 -0.3307  0.5933 -0.0097
  226MPD1    C5 3486   1.692   3.574  10.568  0.0783  0.4945  0.1089
  226MPD1     H 3487   1.983   3.710  10.779 -0.4733 -0.0731 -0.2365
  226MPD1    H1 3488   1.804   3.622  10.394 -0.8133 -0.4501  0.0461
  226MPD1    H2 3489   1.600   3.530  10.757 -2.3316  0.8033 -1.1392
  226MPD1    H3 3490   1.617   3.521  10.510 -0.4855  0.2936  1.0106
  226MPD1     N 3491   2.026   3.729  10.526 -0.0234 -0.4517 -0.6969
  226MPD1    H5 3492   2.096   3.744  10.599 -0.1764 -2.2858 -0.1671
  226MPD1    N1 3493   1.771   3.608  10.924  0.1006  0.2489  0.1847
  226MPD1    H6 3494   1.823   3.679  10.974  2.0333 -0.7425 -0.3931
  226MPD1    H7 3495   1.676   3.604  10.961 -0.3132 -2.8836 -1.2159
  227MPD1     C 3496   2.367   4.227  11.013  0.3331 -0.1652  0.2855
  227MPD1    C1 3497   2.387   4.093  11.026 -0.0103  0.0183 -0.9947
  227MPD1    C2 3498   2.391   4.018  10.906  0.0012  0.4204  0.5680
  227MPD1    C3 3499   2.380   4.072  10.785  1.0896  0.0627 -0.3325
  227MPD1    C4 3500   2.364   4.206  10.780  0.0836 -0.6581  0.2296
  227MPD1    C5 3501   2.356   4.289  10.891  0.6000  0.8298 -0.9284
  227MPD1     H 3502   2.414   3.912  10.913  2.2206  0.7134 -2.5280
  227MPD1    H1 3503   2.343   4.260  10.688 -2.0506 -1.1521  0.4390
  227MPD1    H2 3504   2.354   4.289  11.101 -2.7596 -0.3884  0.0097
  227MPD1    H3 3505   2.333   4.395  10.882  0.4686  1.1268  2.7077
  227MPD1     N 3506   2.392   3.988  10.670  0.2186  0.0678  0.4057
  227MPD1    H5 3507   2.397   3.889  10.693 -4.2009 -0.1075  0.6455
  227MPD1    N1 3508   2.373   4.033  11.153  0.6331 -0.6863 -0.2933
  227MPD1    H6 3509   2.436   3.954  11.156 -0.3180 -1.3588  1.7008
  227MPD1    H7 3510   2.417   4.093  11.223  0.3987  1.4789 -1.9835
  228MPD1     C 3511   1.664   3.234  12.815  0.1311  0.2204 -0.1202
  228MPD1    C1 3512   1.532   3.233  12.766  0.0715  1.0279  0.3961
  228MPD1    C2 3513   1.450   3.134  12.814  0.0500 -0.3950  0.2181
  228MPD1    C3 3514   1.486   3.029  12.891  0.1325 -0.6785 -0.4399
  228MPD1    C4 3515   1.619   3.027  12.935  0.1434  0.0237 -0.4936
  228MPD1    C5 3516   1.701   3.131  12.900 -0.0531  0.1395 -0.0867
  228MPD1     H 3517   1.346   3.147  12.786  0.9480  2.3234 -1.7740
  228MPD1    H1 3518   1.654   2.951  13.004 -1.8180 -0.5580 -0.1196
  228MPD1    H2 3519   1.728   3.319  12.796 -0.3886  0.5060 -0.6005
  228MPD1    H3 3520   1.796   3.132  12.952 -0.2474  0.6053  0.2606
  228MPD1     N 3521   1.387   2.936  12.937 -0.7126  0.5332 -0.0456
  228MPD1    H5 3522   1.294   2.940  12.896 -0.3466 -0.6255 -0.9718
  228MPD1    N1 3523   1.486   3.342  12.687 -0.0428  0.0692 -0.4289
  228MPD1    H6 3524   1.403   3.324  12.632 -1.2980 -1.1804  1.9224
  228MPD1    H7 3525   1.562   3.372  12.625 -0.0782  1.3443  0.1413
  229MPD1     C 3526   1.314   1.273  14.693 -0.3537 -0.4796  0.7098
  229MPD1    C1 3527   1.434   1.316  14.755 -0.2368 -0.1500 -0.4925
  229MPD1    C2 3528   1.471   1.246  14.873 -0.4144  0.3522 -0.1292
  229MPD1    C3 3529   1.389   1.141  14.917 -0.4020  0.2938 -0.0236
  229MPD1    C4 3530   1.267   1.117  14.862  0.2142  0.4740 -0.0293
  229MPD1    C5 3531   1.221   1.191  14.756 -0.4370  0.1190  0.3891
  229MPD1     H 3532   1.564   1.268  14.925 -1.5457 -3.9169  3.6666
  229MPD1    H1 3533   1.199   1.041  14.900  0.8383 -1.2496 -2.3543
  229MPD1    H2 3534   1.290   1.318  14.598 -0.2007  1.0432  1.3851
  229MPD1    H3 3535   1.121   1.178  14.717  0.0290 -0.6729 -0.5564
  229MPD1     N 3536   1.436   1.056  15.020  0.3351 -0.1769  0.0644
  229MPD1    H5 3537   1.390   0.969  15.041 -0.4713  0.3354  0.4030
  229MPD1    N1 3538   1.526   1.398  14.686  0.6425  0.1665  0.1205
  229MPD1    H6 3539   1.478   1.453  14.615 -0.3538  0.1310  0.7657
  229MPD1    H7 3540   1.563   1.460  14.758 -1.3210 -0.4731  1.6827
  230MPD1     C 3541   2.077   0.785  15.892 -0.0934  0.1207  0.5815
  230MPD1    C1 3542   2.002   0.679  15.854  0.5184 -0.5039  0.3646
  230MPD1    C2 3543   1.915   0.697  15.751  0.3173 -0.0806  0.2883
  230MPD1    C3 3544   1.898   0.814  15.678 -0.2781 -0.4274 -0.3892
  230MPD1    C4 3545   1.976   0.919  15.724  0.0818 -0.0470  0.4495
  230MPD1    C5 3546   2.067   0.900  15.822 -0.9469  0.1621  0.1744
  230MPD1     H 3547   1.862   0.605  15.724  0.2943  0.2698 -0.8830
  230MPD1    H1 3548   1.981   1.017  15.677  0.4116 -0.6537 -0.7719
  230MPD1    H2 3549   2.143   0.780  15.978  2.0189  1.5028 -0.9579
  230MPD1    H3 3550   2.124   0.991  15.838 -0.0605 -0.3470 -0.1588
  230MPD1     N 3551   1.803   0.814  15.568 -0.5635  0.1187  0.0536
  230MPD1    H5 3552   1.764   0.727  15.534 -0.6993  0.3579 -0.4154
  230MPD1    N1 3553   1.990   0.561  15.927 -0.1590  0.2792 -0.6583
  230MPD1    H6 3554   2.074   0.537  15.979 -0.6554 -1.7443 -0.7806
  230MPD1    H7 3555   1.977   0.477  15.871 -0.3138 -2.4178  3.4226
  231MPD1     C 3556   4.627   2.572  15.822 -0.3362 -0.6161  0.7545
  231MPD1    C1 3557   4.648   2.556  15.687  1.0652  0.0921  0.1854
  231MPD1    C2 3558   0.013   2.630  15.628 -0.1393 -0.0719  0.2091
  231MPD1    C3 3559   0.082   2.732  15.700 -0.2237 -0.8036 -0.3769
  231MPD1    C4 3560   0.051   2.754  15.830  0.0975 -0.1889 -0.5987
  231MPD1    C5 3561   4.688   2.680  15.885 -0.1716 -0.1594 -0.1696
  231MPD1     H 3562   0.039   2.618  15.524  0.7913 -0.4357  0.4783
  231MPD1    H1 3563   0.101   2.833  15.884 -0.7106 -0.5330  0.6521
  231MPD1    H2 3564   4.557   2.511  15.878 -0.9795 -0.7753 -0.2191
  231MPD1    H3 3565   4.665   2.692  15.991 -2.6929 -1.1572 -0.5893
  231MPD1     N 3566   0.166   2.809  15.625 -0.1385 -0.3771  0.0159
  231MPD1    H5 3567   0.177   2.771  15.532  0.7857 -1.3073  0.5011
  231MPD1    N1 3568   4.583   2.451  15.625 -0.6310 -0.6747  0.1520
  231MPD1    H6 3569   4.573   2.466  15.525  0.8686  0.0146  0.1065
  231MPD1    H7 3570   4.489   2.449  15.664 -0.9761  0.7961 -0.6137
  232MPD1     C 3571   2.180   3.523   0.484  0.2341 -0.2149 -0.5423
  232MPD1    C1 3572   2.112   3.529   0.363  0.1132 -0.5232 -0.4088
  232MPD1    C2 3573   2.056   3.645   0.328 -0.0749 -0.9169  0.1980
  232MPD1    C3 3574   2.076   3.759   0.404 -0.2433 -0.0592  0.1281
  232MPD1    C4 3575   2.147   3.751   0.530 -0.4597  0.0176  0.2850
  232MPD1    C5 3576   2.192   3.627   0.566  0.7373  0.5632  0.1262
  232MPD1     H 3577   2.008   3.661   0.232 -1.7638  1.1888  1.3778
  232MPD1    H1 3578   2.155   3.827   0.607 -1.9812  1.6530 -1.1590
  232MPD1    H2 3579   2.216   3.429   0.524  1.5826 -0.3051 -1.9836
  232MPD1    H3 3580   2.241   3.612   0.662  1.4420 -0.2218 -0.3608
  232MPD1     N 3581   2.019   3.881   0.361 -0.3610  0.4851  0.4714
  232MPD1    H5 3582   1.984   3.886   0.266 -2.4774 -0.4403  1.2021
  232MPD1    N1 3583   2.080   3.412   0.287  0.6986 -0.1626  0.1993
  232MPD1    H6 3584   2.152   3.341   0.295  0.3148 -0.8523 -2.5441
  232MPD1    H7 3585   2.072   3.447   0.192  2.7798 -0.6851 -0.1565
  233MPD1     C 3586   2.627   4.553   1.311  0.2292 -0.5362  0.5215
  233MPD1    C1 3587   2.616   4.444   1.230 -0.0205 -1.0191  0.1428
  233MPD1    C2 3588   2.710   4.342   1.231 -0.4958 -0.1342  0.0242
  233MPD1    C3 3589   2.825   4.352   1.313 -0.1469  0.3220  0.3438
  233MPD1    C4 3590   2.837   4.468   1.395 -0.1119 -0.2435 -0.2074
  233MPD1    C5 3591   2.736   4.563   1.395  0.0030 -0.3641 -0.6601
  233MPD1     H 3592   2.690   4.255   1.170 -1.2812 -0.0276  0.1314
  233MPD1    H1 3593   2.924   4.489   1.456 -0.4179 -0.7369  0.3907
  233MPD1    H2 3594   2.541   4.619   1.319  0.0375 -0.8722  1.2638
  233MPD1    H3 3595   2.742   4.645   1.466  0.2095 -1.0095  0.0708
  233MPD1     N 3596   2.916   4.237   1.315 -0.0215 -0.0960 -0.2908
  233MPD1    H5 3597   2.881   4.154   1.269  0.7488 -0.7127  0.2540
  233MPD1    N1 3598   2.497   4.440   1.153  0.1416  0.6947 -0.0573
  233MPD1    H6 3599   2.476   4.521   1.094  2.3396  1.9670  0.9067
  233MPD1    H7 3600   2.496   4.351   1.104 -2.5550  0.3238  0.7063
  234MPD1     C 3601   4.538   2.877   9.311 -0.6017  0.3105 -0.5321
  234MPD1    C1 3602   4.430   2.886   9.226 -0.4144 -0.9934  0.0190
  234MPD1    C2 3603   4.308   2.922   9.280  0.4319  0.3488 -0.0146
  234MPD1    C3 3604   4.294   2.953   9.410 -0.1337  0.6623 -0.4747
  234MPD1    C4 3605   4.402   2.952   9.491  0.5364 -0.3868 -0.1747
  234MPD1    C5 3606   4.527   2.923   9.440  0.5531 -0.8444 -0.1716
  234MPD1     H 3607   4.222   2.926   9.214 -1.0195  2.4050  1.9888
  234MPD1    H1 3608   4.396   2.991   9.592 -1.7306  0.1428 -0.5179
  234MPD1    H2 3609   4.634   2.840   9.276 -0.3304  0.2055  0.3120
  234MPD1    H3 3610   4.612   2.922   9.506 -1.3522 -1.3471  2.2940
  234MPD1     N 3611   4.166   3.004   9.448  0.1253 -0.1962  0.4391
  234MPD1    H5 3612   4.100   3.016   9.372  1.3509 -0.9846 -0.7555
  234MPD1    N1 3613   4.447   2.831   9.096 -0.1376  0.0670 -0.2012
  234MPD1    H6 3614   4.384   2.878   9.032 -0.3260 -0.2124 -0.2182
  234MPD1    H7 3615   4.545   2.823   9.069 -0.0764  0.3208 -0.0612
  235MPD1     C 3616   0.348   4.627  10.171 -0.5785 -0.2792  0.7873
  235MPD1    C1 3617   0.270   4.725  10.109 -0.3919  0.3393  0.1609
  235MPD1    C2 3618   0.327   0.107  10.108  0.2357 -0.2293  0.1636
  235MPD1    C3 3619   0.441   0.144  10.176 -0.4501  0.0276  0.2139
  235MPD1    C4 3620   0.510   0.042  10.240  0.0256  0.3898 -0.3284
  235MPD1    C5 3621   0.474   4.649  10.226  0.3571 -0.0195 -0.5182
  235MPD1     H 3622   0.279   0.186  10.052 -1.8357 -1.1810  0.5599
  235MPD1    H1 3623   0.604   0.070  10.286 -1.9012  1.5561  2.8309
  235MPD1    H2 3624   0.310   4.526  10.186 -1.2990 -0.5937 -3.3856
  235MPD1    H3 3625   0.514   4.568  10.286 -0.6848 -1.7550 -2.1467
  235MPD1     N 3626   0.481   0.283  10.188  0.3148  0.4025  0.1798
  235MPD1    H5 3627   0.433   0.347  10.126 -0.0737  0.8622  0.9414
  235MPD1    N1 3628   0.165   4.681  10.030 -0.3870  0.3947  0.5348
  235MPD1    H6 3629   0.144   4.588  10.066  0.4056  0.4568  1.1479
  235MPD1    H7 3630   0.081   0.000  10.027 -2.6455 -2.8142  0.5600
  236MPD1     C 3631   4.156   1.276  10.577 -0.1552  0.5642  0.5762
  236MPD1    C1 3632   4.230   1.387  10.529 -0.2338 -0.5566 -0.1748
  236MPD1    C2 3633   4.369   1.377  10.514  0.0719 -0.3454  0.0069
  236MPD1    C3 3634   4.431   1.264  10.563 -0.4196  0.5191 -0.5616
  236MPD1    C4 3635   4.357   1.160  10.604  0.1741  0.7165 -0.5547
  236MPD1    C5 3636   4.227   1.164  10.606 -0.2856 -0.0811  0.1693
  236MPD1     H 3637   4.424   1.463  10.478 -0.8466  0.0189 -0.5304
  236MPD1    H1 3638   4.396   1.064  10.636  0.8521  1.4254  0.7675
  236MPD1    H2 3639   4.048   1.280  10.591 -0.3117 -2.6711  0.2564
  236MPD1    H3 3640   4.174   1.079  10.648  0.9964 -2.3497 -2.8516
  236MPD1     N 3641   4.571   1.244  10.562  0.9112 -0.4681  0.1760
  236MPD1    H5 3642   4.595   1.163  10.619 -0.3781 -1.0904 -0.1766
  236MPD1    N1 3643   4.164   1.504  10.485  0.1527 -0.0721 -0.5062
  236MPD1    H6 3644   4.215   1.585  10.522 -1.7144  0.9415 -0.1823
  236MPD1    H7 3645   4.074   1.488  10.529  0.5790  0.7092  0.6649
  237MPD1     C 3646   4.597   3.472  16.039  0.3897 -0.1665 -0.5621
  237MPD1    C1 3647   4.635   3.546  15.932 -0.4586  0.3738 -0.4340
  237MPD1    C2 3648   4.537   3.592  15.848  0.4665  0.0637  0.4051
  237MPD1    C3 3649   4.403   3.549  15.860  0.3135 -0.1388 -0.0480
  237MPD1    C4 3650   4.373   3.467  15.967 -0.4143  0.3277  0.5110
  237MPD1    C5 3651   4.468   3.430  16.060  0.6010 -0.5975 -0.0140
  237MPD1     H 3652   4.567   3.667  15.775  1.2515 -0.2686  0.3916
  237MPD1    H1 3653   4.271   3.432  15.973  0.1117 -1.2624 -0.0120
  237MPD1    H2 3654   4.674   3.459  16.114 -0.0649 -0.1159 -0.0782
  237MPD1    H3 3655   4.439   3.364  16.141 -2.1707  0.3414 -0.2382
  237MPD1     N 3656   4.306   3.578  15.769 -0.0204 -0.0142  0.0413
  237MPD1    H5 3657   4.214   3.537  15.786  0.3705 -0.2499  1.5803
  237MPD1    N1 3658   0.024   3.594  15.926 -0.0279  0.1401 -0.2549
  237MPD1    H6 3659   0.059   3.605  15.831 -0.2152  0.4000 -0.2962
  237MPD1    H7 3660   0.099   3.541  15.969  0.4746  1.0428 -0.0320
  238MPD1     C 3661   1.806   2.513  15.634 -0.0209 -0.4812 -0.4042
  238MPD1    C1 3662   1.843   2.506  15.501  0.2721 -0.0057  0.0604
  238MPD1    C2 3663   1.742   2.514  15.407 -0.0377  0.2372 -0.2388
  238MPD1    C3 3664   1.616   2.544  15.446 -0.4094 -0.4875  0.0730
  238MPD1    C4 3665   1.577   2.553  15.577 -0.0527 -0.0105 -0.1148
  238MPD1    C5 3666   1.677   2.537  15.669 -0.3777 -0.3472 -1.5135
  238MPD1     H 3667   1.768   2.543  15.306  1.6509 -1.6698 -0.3503
  238MPD1    H1 3668   1.478   2.566  15.621  1.0809 -0.6986  2.6422
  238MPD1    H2 3669   1.885   2.518  15.708 -0.3373 -1.6528  0.0149
  238MPD1    H3 3670   1.654   2.539  15.775  1.1962  0.9849 -1.2025
  238MPD1     N 3671   1.512   2.557  15.352 -0.5013  0.1917  0.2914
  238MPD1    H5 3672   1.423   2.597  15.381 -0.4775  0.2895  0.2310
  238MPD1    N1 3673   1.974   2.524  15.468 -0.0680 -0.5822 -0.4614
  238MPD1    H6 3674   1.998   2.489  15.375  1.5213  1.2747 -0.7417
  238MPD1    H7 3675   2.036   2.476  15.533  1.1745  1.1783 -0.3653
  239MPD1     C 3676   1.888   3.543  15.184  0.4929  0.2268 -0.1134
  239MPD1    C1 3677   1.953   3.649  15.129  0.1927 -0.5999  0.2936
  239MPD1    C2 3678   1.899   3.709  15.016  0.5774  1.0659  0.0507
  239MPD1    C3 3679   1.791   3.658  14.951  0.4346  0.4442  0.2212
  239MPD1    C4 3680   1.734   3.546  15.007  0.9023  0.5499 -0.5387
  239MPD1    C5 3681   1.780   3.494  15.121 -0.9072  0.5871 -0.5353
  239MPD1     H 3682   1.946   3.801  14.983 -0.1951  2.2991  2.3845
  239MPD1    H1 3683   1.651   3.488  14.968  2.0717  0.1032 -2.3601
  239MPD1    H2 3684   1.927   3.492  15.271 -0.9594  0.6021  0.7567
  239MPD1    H3 3685   1.722   3.412  15.160 -1.6267  0.6075 -1.5614
  239MPD1     N 3686   1.732   3.722  14.840 -0.0877  1.2529 -0.4944
  239MPD1    H5 3687   1.649   3.677  14.800 -0.1057  2.1948 -1.5096
  239MPD1    N1 3688   2.055   3.719  15.186 -0.0953  0.3040  0.2024
  239MPD1    H6 3689   2.114   3.657  15.242  1.9273  1.4700 -0.6575
  239MPD1    H7 3690   2.112   3.762  15.114 -0.3837  1.8329  0.8706
  240MPD1     C 3691   0.923   3.392  14.197  0.6439 -0.7424  0.3139
  240MPD1    C1 3692   0.810   3.311  14.194 -0.0940  0.4245 -0.6154
  240MPD1    C2 3693   0.776   3.252  14.314 -0.5107 -0.0321 -0.7302
  240MPD1    C3 3694   0.870   3.247  14.419 -0.0167 -0.0190  0.2305
  240MPD1    C4 3695   0.989   3.315  14.411  0.4290  0.6732  0.3514
  240MPD1    C5 3696   1.015   3.383  14.297 -0.4319 -0.0220 -0.4351
  240MPD1     H 3697   0.681   3.202  14.325 -0.5719 -0.1110 -1.6559
  240MPD1    H1 3698   1.063   3.311  14.491 -0.0694  0.2912  0.7864
  240MPD1    H2 3699   0.947   3.453  14.111 -1.1528  0.0493  0.3874
  240MPD1    H3 3700   1.108   3.438  14.293 -0.3081 -0.0568  1.9955
  240MPD1     N 3701   0.840   3.158  14.523 -0.1425 -0.3350  0.7911
  240MPD1    H5 3702   0.752   3.108  14.514 -0.0340  0.0503 -2.3757
  240MPD1    N1 3703   0.707   3.335  14.098  0.1985 -0.2384  0.2270
  240MPD1    H6 3704   0.646   3.253  14.091 -0.6527  0.3991  0.1871
  240MPD1    H7 3705   0.724   3.375  14.006  0.1842 -1.2748 -0.2222
  241MPD1     C 3706   1.366   2.950  15.376 -0.2544 -0.1536  0.1767
  241MPD1    C1 3707   1.270   2.855  15.386  0.2450  0.6274  0.2916
  241MPD1    C2 3708   1.171   2.853  15.283  0.4965 -0.0397  0.7310
  241MPD1    C3 3709   1.170   2.948  15.180  0.7327  0.1874  0.7902
  241MPD1    C4 3710   1.271   3.043  15.183 -0.0350 -0.9534  0.1139
  241MPD1    C5 3711   1.367   3.042  15.278  0.4347  0.1317  0.5812
  241MPD1     H 3712   1.092   2.779  15.293  2.9474 -2.8612 -0.5984
  241MPD1    H1 3713   1.258   3.134  15.125 -0.4684 -1.0457  0.0598
  241MPD1    H2 3714   1.445   2.951  15.449 -0.1450  2.1284  0.0258
  241MPD1    H3 3715   1.435   3.127  15.280 -2.3042  2.2886  1.3737
  241MPD1     N 3716   1.080   2.959  15.072 -0.5297 -0.5122 -0.0776
  241MPD1    H5 3717   1.105   3.038  15.013  0.6687 -0.4344  0.5384
  241MPD1    N1 3718   1.299   2.741  15.470  0.5440  0.1842  0.3396
  241MPD1    H6 3719   1.359   2.770  15.547  0.5039 -1.2278  0.9196
  241MPD1    H7 3720   1.210   2.711  15.510  1.1083  1.4294  2.5292
  242MPD1     C 3721   1.414   1.703  16.086 -0.4628  0.0692 -0.5932
  242MPD1    C1 3722   1.282   1.671  16.075 -0.1932  0.2876 -0.2040
  242MPD1    C2 3723   1.225   1.664  15.947  0.7029  0.1720 -0.0451
  242MPD1    C3 3724   1.299   1.676  15.835 -0.1173 -0.4822 -0.0980
  242MPD1    C4 3725   1.430   1.699  15.853 -0.1269  0.0127 -0.3649
  242MPD1    C5 3726   1.496   1.711  15.976 -0.7182  0.5459 -0.1838
  242MPD1     H 3727   1.119   1.640  15.937  0.4056  1.0855  0.8627
  242MPD1    H1 3728   1.493   1.720  15.767  0.0914 -1.8600 -0.6492
  242MPD1    H2 3729   1.462   1.719  16.182 -0.2234 -0.9517 -0.5396
  242MPD1    H3 3730   1.601   1.734  15.985 -0.2673 -1.7351  0.4036
  242MPD1     N 3731   1.259   1.675  15.702  0.0181 -0.7060  0.0277
  242MPD1    H5 3732   1.326   1.705  15.632  0.0975  1.7558  1.1563
  242MPD1    N1 3733   1.197   1.666  16.188 -0.6459 -0.9057  0.9319
  242MPD1    H6 3734   1.259   1.661  16.269  2.3128  0.1446 -1.2600
  242MPD1    H7 3735   1.135   1.585  16.182 -1.1448 -0.4425 -0.1916
  243MPD1     C 3736   3.241   1.383  17.058 -0.4123  0.3080 -0.4615
  243MPD1    C1 3737   3.174   1.283  16.982 -0.0594  0.1965 -1.0673
  243MPD1    C2 3738   3.229   1.155  17.004  0.6328  0.5846 -0.0671
  243MPD1    C3 3739   3.350   1.134  17.063  0.0174  0.1327  0.5862
  243MPD1    C4 3740   3.413   1.238  17.133  0.2028 -0.0578 -0.4776
  243MPD1    C5 3741   3.357   1.360  17.132  0.5341  0.1684  0.0347
  243MPD1     H 3742   3.167   1.072  16.971 -2.1876  2.0984  1.3996
  243MPD1    H1 3743   3.510   1.233  17.183  0.6025 -1.9818 -1.4223
  243MPD1    H2 3744   3.209   1.487  17.062  0.2719  0.5079 -0.1804
  243MPD1    H3 3745   3.415   1.445  17.166  0.4266 -0.6584  2.3004
  243MPD1     N 3746   3.413   1.008  17.044  0.1074 -0.1343  0.3916
  243MPD1    H5 3747   3.366   0.945  16.979 -0.3592  0.0397  0.5624
  243MPD1    N1 3748   3.039   1.312  16.948 -0.4098 -0.0690 -0.2074
  243MPD1    H6 3749   3.004   1.263  16.865 -0.8183 -2.0434  1.1453
  243MPD1    H7 3750   3.027   1.411  16.928 -1.0961  0.0402  0.7887
  244MPD1     C 3751   3.459   0.257  17.709  0.0315  0.0181 -0.7733
  244MPD1    C1 3752   3.462   0.175  17.594  0.3588 -0.4522 -0.3348
  244MPD1    C2 3753   3.502   0.235  17.475 -0.0433 -0.4308  0.4305
  244MPD1    C3 3754   3.541   0.370  17.474  0.3883 -0.2461 -0.5630
  244MPD1    C4 3755   3.559   0.430  17.592  0.2533 -0.1631  0.3135
  244MPD1    C5 3756   3.516   0.381  17.710  0.3819 -0.2352 -0.3492
  244MPD1     H 3757   3.496   0.183  17.380  2.1195 -0.4175  0.2880
  244MPD1    H1 3758   3.598   0.531  17.602 -0.5299  0.2892 -1.2227
  244MPD1    H2 3759   3.413   0.217   0.043 -1.0887  3.8257  0.3867
  244MPD1    H3 3760   3.514   0.444   0.042 -1.1237 -0.6255 -0.1054
  244MPD1     N 3761   3.554   0.436  17.348  0.1327 -0.3111 -0.7663
  244MPD1    H5 3762   3.549   0.383  17.261  2.5367 -0.9770 -0.5090
  244MPD1    N1 3763   3.382   0.061  17.585 -0.0574  0.0087  1.0661
  244MPD1    H6 3764   3.419   4.726  17.526  0.4007  0.3385  0.9400
  244MPD1    H7 3765   3.362   0.025  17.678 -1.2200  1.5421  1.4079
  245MPD1     C 3766   3.976   1.129  12.729 -0.1309  0.1020  0.1565
  245MPD1    C1 3767   3.928   1.251  12.777  0.1293 -0.3329 -0.3230
  245MPD1    C2 3768   3.993   1.322  12.876  0.0900 -0.6090 -0.4330
  245MPD1    C3 3769   4.094   1.265  12.951 -0.5717  0.1731 -0.3188
  245MPD1    C4 3770   4.133   1.133  12.919  0.0405  0.3176 -0.6894
  245MPD1    C5 3771   4.075   1.073  12.811  0.3514 -0.1650 -0.2700
  245MPD1     H 3772   3.955   1.419  12.904 -0.2476 -0.9736  0.3823
  245MPD1    H1 3773   4.213   1.080  12.970 -0.3333 -0.6658 -1.1202
  245MPD1    H2 3774   3.937   1.071  12.646 -0.8320  0.4338  0.2508
  245MPD1    H3 3775   4.111   0.978  12.773  2.2973  0.2349  0.5656
  245MPD1     N 3776   4.163   1.345  13.052 -0.0109 -0.2675  0.2481
  245MPD1    H5 3777   4.141   1.444  13.051  1.8702  0.1498 -0.1092
  245MPD1    N1 3778   3.819   1.307  12.710 -0.0187 -0.1814 -0.3452
  245MPD1    H6 3779   3.760   1.226  12.695  1.8425 -1.2659 -1.7918
  245MPD1    H7 3780   3.772   1.360  12.783 -0.6181 -0.9802 -0.1512
  246MPD1     C 3781   4.641   0.553  10.895 -0.3012  1.1441  0.5858
  246MPD1    C1 3782   4.634   0.479  10.783 -0.2492 -0.4895 -0.7500
  246MPD1    C2 3783   4.620   0.544  10.667  0.3786  0.1798  0.1035
  246MPD1    C3 3784   4.589   0.683  10.666 -0.4370 -0.4808  0.1752
  246MPD1    C4 3785   4.574   0.754  10.786  0.0844 -0.2205  0.3169
  246MPD1    C5 3786   4.609   0.686  10.897 -0.1789  0.0038  0.0884
  246MPD1     H 3787   4.621   0.487  10.575 -0.6390 -0.1954  0.3255
  246MPD1    H1 3788   4.568   0.863  10.788 -0.1172 -0.2414  0.8142
  246MPD1    H2 3789   4.675   0.507  10.988 -0.4271  1.9811  1.0475
  246MPD1    H3 3790   4.611   0.733  10.995 -1.3429 -0.0408  0.1338
  246MPD1     N 3791   4.575   0.736  10.537  0.3432 -0.3923  0.5445
  246MPD1    H5 3792   4.592   0.663  10.468  1.4406 -0.2022  0.6239
  246MPD1    N1 3793   4.685   0.347  10.783 -0.5193 -0.3750 -0.2463
  246MPD1    H6 3794   4.681   0.294  10.870  0.5199 -0.3119 -0.1638
  246MPD1    H7 3795   4.666   0.284  10.706 -0.9550 -0.3624 -0.1526
  247MPD1     C 3796   3.770   4.051  16.223  1.1466  0.1385  0.5998
  247MPD1    C1 3797   3.784   4.186  16.220 -0.0634 -0.0885  0.1571
  247MPD1    C2 3798   3.896   4.238  16.162 -0.0912 -0.5928 -0.0700
  247MPD1    C3 3799   4.015   4.168  16.180 -0.6671 -0.0204  0.1067
  247MPD1    C4 3800   4.006   4.031  16.202 -1.1847  0.1146 -0.1917
  247MPD1    C5 3801   3.882   3.973  16.213 -0.2371 -0.1216  0.5061
  247MPD1     H 3802   3.888   4.345  16.145  1.2254 -0.5376 -0.3757
  247MPD1    H1 3803   4.095   3.972  16.220 -1.8073 -0.6227  0.4786
  247MPD1    H2 3804   3.679   3.993  16.228  0.9226  0.4010 -0.4018
  247MPD1    H3 3805   3.861   3.867  16.222 -2.2006  0.1943 -0.3490
  247MPD1     N 3806   4.137   4.233  16.170  0.0765 -0.3922 -0.6858
  247MPD1    H5 3807   4.222   4.182  16.192  0.8237  0.8158 -0.7772
  247MPD1    N1 3808   3.671   4.262  16.227  0.7072  0.9065 -0.3627
  247MPD1    H6 3809   3.698   4.354  16.259  1.3390  1.0760 -1.4161
  247MPD1    H7 3810   3.620   4.227  16.308  0.4715 -1.6310 -1.6150
  248MPD1     C 3811   0.855   0.862  17.535  0.4942 -0.1044 -0.5301
  248MPD1    C1 3812   0.864   0.724  17.505 -0.4661 -0.0728 -0.3871
  248MPD1    C2 3813   0.917   0.641  17.600  0.7295 -0.1808  0.2679
  248MPD1    C3 3814   0.959   0.686  17.726 -0.0550 -1.0081  0.3718
  248MPD1    C4 3815   0.949   0.821  17.750  0.2637  0.2832 -0.5408
  248MPD1    C5 3816   0.901   0.907  17.657  0.2463 -0.1155  0.2562
  248MPD1     H 3817   0.936   0.539  17.568 -1.4157 -0.1727 -1.0297
  248MPD1    H1 3818   0.956   0.864   0.094 -0.2752 -2.7429  0.8176
  248MPD1    H2 3819   0.826   0.933  17.459 -1.2873  0.4398  0.6675
  248MPD1    H3 3820   0.898   1.013  17.677 -0.6956 -0.0900 -0.0221
  248MPD1     N 3821   1.004   0.594   0.059  0.4399 -0.3907  0.6385
  248MPD1    H5 3822   0.991   0.497   0.034  0.0175 -1.0574  3.4643
  248MPD1    N1 3823   0.809   0.670  17.388  0.3852 -0.0317  0.1445
  248MPD1    H6 3824   0.826   0.570  17.379  0.8774  0.0586  0.0734
  248MPD1    H7 3825   0.833   0.717  17.301  0.8712 -1.6336 -0.5915
  249MPD1     C 3826   1.408   4.306  10.483  0.1916  0.0644 -0.0430
  249MPD1    C1 3827   1.460   4.336  10.610  0.4401 -0.8849  0.5660
  249MPD1    C2 3828   1.569   4.421  10.615 -0.6382 -1.2424 -0.4201
  249MPD1    C3 3829   1.610   4.481  10.496 -0.1988  0.6517  0.5863
  249MPD1    C4 3830   1.551   4.457  10.371 -0.5088  0.3166 -0.6591
  249MPD1    C5 3831   1.458   4.362  10.371 -0.6104  0.6153  0.6019
  249MPD1     H 3832   1.624   4.444  10.706 -0.8561  0.5471 -0.7388
  249MPD1    H1 3833   1.586   4.504  10.280 -0.1721 -0.0001 -0.6936
  249MPD1    H2 3834   1.333   4.229  10.471 -1.2179  1.6530 -1.3900
  249MPD1    H3 3835   1.425   4.328  10.273 -0.2874 -2.8944  1.7284
  249MPD1     N 3836   1.722   4.578  10.497  0.4209  0.8397 -0.9397
  249MPD1    H5 3837   1.766   4.595  10.587 -0.6025  1.9280 -0.6370
  249MPD1    N1 3838   1.383   4.293  10.717  0.3111  0.3792  0.0691
  249MPD1    H6 3839   1.428   4.292  10.808 -0.9602  0.9315  0.7063
  249MPD1    H7 3840   1.336   4.203  10.711 -2.3163  1.9175 -2.9086
  250MPD2     C 3841   2.820   4.505  12.676  0.6559  0.5088 -0.3396
  250MPD2    C1 3842   2.741   4.442  12.767  0.3475 -0.1097 -0.9101
  250MPD2    C2 3843   2.612   4.406  12.724 -0.2836 -0.0699 -0.2971
  250MPD2    C3 3844   2.573   4.426  12.592  0.3177  0.4546  0.1746
  250MPD2    C4 3845   2.644   4.513  12.517  0.9919 -0.3174  0.4585
  250MPD2    C5 3846   2.766   4.555  12.560 -0.2201 -0.5830 -0.7221
  250MPD2     H 3847   2.551   4.347  12.792 -0.0248 -1.0872 -0.9444
  250MPD2    H1 3848   2.606   4.558  12.426  2.6958  1.5666  0.6667
  250MPD2    H2 3849   2.921   4.536  12.700 -0.5463  3.3678  1.0020
  250MPD2    H3 3850   2.832   4.605  12.489 -0.3074 -0.4348 -0.6990
  250MPD2     N 3851   2.447   4.384  12.547 -0.4552 -0.1696 -0.0553
  250MPD2    H5 3852   2.401   4.432  12.470  1.1823  1.1841 -0.1970
  250MPD2    N1 3853   2.792   4.415  12.896 -0.0470 -0.5651 -0.0118
  250MPD2    H7 3854   2.869   4.473  12.927 -0.9069 -0.0856  1.2264
  251TMC3    C1 3855   2.809   4.313  13.114 -0.0591  0.0444  0.2054
  251TMC3    C2 3856   2.738   4.348  13.222 -0.0724 -1.0370 -0.2192
  251TMC3    C3 3857   2.798   4.423  13.317  0.3873  0.0127  0.3389
  251TMC3    C4 3858   2.948   4.347  13.105 -0.0169 -0.6219  0.6370
  251TMC3    C5 3859   2.999   4.423  13.205 -0.0677  0.9639  1.2597
  251TMC3    C6 3860   2.926   4.465  13.311 -0.5906 -0.6001 -0.6817
  251TMC3     C 3861   2.731   4.327  12.988  0.1913  0.2285  0.3344
  251TMC3     O 3862   2.620   4.280  12.991 -0.1940  0.0892 -0.0395
  251TMC3     H 3863   2.637   4.310  13.226 -0.3069 -0.4003 -0.1615
  251TMC3    H1 3864   3.005   4.315  13.019  0.4677  1.7376  0.0848
  251TMC3    H2 3865   2.969   4.539  13.378  0.0399  0.3053 -2.0954
  251TMC3    C7 3866   3.142   4.455  13.218 -0.3692  0.6475 -0.2620
  251TMC3    C8 3867   2.716   4.471  13.434  0.4782 -0.1144 -0.2420
  251TMC3    O1 3868   3.173   4.558  13.277 -0.1510 -0.1699  0.1245
  251TMC3    O2 3869   2.611   4.412  13.451 -0.0984  0.6520 -0.2987
  252TMC3    C1 3870   4.072   4.299   9.923 -0.7598  0.0842 -0.1936
  252TMC3    C2 3871   4.098   4.412   9.994  0.2202 -0.0827  0.2019
  252TMC3    C3 3872   4.005   4.505  10.016  0.2315 -0.1554 -0.4827
  252TMC3    C4 3873   3.944   4.275   9.870 -0.1675 -0.1586 -0.8633
  252TMC3    C5 3874   3.841   4.367   9.899  0.1239 -0.3470  0.0644
  252TMC3    C6 3875   3.877   4.484   9.973  0.0988  0.6183 -0.0150
  252TMC3     C 3876   4.175   4.200   9.887 -1.0418  1.0692 -0.7319
  252TMC3     O 3877   4.134   4.097   9.837 -0.3137 -0.4202  0.1728
  252TMC3     H 3878   4.197   4.427  10.035  0.4456 -0.7360 -0.1106
  252TMC3    H1 3879   3.929   4.187   9.808  0.5090 -1.0361  0.2199
  252TMC3    H2 3880   3.804   4.563   9.990 -0.1044  0.3631  0.3007
  252TMC3    C7 3881   3.732   4.372   9.808 -0.4199  0.0772  0.0153
  252TMC3    C8 3882   4.051   4.636  10.045  0.4964  0.1687 -0.2100
  252TMC3    O1 3883   3.749   4.306   9.706  0.4226  0.3062 -0.3783
  252TMC3    O2 3884   4.163   4.659  10.004 -0.3142  0.3356  0.0300
  253MPD2     C 3885   4.146   3.776  15.998  0.0721 -0.5054 -0.4050
  253MPD2    C1 3886   4.018   3.772  15.947 -0.4785  1.0188 -0.1890
  253MPD2    C2 3887   3.928   3.681  16.000 -0.1406  0.2891 -0.5372
  253MPD2    C3 3888   3.955   3.597  16.110 -0.2655 -0.1986  0.3228
  253MPD2    C4 3889   4.081   3.609  16.164 -0.3506  0.0811 -0.5889
  253MPD2    C5 3890   4.171   3.693  16.104 -0.5838 -0.0420  0.1990
  253MPD2     H 3891   3.829   3.683  15.956 -0.2845 -1.4060 -0.2723
  253MPD2    H1 3892   4.104   3.540  16.244  0.4165  0.6364 -0.3366
  253MPD2    H2 3893   4.224   3.842  15.963  0.2776 -1.1810 -1.2257
  253MPD2    H3 3894   4.273   3.691  16.141 -0.3426 -1.9344 -0.5267
  253MPD2     N 3895   3.859   3.506  16.162 -0.0842  0.2520 -0.0368
  253MPD2    H5 3896   3.887   3.472  16.254 -0.6512  2.0248  0.7897
  253MPD2    N1 3897   3.982   3.854  15.841  0.4025 -0.0074  0.1091
  253MPD2    H7 3898   3.882   3.864  15.827  0.5932  2.7212  0.6860
  254TMC3    C1 3899   3.668   3.458  16.262  0.1513 -0.7537 -0.5142
  254TMC3    C2 3900   3.615   3.573  16.319 -0.9502 -1.0960  0.0066
  254TMC3    C3 3901   3.617   3.598  16.450  0.3085  0.4036 -0.4233
  254TMC3    C4 3902   3.726   3.363  16.340 -0.0854  0.3703 -0.3600
  254TMC3    C5 3903   3.739   3.391  16.475 -0.3314 -0.2524  0.6069
  254TMC3    C6 3904   3.671   3.500  16.534 -0.5931 -0.4283 -0.3363
  254TMC3     C 3905   3.725   3.483  16.132  0.2465  0.0923  0.0396
  254TMC3     O 3906   3.664   3.540  16.046 -0.5682  0.2567  0.0697
  254TMC3     H 3907   3.582   3.645  16.245  0.2981 -0.7201 -0.1982
  254TMC3    H1 3908   3.794   3.292  16.295  2.0772  2.3795 -0.2450
  254TMC3    H2 3909   3.680   3.519  16.640 -3.6592 -1.2358  0.0730
  254TMC3    C7 3910   3.881   3.411  16.499  1.2993  0.0151 -0.2890
  254TMC3    C8 3911   3.636   3.737  16.497 -0.4372  0.4878 -0.5874
  254TMC3    O1 3912   3.958   3.399  16.402  0.0333  0.0745 -0.1794
  254TMC3    O2 3913   3.696   3.746  16.599 -0.1197 -0.0173 -0.3447
  255MPD2     C 3914   2.657   1.505  10.273  0.3432  0.5957 -1.1609
  255MPD2    C1 3915   2.625   1.638  10.260 -0.5702  0.6353  0.7170
  255MPD2    C2 3916   2.687   1.712  10.161 -0.3183 -0.7254  1.2531
  255MPD2    C3 3917   2.767   1.653  10.068 -0.4680  0.3932  0.5448
  255MPD2    C4 3918   2.787   1.514  10.068 -0.6040  0.0619 -0.3806
  255MPD2    C5 3919   2.725   1.441  10.173 -0.7619  0.3265  0.0303
  255MPD2     H 3920   2.673   1.819  10.168  0.9038 -0.5797  1.4882
  255MPD2    H1 3921   2.847   1.459   9.996 -1.1687  0.5276 -1.2082
  255MPD2    H2 3922   2.623   1.444  10.356  0.1145  0.1482 -1.5822
  255MPD2    H3 3923   2.725   1.332  10.179 -0.3156  0.3453  0.3945
  255MPD2     N 3924   2.843   1.739   9.980 -0.2882  0.1898  1.2118
  255MPD2    H5 3925   2.832   1.836  10.009  2.2107  0.3473  1.6228
  255MPD2    N1 3926   2.526   1.704  10.338  0.7962 -0.5001 -0.0421
  255MPD2    H7 3927   2.498   1.796  10.307 -2.3770 -0.6594  2.2854
  256TMC3    C1 3928   2.351   1.745  10.488  0.2581 -0.3239  0.0488
  256TMC3    C2 3929   2.374   1.880  10.495  0.5241 -0.5502 -0.8554
  256TMC3    C3 3930   2.288   1.957  10.558  0.0494 -0.1886  0.4074
  256TMC3    C4 3931   2.227   1.699  10.522  1.0560  1.1082  0.3549
  256TMC3    C5 3932   2.141   1.784  10.592 -0.4225  0.0502 -0.1429
  256TMC3    C6 3933   2.182   1.911  10.618 -0.0101  0.5937 -0.0216
  256TMC3     C 3934   2.446   1.648  10.430 -0.3732  0.0593 -0.0839
  256TMC3     O 3935   2.443   1.529  10.460  0.0042 -0.5634 -0.2701
  256TMC3     H 3936   2.465   1.923  10.454 -0.1096  1.2859 -0.3252
  256TMC3    H1 3937   2.192   1.599  10.499  0.1099  1.3044  0.9215
  256TMC3    H2 3938   2.112   1.976  10.669  0.6185  0.3037  1.2265
  256TMC3    C7 3939   1.995   1.761  10.578 -0.2223  0.0670 -0.2724
  256TMC3    C8 3940   2.314   2.098  10.565  0.1988 -0.0994  0.0510
  256TMC3    O1 3941   1.933   1.864  10.568  0.2575 -0.3116  0.1992
  256TMC3    O2 3942   2.253   2.154  10.659 -0.5156 -0.1958 -0.1178
  257MPD2     C 3943   0.998   3.996  13.407  0.6668  0.1409 -0.0768
  257MPD2    C1 3944   1.096   4.090  13.373 -0.3576 -0.5242 -0.6735
  257MPD2    C2 3945   1.216   4.067  13.432  0.1297  0.6499  0.5160
  257MPD2    C3 3946   1.243   3.962  13.513 -0.1575 -0.7266 -0.2738
  257MPD2    C4 3947   1.151   3.872  13.551  0.4495 -0.0416 -0.4321
  257MPD2    C5 3948   1.027   3.890  13.497 -0.4164  0.3407 -0.3231
  257MPD2     H 3949   1.295   4.137  13.406  0.8424  0.3090  1.7567
  257MPD2    H1 3950   1.171   3.789  13.619 -1.3234  2.7556  3.5198
  257MPD2    H2 3951   0.894   4.007  13.374  0.9365 -1.2619 -1.3795
  257MPD2    H3 3952   0.952   3.816  13.523  0.0832  0.2715  0.9284
  257MPD2     N 3953   1.374   3.960  13.568 -0.4437 -0.5338 -0.9375
  257MPD2    H5 3954   1.441   4.025  13.529 -2.7465  3.9053  2.5745
  257MPD2    N1 3955   1.069   4.205  13.286  0.8912  0.4871  0.1812
  257MPD2    H7 3956   0.981   4.207  13.235  0.3052  1.4064  1.2257
  258TMC3    C1 3957   1.546   3.917  13.732  0.6921  0.1867  0.0990
  258TMC3    C2 3958   1.647   3.931  13.641 -0.0544 -0.4621 -0.3029
  258TMC3    C3 3959   1.771   3.891  13.686  0.8382 -0.2565 -0.4325
  258TMC3    C4 3960   1.577   3.874  13.862 -0.6202  0.0293  0.6966
  258TMC3    C5 3961   1.699   3.829  13.899  0.2090 -0.5843 -0.0476
  258TMC3    C6 3962   1.801   3.834  13.811  0.5488 -0.6796  0.5286
  258TMC3     C 3963   1.416   3.879  13.671 -0.0403  0.3621 -0.5817
  258TMC3     O 3964   1.352   3.803  13.742  0.2891  0.4509  0.1356
  258TMC3     H 3965   1.625   3.943  13.536 -0.3948 -2.0566 -0.4091
  258TMC3    H1 3966   1.494   3.862  13.930 -0.4616  2.5916  1.3320
  258TMC3    H2 3967   1.898   3.787  13.827  0.3281 -1.2493  0.1856
  258TMC3    C7 3968   1.723   3.794  14.041 -1.1615  0.1324  0.6256
  258TMC3    C8 3969   1.886   3.935  13.602  0.8576  0.2598 -0.0171
  258TMC3    O1 3970   1.617   3.783  14.103 -0.4152  0.1364 -0.4848
  258TMC3    O2 3971   1.990   3.870  13.615  0.3671  0.5114 -0.3969
  259MPD2     C 3972   1.571   0.856   1.359  0.3188  0.2074 -0.3557
  259MPD2    C1 3973   1.565   0.723   1.412  0.3715  0.1346  0.7765
  259MPD2    C2 3974   1.579   0.619   1.317 -0.3220 -0.3529 -0.4086
  259MPD2    C3 3975   1.603   0.649   1.180 -0.3650 -0.8072 -0.4610
  259MPD2    C4 3976   1.605   0.786   1.137  0.2146  0.4051  0.3325
  259MPD2    C5 3977   1.584   0.884   1.226  0.5432  0.1808 -0.1737
  259MPD2     H 3978   1.594   0.514   1.340 -0.1052 -0.6072 -1.7310
  259MPD2    H1 3979   1.611   0.818   1.034 -1.2304 -1.8414 -0.4361
  259MPD2    H2 3980   1.568   0.943   1.423 -0.7988 -1.2131  1.5225
  259MPD2    H3 3981   1.582   0.985   1.188 -2.2752  0.8985  1.8670
  259MPD2     N 3982   1.639   0.542   1.096 -1.0169  0.6741 -0.4786
  259MPD2    H5 3983   1.648   0.453   1.146 -3.8553 -0.0386 -1.2331
  259MPD2    N1 3984   1.540   0.706   1.552  0.5562 -0.1557 -0.3655
  259MPD2    H7 3985   1.540   0.791   1.607  0.4700 -0.6316  0.3678
  260TMC3    C1 3986   1.678   0.434   0.885 -0.7945  0.4845  0.4214
  260TMC3    C2 3987   1.765   0.451   0.778  0.2587  0.4961  0.2890
  260TMC3    C3 3988   1.837   0.341   0.729  0.4928  0.8204  0.1024
  260TMC3    C4 3989   1.648   0.309   0.933 -0.5487 -0.1708 -0.0102
  260TMC3    C5 3990   1.724   0.199   0.891  0.2862 -0.3259  0.1838
  260TMC3    C6 3991   1.827   0.223   0.801  0.0442  0.5908  0.5011
  260TMC3     C 3992   1.646   0.554   0.958 -0.6033 -0.0794 -0.3693
  260TMC3     O 3993   1.643   0.654   0.887  0.6196 -0.2503  1.0293
  260TMC3     H 3994   1.775   0.549   0.732  3.1551  0.5902  1.0973
  260TMC3    H1 3995   1.583   0.303   1.019 -0.7246 -2.3302 -0.2982
  260TMC3    H2 3996   1.889   0.139   0.775  0.8396  1.4035 -0.1800
  260TMC3    C7 3997   1.643   0.091   0.839 -0.3704  0.5344 -0.8011
  260TMC3    C8 3998   1.850   0.338   0.584 -0.1515  0.7852 -0.1007
  260TMC3    O1 3999   1.699   0.031   0.748 -0.2860 -0.3952  0.3427
  260TMC3    O2 4000   1.839   0.444   0.529 -0.1343  0.3338 -0.3775
  261MPD2     C 4001   1.754   4.695  12.580 -0.2541 -0.2017 -0.3595
  261MPD2    C1 4002   1.891   4.694  12.557 -0.1624 -0.3903 -0.7828
  261MPD2    C2 4003   1.952   0.064  12.499 -0.1691 -0.0902  0.4036
  261MPD2    C3 4004   1.882   0.177  12.473 -0.5540 -0.4064 -0.0644
  261MPD2    C4 4005   1.747   0.173  12.489  0.0289 -0.3005  0.2015
  261MPD2    C5 4006   1.679   0.068  12.542 -0.7386  0.0255  0.1681
  261MPD2     H 4007   2.059   0.068  12.488 -0.2281  0.9592  0.2728
  261MPD2    H1 4008   1.684   0.255  12.455 -0.2707 -0.6502 -0.0821
  261MPD2    H2 4009   1.701   4.622  12.640  1.1697  0.4323  1.6664
  261MPD2    H3 4010   1.574   0.081  12.563 -0.5513  0.6037  0.7657
  261MPD2     N 4011   1.954   0.283  12.412 -0.4464  0.6378  0.2911
  261MPD2    H5 4012   2.055   0.280  12.414 -0.4538 -0.1752 -0.3605
  261MPD2    N1 4013   1.973   4.584  12.586  0.5188  0.0650  0.3918
  261MPD2    H7 4014   2.072   4.603  12.589  0.5123 -0.0586  1.3583
  262TMC3    C1 4015   1.989   0.490  12.292  0.0035  0.3522 -0.9244
  262TMC3    C2 4016   1.975   0.623  12.264  0.6641 -0.5051 -0.5838
  262TMC3    C3 4017   2.052   0.699  12.181 -0.0686 -0.4963  0.6430
  262TMC3    C4 4018   2.098   0.433  12.223 -0.1229  0.0539  0.6181
  262TMC3    C5 4019   2.172   0.507  12.137  0.1306 -0.2471 -0.1796
  262TMC3    C6 4020   2.149   0.639  12.114  0.0035 -0.5015 -0.3534
  262TMC3     C 4021   1.900   0.407  12.370 -0.5668  0.1285 -0.5308
  262TMC3     O 4022   1.793   0.461  12.387 -0.0242 -0.0977 -0.3972
  262TMC3     H 4023   1.890   0.666  12.316  2.4874  1.4226  0.7510
  262TMC3    H1 4024   2.116   0.326  12.224  3.9222  0.7487  2.1003
  262TMC3    H2 4025   2.197   0.682  12.026 -2.0973  1.2108 -0.6700
  262TMC3    C7 4026   2.284   0.447  12.068 -0.0188  0.4111 -0.7210
  262TMC3    C8 4027   2.063   0.845  12.190  0.2028 -0.3172 -0.2609
  262TMC3    O1 4028   2.265   0.334  12.027  0.1448  0.1170 -0.1519
  262TMC3    O2 4029   2.166   0.884  12.149 -0.4106 -0.2002 -0.3329
  263MPD2     C 4030   3.362   3.472  11.073  0.8231 -0.2629  1.0441
  263MPD2    C1 4031   3.403   3.549  11.182  0.4128  0.0703  0.3526
  263MPD2    C2 4032   3.413   3.689  11.159  0.5171 -0.6749  0.5021
  263MPD2    C3 4033   3.389   3.746  11.037 -0.5663 -0.3841  0.3924
  263MPD2    C4 4034   3.345   3.658  10.930 -0.0641 -0.5387  0.4760
  263MPD2    C5 4035   3.341   3.523  10.951 -0.0259  0.1916 -0.1516
  263MPD2     H 4036   3.447   3.746  11.245  0.5559  1.3411 -0.8606
  263MPD2    H1 4037   3.330   3.697  10.830  1.4647 -1.1086  0.0251
  263MPD2    H2 4038   3.357   3.364  11.077 -0.2156 -0.2752 -1.1404
  263MPD2    H3 4039   3.335   3.452  10.869  2.8864 -0.9822  0.6670
  263MPD2     N 4040   3.411   3.889  11.022 -0.2645  0.6731 -0.3229
  263MPD2    H5 4041   3.437   3.938  11.107  1.9553  1.1943 -1.3172
  263MPD2    N1 4042   3.443   3.483  11.308 -0.1239  0.3298  0.1761
  263MPD2    H7 4043   3.456   3.383  11.309 -0.7541  0.2375 -1.8229
  264TMC3    C1 4044   3.481   4.085  10.901  0.8555 -0.2688  0.8876
  264TMC3    C2 4045   3.486   4.161  11.010  0.8167  0.0078  0.6158
  264TMC3    C3 4046   3.571   4.268  11.008 -0.2929 -0.0552  0.0893
  264TMC3    C4 4047   3.548   4.111  10.782  1.0132  0.4970  0.8808
  264TMC3    C5 4048   3.624   4.218  10.777 -0.1849 -1.2197 -0.4966
  264TMC3    C6 4049   3.639   4.291  10.895  0.3410  0.6748 -0.3693
  264TMC3     C 4050   3.405   3.957  10.900  0.6783 -0.5960 -0.5942
  264TMC3     O 4051   3.387   3.918  10.784 -0.2754  0.6671  0.1340
  264TMC3     H 4052   3.417   4.136  11.090  0.0181 -0.7733 -0.3152
  264TMC3    H1 4053   3.546   4.034  10.706 -1.0734 -0.0694  1.4971
  264TMC3    H2 4054   3.721   4.362  10.904  0.2802  0.8011 -0.8318
  264TMC3    C7 4055   3.737   4.205  10.687 -0.4298  0.2499 -0.1284
  264TMC3    C8 4056   3.599   4.341  11.132 -0.3059 -0.1882  0.4749
  264TMC3    O1 4057   3.768   4.091  10.660  0.1927 -0.7832  0.2145
  264TMC3    O2 4058   3.686   4.423  11.123 -0.6704 -0.6360 -0.2875
  265MPD2     C 4059   0.444   3.799  15.881  0.3805 -0.1306 -0.0221
  265MPD2    C1 4060   0.563   3.871  15.879  0.1050 -0.1956  0.3446
  265MPD2    C2 4061   0.674   3.842  15.802 -0.4540 -0.4111 -0.1656
  265MPD2    C3 4062   0.672   3.729  15.722 -0.1838  0.4365  0.5399
  265MPD2    C4 4063   0.556   3.659  15.723 -0.0963  0.0551  0.1224
  265MPD2    C5 4064   0.444   3.693  15.795 -0.1794  0.1993 -0.0964
  265MPD2     H 4065   0.764   3.902  15.801  0.9296 -2.5046 -1.3816
  265MPD2    H1 4066   0.543   3.570  15.663  1.1740 -0.7713  1.0839
  265MPD2    H2 4067   0.350   3.828  15.926 -0.1351  0.8906 -1.7433
  265MPD2    H3 4068   0.363   3.621  15.786  0.5797 -0.7963  1.1188
  265MPD2     N 4069   0.774   3.697  15.637  0.5081  0.2134 -0.2620
  265MPD2    H5 4070   0.788   3.601  15.607  3.4367  0.4116  0.3925
  265MPD2    N1 4071   0.575   3.977  15.969 -0.2355 -0.3426 -0.2575
  265MPD2    H7 4072   0.667   4.019  15.971  0.2370 -1.4797  2.6416
  266TMC3    C1 4073   0.525   4.138  16.143  0.1302  0.3891 -0.0355
  266TMC3    C2 4074   0.639   4.120  16.207  0.1399 -0.0690  0.2219
  266TMC3    C3 4075   0.669   4.198  16.314  0.7187 -0.2341 -0.1727
  266TMC3    C4 4076   0.434   4.234  16.178 -0.0361  0.4323  0.0043
  266TMC3    C5 4077   0.472   4.318  16.286 -0.0829 -1.2686 -0.0791
  266TMC3    C6 4078   0.580   4.290  16.358  0.0469 -0.5169 -0.2164
  266TMC3     C 4079   0.476   4.030  16.055 -0.7542 -0.3633 -0.1828
  266TMC3     O 4080   0.355   4.041  16.032  0.4059 -0.0345  1.0052
  266TMC3     H 4081   0.709   4.040  16.189 -1.3739 -1.3830  0.2268
  266TMC3    H1 4082   0.347   4.262  16.120  0.3198 -1.1435 -1.2924
  266TMC3    H2 4083   0.582   4.336  16.457 -0.4976  0.5963 -0.7218
  266TMC3    C7 4084   0.361   4.394  16.344  0.2662  0.0116  0.1239
  266TMC3    C8 4085   0.810   4.216  16.343  0.0412  0.3081 -0.1150
  266TMC3    O1 4086   0.347   4.387  16.466  0.1790 -0.0159 -0.0367
  266TMC3    O2 4087   0.891   4.131  16.306 -0.1809  0.5466  0.0652
  267MPD2     C 4088   3.661   0.780   0.800 -0.0274 -0.5596  0.2133
  267MPD2    C1 4089   3.680   0.815   0.670  0.2372  0.4438  0.1446
  267MPD2    C2 4090   3.566   0.811   0.588 -0.3500 -0.3305  0.1620
  267MPD2    C3 4091   3.438   0.798   0.642 -0.3549  0.3425 -0.1522
  267MPD2    C4 4092   3.425   0.765   0.773 -0.0606 -0.3313 -0.1795
  267MPD2    C5 4093   3.531   0.769   0.858  0.2510  0.4811 -0.3520
  267MPD2     H 4094   3.576   0.829   0.481  0.3407 -1.1328  0.0896
  267MPD2    H1 4095   3.321   0.763   0.804 -0.6062  1.0230 -1.9131
  267MPD2    H2 4096   3.744   0.772   0.870  1.4662  1.7365 -1.3020
  267MPD2    H3 4097   3.520   0.752   0.965 -3.7185  0.5326 -0.7643
  267MPD2     N 4098   3.317   0.815   0.571  0.5510  0.0577  0.2968
  267MPD2    H5 4099   3.231   0.802   0.623  0.7759  1.1523  0.9489
  267MPD2    N1 4100   3.817   0.835   0.629  0.1557 -0.3809  0.9128
  267MPD2    H7 4101   3.887   0.813   0.699 -1.1433  0.5392  2.5064
  268TMC3    C1 4102   3.999   0.887   0.491  0.2613 -0.3296  0.2039
  268TMC3    C2 4103   4.053   0.951   0.382  0.0555  0.3056  0.8789
  268TMC3    C3 4104   4.189   0.954   0.375 -0.5900 -0.0967 -0.2731
  268TMC3    C4 4105   4.072   0.834   0.592  0.2054 -0.6096  0.0867
  268TMC3    C5 4106   4.204   0.865   0.592 -0.1397 -0.0478 -0.0789
  268TMC3    C6 4107   4.266   0.917   0.488  0.2797  0.1525 -0.6389
  268TMC3     C 4108   3.858   0.879   0.504  0.8083 -0.0939 -0.1761
  268TMC3     O 4109   3.790   0.902   0.402 -0.5204  0.4230 -0.0749
  268TMC3     H 4110   3.984   0.981   0.304 -0.6663 -3.1075  0.1720
  268TMC3    H1 4111   4.039   0.747   0.648 -0.2343  0.1529  1.0220
  268TMC3    H2 4112   4.373   0.935   0.485  0.4733 -1.1994 -2.2510
  268TMC3    C7 4113   4.280   0.763   0.667 -0.4379  0.7071  0.2947
  268TMC3    C8 4114   4.248   1.058   0.299  0.0864 -0.0770  0.3533
  268TMC3    O1 4115   4.233   0.724   0.774 -0.4712  0.1863 -0.6415
  268TMC3    O2 4116   4.342   1.123   0.349 -0.7374 -0.4670 -0.2054
  269MPD2     C 4117   3.380   4.462  16.082 -0.0312 -0.2694 -0.2886
  269MPD2    C1 4118   3.241   4.485  16.064 -0.7688  0.0537  0.9416
  269MPD2    C2 4119   3.208   4.600  15.994 -0.5747 -0.1551 -0.5741
  269MPD2    C3 4120   3.302   4.684  15.935  0.2212 -0.9657 -1.1842
  269MPD2    C4 4121   3.437   4.664  15.959 -0.2850  0.0898  0.6322
  269MPD2    C5 4122   3.472   4.558  16.033  0.4317 -0.5374  0.4232
  269MPD2     H 4123   3.103   4.620  15.978 -1.3089 -1.5795  2.5816
  269MPD2    H1 4124   3.519   4.723  15.919  0.0556 -0.6760  0.2130
  269MPD2    H2 4125   3.427   4.382  16.138  0.6840 -0.8419 -1.7321
  269MPD2    H3 4126   3.573   4.521  16.047  0.5366  0.2200  1.6194
  269MPD2     N 4127   3.256   0.046  15.841 -0.1183  0.3125  0.1357
  269MPD2    H5 4128   3.155   0.057  15.841  0.0418  1.8999  1.0260
  269MPD2    N1 4129   3.142   4.387  16.107  0.7074 -0.3351 -0.3526
  269MPD2    H7 4130   3.176   4.322  16.177 -1.5481  0.0077  1.0846
  270TMC3    C1 4131   2.949   4.254  16.098 -0.3489  1.1272 -0.1619
  270TMC3    C2 4132   2.850   4.221  16.013 -0.1151 -0.1940 -0.4845
  270TMC3    C3 4133   2.770   4.123  16.055  0.3466  0.0043 -0.3478
  270TMC3    C4 4134   2.984   4.174  16.206  0.2176 -0.3778 -0.4985
  270TMC3    C5 4135   2.907   4.066  16.237 -0.6591  0.0358  0.0203
  270TMC3    C6 4136   2.792   4.045  16.168  0.0362  0.3153  0.4660
  270TMC3     C 4137   3.014   4.382  16.069 -0.4084 -0.0703  0.8361
  270TMC3     O 4138   2.960   4.461  15.997  0.0973 -0.2114  0.8093
  270TMC3     H 4139   2.823   4.288  15.932 -0.6452  0.3721  0.1597
  270TMC3    H1 4140   3.076   4.188  16.261 -1.5855  1.6115  1.9895
  270TMC3    H2 4141   2.747   3.948  16.180 -1.2022  0.7588 -0.5365
  270TMC3    C7 4142   2.945   3.952  16.314  0.6977  0.3702  0.2056
  270TMC3    C8 4143   2.693   4.060  15.952 -0.4430  0.5257 -0.3351
  270TMC3    O1 4144   2.899   3.843  16.288  0.1438  0.3310  0.3359
  270TMC3    O2 4145   2.596   3.991  15.972  0.2448 -0.9276 -0.3676
  271MPD2     C 4146   2.339   4.118  14.138  0.2121  0.1273  0.0429
  271MPD2    C1 4147   2.353   4.178  14.262 -0.2286  0.1766  1.0189
  271MPD2    C2 4148   2.267   4.282  14.296  0.3739  0.1844  0.4772
  271MPD2    C3 4149   2.181   4.327  14.205  0.2831  0.3449 -0.2019
  271MPD2    C4 4150   2.166   4.268  14.079 -0.3834 -0.4658  0.4350
  271MPD2    C5 4151   2.251   4.170  14.047  0.6507  0.0828  0.7366
  271MPD2     H 4152   2.278   4.335  14.390  2.4751 -0.4608  0.5807
  271MPD2    H1 4153   2.088   4.303  14.012 -0.5122 -1.3569  0.1131
  271MPD2    H2 4154   2.403   4.034  14.112 -0.3753 -1.0964  2.5035
  271MPD2    H3 4155   2.239   4.114  13.955  1.1771  0.3401  0.5180
  271MPD2     N 4156   2.099   4.433  14.225 -0.7895  0.1559  0.0406
  271MPD2    H5 4157   2.042   4.452  14.143 -1.6377 -2.5086 -0.0011
  271MPD2    N1 4158   2.445   4.130  14.360  0.1779 -0.8109  0.2735
  271MPD2    H7 4159   2.461   4.187  14.442 -4.9425  0.9750  0.0222
  272TMC3    C1 4160   2.599   3.984  14.474 -0.0063 -0.7418  0.2024
  272TMC3    C2 4161   2.717   3.921  14.463 -0.1717  0.3483 -0.5099
  272TMC3    C3 4162   2.772   3.876  14.583 -0.3879  0.5847 -0.1305
  272TMC3    C4 4163   2.532   4.000  14.594 -0.4638 -0.5829  0.5600
  272TMC3    C5 4164   2.590   3.959  14.698 -0.6024  0.0683  0.0416
  272TMC3    C6 4165   2.710   3.900  14.699 -0.4238  0.0355  0.3738
  272TMC3     C 4166   2.526   4.013  14.349 -0.5176  0.3306 -0.5650
  272TMC3     O 4167   2.541   3.927  14.266  0.1300 -0.5847 -0.5047
  272TMC3     H 4168   2.773   3.913  14.370  0.3562 -2.5743  0.0435
  272TMC3    H1 4169   2.432   4.043  14.593 -0.0366  0.4308  2.3351
  272TMC3    H2 4170   2.750   3.855  14.789 -2.7441  0.0840  1.4288
  272TMC3    C7 4171   2.519   3.965  14.824 -0.4894 -0.3313 -0.0224
  272TMC3    C8 4172   2.894   3.800  14.573  0.5792  0.1391 -0.2669
  272TMC3    O1 4173   2.398   3.982  14.811 -0.3644  0.3561  1.4280
  272TMC3    O2 4174   2.928   3.781  14.459 -0.2574  0.3284 -0.3672
  273MPD2     C 4175   4.169   2.193  11.937  1.0514 -0.1162  0.4316
  273MPD2    C1 4176   4.246   2.300  11.899  0.5171  0.0417 -0.8906
  273MPD2    C2 4177   4.235   2.352  11.769  0.1244  0.1142  0.0205
  273MPD2    C3 4178   4.148   2.297  11.675  0.1545  0.1143 -0.2240
  273MPD2    C4 4179   4.079   2.187  11.720  0.2225 -0.1329  1.0435
  273MPD2    C5 4180   4.089   2.136  11.841 -0.5952  0.5226  0.6047
  273MPD2     H 4181   4.309   2.430  11.753  2.3461 -1.7242  1.2124
  273MPD2    H1 4182   4.006   2.150  11.650 -1.4634  1.6832  1.8296
  273MPD2    H2 4183   4.174   2.148  12.035 -1.1215  0.6703  0.8931
  273MPD2    H3 4184   4.019   2.062  11.877  0.7096 -1.8672 -1.7867
  273MPD2     N 4185   4.143   2.343  11.541 -0.2188 -0.0529  0.0650
  273MPD2    H5 4186   4.095   2.279  11.478 -0.0286  2.8513 -3.0737
  273MPD2    N1 4187   4.335   2.351  11.996 -0.0367 -0.1993  0.1963
  273MPD2    H7 4188   4.328   2.303  12.085 -2.1616  1.2997  0.8219
  274TMC3    C1 4189   4.173   2.513  11.365 -0.5025 -0.9511 -0.0231
  274TMC3    C2 4190   4.049   2.484  11.303 -0.2211  0.1871  1.0086
  274TMC3    C3 4191   4.012   2.573  11.207 -0.1811  0.5906  0.2858
  274TMC3    C4 4192   4.243   2.630  11.337  0.2015 -0.4412  0.2460
  274TMC3    C5 4193   4.179   2.723  11.251 -0.4258 -0.0546 -0.2278
  274TMC3    C6 4194   4.079   2.686  11.159  0.2639  0.1475 -0.0236
  274TMC3     C 4195   4.185   2.473  11.505 -0.2315 -0.2516 -0.3313
  274TMC3     O 4196   4.229   2.563  11.572 -0.2040  0.8500 -0.2314
  274TMC3     H 4197   3.994   2.391  11.316 -3.0925  1.7582 -0.1980
  274TMC3    H1 4198   4.337   2.654  11.384  1.0592 -0.3540 -1.5016
  274TMC3    H2 4199   4.022   2.764  11.110  5.4586  3.3790 -0.9730
  274TMC3    C7 4200   4.149   2.853  11.313  0.1909  0.7132  0.0171
  274TMC3    C8 4201   3.869   2.560  11.154  0.0391  0.9193 -0.0607
  274TMC3    O1 4202   4.080   2.932  11.255 -0.4440 -0.7958 -0.6276
  274TMC3    O2 4203   3.798   2.485  11.218  0.1266 -0.1813  0.2582
  275MPD2     C 4204   4.023   0.460  14.648 -0.4749 -0.3297  0.4988
  275MPD2    C1 4205   4.015   0.336  14.701  0.3638 -0.7226 -0.0115
  275MPD2    C2 4206   3.904   0.252  14.683 -0.2961 -0.1782  0.0888
  275MPD2    C3 4207   3.794   0.306  14.620  0.0035  0.3575 -0.8873
  275MPD2    C4 4208   3.801   0.428  14.561  0.7240  0.7062 -0.0479
  275MPD2    C5 4209   3.918   0.502  14.568  0.0887  0.1211 -0.5221
  275MPD2     H 4210   3.907   0.155  14.730  0.8141  0.2101  0.8154
  275MPD2    H1 4211   3.720   0.461  14.498 -0.6810 -1.1748  0.7794
  275MPD2    H2 4212   4.105   0.528  14.667 -1.0334  0.6755 -0.6142
  275MPD2    H3 4213   3.933   0.601  14.526 -1.3386  0.5321 -0.0552
  275MPD2     N 4214   3.680   0.223  14.594  0.8572 -0.1655 -0.1654
  275MPD2    H5 4215   3.601   0.269  14.551  1.1508  0.1578 -0.3556
  275MPD2    N1 4216   4.117   0.287  14.788 -0.1570 -0.2308  0.3008
  275MPD2    H7 4217   4.108   0.201  14.841 -0.3780 -1.2221 -1.3649
  276TMC3    C1 4218   4.328   0.251  14.907 -0.4733  0.3201 -0.1998
  276TMC3    C2 4219   4.301   0.116  14.915  0.0384  0.4092 -0.1227
  276TMC3    C3 4220   4.357   0.046  15.017  0.8386 -0.5044  0.9646
  276TMC3    C4 4221   4.406   0.309  15.003 -0.4390  1.1281 -0.1422
  276TMC3    C5 4222   4.429   0.241  15.118 -0.5081 -0.0409  0.2965
  276TMC3    C6 4223   4.412   0.107  15.124 -0.4707  0.9301  0.2527
  276TMC3     C 4224   4.242   0.343  14.824  0.0534  0.6178  0.1034
  276TMC3     O 4225   4.270   0.461  14.828  0.0970  0.1714 -0.2794
  276TMC3     H 4226   4.244   0.064  14.839 -0.1421 -0.5055  0.6404
  276TMC3    H1 4227   4.415   0.417  15.007  0.0273  0.9364  3.9411
  276TMC3    H2 4228   4.439   0.051  15.213 -1.5059 -1.4054 -0.9159
  276TMC3    C7 4229   4.532   0.299  15.205 -0.2437  0.2195  0.2122
  276TMC3    C8 4230   4.336   4.640  15.011 -0.2884  1.0771  0.2976
  276TMC3    O1 4231   4.551   0.251  15.313  0.6316 -0.1429 -0.3938
  276TMC3    O2 4232   4.324   4.593  14.897  0.2746 -0.7269  0.3484
  277MPD2     C 4233   1.021   4.649  13.401 -0.0583 -0.3482  0.0376
  277MPD2    C1 4234   0.884   4.644  13.401  0.4341  0.1662 -0.1608
  277MPD2    C2 4235   0.827   4.542  13.474 -0.4400 -0.0352  1.0725
  277MPD2    C3 4236   0.903   4.456  13.558  0.6622 -0.7333  0.0982
  277MPD2    C4 4237   1.034   4.468  13.561  0.6700 -0.3907 -0.5276
  277MPD2    C5 4238   1.094   4.563  13.483 -1.0263 -0.3070  0.2894
  277MPD2     H 4239   0.719   4.529  13.474 -0.2783 -1.3920 -1.0096
  277MPD2    H1 4240   1.096   4.389  13.601  0.6179 -0.0844  0.1566
  277MPD2    H2 4241   1.074   4.724  13.343  1.2131 -2.2182 -1.1843
  277MPD2    H3 4242   1.202   4.565  13.474 -0.6522  2.6064  5.0119
  277MPD2     N 4243   0.838   4.353  13.630 -0.2212 -0.6297  0.1415
  277MPD2    H5 4244   0.741   4.339  13.604 -0.0939  1.2394 -1.2832
  277MPD2    N1 4245   0.805   4.738  13.334  0.2803  0.1556 -0.3668
  277MPD2    H7 4246   0.847   0.071  13.277  2.1831  1.2220  2.4216
  278TMC3    C1 4247   0.799   4.168  13.755 -0.1051 -0.5182 -0.4491
  278TMC3    C2 4248   0.835   4.040  13.751 -0.3768  0.4448 -0.6055
  278TMC3    C3 4249   0.763   3.954  13.822 -0.0791 -0.3472  0.2745
  278TMC3    C4 4250   0.679   4.212  13.799 -0.3958  0.4290 -0.0906
  278TMC3    C5 4251   0.586   4.122  13.839  0.2537  0.0913  0.2123
  278TMC3    C6 4252   0.631   3.992  13.847  0.2845 -0.2136 -0.3086
  278TMC3     C 4253   0.897   4.269  13.724  0.7679 -0.1905  0.2853
  278TMC3     O 4254   1.009   4.268  13.772 -0.0129  1.1056  0.0609
  278TMC3     H 4255   0.935   4.011  13.718 -0.5502 -0.9132  0.0550
  278TMC3    H1 4256   0.666   4.320  13.797 -1.1720  0.3699  1.4630
  278TMC3    H2 4257   0.574   3.912  13.893 -0.6728  2.1232  2.5511
  278TMC3    C7 4258   0.470   4.173  13.914 -0.3641  0.2030 -0.3646
  278TMC3    C8 4259   0.799   3.811  13.818 -0.6117  0.4918  0.3262
  278TMC3    O1 4260   0.454   4.290  13.904 -0.4659 -0.1130 -0.0142
  278TMC3    O2 4261   0.894   3.772  13.887 -0.3151 -0.5581 -0.6013
  279MPD2     C 4262   0.813   3.860   0.359  0.4108  0.0799 -0.1117
  279MPD2    C1 4263   0.679   3.898   0.361  0.1743  0.2455 -0.2212
  279MPD2    C2 4264   0.635   3.947   0.240 -0.4998 -0.0006  0.3078
  279MPD2    C3 4265   0.713   3.949   0.123  0.2363 -0.3971  0.3731
  279MPD2    C4 4266   0.838   3.897   0.128  0.1172  0.0623  0.2381
  279MPD2    C5 4267   0.890   3.852   0.244 -0.0745 -0.8051  0.1115
  279MPD2     H 4268   0.530   3.976   0.238 -0.9689 -1.6511  0.8807
  279MPD2    H1 4269   0.899   3.892   0.039  1.4844  1.2538  1.0928
  279MPD2    H2 4270   0.858   3.826   0.452  0.6781  0.7447  0.0004
  279MPD2    H3 4271   0.990   3.811   0.252 -0.3724 -1.5400  0.0851
  279MPD2     N 4272   0.669   3.999   0.003 -0.8074  0.3323 -0.2687
  279MPD2    H5 4273   0.735   4.023  17.685 -2.2748  1.8982 -1.0721
  279MPD2    N1 4274   0.613   3.904   0.487  0.6814 -0.4427  0.2155
  279MPD2    H7 4275   0.665   3.879   0.570  2.3647 -0.8965 -0.9942
  280TMC3    C1 4276   0.451   3.950   0.650  0.5130 -0.4142  0.0865
  280TMC3    C2 4277   0.534   3.888   0.735 -0.4536  0.3556  0.8791
  280TMC3    C3 4278   0.520   3.929   0.865 -0.0889 -0.2494 -0.2856
  280TMC3    C4 4279   0.363   4.049   0.684  0.4375  0.2819  0.1288
  280TMC3    C5 4280   0.354   4.075   0.819  0.8574  1.2966 -0.2420
  280TMC3    C6 4281   0.432   4.018   0.913  0.0135  0.9646  0.3202
  280TMC3     C 4282   0.487   3.955   0.508  0.4116 -0.5554 -0.4005
  280TMC3     O 4283   0.402   3.990   0.425 -0.3925 -0.4140  0.0223
  280TMC3     H 4284   0.591   3.799   0.711  0.2179  0.9314  0.3281
  280TMC3    H1 4285   0.287   4.083   0.614  1.2375  1.3241 -0.2173
  280TMC3    H2 4286   0.430   4.038   1.020 -0.9563  0.2317  0.4307
  280TMC3    C7 4287   0.250   4.166   0.857  0.4515 -0.1431  0.2289
  280TMC3    C8 4288   0.627   3.887   0.954 -0.0049 -0.3662  0.1437
  280TMC3    O1 4289   0.221   4.154   0.975  0.0865  0.0391 -0.4070
  280TMC3    O2 4290   0.622   3.945   1.059 -0.1991 -0.0028 -0.0230
  281TMC3    C1 4291   3.343   0.101  13.518  0.4267  0.0585 -0.5457
  281TMC3    C2 4292   3.463   0.057  13.466  1.0573  0.1571  0.2270
  281TMC3    C3 4293   3.487   4.661  13.477  0.0135  0.2649  1.1146
  281TMC3    C4 4294   3.249   0.015  13.575 -0.7493  0.9597 -0.0932
  281TMC3    C5 4295   3.287   4.626  13.593  0.1917 -0.0311  0.6642
  281TMC3    C6 4296   3.404   4.577  13.544 -0.1498  0.4822  0.3440
  281TMC3     C 4297   3.314   0.241  13.536  0.3120  0.1670  0.3184
  281TMC3     O 4298   3.198   0.262  13.559  0.0184  0.1600 -0.3128
  281TMC3     H 4299   3.517   0.127  13.403  2.8777 -0.1166  1.4789
  281TMC3    H1 4300   3.158   0.058  13.615  0.6586  1.8987  2.0767
  281TMC3    H2 4301   3.429   4.472  13.534  2.4066  1.0853  0.4924
  281TMC3    C7 4302   3.175   4.536  13.612 -0.0306 -0.4683 -0.6109
  281TMC3    C8 4303   3.611   4.630  13.415 -0.0131  0.2354  0.7135
  281TMC3    O1 4304   3.062   4.572  13.576  0.0316 -0.0284  0.3277
  281TMC3    O2 4305   3.702   4.715  13.419  0.5009  0.2921  0.2347
  282MPD2     C 4306   0.731   0.588  15.240 -0.4803 -0.1204  0.3277
  282MPD2    C1 4307   0.643   0.676  15.296 -0.8406 -0.2623  0.1495
  282MPD2    C2 4308   0.548   0.737  15.215 -0.0897  0.4634  0.1352
  282MPD2    C3 4309   0.546   0.708  15.080 -0.1866  0.1263 -0.8737
  282MPD2    C4 4310   0.633   0.615  15.027  0.2221  0.1052  0.1804
  282MPD2    C5 4311   0.728   0.566  15.105  0.1020  1.0372 -0.4200
  282MPD2     H 4312   0.470   0.802  15.252 -1.0270 -0.1836 -0.6729
  282MPD2    H1 4313   0.631   0.594  14.920 -0.8852 -0.1855  0.2557
  282MPD2    H2 4314   0.806   0.547  15.306 -0.0601 -1.1492 -0.7776
  282MPD2    H3 4315   0.790   0.494  15.053 -0.5325  0.7671 -0.7908
  282MPD2     N 4316   0.449   0.771  14.996 -0.1064 -0.1938 -0.0200
  282MPD2    H5 4317   0.366   0.808  15.040 -0.0109 -0.2914  0.2399
  282MPD2    N1 4318   0.639   0.695  15.437 -0.2985 -0.2836  0.2225
  282MPD2    H7 4319   0.573   0.763  15.474  1.1593  1.0486  0.3508
  283TMC3    C1 4320   0.691   0.689  15.659 -0.9072  0.4390  0.4471
  283TMC3    C2 4321   0.687   0.825  15.662 -0.5250  0.4227 -0.4762
  283TMC3    C3 4322   0.651   0.885  15.783  0.6087 -0.3024  0.2370
  283TMC3    C4 4323   0.661   0.606  15.764  0.3059  1.1499  0.3249
  283TMC3    C5 4324   0.622   0.665  15.878  0.4061  0.3277  0.7378
  283TMC3    C6 4325   0.622   0.807  15.885  0.2111  0.1675  0.0478
  283TMC3     C 4326   0.714   0.630  15.533 -0.4861  0.5045 -0.1402
  283TMC3     O 4327   0.774   0.526  15.529 -0.4484 -0.0238 -0.0501
  283TMC3     H 4328   0.726   0.879  15.577 -1.5823  1.2013 -0.4637
  283TMC3    H1 4329   0.647   0.499  15.750 -0.4607  1.1302  1.2418
  283TMC3    H2 4330   0.606   0.848  15.984  0.9386  1.6151 -0.4303
  283TMC3    C7 4331   0.541   0.603  15.980 -0.6481 -0.2971 -0.7448
  283TMC3    C8 4332   0.676   1.024  15.802 -0.3558  0.7065  0.0409
  283TMC3    O1 4333   0.471   0.676  16.050  0.1724 -0.8706 -0.3132
  283TMC3    O2 4334   0.674   1.065  15.916 -0.4851 -0.1063 -0.4277
  284MPD2     C 4335   3.727   0.243  12.583  0.0331  0.1677  0.2305
  284MPD2    C1 4336   3.615   0.291  12.519  0.0070  0.6439  0.3653
  284MPD2    C2 4337   3.502   0.214  12.500 -0.7480  0.4460 -0.0097
  284MPD2    C3 4338   3.493   0.092  12.564  0.3982 -0.2441  0.6333
  284MPD2    C4 4339   3.590   0.056  12.656 -0.0413 -0.2897 -0.0985
  284MPD2    C5 4340   3.708   0.131  12.670 -0.0505 -0.0696 -0.2822
  284MPD2     H 4341   3.420   0.243  12.437  1.0782 -0.0003 -2.5878
  284MPD2    H1 4342   3.573   4.706  12.714 -1.0233 -0.3393 -0.4612
  284MPD2    H2 4343   3.810   0.312  12.599 -0.4876  0.5785  1.1756
  284MPD2    H3 4344   3.786   0.100  12.739  0.8418  1.9020 -0.4030
  284MPD2     N 4345   3.393   4.734  12.543  0.3073 -0.0648  0.7949
  284MPD2    H5 4346   3.414   4.646  12.589  0.5017  0.3566  1.4960
  284MPD2    N1 4347   3.626   0.417  12.466  0.4402 -0.0641  0.1850
  284MPD2    H7 4348   3.719   0.458  12.461 -0.1924  1.0880 -2.5701
  285TMC3    C1 4349   3.565   0.621  12.374 -0.1928 -0.7046 -1.2104
  285TMC3    C2 4350   3.681   0.623  12.298 -0.4741  0.0167 -0.0539
  285TMC3    C3 4351   3.718   0.743  12.242  0.2752 -0.7911 -0.2369
  285TMC3    C4 4352   3.473   0.721  12.375  0.0173  0.3766  0.0844
  285TMC3    C5 4353   3.509   0.830  12.296  0.2075  0.3065 -0.6486
  285TMC3    C6 4354   3.631   0.849  12.245  0.5620  0.1473  0.2780
  285TMC3     C 4355   3.520   0.492  12.421  0.7548  0.9709  0.1392
  285TMC3     O 4356   3.402   0.473  12.423  0.1789  0.7094  0.8103
  285TMC3     H 4357   3.759   0.549  12.286 -0.4683 -0.0074  0.1258
  285TMC3    H1 4358   3.387   0.717  12.441  1.1650  0.1959  1.5670
  285TMC3    H2 4359   3.659   0.935  12.186 -1.4742  0.7224  0.1504
  285TMC3    C7 4360   3.417   0.932  12.272  0.2964  0.3095  0.1859
  285TMC3    C8 4361   3.816   0.757  12.140  0.3853  0.6064 -0.4537
  285TMC3    O1 4362   3.467   1.043  12.266  0.6707 -0.1087  0.4166
  285TMC3    O2 4363   3.859   0.867  12.113  0.0670 -0.3804 -0.3237
  286MPD2     C 4364   4.076   3.624   2.170  0.3781 -0.5001  0.3729
  286MPD2    C1 4365   4.142   3.695   2.070  0.1349  0.2492 -0.1667
  286MPD2    C2 4366   4.257   3.638   2.017 -0.4812  0.2326  0.3246
  286MPD2    C3 4367   4.302   3.512   2.057 -0.1152 -0.6070 -0.2969
  286MPD2    C4 4368   4.238   3.445   2.156  0.0871 -0.3948 -0.6277
  286MPD2    C5 4369   4.128   3.505   2.212 -0.0761 -0.7772  0.2086
  286MPD2     H 4370   4.309   3.695   1.941  1.1744  0.4061  1.6034
  286MPD2    H1 4371   4.262   3.351   2.205 -1.6184 -0.9681 -0.8684
  286MPD2    H2 4372   3.994   3.658   2.233 -0.4724  0.8885 -1.4743
  286MPD2    H3 4373   4.078   3.458   2.295 -0.5446 -1.5893 -0.5386
  286MPD2     N 4374   4.413   3.456   1.993  0.0361 -0.7605  0.5224
  286MPD2    H5 4375   4.442   3.368   2.036  2.4474 -0.5714 -0.7170
  286MPD2    N1 4376   4.117   3.830   2.035  0.3252  0.0078 -0.3233
  286MPD2    H7 4377   4.176   3.868   1.962  0.2587 -0.7373 -0.7654
  287TMC3    C1 4378   4.595   3.413   1.840  0.2841 -0.1091 -0.0643
  287TMC3    C2 4379   4.624   3.397   1.708 -0.2780 -0.0895 -0.0760
  287TMC3    C3 4380   0.004   3.346   1.672 -0.5075  1.1835  0.1084
  287TMC3    C4 4381   4.691   3.394   1.934 -0.2377  0.4432  0.1262
  287TMC3    C5 4382   0.080   3.352   1.892  0.6485  0.0212  0.5074
  287TMC3    C6 4383   0.109   3.325   1.756  0.2304 -0.3031  0.4585
  287TMC3     C 4384   4.468   3.485   1.865 -0.1136 -0.2245  1.1104
  287TMC3     O 4385   4.442   3.569   1.785 -0.1222 -0.3897  0.1360
  287TMC3     H 4386   4.550   3.426   1.635 -0.4926 -3.5991 -1.2641
  287TMC3    H1 4387   4.671   3.436   2.032 -0.1452  0.5017  0.1209
  287TMC3    H2 4388   0.202   3.280   1.722 -0.4546 -0.1197 -1.6725
  287TMC3    C7 4389   0.183   3.387   1.985  0.8295 -0.5434  0.0682
  287TMC3    C8 4390   0.015   3.323   1.532 -0.8958  0.0269  0.9875
  287TMC3    O1 4391   0.151   3.435   2.095 -0.5780  0.5107  0.3289
  287TMC3    O2 4392   4.652   3.333   1.466  0.0548  0.1846  0.6379
  288TMC3    C1 4393   0.970   3.619  14.646 -0.0824  0.5351  1.2513
  288TMC3    C2 4394   0.912   3.627  14.768 -0.1653  0.5099 -0.0710
  288TMC3    C3 4395   0.803   3.700  14.787  0.1574 -0.8577  0.1356
  288TMC3    C4 4396   0.907   3.681  14.538 -0.2184 -0.1712 -0.8109
  288TMC3    C5 4397   0.793   3.752  14.558 -0.0830 -0.2270  0.6543
  288TMC3    C6 4398   0.740   3.759  14.683 -0.3865  0.4470  0.2742
  288TMC3     C 4399   1.107   3.567  14.650  0.0663 -0.0421 -0.0849
  288TMC3     O 4400   1.132   3.509  14.755  1.0192 -0.0361  0.7749
  288TMC3     H 4401   0.960   3.580  14.854 -0.0905 -1.7168 -1.3361
  288TMC3    H1 4402   0.938   3.668  14.435  0.3792  1.3918 -0.8346
  288TMC3    H2 4403   0.651   3.819  14.701 -0.1537  0.7092  0.5420
  288TMC3    C7 4404   0.732   3.848  14.467  0.1290  0.1401  0.1037
  288TMC3    C8 4405   0.745   3.713  14.918  0.3120  0.2818 -0.7215
  288TMC3    O1 4406   0.618   3.888  14.491 -0.0672  0.5571  0.7096
  288TMC3    O2 4407   0.676   3.812  14.934  1.0598  0.2392 -0.1624
  289MPD2     C 4408   0.421   2.500  14.898  0.0834 -0.3977  0.6629
  289MPD2    C1 4409   0.419   2.623  14.839  0.1346  0.6417 -0.2268
  289MPD2    C2 4410   0.304   2.664  14.773 -0.3868 -0.2898  0.3369
  289MPD2    C3 4411   0.188   2.581  14.765  0.1288 -0.3407  0.5863
  289MPD2    C4 4412   0.193   2.450  14.821 -0.1366 -0.3314 -0.3354
  289MPD2    C5 4413   0.307   2.421  14.891 -0.2955  0.2529  0.6432
  289MPD2     H 4414   0.308   2.770  14.750 -0.1388  0.0871  2.1590
  289MPD2    H1 4415   0.113   2.377  14.824 -1.4862  1.1605  0.0172
  289MPD2    H2 4416   0.500   2.458  14.959  1.1983 -1.0078 -1.2005
  289MPD2    H3 4417   0.308   2.327  14.946  0.4018  0.0798  0.3356
  289MPD2     N 4418   0.062   2.607  14.696  0.7516 -0.2776 -0.3253
  289MPD2    H5 4419   4.723   2.543  14.707 -1.4717  2.2227 -1.4193
  289MPD2    N1 4420   0.543   2.695  14.850  0.2598  0.0739 -0.5011
  289MPD2    H7 4421   0.610   2.662  14.918 -0.2627 -1.4228 -0.7168
  290TMC3    C1 4422   4.668   2.711  14.542  0.4569  0.7671  0.0555
  290TMC3    C2 4423   4.664   2.809  14.443  0.2634  0.0817  0.1602
  290TMC3    C3 4424   4.554   2.802  14.357  0.4650  0.1029 -0.1602
  290TMC3    C4 4425   4.597   2.596  14.532 -0.2490 -0.2634 -0.0808
  290TMC3    C5 4426   4.506   2.586  14.433 -0.9478 -0.5735 -0.8053
  290TMC3    C6 4427   4.485   2.689  14.338  0.1585  0.8451  0.2615
  290TMC3     C 4428   0.044   2.720  14.628 -0.7364 -0.3498 -0.6751
  290TMC3     O 4429   0.123   2.814  14.610 -0.2003  0.3043  0.2077
  290TMC3     H 4430   4.732   2.893  14.452 -0.0826  0.4753 -0.9048
  290TMC3    H1 4431   4.600   2.522  14.611 -0.5648  1.2912  1.3967
  290TMC3    H2 4432   4.402   2.679  14.269  1.1391 -0.3116 -0.7290
  290TMC3    C7 4433   4.425   2.465  14.438  0.0893 -0.1031  1.0853
  290TMC3    C8 4434   4.536   2.906  14.259  0.3725 -0.8846  0.2789
  290TMC3    O1 4435   4.303   2.477  14.410 -0.2773 -0.1633 -0.6344
  290TMC3    O2 4436   4.446   2.890  14.177  0.5394 -0.3538 -1.0072
  291MPD2     C 4437   0.528   2.857   0.569  1.0091 -0.4289 -0.2823
  291MPD2    C1 4438   0.645   2.786   0.557 -0.2864 -0.3813 -0.0224
  291MPD2    C2 4439   0.757   2.861   0.527 -0.0607 -0.5048  0.1334
  291MPD2    C3 4440   0.738   2.995   0.483  0.2444  0.4456 -0.5071
  291MPD2    C4 4441   0.615   3.058   0.476  0.5968  0.0330  0.1277
  291MPD2    C5 4442   0.512   2.984   0.523  0.3955  0.4162  0.3728
  291MPD2     H 4443   0.853   2.811   0.537  0.5777  0.8193  0.6629
  291MPD2    H1 4444   0.595   3.161   0.449 -1.0370 -0.6717 -1.3492
  291MPD2    H2 4445   0.439   2.799   0.593 -0.9048  2.0669 -1.3245
  291MPD2    H3 4446   0.421   3.041   0.536 -0.0839 -0.4376  0.6661
  291MPD2     N 4447   0.853   3.071   0.445  0.1452 -0.4358 -0.1476
  291MPD2    H5 4448   0.830   3.165   0.414 -0.1704 -0.5726 -0.3350
  291MPD2    N1 4449   0.658   2.648   0.598  0.7360 -0.3578 -0.1560
  291MPD2    H7 4450   0.751   2.627   0.632  0.2453  0.2278  1.5794
  292TMC3    C1 4451   0.601   2.416   0.635  0.4866 -0.0829 -0.2356
  292TMC3    C2 4452   0.669   2.417   0.754  0.0215 -0.4912  0.2911
  292TMC3    C3 4453   0.671   2.296   0.818  0.9081 -0.4517 -0.1092
  292TMC3    C4 4454   0.528   2.317   0.584  0.0816 -0.7373 -0.3392
  292TMC3    C5 4455   0.548   2.197   0.651  0.0416 -1.0777 -0.3530
  292TMC3    C6 4456   0.608   2.189   0.779  0.7607 -0.6141 -0.0460
  292TMC3     C 4457   0.557   2.550   0.592 -0.8546  0.0152 -0.1746
  292TMC3     O 4458   0.451   2.549   0.531 -0.1578  0.7099  0.6913
  292TMC3     H 4459   0.702   2.509   0.802  2.6821 -0.9896 -0.5705
  292TMC3    H1 4460   0.483   2.325   0.486 -2.2366  1.3587  0.9230
  292TMC3    H2 4461   0.639   2.093   0.819  0.8049 -1.6056 -2.4431
  292TMC3    C7 4462   0.516   2.063   0.600  0.2410 -0.4950 -0.1844
  292TMC3    C8 4463   0.709   2.303   0.957 -0.3064  0.4705  0.1365
  292TMC3    O1 4464   0.569   1.969   0.658 -0.2420 -0.1404 -0.2278
  292TMC3    O2 4465   0.804   2.375   0.993 -0.1074  0.1921 -0.5027
  293MPD2     C 4466   1.508   4.436  12.818 -0.0699  0.1439  0.0609
  293MPD2    C1 4467   1.440   4.335  12.881 -0.6032 -0.1116 -0.0642
  293MPD2    C2 4468   1.443   4.313  13.015  0.0020 -0.2247  0.2132
  293MPD2    C3 4469   1.528   4.399  13.085  0.4353  0.5892  0.1851
  293MPD2    C4 4470   1.596   4.504  13.024  0.8469  0.3324  0.0771
  293MPD2    C5 4471   1.591   4.519  12.890 -1.0682  0.1272 -0.0502
  293MPD2     H 4472   1.374   4.241  13.056 -0.4309  0.4120  0.5936
  293MPD2    H1 4473   1.655   4.581  13.073 -0.1859  0.2728  1.4141
  293MPD2    H2 4474   1.495   4.452  12.712 -0.9355 -0.7420  0.0292
  293MPD2    H3 4475   1.640   4.603  12.842 -0.2764 -0.2486  0.0977
  293MPD2     N 4476   1.525   4.394  13.226  0.0604  0.2124 -0.2419
  293MPD2    H5 4477   1.443   4.352  13.270  0.4146 -1.8369 -1.5526
  293MPD2    N1 4478   1.358   4.262  12.794 -0.2679 -0.4382  0.1872
  293MPD2    H7 4479   1.343   4.287  12.697  2.3188  0.7940  0.1080
  294TMC3    C1 4480   1.171   4.143  12.719 -0.1428  0.2005  0.1730
  294TMC3    C2 4481   1.111   4.023  12.715  0.1126  0.3566  0.9934
  294TMC3    C3 4482   1.030   3.993  12.610  0.0717  0.2503 -0.4473
  294TMC3    C4 4483   1.146   4.239  12.622 -0.0927  0.5929 -0.5355
  294TMC3    C5 4484   1.067   4.201  12.516 -0.1328  0.5969  0.3796
  294TMC3    C6 4485   1.000   4.086  12.514  0.0534  0.1832  0.1376
  294TMC3     C 4486   1.275   4.164  12.827 -0.5432  0.0782  0.1818
  294TMC3     O 4487   1.260   4.086  12.922 -0.1225  0.2802  0.0867
  294TMC3     H 4488   1.125   3.950  12.795  0.1090  0.8597  1.4531
  294TMC3    H1 4489   1.196   4.335  12.619 -0.0358  0.5729 -0.2850
  294TMC3    H2 4490   0.936   4.066  12.429 -0.9289  0.7753  0.7347
  294TMC3    C7 4491   1.048   4.294  12.404 -1.0664 -0.4638 -0.2899
  294TMC3    C8 4492   0.953   3.870  12.614  0.1675  0.1551 -0.4004
  294TMC3    O1 4493   0.938   4.303  12.348 -0.0855  0.1852  0.0891
  294TMC3    O2 4494   0.910   3.827  12.719  0.5668  0.0430  0.2080
  295MPD2     C 4495   2.352   2.442   1.327 -0.6952  0.2661  0.5710
  295MPD2    C1 4496   2.251   2.452   1.229  0.8939 -0.1514  0.3811
  295MPD2    C2 4497   2.120   2.488   1.268 -0.0905 -0.1213  0.4201
  295MPD2    C3 4498   2.095   2.518   1.400  0.4360  0.0873 -0.1622
  295MPD2    C4 4499   2.192   2.514   1.491 -0.2314  0.2398 -0.6599
  295MPD2    C5 4500   2.316   2.472   1.459 -0.2319 -0.0011  0.2959
  295MPD2     H 4501   2.043   2.495   1.192  1.1855 -2.4201 -1.0756
  295MPD2    H1 4502   2.165   2.538   1.594 -0.9953 -0.1807 -0.7574
  295MPD2    H2 4503   2.452   2.403   1.308 -0.1399  2.5839 -1.2519
  295MPD2    H3 4504   2.391   2.452   1.535 -0.5908 -0.5865  0.4882
  295MPD2     N 4505   1.974   2.551   1.464 -0.0255  0.4558  0.1753
  295MPD2    H5 4506   1.981   2.583   1.560 -2.1317 -0.9740  0.8032
  295MPD2    N1 4507   2.279   2.420   1.094 -0.3479 -0.1087 -0.0480
  295MPD2    H7 4508   2.200   2.402   1.033 -0.6496  1.1742 -0.0391
  296TMC3    C1 4509   1.743   2.579   1.491  0.5272 -0.2430  0.3381
  296TMC3    C2 4510   1.768   2.688   1.562  0.2992  0.2239 -0.3337
  296TMC3    C3 4511   1.667   2.720   1.652  0.5906  0.2126 -0.0197
  296TMC3    C4 4512   1.634   2.500   1.507 -0.5016 -0.6726  0.6436
  296TMC3    C5 4513   1.538   2.534   1.598  0.1284 -0.0364 -0.7022
  296TMC3    C6 4514   1.556   2.649   1.677  0.2496  0.1690 -0.0521
  296TMC3     C 4515   1.851   2.529   1.405  0.1153 -0.3504 -0.3285
  296TMC3     O 4516   1.825   2.488   1.293  0.0198 -0.0260 -0.2878
  296TMC3     H 4517   1.852   2.754   1.544  0.6077  0.6176  2.4607
  296TMC3    H1 4518   1.636   2.403   1.459 -2.5331 -0.2384 -0.3238
  296TMC3    H2 4519   1.478   2.680   1.745  2.3467 -0.7444  2.7674
  296TMC3    C7 4520   1.432   2.435   1.631 -0.5167  0.1621  0.0187
  296TMC3    C8 4521   1.676   2.849   1.722  0.0570  0.3937  0.6638
  296TMC3    O1 4522   1.394   2.363   1.545  0.0897 -0.3650 -0.2438
  296TMC3    O2 4523   1.615   2.853   1.825 -0.3586 -0.1814 -0.0322
  297MPD2     C 4524   0.204   4.120  16.893 -0.8793  0.2593  0.4827
  297MPD2    C1 4525   0.159   4.185  16.777 -1.0507 -0.1824 -0.4530
  297MPD2    C2 4526   0.219   4.292  16.728 -0.4703  0.2190 -0.3671
  297MPD2    C3 4527   0.333   4.347  16.790  0.1142 -0.3540 -0.0749
  297MPD2    C4 4528   0.387   4.281  16.898 -0.2681 -0.0769  0.7641
  297MPD2    C5 4529   0.323   4.169  16.946 -0.2822 -0.7767 -0.3325
  297MPD2     H 4530   0.180   4.352  16.646  0.8907 -0.3004 -1.3883
  297MPD2    H1 4531   0.485   4.302  16.939  0.5598 -0.0941 -1.2302
  297MPD2    H2 4532   0.169   4.027  16.938 -1.2456 -0.8922 -2.1869
  297MPD2    H3 4533   0.373   4.123  17.030 -1.0178 -0.6831  0.1487
  297MPD2     N 4534   0.395   4.460  16.734  0.0946 -0.2450  0.1905
  297MPD2    H5 4535   0.383   4.485  16.636  0.5174  1.4577  0.5770
  297MPD2    N1 4536   0.045   4.128  16.709  0.1137 -0.1535  0.8037
  297MPD2    H7 4537   0.006   4.175  16.627 -2.2407 -1.5975  1.0949
  298TMC3    C1 4538   4.569   4.030  16.698 -0.5498 -0.2699 -0.4403
  298TMC3    C2 4539   4.561   4.033  16.560  0.1825 -0.0944  0.2414
  298TMC3    C3 4540   4.435   4.038  16.503 -0.2074  0.2978  0.0207
  298TMC3    C4 4541   4.469   4.036  16.781 -0.1636 -0.1692  0.9794
  298TMC3    C5 4542   4.345   4.053  16.718  0.6141  0.3635  0.2278
  298TMC3    C6 4543   4.322   4.047  16.579  0.2809 -0.5544 -0.2835
  298TMC3     C 4544   4.703   4.033  16.760 -0.0489  0.5898 -0.3149
  298TMC3     O 4545   4.709   3.961  16.857 -0.5938  0.7761 -0.0157
  298TMC3     H 4546   4.644   4.007  16.496 -0.5692  3.6513 -2.2460
  298TMC3    H1 4547   4.479   4.038  16.889 -3.4499 -0.5136  1.2965
  298TMC3    H2 4548   4.231   4.062  16.523 -0.2305  0.8032  0.9410
  298TMC3    C7 4549   4.254   4.151  16.786 -0.5768  0.0897 -0.4332
  298TMC3    C8 4550   4.421   4.067  16.362 -0.0287  0.1398 -0.0684
  298TMC3    O1 4551   4.293   4.195  16.894  0.1442  0.3395 -0.7344
  298TMC3    O2 4552   4.336   4.006  16.297  0.1995  0.1624  0.1231
  299MPD2     C 4553   0.064   4.501  10.928  0.6810 -0.6556  0.3881
  299MPD2    C1 4554   0.082   4.626  10.893 -0.3345  0.0879  0.8550
  299MPD2    C2 4555   0.007   4.687  10.798 -0.1824  0.5083  0.3929
  299MPD2    C3 4556   4.651   4.616  10.721 -0.5341  0.4766 -0.6219
  299MPD2    C4 4557   4.644   4.483  10.743  0.3113  0.0895 -0.0424
  299MPD2    C5 4558   4.712   4.432  10.849 -0.2595  0.8783 -0.5633
  299MPD2     H 4559   0.013   0.056  10.793 -1.0103  0.5043 -0.7125
  299MPD2    H1 4560   4.579   4.420  10.684 -0.9269 -1.0694  2.5804
  299MPD2    H2 4561   0.129   4.448  10.997  1.2330 -0.7177 -0.1838
  299MPD2    H3 4562   4.704   4.326  10.866 -1.6669  0.6980 -2.3490
  299MPD2     N 4563   4.569   4.668  10.616  0.7795 -0.0482 -0.4606
  299MPD2    H5 4564   4.503   4.603  10.574  0.0104  0.2082  0.3550
  299MPD2    N1 4565   0.171   4.698  10.976 -0.2024  0.3554  0.6804
  299MPD2    H7 4566   0.203   4.645  11.057 -1.0236 -0.8253  0.2299
  300TMC3    C1 4567   4.425   0.080  10.507 -0.0121 -0.5218  0.1554
  300TMC3    C2 4568   4.410   0.194  10.429 -0.1295 -0.3660  0.0065
  300TMC3    C3 4569   4.290   0.236  10.384 -0.0547 -0.0390 -0.1983
  300TMC3    C4 4570   4.316   0.031  10.567 -0.1948 -1.2569 -0.4451
  300TMC3    C5 4571   4.195   0.074  10.526  1.1499 -0.0703  0.4320
  300TMC3    C6 4572   4.174   0.180  10.439  0.6018 -0.1445  0.5447
  300TMC3     C 4573   4.554   0.057  10.573  0.4848  0.3698  0.6389
  300TMC3     O 4574   4.623   0.154  10.601  0.6477  0.2275  0.5383
  300TMC3     H 4575   4.495   0.258  10.407 -1.0147  0.3090 -1.4839
  300TMC3    H1 4576   4.319   4.686  10.636 -2.9538 -0.0872  1.1086
  300TMC3    H2 4577   4.073   0.214  10.418  0.1254 -0.8930  1.6407
  300TMC3    C7 4578   4.076   0.053  10.607  0.7527  0.2650  0.2021
  300TMC3    C8 4579   4.287   0.378  10.392  0.4001 -0.1922  0.4377
  300TMC3    O1 4580   3.969   0.057  10.548  0.9061 -0.6358 -0.5037
  300TMC3    O2 4581   4.312   0.439  10.288 -0.0033 -0.0652  0.1895
  301MPD2     C 4582   2.798   0.906   1.178 -0.8289  0.9235 -0.8184
  301MPD2    C1 4583   2.782   0.863   1.052  0.8388  0.6509  0.4998
  301MPD2    C2 4584   2.761   0.726   1.035 -0.1595 -0.1351  0.2016
  301MPD2    C3 4585   2.772   0.637   1.139  0.6878 -0.1807  0.2410
  301MPD2    C4 4586   2.774   0.689   1.263 -0.8163  0.0313 -0.2089
  301MPD2    C5 4587   2.784   0.823   1.282 -0.2525  0.4351 -0.0557
  301MPD2     H 4588   2.739   0.698   0.933  0.6018 -2.1165  0.5888
  301MPD2    H1 4589   2.773   0.626   1.352 -2.1227 -0.3724 -0.5070
  301MPD2    H2 4590   2.826   1.007   1.206  2.0010  0.2547 -1.1773
  301MPD2    H3 4591   2.795   0.858   1.384  0.2539  0.3858 -0.0925
  301MPD2     N 4592   2.769   0.498   1.129 -0.0983 -0.1799  0.3661
  301MPD2    H5 4593   2.809   0.452   1.210  1.5650  0.2465 -0.2336
  301MPD2    N1 4594   2.784   0.952   0.944  0.0594  0.3552  0.0109
  301MPD2    H7 4595   2.773   0.922   0.848 -0.5468  0.3649  0.0751
  302TMC3    C1 4596   2.797   0.287   1.021 -0.3547  0.6611  0.1715
  302TMC3    C2 4597   2.851   0.232   1.133  0.1308  0.7098 -0.5294
  302TMC3    C3 4598   2.866   0.098   1.126  0.0536  0.0913  0.5480
  302TMC3    C4 4599   2.781   0.216   0.908  0.7512 -0.0057  0.3703
  302TMC3    C5 4600   2.799   0.084   0.910 -0.0616  0.6172 -1.4089
  302TMC3    C6 4601   2.840   0.016   1.019 -0.4436 -0.0580  1.3363
  302TMC3     C 4602   2.738   0.420   1.016 -1.0337  0.3700  0.1924
  302TMC3     O 4603   2.695   0.464   0.909 -0.5356 -0.0518  0.0875
  302TMC3     H 4604   2.857   0.286   1.227 -0.6965 -0.1781  0.0342
  302TMC3    H1 4605   2.732   0.259   0.821  2.1079 -0.1051 -0.4439
  302TMC3    H2 4606   2.847   4.647   1.026  0.8435 -0.0593 -0.1223
  302TMC3    C7 4607   2.762   0.003   0.789 -0.0677 -0.0410 -0.2067
  302TMC3    C8 4608   2.958   0.037   1.223 -0.2624  0.0640 -0.3302
  302TMC3    O1 4609   2.786   4.622   0.786  0.3854  0.3817 -0.1654
  302TMC3    O2 4610   2.973   4.661   1.193  0.6842  0.4849  0.1817
  303MPD2     C 4611   2.431   4.735  10.810  0.2361  0.0272  0.0954
  303MPD2    C1 4612   2.306   4.684  10.860 -0.1190 -0.1645  0.1020
  303MPD2    C2 4613   2.228   4.598  10.779  0.3927 -0.3018 -0.0202
  303MPD2    C3 4614   2.263   4.558  10.653  0.4164  0.5299  0.2275
  303MPD2    C4 4615   2.389   4.602  10.606 -0.4067 -0.2284 -0.3251
  303MPD2    C5 4616   2.466   4.690  10.683 -0.8741 -0.4201 -0.2523
  303MPD2     H 4617   2.136   4.570  10.829 -0.8812  1.4262 -1.4036
  303MPD2    H1 4618   2.423   4.563  10.511 -1.9737  1.2043 -1.4828
  303MPD2    H2 4619   2.508   0.049  10.864  0.4813 -1.2201  0.9831
  303MPD2    H3 4620   2.562   4.718  10.640 -0.4487  0.0423  1.0122
  303MPD2     N 4621   2.194   4.470  10.571  0.1181 -0.3741  0.2792
  303MPD2    H5 4622   2.242   4.436  10.488 -2.4735 -1.4803 -0.7543
  303MPD2    N1 4623   2.275   4.725  10.995 -0.2724  0.2093 -0.3694
  303MPD2    H7 4624   2.343   0.051  11.030  0.6872 -0.6886 -0.5490
  304TMC3    C1 4625   2.185   4.739  11.206 -0.2859 -0.7078 -0.1345
  304TMC3    C2 4626   2.078   0.020  11.285 -0.0113 -0.0451 -0.7901
  304TMC3    C3 4627   2.074   4.719  11.418  0.1155 -0.1031  0.6752
  304TMC3    C4 4628   2.303   4.690  11.261 -0.3854  0.0609 -0.0180
  304TMC3    C5 4629   2.297   4.654  11.395 -0.3346 -0.0201  0.0073
  304TMC3    C6 4630   2.187   4.672  11.476 -0.4857  0.1630 -0.0437
  304TMC3     C 4631   2.162   4.696  11.070 -0.5260 -0.3126  0.7054
  304TMC3     O 4632   2.060   4.638  11.038 -0.2040  0.0957  0.0177
  304TMC3     H 4633   1.987   0.050  11.234 -1.1286  0.2356  1.3909
  304TMC3    H1 4634   2.393   4.664  11.206 -0.3529 -2.0521  1.0321
  304TMC3    H2 4635   2.186   4.637  11.579 -0.2003  1.8581  0.5255
  304TMC3    C7 4636   2.371   4.536  11.414  0.1818 -0.5284  0.7011
  304TMC3    C8 4637   1.974   4.621  11.421  0.3623  0.3613 -0.0068
  304TMC3    O1 4638   2.486   4.535  11.374 -0.3454  0.4775  0.0615
  304TMC3    O2 4639   2.023   4.511  11.442 -0.2317  0.1831 -0.3882
  305MPD2     C 4640   0.320   1.352  14.124  0.3016  0.2435  0.0788
  305MPD2    C1 4641   0.343   1.229  14.179 -0.2000  0.0983 -1.4605
  305MPD2    C2 4642   0.354   1.115  14.099  0.6972 -0.2792 -0.3481
  305MPD2    C3 4643   0.363   1.132  13.962  0.4965 -0.2001 -0.4264
  305MPD2    C4 4644   0.337   1.253  13.910 -0.1803 -0.1174 -0.4435
  305MPD2    C5 4645   0.320   1.366  13.987  0.0922  0.6732 -0.6533
  305MPD2     H 4646   0.346   1.018  14.147 -0.7463  1.4549  2.9403
  305MPD2    H1 4647   0.338   1.270  13.803  1.4485  0.6420 -0.3022
  305MPD2    H2 4648   0.333   1.443  14.182 -0.0036  0.8719 -0.8536
  305MPD2    H3 4649   0.302   1.464  13.945 -1.4235  0.9618  0.6602
  305MPD2     N 4650   0.393   1.028  13.866  0.8090 -0.2397 -0.5218
  305MPD2    H5 4651   0.422   1.052  13.771  0.6178 -2.9841 -1.2691
  305MPD2    N1 4652   0.357   1.218  14.322  0.0297 -0.0988 -0.3865
  305MPD2    H7 4653   0.347   1.300  14.381  0.6350  1.0002 -1.7935
  306TMC3    C1 4654   0.442   1.148  14.527  1.4362 -0.1049  0.3923
  306TMC3    C2 4655   0.517   1.055  14.596 -0.2548  0.7382 -0.3106
  306TMC3    C3 4656   0.558   1.084  14.724 -0.0898 -0.2782  0.6989
  306TMC3    C4 4657   0.412   1.275  14.586  0.1606  0.4525 -0.4590
  306TMC3    C5 4658   0.464   1.294  14.710 -0.5844 -0.4298 -0.1683
  306TMC3    C6 4659   0.532   1.205  14.784 -0.8901 -0.6519  0.6629
  306TMC3     C 4660   0.411   1.112  14.390 -0.0313 -0.1965  0.7118
  306TMC3     O 4661   0.457   1.008  14.346  0.0785  0.1293  0.4576
  306TMC3     H 4662   0.532   0.957  14.551  1.8765  0.9317 -0.0348
  306TMC3    H1 4663   0.343   1.346  14.542  0.9165  1.2263 -0.3948
  306TMC3    H2 4664   0.546   1.221  14.890 -0.8179  1.1549  0.3690
  306TMC3    C7 4665   0.479   1.438  14.740  0.0480 -0.5386  0.0734
  306TMC3    C8 4666   0.655   1.003  14.797  0.1362  0.6412  0.1701
  306TMC3    O1 4667   0.438   1.523  14.661  0.3925  0.4560  0.4910
  306TMC3    O2 4668   0.642   1.002  14.918 -0.2326 -0.1692  0.2178
  307MPD2     C 4669   4.011   4.695   0.838  0.0609  0.2740  0.6675
  307MPD2    C1 4670   3.936   0.066   0.848  0.5519 -0.7675  0.8190
  307MPD2    C2 4671   3.829   0.066   0.940  0.8162  0.7439  0.0115
  307MPD2    C3 4672   3.805   4.704   1.029 -0.4812  0.1126 -0.7561
  307MPD2    C4 4673   3.884   4.592   1.018 -0.3924  1.1994 -0.1944
  307MPD2    C5 4674   3.990   4.595   0.926 -0.3168 -0.3692 -0.0709
  307MPD2     H 4675   3.760   0.149   0.928 -1.4254 -0.9943  0.9186
  307MPD2    H1 4676   3.878   4.512   1.090 -0.9102  1.1151 -0.3361
  307MPD2    H2 4677   4.089   4.693   0.764  0.4680 -0.4544  1.1234
  307MPD2    H3 4678   4.049   4.505   0.909 -0.4998 -0.3608 -0.7530
  307MPD2     N 4679   3.693   4.707   1.113  0.2763 -0.0926  0.2931
  307MPD2    H5 4680   3.625   0.039   1.089  0.4758  0.7278  2.1214
  307MPD2    N1 4681   3.942   0.187   0.774 -0.4317  0.1529 -0.2337
  307MPD2    H7 4682   3.871   0.259   0.781  0.7104  1.3122 -0.6047
  308TMC3    C1 4683   3.319   4.502   1.166 -0.1513 -0.4207  0.1341
  308TMC3    C2 4684   3.259   4.620   1.138 -0.3231  0.2647  0.4262
  308TMC3    C3 4685   3.335   4.736   1.153 -0.0428  0.7235  0.1931
  308TMC3    C4 4686   3.446   4.504   1.213 -0.3215  0.2153 -0.1013
  308TMC3    C5 4687   3.517   4.617   1.238  0.0364  0.2861  0.5414
  308TMC3    C6 4688   3.459   4.737   1.211  0.3169  0.6436  0.8456
  308TMC3     C 4689   3.260   4.377   1.116 -1.0608  0.4585 -0.0958
  308TMC3     O 4690   3.348   4.295   1.098  0.8553 -0.1841  0.1688
  308TMC3     H 4691   3.162   4.619   1.089 -1.5578  4.0858  2.8054
  308TMC3    H1 4692   3.507   4.415   1.203  0.3739  0.5717  0.9436
  308TMC3    H2 4693   3.515   0.090   1.214  0.9283  0.3506 -1.5637
  308TMC3    C7 4694   3.653   4.612   1.210  0.6187  0.1943  0.6842
  308TMC3    C8 4695   3.289   0.124   1.108  0.1041 -0.1485  0.1902
  308TMC3    O1 4696   3.708   4.510   1.245  0.5413 -0.1676  0.3348
  308TMC3    O2 4697   3.341   0.219   1.169 -0.4380  0.4889  0.2349
  309MPD2     C 4698   2.641   0.172  17.280 -1.0067 -0.4548 -0.5559
  309MPD2    C1 4699   2.640   0.092  17.159  0.9829  0.6124 -0.0384
  309MPD2    C2 4700   2.568   4.708  17.160 -0.2246 -0.2600 -0.0023
  309MPD2    C3 4701   2.502   4.665  17.272 -0.7821 -0.4873  0.8038
  309MPD2    C4 4702   2.505   0.007  17.383  0.4632  0.4873  0.0351
  309MPD2    C5 4703   2.569   0.129  17.387 -0.2408  0.3552 -0.4509
  309MPD2     H 4704   2.572   4.656  17.065 -0.2318  0.6604 -0.5091
  309MPD2    H1 4705   2.454   4.720  17.475 -0.4023  2.9838  0.2861
  309MPD2    H2 4706   2.706   0.257  17.292 -2.1025 -0.0870  2.9182
  309MPD2    H3 4707   2.564   0.183  17.482  0.8602 -0.7383  0.2278
  309MPD2     N 4708   2.434   4.544  17.280  0.1322 -0.5331  0.0974
  309MPD2    H5 4709   2.380   4.532  17.365  1.1300  0.1206  0.8342
  309MPD2    N1 4710   2.688   0.133  17.035 -0.0465 -0.7169  0.5436
  309MPD2    H7 4711   2.670   0.067  16.960  0.1581  1.5196 -1.4763
  310TMC3    C1 4712   2.774   0.277  16.866 -0.0144  0.3599  0.0858
  310TMC3    C2 4713   2.722   0.191  16.775  0.3498 -0.2344 -0.6292
  310TMC3    C3 4714   2.798   0.174  16.658 -0.0040 -0.8025 -0.2304
  310TMC3    C4 4715   2.902   0.324  16.860  0.3045  0.5534 -0.6102
  310TMC3    C5 4716   2.977   0.283  16.751  0.3975  0.2918 -0.2883
  310TMC3    C6 4717   2.924   0.221  16.637 -0.5973  0.2629 -0.0905
  310TMC3     C 4718   2.741   0.253  17.007 -0.5573 -0.3291  0.5394
  310TMC3     O 4719   2.771   0.348  17.080 -0.2146 -0.4569  0.4265
  310TMC3     H 4720   2.618   0.161  16.780  0.7318 -1.3145  0.7166
  310TMC3    H1 4721   2.930   0.394  16.939 -0.0125  0.6148 -0.5522
  310TMC3    H2 4722   2.983   0.190  16.552  0.0432 -0.4049  0.5931
  310TMC3    C7 4723   3.101   0.226  16.799  0.5165  0.1739 -0.9590
  310TMC3    C8 4724   2.717   0.143  16.543 -0.3065  0.6011 -0.1271
  310TMC3    O1 4725   3.163   0.156  16.717  0.5518  0.6254  0.7410
  310TMC3    O2 4726   2.603   0.116  16.571 -0.0879  0.1022 -0.5226
  311MPD2     C 4727   4.507   0.761  13.036  0.6806  0.9140 -0.0981
  311MPD2    C1 4728   4.491   0.855  13.132 -0.1945  0.3726  0.2170
  311MPD2    C2 4729   4.371   0.895  13.167 -0.5763 -0.3519  0.8598
  311MPD2    C3 4730   4.257   0.835  13.113  0.8720  0.4785  0.1703
  311MPD2    C4 4731   4.273   0.720  13.034 -0.3226  0.2399 -0.2839
  311MPD2    C5 4732   4.399   0.684  12.994 -0.2137  0.1901 -0.0580
  311MPD2     H 4733   4.364   0.972  13.243 -0.9172 -0.8565  1.3310
  311MPD2    H1 4734   4.188   0.668  12.991  0.6640 -0.4255 -1.4752
  311MPD2    H2 4735   4.609   0.735  13.008  0.1173  0.4072 -1.6267
  311MPD2    H3 4736   4.410   0.607  12.919  3.0457  0.7252 -0.1538
  311MPD2     N 4737   4.131   0.902  13.138 -0.5862  0.3046  0.7203
  311MPD2    H5 4738   4.145   0.991  13.185  2.5559 -0.0883  0.4915
  311MPD2    N1 4739   4.594   0.929  13.195  0.3886 -0.6178  0.1161
  311MPD2    H7 4740   4.568   0.998  13.264 -2.8557  0.1853 -1.8765
  312TMC3    C1 4741   3.893   0.939  13.136  0.4025 -0.3809 -0.0971
  312TMC3    C2 4742   3.769   0.914  13.073 -0.1079  0.1109  0.0154
  312TMC3    C3 4743   3.680   1.025  13.065  0.2762 -0.0382 -0.6105
  312TMC3    C4 4744   3.920   1.058  13.199 -0.0610  0.3290 -0.4881
  312TMC3    C5 4745   3.824   1.152  13.196  0.1088 -0.0203  0.1676
  312TMC3    C6 4746   3.708   1.142  13.126  0.0205  0.1014  0.2026
  312TMC3     C 4747   4.008   0.853  13.100 -0.1843  0.1129 -0.2036
  312TMC3     O 4748   3.977   0.755  13.043 -0.1818 -0.3997  0.4805
  312TMC3     H 4749   3.757   0.817  13.027 -3.5505 -0.3382  1.8044
  312TMC3    H1 4750   4.009   1.082  13.256 -0.0640 -0.4717 -0.1357
  312TMC3    H2 4751   3.640   1.226  13.116  0.1073  0.3102  1.3791
  312TMC3    C7 4752   3.848   1.279  13.258 -0.4891  0.1624  0.1363
  312TMC3    C8 4753   3.543   0.994  13.011 -0.1124  0.0191  0.2727
  312TMC3    O1 4754   3.764   1.367  13.244 -0.2298 -0.2906 -0.3506
  312TMC3    O2 4755   3.515   0.874  13.001 -0.0970  0.0535 -0.3558
  313MPD2     C 4756   2.863   0.882  11.508  0.0652 -0.0792 -0.9345
  313MPD2    C1 4757   2.998   0.899  11.478  0.1102 -0.4235  0.9035
  313MPD2    C2 4758   3.090   0.808  11.515  0.5124 -0.0089  0.9420
  313MPD2    C3 4759   3.045   0.695  11.579  0.0934 -0.0047 -0.7120
  313MPD2    C4 4760   2.914   0.683  11.622  0.1239  0.2562 -0.7010
  313MPD2    C5 4761   2.820   0.779  11.584  0.4185 -0.8137  0.4371
  313MPD2     H 4762   3.195   0.828  11.496  0.0281  0.1208 -1.5539
  313MPD2    H1 4763   2.885   0.596  11.679 -1.0548  0.6130 -0.7623
  313MPD2    H2 4764   2.784   0.944  11.466  1.3284  2.8222  0.9781
  313MPD2    H3 4765   2.713   0.766  11.601 -0.0081  0.2645 -1.4324
  313MPD2     N 4766   3.118   0.586  11.600  0.5267 -0.2894 -0.1693
  313MPD2    H5 4767   3.067   0.512  11.646  0.1183 -0.1277 -0.3591
  313MPD2    N1 4768   3.038   1.013  11.400  0.1317  0.3760 -0.7260
  313MPD2    H7 4769   2.965   1.058  11.346  1.8810  0.7685 -2.7676
  314TMC3    C1 4770   3.178   1.169  11.302  0.3781 -0.7043 -0.3027
  314TMC3    C2 4771   3.295   1.237  11.332  0.1884  0.6073 -0.4730
  314TMC3    C3 4772   3.374   1.280  11.229 -0.3596  0.7063 -0.6744
  314TMC3    C4 4773   3.144   1.124  11.175 -0.2213  0.0109 -0.3691
  314TMC3    C5 4774   3.234   1.165  11.077 -0.1354 -0.4856  0.2435
  314TMC3    C6 4775   3.341   1.247  11.099 -1.0124  0.5922 -0.1035
  314TMC3     C 4776   3.154   1.085  11.415  0.2280 -0.4978 -0.1544
  314TMC3     O 4777   3.245   1.069  11.495  0.0403  0.0994  0.3523
  314TMC3     H 4778   3.321   1.265  11.433 -0.0719 -1.0372  0.0493
  314TMC3    H1 4779   3.062   1.060  11.145 -0.1151 -0.3078  0.0285
  314TMC3    H2 4780   3.407   1.282  11.021 -1.8012 -2.1888 -1.9949
  314TMC3    C7 4781   3.248   1.077  10.960  0.3058 -0.0501  0.0770
  314TMC3    C8 4782   3.511   1.321  11.256  0.6519 -0.0460 -0.0471
  314TMC3    O1 4783   3.363   1.043  10.934  0.3291 -0.3566  0.1515
  314TMC3    O2 4784   3.588   1.327  11.157  0.5912 -0.3549  0.2118
  315MPD2     C 4785   3.983   4.436   0.609  0.0549  0.2350  0.5220
  315MPD2    C1 4786   4.106   4.389   0.598 -0.3977  0.1382 -0.1212
  315MPD2    C2 4787   4.198   4.459   0.523  0.3133  0.1420  0.5636
  315MPD2    C3 4788   4.173   4.583   0.472  0.0947 -0.1639 -0.3480
  315MPD2    C4 4789   4.038   4.628   0.474  0.1650  0.1755 -0.5415
  315MPD2    C5 4790   3.952   4.552   0.540 -0.0492 -0.4689  0.2402
  315MPD2     H 4791   4.297   4.419   0.510  0.2754 -0.0747  0.9418
  315MPD2    H1 4792   4.006   4.726   0.440  0.2488  0.6614  0.8122
  315MPD2    H2 4793   3.913   4.397   0.682 -1.7422 -0.8522 -1.7820
  315MPD2    H3 4794   3.852   4.588   0.563 -0.1080  0.0087 -0.7670
  315MPD2     N 4795   4.285   4.651   0.419 -0.0499  0.5428  0.2971
  315MPD2    H5 4796   4.373   4.601   0.411 -1.1175 -1.2200 -0.4489
  315MPD2    N1 4797   4.144   4.271   0.667 -0.5209 -0.0201 -0.1406
  315MPD2    H7 4798   4.243   4.250   0.661  0.3241  3.0108  3.2882
  316TMC3    C1 4799   4.412   0.099   0.372 -0.9236  1.1485  0.1655
  316TMC3    C2 4800   4.496   0.043   0.468 -0.1080  0.1337 -0.0169
  316TMC3    C3 4801   4.630   0.044   0.439  0.0810  0.4727  0.3413
  316TMC3    C4 4802   4.455   0.140   0.249 -0.3337 -0.1808 -0.1550
  316TMC3    C5 4803   4.587   0.124   0.214  0.0331  0.3523 -0.4397
  316TMC3    C6 4804   4.674   0.078   0.310  0.3810  0.6756  0.3274
  316TMC3     C 4805   4.283   0.046   0.370 -0.4271  0.2370  0.1272
  316TMC3     O 4806   4.193   0.127   0.335  0.1187 -0.0393 -0.4471
  316TMC3     H 4807   4.450   0.009   0.560  1.7159  0.2457  0.9360
  316TMC3    H1 4808   4.379   0.166   0.176 -0.5440 -1.5713 -0.4445
  316TMC3    H2 4809   0.042   0.089   0.296  0.7309 -1.0612  1.6701
  316TMC3    C7 4810   4.640   0.203   0.106  0.4299  0.3114  0.1397
  316TMC3    C8 4811   4.715   4.687   0.512 -0.7048  0.3975  0.3651
  316TMC3    O1 4812   0.003   0.260   0.123 -0.9592  0.4555  0.4953
  316TMC3    O2 4813   0.063   4.635   0.442  0.7122  0.3247  0.7163
  317MPD2     C 4814   0.538   3.234  13.221 -0.8936 -0.2496 -0.5268
  317MPD2    C1 4815   0.548   3.106  13.169 -0.5027  0.3348  0.1793
  317MPD2    C2 4816   0.637   3.009  13.217 -0.0899  0.4477  0.4456
  317MPD2    C3 4817   0.717   3.042  13.330  0.3496  0.3828  0.4262
  317MPD2    C4 4818   0.698   3.171  13.383  0.0474 -0.1417  0.3533
  317MPD2    C5 4819   0.613   3.258  13.334 -0.7726 -0.2047  0.8838
  317MPD2     H 4820   0.639   2.918  13.159  0.1977 -0.3387  1.6780
  317MPD2    H1 4821   0.745   3.208  13.474  1.2696  3.1910 -1.6317
  317MPD2    H2 4822   0.491   3.313  13.165  0.3733  0.5379 -0.4754
  317MPD2    H3 4823   0.598   3.349  13.391 -0.5375  1.1364 -1.1819
  317MPD2     N 4824   0.813   2.947  13.385  0.0393 -0.0074  0.5247
  317MPD2    H5 4825   0.863   2.972  13.470  1.7635  0.5519 -0.6548
  317MPD2    N1 4826   0.468   3.071  13.067 -0.9972  0.0528 -0.2597
  317MPD2    H7 4827   0.477   2.976  13.034  0.0156  0.0668 -0.0454
  318TMC3    C1 4828   0.946   2.759  13.417 -0.3634 -0.7689 -0.1081
  318TMC3    C2 4829   0.908   2.628  13.431 -0.2785  0.6441 -0.0831
  318TMC3    C3 4830   0.928   2.563  13.553 -0.0966 -0.2660  0.3037
  318TMC3    C4 4831   1.009   2.824  13.515 -0.2717  0.4512  0.2984
  318TMC3    C5 4832   1.036   2.758  13.632 -0.1140 -0.0670  0.2591
  318TMC3    C6 4833   0.995   2.625  13.655  0.3268  0.6541 -0.1794
  318TMC3     C 4834   0.852   2.829  13.330 -0.3867 -0.3585  0.3506
  318TMC3     O 4835   0.822   2.775  13.226 -0.0614  0.5478  0.1595
  318TMC3     H 4836   0.841   2.592  13.354  0.5456 -2.3240  0.5956
  318TMC3    H1 4837   1.037   2.928  13.503 -0.0817  0.5423  1.5594
  318TMC3    H2 4838   1.024   2.566  13.741  3.5680  0.3980 -1.4563
  318TMC3    C7 4839   1.118   2.827  13.728 -0.0272  0.1686 -0.0121
  318TMC3    C8 4840   0.833   2.462  13.603  0.3879 -0.1034 -0.4880
  318TMC3    O1 4841   1.143   2.947  13.714  0.0026 -0.1538  0.4706
  318TMC3    O2 4842   0.834   2.448  13.725  0.7097 -0.4689 -0.1159
  319MPD2     C 4843   1.860   3.696  16.940  0.2527 -0.3782 -0.4992
  319MPD2    C1 4844   1.813   3.564  16.964 -0.2339  0.8783  0.4671
  319MPD2    C2 4845   1.690   3.528  16.915 -0.0381 -0.2813 -0.1915
  319MPD2    C3 4846   1.606   3.617  16.856 -0.1408 -0.9145  0.2919
  319MPD2    C4 4847   1.648   3.749  16.839  0.5136 -0.0224  0.2488
  319MPD2    C5 4848   1.775   3.785  16.884  1.0526  0.5821 -0.1532
  319MPD2     H 4849   1.663   3.424  16.920  0.4068 -0.4513 -1.4470
  319MPD2    H1 4850   1.583   3.826  16.800  0.0999  0.4359  1.8383
  319MPD2    H2 4851   1.962   3.727  16.961  0.2006 -0.2451 -0.4405
  319MPD2    H3 4852   1.811   3.883  16.856 -0.0920  1.6615  2.1183
  319MPD2     N 4853   1.473   3.586  16.821  0.1742  0.1173  0.6921
  319MPD2    H5 4854   1.427   3.659  16.767 -0.2612 -1.5045 -1.0952
  319MPD2    N1 4855   1.894   3.461  17.023  0.5550 -0.4236  0.0521
  319MPD2    H7 4856   1.846   3.375  17.049 -0.1830 -0.1597 -0.4592
  320TMC3    C1 4857   1.279   3.458  16.762  0.2936 -0.1735  0.1594
  320TMC3    C2 4858   1.227   3.560  16.689  0.0326  0.3248  0.0944
  320TMC3    C3 4859   1.120   3.533  16.604  0.1910  0.3350  0.0539
  320TMC3    C4 4860   1.225   3.330  16.753  0.0752  0.5768  0.0528
  320TMC3    C5 4861   1.102   3.315  16.685  0.7277  0.6768 -0.6197
  320TMC3    C6 4862   1.048   3.416  16.610 -0.1665  0.0626 -0.6593
  320TMC3     C 4863   1.400   3.469  16.842 -0.3991 -0.3122 -0.0101
  320TMC3     O 4864   1.439   3.382  16.916 -0.4760  0.2880 -0.6834
  320TMC3     H 4865   1.264   3.661  16.680  1.4372 -0.0671  1.5114
  320TMC3    H1 4866   1.267   3.264  16.828  0.7441  0.3588 -0.5061
  320TMC3    H2 4867   0.965   3.390  16.545  0.1643 -0.3537 -0.9163
  320TMC3    C7 4868   1.082   3.172  16.641  0.0969  0.8031 -0.3803
  320TMC3    C8 4869   1.100   3.626  16.495 -0.1271  0.0616 -0.3994
  320TMC3    O1 4870   0.988   3.152  16.565  0.1423 -0.0068 -0.2333
  320TMC3    O2 4871   1.186   3.715  16.498  0.7175  0.1032 -0.4947
  321TMC3    C1 4872   2.078   3.391  17.160 -0.1126 -0.3013  1.0239
  321TMC3    C2 4873   1.989   3.307  17.231  0.0211  0.3988  0.2724
  321TMC3    C3 4874   2.040   3.195  17.288 -0.3547 -0.7024  0.0377
  321TMC3    C4 4875   2.211   3.374  17.173  0.3808 -0.0107  0.1464
  321TMC3    C5 4876   2.263   3.265  17.242  0.4865  0.0665 -0.0376
  321TMC3    C6 4877   2.174   3.178  17.290  0.7469 -0.3009 -0.6244
  321TMC3     C 4878   2.027   3.478  17.053  0.3616 -0.8783  0.3233
  321TMC3     O 4879   2.104   3.545  16.985  0.0307 -0.7813  0.0689
  321TMC3     H 4880   1.882   3.323  17.224 -0.2688 -1.3467  0.9814
  321TMC3    H1 4881   2.285   3.446  17.139 -1.0662  1.6981  0.6508
  321TMC3    H2 4882   2.210   3.084  17.330  1.5751  0.9678  1.6883
  321TMC3    C7 4883   2.370   3.284  17.343 -0.6679  0.5941  0.0112
  321TMC3    C8 4884   1.979   3.158  17.417 -0.4526 -0.1248  0.9939
  321TMC3    O1 4885   2.354   3.219  17.447 -0.1602  0.1255  0.0278
  321TMC3    O2 4886   1.858   3.172  17.432  0.0312 -0.3667  0.5864
  322MPD2     C 4887   0.350   0.540  13.895 -0.3386  0.0169  0.1183
  322MPD2    C1 4888   0.405   0.484  14.008 -1.1339 -0.4357 -0.0636
  322MPD2    C2 4889   0.496   0.378  13.997  0.2470  0.0532 -0.3166
  322MPD2    C3 4890   0.530   0.339  13.870 -0.5284 -0.1118 -0.0914
  322MPD2    C4 4891   0.465   0.391  13.759  0.2366  0.5008  0.2177
  322MPD2    C5 4892   0.373   0.490  13.769  0.5557  0.1131  0.2945
  322MPD2     H 4893   0.543   0.337  14.086  0.3386  0.7085 -0.0650
  322MPD2    H1 4894   0.481   0.347  13.661  2.1537  0.9984  0.3185
  322MPD2    H2 4895   0.281   0.623  13.902 -0.6824 -0.3939  1.6196
  322MPD2    H3 4896   0.330   0.533  13.679 -1.2548  2.5567  2.3032
  322MPD2     N 4897   0.634   0.245  13.864 -0.0477 -0.3118  0.5662
  322MPD2    H5 4898   0.665   0.217  13.956  0.0105 -1.1486  0.2864
  322MPD2    N1 4899   0.392   0.553  14.129  0.5194  0.1775 -0.5653
  322MPD2    H7 4900   0.380   0.654  14.119 -0.7427  0.3728  3.1025
  323TMC3    C1 4901   0.465   0.582  14.349  0.2563 -0.1008  0.7381
  323TMC3    C2 4902   0.539   0.691  14.306  0.1023 -0.4522  0.2733
  323TMC3    C3 4903   0.655   0.723  14.380  1.0892  0.1531  0.1378
  323TMC3    C4 4904   0.488   0.516  14.469 -0.5212 -0.4914  0.6037
  323TMC3    C5 4905   0.611   0.545  14.530 -0.2309  0.8735 -0.3014
  323TMC3    C6 4906   0.696   0.648  14.488 -0.2529  0.2505  0.2088
  323TMC3     C 4907   0.421   0.492  14.252  0.5879 -0.5243  0.3195
  323TMC3     O 4908   0.417   0.372  14.285 -0.0223 -0.1620 -0.0417
  323TMC3     H 4909   0.499   0.757  14.230  2.4522  1.3587  0.5964
  323TMC3    H1 4910   0.443   0.427  14.511 -1.4599 -0.1365  0.3338
  323TMC3    H2 4911   0.791   0.669  14.535 -0.2929 -1.8018  1.1953
  323TMC3    C7 4912   0.664   0.452  14.629  1.2167 -0.1537  0.4812
  323TMC3    C8 4913   0.753   0.802  14.306  0.4219  0.6389 -0.3866
  323TMC3    O1 4914   0.595   0.353  14.641 -0.5068 -0.1351  0.3961
  323TMC3    O2 4915   0.868   0.787  14.341 -1.0730  0.3028  0.3905
  324MPD2     C 4916   2.085   1.374  14.367  0.7390  0.2223 -0.2332
  324MPD2    C1 4917   2.135   1.501  14.375 -0.2101  0.5683 -0.4213
  324MPD2    C2 4918   2.054   1.598  14.429  0.0182  0.0746  0.4620
  324MPD2    C3 4919   1.929   1.568  14.482 -0.2305 -0.1995 -0.6456
  324MPD2    C4 4920   1.884   1.439  14.472  0.2520  0.0039 -0.0366
  324MPD2    C5 4921   1.957   1.347  14.409 -0.1165 -0.2951 -0.4864
  324MPD2     H 4922   2.089   1.701  14.431  0.4235 -0.0452 -0.6770
  324MPD2    H1 4923   1.793   1.398  14.514 -0.5471  0.3211 -1.4527
  324MPD2    H2 4924   2.140   1.285  14.337  1.0391 -1.4434  5.3088
  324MPD2    H3 4925   1.911   1.250  14.418  0.0825 -0.0325  3.5906
  324MPD2     N 4926   1.829   1.665  14.529 -0.2873  0.5612  0.6855
  324MPD2    H5 4927   1.740   1.624  14.554 -0.5790 -0.1218 -1.5140
  324MPD2    N1 4928   2.258   1.535  14.320 -0.1922 -0.1499 -0.0315
  324MPD2    H7 4929   2.286   1.632  14.320 -1.0158  0.0851  0.0664
  325TMC3    C1 4930   1.742   1.886  14.578 -0.0910  0.4540 -0.2494
  325TMC3    C2 4931   1.641   1.819  14.636  0.4974 -0.2615 -0.4554
  325TMC3    C3 4932   1.516   1.869  14.635 -0.3712  0.4034 -0.9163
  325TMC3    C4 4933   1.723   2.009  14.531  0.2980  0.2117  0.4314
  325TMC3    C5 4934   1.597   2.060  14.536 -0.8776  0.4647  0.1075
  325TMC3    C6 4935   1.487   1.996  14.592 -0.4093  0.4773  0.4489
  325TMC3     C 4936   1.855   1.802  14.529 -0.0036  0.1121 -0.1645
  325TMC3     O 4937   1.939   1.873  14.480  0.6365 -0.6798  0.8287
  325TMC3     H 4938   1.651   1.718  14.672 -0.8948  0.1962  1.2418
  325TMC3    H1 4939   1.805   2.052  14.474 -1.3798  1.3698 -1.0852
  325TMC3    H2 4940   1.390   2.044  14.596 -0.6581 -0.0790  1.1942
  325TMC3    C7 4941   1.593   2.202  14.509  0.6978  0.3559 -0.1809
  325TMC3    C8 4942   1.423   1.765  14.596  0.0916 -0.0183 -0.2948
  325TMC3    O1 4943   1.703   2.260  14.502 -0.0102  0.0256  0.0056
  325TMC3    O2 4944   1.472   1.668  14.544  0.5225 -0.0516 -0.3764
  326MPD2     C 4945   3.578   2.719  11.493  0.2186 -0.1257 -0.1065
  326MPD2    C1 4946   3.507   2.790  11.395 -0.9196  0.5905  0.6017
  326MPD2    C2 4947   3.578   2.855  11.296  0.0152  0.3097 -0.6677
  326MPD2    C3 4948   3.717   2.866  11.302 -0.1340  0.0888 -0.3431
  326MPD2    C4 4949   3.784   2.802  11.403  0.5949 -0.0617  0.3334
  326MPD2    C5 4950   3.715   2.734  11.499  0.5592 -0.6464  0.0046
  326MPD2     H 4951   3.520   2.908  11.221  1.1519  1.5379 -0.6880
  326MPD2    H1 4952   3.891   2.803  11.423  0.3688 -0.4410  1.6236
  326MPD2    H2 4953   3.527   2.659  11.567 -0.5229 -0.2007 -0.6766
  326MPD2    H3 4954   3.764   2.678  11.578 -0.0883 -0.5060  0.5109
  326MPD2     N 4955   3.786   2.946  11.206 -0.5911 -0.3131  0.3776
  326MPD2    H5 4956   3.886   2.958  11.221 -0.8628 -0.3342  2.2102
  326MPD2    N1 4957   3.371   2.777  11.369  0.0831  0.3384  0.1674
  326MPD2    H7 4958   3.329   2.835  11.298  0.5133  0.3600 -0.0722
  327TMC3    C1 4959   3.159   2.686  11.367 -0.6005 -0.7313  0.4925
  327TMC3    C2 4960   3.116   2.815  11.370 -0.0638 -0.1754  0.0883
  327TMC3    C3 4961   3.059   2.880  11.261  0.5939 -0.1178  0.5331
  327TMC3    C4 4962   3.170   2.632  11.244  0.1227 -0.0005 -0.0257
  327TMC3    C5 4963   3.127   2.695  11.127 -1.0202 -0.3821  0.2321
  327TMC3    C6 4964   3.067   2.818  11.137 -0.5346 -0.0730 -0.1309
  327TMC3     C 4965   3.288   2.687  11.425  0.2057  0.3375  0.4642
  327TMC3     O 4966   3.316   2.588  11.492  0.0983  0.0843 -0.2575
  327TMC3     H 4967   3.125   2.862  11.467 -0.5795  0.7697 -0.3276
  327TMC3    H1 4968   3.218   2.535  11.237  0.3029  0.2076 -1.7146
  327TMC3    H2 4969   3.018   2.863  11.052  1.6047 -1.1542 -1.9360
  327TMC3    C7 4970   3.229   2.704  11.025  0.1181  0.0773  0.2651
  327TMC3    C8 4971   3.055   3.024  11.258  0.2171  0.1240 -0.1857
  327TMC3    O1 4972   3.201   2.778  10.928 -0.2009  0.5112  0.4233
  327TMC3    O2 4973   3.002   3.070  11.156 -0.3685  0.3749 -0.0739
  328MPD2     C 4974   1.223   2.405  17.529 -0.8788 -1.0864 -0.2823
  328MPD2    C1 4975   1.123   2.351  17.452  0.1203 -1.5436  0.6701
  328MPD2    C2 4976   1.098   2.413  17.327  0.1921 -0.3090  0.0439
  328MPD2    C3 4977   1.173   2.522  17.282 -0.1373  0.3389 -0.4746
  328MPD2    C4 4978   1.277   2.568  17.357 -0.5030  0.1348  0.1052
  328MPD2    C5 4979   1.295   2.512  17.485  0.6149 -0.6267 -0.2468
  328MPD2     H 4980   1.008   2.378  17.278 -1.0491  1.9458  0.7218
  328MPD2    H1 4981   1.338   2.654  17.332  0.8912 -1.2646 -1.3242
  328MPD2    H2 4982   1.238   2.364  17.628 -0.6867  1.7403  0.8713
  328MPD2    H3 4983   1.374   2.541  17.553  2.0580 -3.1729 -0.8474
  328MPD2     N 4984   1.137   2.608  17.176  0.0174  0.7208 -0.1383
  328MPD2    H5 4985   1.194   2.691  17.167 -1.9956  1.8872 -2.3126
  328MPD2    N1 4986   1.046   2.253  17.515 -0.2507  0.0406  0.1130
  328MPD2    H7 4987   1.065   2.216  17.608 -1.6015  1.4493  0.9407
  329TMC3    C1 4988   0.847   2.126  17.535 -0.2804 -0.1287 -0.4092
  329TMC3    C2 4989   0.783   2.221  17.608  0.6324  0.2452  0.1132
  329TMC3    C3 4990   0.647   2.228  17.618  0.2506 -0.6191  0.3570
  329TMC3    C4 4991   0.769   2.026  17.479 -0.1542  0.3037 -0.0900
  329TMC3    C5 4992   0.630   2.032  17.492  0.2403  0.8061 -0.0086
  329TMC3    C6 4993   0.572   2.133  17.557 -0.5515 -0.4435  0.2384
  329TMC3     C 4994   0.952   2.180  17.449  0.1289 -0.4753  0.2534
  329TMC3     O 4995   0.937   2.161  17.327 -0.2365  0.1295 -0.6742
  329TMC3     H 4996   0.848   2.306  17.626  1.5825  0.3090 -3.5143
  329TMC3    H1 4997   0.820   1.955  17.416  0.9401  0.3689  0.7201
  329TMC3    H2 4998   0.464   2.131  17.551 -0.6189  1.7667  0.6020
  329TMC3    C7 4999   0.555   1.960  17.399  0.1652 -0.2525  0.9222
  329TMC3    C8 5000   0.585   2.361  17.603  0.2755  0.2354  0.0877
  329TMC3    O1 5001   0.588   1.847  17.367  0.4156 -0.5308  0.5003
  329TMC3    O2 5002   0.474   2.368  17.550  0.0309 -0.1880  0.4022
  330TMC3    C1 5003   3.960   2.539  10.200 -0.0360 -0.2195  0.7649
  330TMC3    C2 5004   3.856   2.453  10.164  0.0384 -0.4129 -0.7483
  330TMC3    C3 5005   3.879   2.319  10.171  0.6876  0.5553 -0.6696
  330TMC3    C4 5006   4.076   2.496  10.246  0.4141  0.2292 -0.0434
  330TMC3    C5 5007   4.089   2.358  10.265 -0.0203  0.3535  0.0600
  330TMC3    C6 5008   3.994   2.269  10.229 -0.2563  0.4649  0.2755
  330TMC3     C 5009   3.948   2.682  10.198  0.3896 -0.7440 -0.8776
  330TMC3     O 5010   4.022   2.739  10.281 -0.4927 -0.1981  0.5684
  330TMC3     H 5011   3.759   2.484  10.127  1.3996  1.6402 -2.5661
  330TMC3    H1 5012   4.159   2.563  10.264 -0.4785  1.4118 -0.3032
  330TMC3    H2 5013   4.005   2.161  10.233  1.2275  0.5725 -0.8976
  330TMC3    C7 5014   4.209   2.305  10.330 -0.3609 -0.3428 -0.6177
  330TMC3    C8 5015   3.767   2.236  10.150 -0.6014 -0.3877  0.0570
  330TMC3    O1 5016   4.276   2.398  10.377  0.1522  0.1189  0.5479
  330TMC3    O2 5017   3.657   2.281  10.176  0.1767  0.2389 -0.6489
  331MPD2     C 5018   1.121   1.088  13.243  0.5093 -0.4705 -0.4008
  331MPD2    C1 5019   1.235   1.166  13.256  0.8453 -0.4568 -0.1366
  331MPD2    C2 5020   1.365   1.118  13.264 -0.2409  0.7207 -0.9222
  331MPD2    C3 5021   1.375   0.980  13.255  0.8326  0.1100 -0.4537
  331MPD2    C4 5022   1.261   0.901  13.244 -0.2686 -1.1800  0.3172
  331MPD2    C5 5023   1.136   0.954  13.255 -0.7180  0.5543  0.2879
  331MPD2     H 5024   1.449   1.186  13.279 -1.5575  1.8913  1.1558
  331MPD2    H1 5025   1.268   0.793  13.243  0.9210 -1.1075  0.9151
  331MPD2    H2 5026   1.027   1.141  13.254 -0.1604 -1.1553 -2.8725
  331MPD2    H3 5027   1.052   0.886  13.263 -0.3840  0.0918 -0.0949
  331MPD2     N 5028   1.510   0.935  13.242 -0.1365  0.0755  0.8056
  331MPD2    H5 5029   1.576   1.012  13.238 -0.7231  0.5706  0.6544
  331MPD2    N1 5030   1.207   1.302  13.248 -0.4108  0.1230  0.2431
  331MPD2    H7 5031   1.108   1.325  13.259 -0.1002  1.5403  0.0324
  332TMC3    C1 5032   1.675   0.781  13.207 -0.2501  0.1601 -0.6345
  332TMC3    C2 5033   1.711   0.846  13.090  0.8067 -0.2645 -0.0233
  332TMC3    C3 5034   1.799   0.779  13.005  0.3018 -0.6395  0.0498
  332TMC3    C4 5035   1.738   0.674  13.253 -0.6864 -0.4714 -0.3629
  332TMC3    C5 5036   1.846   0.626  13.181  0.2127  0.2912 -0.2958
  332TMC3    C6 5037   1.873   0.676  13.056  0.5434 -0.3809  0.0470
  332TMC3     C 5038   1.541   0.804  13.249  0.7654  0.0521 -0.9187
  332TMC3     O 5039   1.477   0.712  13.286  0.0475  0.6925  0.8784
  332TMC3     H 5040   1.648   0.922  13.045  3.1768  1.5200 -0.3235
  332TMC3    H1 5041   1.712   0.634  13.350  0.8591 -0.7502 -0.0708
  332TMC3    H2 5042   1.942   0.631  12.986 -0.8497  0.4931 -1.8954
  332TMC3    C7 5043   1.940   0.548  13.252 -0.5766 -0.2188  0.5958
  332TMC3    C8 5044   1.801   0.807  12.864  0.5753 -0.9430 -0.6654
  332TMC3    O1 5045   1.909   0.491  13.356  0.1922  0.1010  0.8778
  332TMC3    O2 5046   1.832   0.714  12.795  0.3598 -0.4633 -0.4836
  333MPD2     C 5047   1.713   1.750  11.576 -0.6037 -0.3003  0.4835
  333MPD2    C1 5048   1.810   1.652  11.537  0.0097  0.2256  0.8918
  333MPD2    C2 5049   1.771   1.515  11.537 -0.3661  0.5947 -1.6084
  333MPD2    C3 5050   1.645   1.480  11.583 -0.2847 -0.1763 -0.2622
  333MPD2    C4 5051   1.565   1.576  11.635 -0.6649 -0.9838  0.2614
  333MPD2    C5 5052   1.598   1.706  11.630 -0.0642 -0.4874 -0.5063
  333MPD2     H 5053   1.839   1.442  11.496 -2.9246 -2.3731 -0.5410
  333MPD2    H1 5054   1.462   1.564  11.666 -0.3545 -0.6268  1.4581
  333MPD2    H2 5055   1.736   1.855  11.565 -0.0959 -0.4221  0.3696
  333MPD2    H3 5056   1.524   1.782  11.652 -0.0291 -0.6879  0.3145
  333MPD2     N 5057   1.604   1.343  11.582 -0.7336 -1.0088 -0.8544
  333MPD2    H5 5058   1.666   1.276  11.538 -0.8034 -0.8889 -1.1283
  333MPD2    N1 5059   1.926   1.699  11.486 -0.2683 -0.6652 -0.3555
  333MPD2    H7 5060   1.936   1.800  11.489  3.9819 -1.2026  3.4099
  334TMC3    C1 5061   2.140   1.704  11.386 -0.3734  0.3137 -0.1634
  334TMC3    C2 5062   2.265   1.650  11.376 -1.0440 -0.0111  0.4468
  334TMC3    C3 5063   2.370   1.732  11.344  0.0687 -0.0453 -0.4181
  334TMC3    C4 5064   2.119   1.833  11.348 -0.1750  0.5060  0.8404
  334TMC3    C5 5065   2.230   1.914  11.310  0.3911 -0.4017  0.0849
  334TMC3    C6 5066   2.356   1.863  11.305 -0.2640  0.1292 -0.0859
  334TMC3     C 5067   2.036   1.620  11.443  0.4527  0.1263 -0.7629
  334TMC3     O 5068   2.073   1.506  11.473 -0.3358  0.0461  0.3765
  334TMC3     H 5069   2.290   1.547  11.401 -0.3215  0.1869  0.5565
  334TMC3    H1 5070   2.022   1.881  11.344 -0.2223  0.3681  0.3124
  334TMC3    H2 5071   2.441   1.927  11.288 -0.5623  0.1433 -1.5212
  334TMC3    C7 5072   2.214   2.055  11.276 -0.5742  0.4535 -0.0849
  334TMC3    C8 5073   2.493   1.665  11.321 -0.2211 -0.5355 -0.9104
  334TMC3    O1 5074   2.310   2.124  11.291 -0.4011 -0.6127  0.0470
  334TMC3    O2 5075   2.505   1.556  11.371  0.1171  0.2787  0.1706
  335TMC3    C1 5076   1.939   2.381  17.707  0.5476  0.2247  0.4417
  335TMC3    C2 5077   1.872   2.329  17.605 -0.2695  0.3279  0.8058
  335TMC3    C3 5078   1.919   2.330  17.477 -0.1463  0.1730  0.4331
  335TMC3    C4 5079   2.069   2.437  17.684  0.5219 -0.8203 -0.1329
  335TMC3    C5 5080   2.113   2.438  17.550 -0.3840  0.3961 -0.1569
  335TMC3    C6 5081   2.039   2.392  17.448 -0.2423  0.0594  0.4940
  335TMC3     C 5082   1.870   2.419   0.069 -0.3238 -0.0933 -0.7407
  335TMC3     O 5083   1.787   2.341   0.109  0.2627 -0.3038 -0.3291
  335TMC3     H 5084   1.777   2.281  17.623 -0.3330  0.9143  2.0340
  335TMC3    H1 5085   2.126   2.489   0.005  2.4749 -1.9057 -0.8641
  335TMC3    H2 5086   2.061   2.412  17.343 -1.1415 -1.7651 -0.0449
  335TMC3    C7 5087   2.248   2.469  17.520  0.8735 -0.2469 -0.1499
  335TMC3    C8 5088   1.835   2.291  17.367 -0.5468  0.1137  0.1313
  335TMC3    O1 5089   2.278   2.477  17.402 -0.8396 -0.3539  0.2023
  335TMC3    O2 5090   1.852   2.356  17.264  0.4203  0.9232  0.3624
  336MPD2     C 5091   1.791   0.193  16.212  0.5781  0.1765  0.2466
  336MPD2    C1 5092   1.725   0.113  16.124  0.5140  0.0158  0.7953
  336MPD2    C2 5093   1.762   4.717  16.118 -0.1177  0.6093 -0.0545
  336MPD2    C3 5094   1.870   4.658  16.187 -0.1883 -1.0356  0.0434
  336MPD2    C4 5095   1.926   0.005  16.281 -0.3551  0.1514 -0.2735
  336MPD2    C5 5096   1.885   0.136  16.299 -0.1619  0.0504  0.5234
  336MPD2     H 5097   1.701   4.660  16.049  0.4739 -1.3043  1.0041
  336MPD2    H1 5098   2.001   4.706  16.350  0.7193  0.7639 -1.0954
  336MPD2    H2 5099   1.768   0.298  16.221  0.1974  0.1699 -0.6407
  336MPD2    H3 5100   1.937   0.198  16.370 -1.1692  1.1466  0.3024
  336MPD2     N 5101   1.903   4.519  16.180 -0.3680 -0.3376 -0.4176
  336MPD2    H5 5102   1.958   4.476  16.254  0.7271 -1.7713 -2.0626
  336MPD2    N1 5103   1.631   0.166  16.035  0.0809  0.3104 -0.1812
  336MPD2    H7 5104   1.563   0.105  15.992  1.5696 -1.8272  0.4560
  337TMC3    C1 5105   1.546   0.316  15.890 -0.0579 -0.2096 -0.2416
  337TMC3    C2 5106   1.422   0.252  15.895  0.3728 -0.3547  0.0592
  337TMC3    C3 5107   1.339   0.260  15.792  0.1746  0.2304 -0.2870
  337TMC3    C4 5108   1.582   0.397  15.784 -0.4782  0.1359 -0.3452
  337TMC3    C5 5109   1.484   0.410  15.684  0.6487  1.0417 -0.1950
  337TMC3    C6 5110   1.368   0.339  15.684 -0.5365 -0.1291  0.3697
  337TMC3     C 5111   1.637   0.299  15.998  0.4714  0.1056 -0.1332
  337TMC3     O 5112   1.718   0.387  16.019 -0.5911  0.0334  0.4408
  337TMC3     H 5113   1.397   0.183  15.975 -1.8162  1.4156  0.9097
  337TMC3    H1 5114   1.670   0.461  15.785  0.5643 -1.3230  1.5528
  337TMC3    H2 5115   1.300   0.335  15.600 -1.2987 -1.2290  1.0315
  337TMC3    C7 5116   1.490   0.523  15.595  0.3442 -0.4619 -0.2221
  337TMC3    C8 5117   1.236   0.162  15.776 -0.2818  1.1149  0.6606
  337TMC3    O1 5118   1.563   0.614  15.627  0.1014 -0.5808 -0.0248
  337TMC3    O2 5119   1.250   0.069  15.850 -0.3291  0.4409 -0.1118
  338MPD2     C 5120   2.149   4.724   1.012 -0.4049 -0.5965  1.1581
  338MPD2    C1 5121   2.113   4.630   0.926  0.2213  0.1893 -0.6272
  338MPD2    C2 5122   1.983   4.587   0.937  0.3188  0.0256  0.3162
  338MPD2    C3 5123   1.894   4.625   1.029  0.4262 -0.1867 -0.6567
  338MPD2    C4 5124   1.933   4.720   1.117 -0.5261  0.1772  0.0144
  338MPD2    C5 5125   2.062   0.028   1.110 -0.7391  0.1312 -0.0866
  338MPD2     H 5126   1.944   4.516   0.865 -1.9104  1.7481 -0.1617
  338MPD2    H1 5127   1.868   0.021   1.194  0.2843 -0.5941  1.1080
  338MPD2    H2 5128   2.245   0.036   1.008 -0.9769  0.3722 -0.0136
  338MPD2    H3 5129   2.084   0.117   1.168  0.6326 -1.7938  2.3630
  338MPD2     N 5130   1.763   4.577   1.039 -0.3488 -0.2523 -0.2647
  338MPD2    H5 5131   1.739   4.523   0.956 -2.3260 -2.1004  1.5318
  338MPD2    N1 5132   2.190   4.568   0.824 -0.4840  0.1857 -0.0189
  338MPD2    H7 5133   2.150   4.502   0.758  0.1174 -1.2216  1.0372
  339TMC3    C1 5134   1.539   4.547   1.087  0.2023  0.1549  0.0700
  339TMC3    C2 5135   1.438   4.539   1.176 -0.3209  0.4439  1.0162
  339TMC3    C3 5136   1.341   4.450   1.149  0.4856  0.5259 -0.9699
  339TMC3    C4 5137   1.545   4.479   0.967 -0.1804  0.3810 -0.2709
  339TMC3    C5 5138   1.445   4.400   0.944 -0.3182 -0.9984  0.1540
  339TMC3    C6 5139   1.337   4.382   1.034  0.0741 -0.0813  0.6792
  339TMC3     C 5140   1.670   4.592   1.133  0.7562 -1.0294 -0.4928
  339TMC3     O 5141   1.685   4.620   1.248  0.0329 -0.6466 -0.3076
  339TMC3     H 5142   1.443   4.593   1.270  0.4740  2.1154  0.0228
  339TMC3    H1 5143   1.606   4.498   0.879 -0.7213  3.0835 -0.0799
  339TMC3    H2 5144   1.254   4.317   1.010  1.5836 -0.3768 -3.6982
  339TMC3    C7 5145   1.453   4.303   0.835 -0.0208 -0.2646  0.1747
  339TMC3    C8 5146   1.253   4.399   1.252  0.5330 -0.0985 -0.5754
  339TMC3    O1 5147   1.572   4.265   0.819  0.3424  0.0207  0.3242
  339TMC3    O2 5148   1.161   4.334   1.210 -0.1314 -0.2060  0.1836
  340MPD2     C 5149   1.591   1.496  10.394 -0.0505 -0.3636  0.7267
  340MPD2    C1 5150   1.622   1.623  10.402 -0.0263  0.4085  0.2726
  340MPD2    C2 5151   1.733   1.661  10.467 -0.1871  0.0543  0.4747
  340MPD2    C3 5152   1.827   1.578  10.526 -0.0890 -0.0336 -0.2428
  340MPD2    C4 5153   1.791   1.450  10.525  0.5931  0.0632  0.0550
  340MPD2    C5 5154   1.679   1.409  10.457  0.3492  0.3272 -0.6448
  340MPD2     H 5155   1.755   1.766  10.453  0.1552 -0.1807 -0.7653
  340MPD2    H1 5156   1.865   1.379  10.560  0.7394 -0.8589 -2.1187
  340MPD2    H2 5157   1.509   1.446  10.344 -0.4100 -1.1105  2.0713
  340MPD2    H3 5158   1.658   1.303  10.449  1.6448  0.0114  0.1869
  340MPD2     N 5159   1.954   1.623  10.577 -0.2090  0.3304  0.9845
  340MPD2    H5 5160   2.013   1.552  10.618  1.6695  0.7573 -0.9736
  340MPD2    N1 5161   1.538   1.729  10.347  0.4012  0.5415 -0.1448
  340MPD2    H7 5162   1.549   1.826  10.374  0.3700  0.6512 -0.5304
  341TMC3    C1 5163   1.388   1.822  10.194 -0.3259 -0.3489  0.2499
  341TMC3    C2 5164   1.279   1.810  10.119  0.3482 -0.5141 -0.2337
  341TMC3    C3 5165   1.258   1.906  10.023 -0.5087  0.2901  0.5504
  341TMC3    C4 5166   1.473   1.931  10.184  0.5759  0.3130 -0.2713
  341TMC3    C5 5167   1.438   2.034  10.100 -0.8492 -0.1641 -0.9124
  341TMC3    C6 5168   1.323   2.023  10.030  1.1818 -0.1555  0.0081
  341TMC3     C 5169   1.441   1.699  10.256  0.1553 -0.5285  0.0229
  341TMC3     O 5170   1.392   1.593  10.217  0.0948  0.6915 -0.1387
  341TMC3     H 5171   1.220   1.720  10.114 -0.4484  0.0996 -1.8287
  341TMC3    H1 5172   1.571   1.930  10.229  0.6417 -0.0121 -0.4193
  341TMC3    H2 5173   1.295   2.104   9.964  1.6981  0.7833  0.9272
  341TMC3    C7 5174   1.523   2.143  10.060 -0.1087 -0.6718 -0.1456
  341TMC3    C8 5175   1.132   1.898   9.941  0.2179 -0.3119 -0.4815
  341TMC3    O1 5176   1.514   2.177   9.944  0.1724  0.2567  0.0383
  341TMC3    O2 5177   1.053   1.816   9.984 -0.3223  0.1859 -0.4530
  342MPD2     C 5178   0.715   0.523   0.285  0.6849  0.7123  0.1133
  342MPD2    C1 5179   0.692   0.572   0.159 -0.7511 -0.1569  0.9038
  342MPD2    C2 5180   0.678   0.708   0.132  0.1949 -0.7426 -0.0168
  342MPD2    C3 5181   0.675   0.795   0.241  0.5813  0.7291 -0.8340
  342MPD2    C4 5182   0.690   0.744   0.367 -0.4717  0.0903 -0.7518
  342MPD2    C5 5183   0.722   0.615   0.381 -0.2018 -0.0174 -0.1552
  342MPD2     H 5184   0.666   0.737   0.028  1.3510 -1.6248 -0.3967
  342MPD2    H1 5185   0.690   0.801   0.459 -1.3382 -1.3104  0.1222
  342MPD2    H2 5186   0.740   0.420   0.307 -2.4430  0.1251  0.8380
  342MPD2    H3 5187   0.730   0.589   0.486 -0.3923 -1.4809 -0.5117
  342MPD2     N 5188   0.657   0.933   0.221  0.0128  0.3645  0.0944
  342MPD2    H5 5189   0.641   0.971   0.128 -1.0618 -2.2156 -0.7745
  342MPD2    N1 5190   0.673   0.481   0.051 -0.0202 -0.2522  0.3217
  342MPD2    H7 5191   0.668   0.516  17.712 -2.6774  3.2178  1.7298
  343TMC3    C1 5192   0.636   0.281  17.681  0.4236  0.0568  0.2158
  343TMC3    C2 5193   0.665   0.335  17.564 -0.1473 -0.6851  0.1895
  343TMC3    C3 5194   0.648   0.255  17.454 -0.1076 -0.2194  0.5002
  343TMC3    C4 5195   0.592   0.153  17.702  0.0001 -0.0744  0.5086
  343TMC3    C5 5196   0.573   0.081  17.588  0.2772 -0.4425  0.9929
  343TMC3    C6 5197   0.596   0.130  17.462  0.6034 -0.2107 -0.4773
  343TMC3     C 5198   0.670   0.345   0.054 -0.5811  0.2682 -0.0056
  343TMC3     O 5199   0.696   0.272   0.147 -0.2742 -0.1277  0.1063
  343TMC3     H 5200   0.729   0.423  17.561  1.8221 -2.0286  2.4521
  343TMC3    H1 5201   0.570   0.116   0.046  2.5306 -3.0696 -0.0758
  343TMC3    H2 5202   0.589   0.065  17.376 -3.8137  0.2503 -0.4541
  343TMC3    C7 5203   0.518   4.683  17.602  0.0857 -0.2288 -0.6262
  343TMC3    C8 5204   0.740   0.288  17.341  0.7503  0.2953  0.6479
  343TMC3    O1 5205   0.432   4.646  17.521 -0.2622  0.0455  0.3788
  343TMC3    O2 5206   0.806   0.391  17.361 -0.6474  0.2953 -0.1197
  344MPD2     C 5207   0.821   0.527  11.024  0.0579  0.1388 -0.2802
  344MPD2    C1 5208   0.687   0.529  10.983  0.0246 -0.4000  0.0482
  344MPD2    C2 5209   0.644   0.636  10.901  0.0438  0.2788  0.7393
  344MPD2    C3 5210   0.729   0.748  10.890 -0.2366  0.4145 -0.5819
  344MPD2    C4 5211   0.854   0.748  10.943 -0.1894 -0.0271  0.2366
  344MPD2    C5 5212   0.897   0.643  11.011 -0.1141  0.1613  0.1662
  344MPD2     H 5213   0.544   0.645  10.858  0.2386 -0.2990  0.1668
  344MPD2    H1 5214   0.919   0.834  10.930 -1.3245  0.9329  0.9613
  344MPD2    H2 5215   0.852   0.434  11.070 -0.2133 -0.9653 -2.3257
  344MPD2    H3 5216   0.999   0.642  11.046  0.1862 -0.0049 -0.7099
  344MPD2     N 5217   0.708   0.854  10.806  0.4525 -0.2195 -0.3106
  344MPD2    H5 5218   0.788   0.917  10.800  1.4118 -1.6584 -2.9659
  344MPD2    N1 5219   0.597   0.428  11.012  0.3489 -0.4784  0.6426
  344MPD2    H7 5220   0.508   0.427  10.963  1.0752  0.4644 -0.6887
  345TMC3    C1 5221   0.619   1.010  10.660  0.9356 -0.4378 -0.2322
  345TMC3    C2 5222   0.730   1.090  10.691  0.4094 -0.1502 -0.2563
  345TMC3    C3 5223   0.756   1.194  10.602  0.4408 -0.1687 -0.0776
  345TMC3    C4 5224   0.540   1.019  10.550 -0.4286  0.1883  0.5772
  345TMC3    C5 5225   0.581   1.117  10.460  0.7015 -0.4745 -0.5371
  345TMC3    C6 5226   0.685   1.199  10.486  0.0799  0.4528 -0.7372
  345TMC3     C 5227   0.594   0.888  10.734 -0.4985  0.6706  0.6229
  345TMC3     O 5228   0.480   0.837  10.733  0.1137 -0.2565 -0.2036
  345TMC3     H 5229   0.757   1.082  10.796 -0.6776 -1.3405 -0.0776
  345TMC3    H1 5230   0.454   0.955  10.534  0.0469  0.3479 -2.6427
  345TMC3    H2 5231   0.728   1.257  10.405  1.9434 -1.2666 -1.0031
  345TMC3    C7 5232   0.492   1.148  10.344  0.1978 -0.2685 -0.8558
  345TMC3    C8 5233   0.809   1.321  10.642  0.1724  0.0230  0.8069
  345TMC3    O1 5234   0.407   1.062  10.317 -0.2407 -0.4735 -0.2596
  345TMC3    O2 5235   0.807   1.408  10.552  0.5060  0.3655 -0.3349
  346MPD2     C 5236   0.723   1.872  14.288 -0.5434 -0.7784 -0.4780
  346MPD2    C1 5237   0.832   1.948  14.255 -0.1978  0.4269  0.8529
  346MPD2    C2 5238   0.840   2.078  14.308  0.0007 -0.5469  1.0758
  346MPD2    C3 5239   0.727   2.132  14.367 -0.6493  0.7717  1.0789
  346MPD2    C4 5240   0.616   2.053  14.399  0.3893  0.3906  0.6054
  346MPD2    C5 5241   0.620   1.920  14.371 -0.0606 -0.3265  0.3496
  346MPD2     H 5242   0.922   2.146  14.287 -1.1840  0.8334  0.8772
  346MPD2    H1 5243   0.531   2.093  14.452 -0.7077 -1.2918  0.1314
  346MPD2    H2 5244   0.714   1.769  14.254  2.1809 -0.9711 -0.6019
  346MPD2    H3 5245   0.541   1.853  14.404 -0.2619  0.1933  0.9200
  346MPD2     N 5246   0.737   2.263  14.406  0.0169  0.0123 -0.6164
  346MPD2    H5 5247   0.824   2.311  14.384  0.8189 -0.5496  1.3491
  346MPD2    N1 5248   0.930   1.899  14.166  0.2953  0.0033 -0.2238
  346MPD2    H7 5249   1.015   1.954  14.161  0.0026  0.5513  0.8585
  347TMC3    C1 5250   0.678   2.474  14.479  0.2523 -0.3132  0.0956
  347TMC3    C2 5251   0.776   2.505  14.380  0.5311 -0.3943 -0.3402
  347TMC3    C3 5252   0.887   2.571  14.419 -0.0693 -0.0392 -0.7787
  347TMC3    C4 5253   0.691   2.517  14.605  0.2314 -0.5447 -0.0427
  347TMC3    C5 5254   0.802   2.580  14.647 -0.2142 -0.4902  0.1927
  347TMC3    C6 5255   0.897   2.627  14.552 -0.3695  0.4983 -0.6145
  347TMC3     C 5256   0.635   2.335  14.473 -0.3438 -1.0129 -0.0768
  347TMC3     O 5257   0.529   2.308  14.524  0.0645 -0.3038 -0.2715
  347TMC3     H 5258   0.759   2.471  14.278 -0.6343  2.6360 -1.1533
  347TMC3    H1 5259   0.627   2.470  14.678  0.0812  0.5914  0.5552
  347TMC3    H2 5260   0.989   2.667  14.594  0.0306  1.0267 -2.0112
  347TMC3    C7 5261   0.854   2.524  14.770  0.0219 -0.4040 -0.0357
  347TMC3    C8 5262   1.006   2.502  14.382 -0.1239  0.3915 -0.8151
  347TMC3    O1 5263   0.774   2.513  14.865  0.2038 -0.3500  0.0475
  347TMC3    O2 5264   0.992   2.385  14.343  0.5955 -0.4064 -0.2816
  348MPD2     C 5265   4.441   1.996  12.294  0.2643  0.3055 -0.2255
  348MPD2    C1 5266   4.392   1.922  12.192  0.0940  0.7485  0.2605
  348MPD2    C2 5267   4.411   1.961  12.058 -0.1869 -0.4224 -0.4182
  348MPD2    C3 5268   4.492   2.069  12.025  0.4460 -0.3556 -0.1666
  348MPD2    C4 5269   4.545   2.137  12.128  0.1045 -0.8719  0.3490
  348MPD2    C5 5270   4.513   2.104  12.258  0.3292 -0.4071  0.3625
  348MPD2     H 5271   4.375   1.889  11.985  1.4733 -0.9204 -0.7455
  348MPD2    H1 5272   4.599   2.230  12.120  1.1166 -1.4235  0.7725
  348MPD2    H2 5273   4.411   1.975  12.396 -0.7368 -0.2996 -0.6490
  348MPD2    H3 5274   4.550   2.171  12.335 -0.5745  0.5495 -0.0372
  348MPD2     N 5275   4.520   2.097  11.886  0.4345 -0.7509  0.0979
  348MPD2    H5 5276   4.461   2.052  11.817  1.3619 -2.3209  0.3391
  348MPD2    N1 5277   4.306   1.811  12.215 -0.1732  0.4000  0.7957
  348MPD2    H7 5278   4.275   1.764  12.130 -2.1010 -1.4088  2.5336
  349TMC3    C1 5279   4.210   1.626  12.315 -0.3314 -0.3978  0.0320
  349TMC3    C2 5280   4.236   1.513  12.386 -0.6894  0.3978  0.0986
  349TMC3    C3 5281   4.171   1.402  12.359 -0.1297 -0.0573 -0.1643
  349TMC3    C4 5282   4.116   1.629  12.219 -0.2414 -0.2408 -0.3924
  349TMC3    C5 5283   4.038   1.520  12.206 -0.4580 -0.3623 -0.0832
  349TMC3    C6 5284   4.056   1.407  12.282 -0.3697 -0.1811 -0.4956
  349TMC3     C 5285   4.317   1.725  12.321  0.0856 -0.0464  0.1878
  349TMC3     O 5286   4.380   1.736  12.425 -0.5316  0.0562  0.5606
  349TMC3     H 5287   4.332   1.506  12.436  0.0055  0.7393 -1.2081
  349TMC3    H1 5288   4.088   1.726  12.179 -0.8942 -0.1505  0.2896
  349TMC3    H2 5289   3.993   1.319  12.274 -0.0011 -0.3853 -1.1212
  349TMC3    C7 5290   3.922   1.543  12.120  0.2070 -0.6386 -0.9319
  349TMC3    C8 5291   4.243   1.278  12.384 -0.8743 -1.1162  0.0337
  349TMC3    O1 5292   3.827   1.468  12.126  0.1554  0.1171 -0.7214
  349TMC3    O2 5293   4.351   1.278  12.444 -0.0362  0.3758  0.1888
  350MPD2     C 5294   3.053   4.735  10.834 -0.5341  0.0851  0.2510
  350MPD2    C1 5295   2.977   4.692  10.942 -0.2928 -0.8958  0.8850
  350MPD2    C2 5296   3.017   0.002  11.066 -0.5852  0.2014 -0.0329
  350MPD2    C3 5297   3.124   0.082  11.083 -0.0892  0.0288  0.5923
  350MPD2    C4 5298   3.204   0.112  10.979  0.2993 -0.4785 -0.1947
  350MPD2    C5 5299   3.165   0.067  10.856  0.3327 -0.5462 -0.2112
  350MPD2     H 5300   2.969   4.713  11.159 -0.6752 -0.4917 -0.2904
  350MPD2    H1 5301   3.294   0.171  10.983  1.5750 -2.2900 -2.1349
  350MPD2    H2 5302   3.027   4.719  10.730 -0.7928  1.1137  0.1616
  350MPD2    H3 5303   3.222   0.101  10.770 -0.8407 -1.6296 -1.4225
  350MPD2     N 5304   3.144   0.132  11.214 -0.3377  0.1613  0.1337
  350MPD2    H5 5305   3.082   0.078  11.274  0.3570  0.6131  1.2531
  350MPD2    N1 5306   2.863   4.611  10.930  0.2146 -0.4108  0.5638
  350MPD2    H7 5307   2.807   4.597  11.014 -0.2573 -0.8290  0.1805
  351TMC3    C1 5308   2.714   4.465  10.829 -0.6164  0.1477  0.5354
  351TMC3    C2 5309   2.696   4.407  10.707  0.1604  0.3389  0.6145
  351TMC3    C3 5310   2.704   4.269  10.708  0.5562  0.2934 -0.1219
  351TMC3    C4 5311   2.717   4.391  10.945 -0.1630  0.7320 -0.1484
  351TMC3    C5 5312   2.730   4.254  10.941  0.2424 -0.3742  0.6443
  351TMC3    C6 5313   2.709   4.194  10.818  0.0948  0.2119  0.3714
  351TMC3     C 5314   2.819   4.560  10.810 -0.5489 -0.3912 -1.7863
  351TMC3     O 5315   2.860   4.561  10.699  0.3086 -0.1732  0.3797
  351TMC3     H 5316   2.682   4.462  10.615 -0.6711 -1.5442 -0.3882
  351TMC3    H1 5317   2.746   4.428  11.042  1.4283  0.0529 -0.3627
  351TMC3    H2 5318   2.695   4.087  10.805  0.6057  0.0731  0.9517
  351TMC3    C7 5319   2.732   4.174  11.065 -0.0556  1.0749  0.5020
  351TMC3    C8 5320   2.791   4.221  10.601 -0.0875  0.3269  0.5837
  351TMC3    O1 5321   2.708   4.239  11.167 -0.0269  0.4851 -0.2230
  351TMC3    O2 5322   2.793   4.102  10.585 -0.0524  0.3120 -0.0259
  352MPD2     C 5323   2.299   1.777   0.427 -0.3566 -0.6577 -0.0421
  352MPD2    C1 5324   2.326   1.775   0.564  0.3995  0.8075 -0.7080
  352MPD2    C2 5325   2.406   1.673   0.615  0.3098  0.2555  0.3428
  352MPD2    C3 5326   2.457   1.575   0.527 -0.1054  0.1225 -0.4408
  352MPD2    C4 5327   2.431   1.596   0.391 -0.3314  0.1608  0.4129
  352MPD2    C5 5328   2.354   1.692   0.336  0.5709 -0.2250 -0.3748
  352MPD2     H 5329   2.426   1.668   0.721  1.3268  1.4079  0.2052
  352MPD2    H1 5330   2.463   1.524   0.316 -0.5555 -0.6475  1.0875
  352MPD2    H2 5331   2.219   1.844   0.398 -0.7896 -0.2741  2.0386
  352MPD2    H3 5332   2.327   1.690   0.231  0.8185 -0.1091 -0.4401
  352MPD2     N 5333   2.516   1.455   0.569 -0.2730 -0.4720  0.3081
  352MPD2    H5 5334   2.535   1.393   0.490 -0.2427 -1.2045  0.8891
  352MPD2    N1 5335   2.239   1.864   0.642 -0.4248  0.2709  0.0284
  352MPD2    H7 5336   2.172   1.923   0.593 -1.9979 -1.2081  0.4169
  353TMC3    C1 5337   2.609   1.293   0.694 -0.2062  0.6631  0.5284
  353TMC3    C2 5338   2.673   1.261   0.813 -0.7156 -0.2953 -0.4683
  353TMC3    C3 5339   2.751   1.146   0.817  0.7346 -0.5297  1.1013
  353TMC3    C4 5340   2.614   1.209   0.586  0.1090  0.5828 -0.1136
  353TMC3    C5 5341   2.689   1.092   0.601 -0.8238 -0.2447 -0.0646
  353TMC3    C6 5342   2.763   1.068   0.708 -0.4438  0.1076  0.2529
  353TMC3     C 5343   2.535   1.409   0.695 -0.0797 -0.0316 -0.2464
  353TMC3     O 5344   2.515   1.471   0.797  0.1034 -0.6331  0.4109
  353TMC3     H 5345   2.668   1.323   0.902  0.1112 -1.0523  0.0995
  353TMC3    H1 5346   2.549   1.224   0.501 -0.4730  1.0421  0.4177
  353TMC3    H2 5347   2.814   0.972   0.707 -0.0108  0.3374  0.2839
  353TMC3    C7 5348   2.658   0.983   0.507  0.4720  0.1536 -0.0040
  353TMC3    C8 5349   2.773   1.086   0.952 -0.7097 -0.6000 -0.0835
  353TMC3    O1 5350   2.669   0.864   0.533 -0.3134 -0.1066 -0.0748
  353TMC3    O2 5351   2.737   1.151   1.052  0.4448 -0.2175 -0.3170
  354TMC3    C1 5352   3.085   2.690  13.406 -0.0397  0.2263 -0.1358
  354TMC3    C2 5353   3.050   2.805  13.334 -0.2879  0.6456  0.2031
  354TMC3    C3 5354   3.104   2.819  13.207 -0.9161 -0.7076 -0.0089
  354TMC3    C4 5355   3.177   2.604  13.358  0.3224 -0.4283  0.1297
  354TMC3    C5 5356   3.230   2.626  13.236  0.5117  0.1098  0.8054
  354TMC3    C6 5357   3.205   2.733  13.159  0.1571 -0.3697  0.3503
  354TMC3     C 5358   3.064   2.674  13.549 -0.7863 -0.7506 -0.1105
  354TMC3     O 5359   3.081   2.564  13.595  0.5750  0.2327 -0.3439
  354TMC3     H 5360   2.973   2.863  13.383  1.7383  2.7995  0.8089
  354TMC3    H1 5361   3.194   2.512  13.413 -1.4456 -0.6927  0.2406
  354TMC3    H2 5362   3.238   2.739  13.056  0.7277 -2.9561  0.3834
  354TMC3    C7 5363   3.342   2.548  13.197  0.2745 -0.1581  0.0210
  354TMC3    C8 5364   3.112   2.952  13.146 -0.1688 -0.3515 -0.0610
  354TMC3    O1 5365   3.347   2.435  13.243  0.8560 -0.3556  0.1022
  354TMC3    O2 5366   3.150   2.958  13.032  0.2193 -0.6014  0.1125
  355MPD2     C 5367   3.102   3.756  11.873 -0.1837  0.2923 -0.0418
  355MPD2    C1 5368   3.178   3.773  11.763  0.2717 -0.1984  0.0548
  355MPD2    C2 5369   3.314   3.760  11.769  0.3292 -0.3995 -0.2812
  355MPD2    C3 5370   3.376   3.753  11.891 -0.4267 -0.5182  0.0472
  355MPD2    C4 5371   3.298   3.736  12.006  0.3782 -0.6300 -0.2925
  355MPD2    C5 5372   3.160   3.738  11.990  0.3051 -0.5020  1.0265
  355MPD2     H 5373   3.381   3.749  11.685 -0.1655 -1.6266 -0.5036
  355MPD2    H1 5374   3.332   3.737  12.109  0.3658  0.9200 -0.2943
  355MPD2    H2 5375   2.994   3.761  11.869 -0.2366 -0.2336  0.7125
  355MPD2    H3 5376   3.103   3.726  12.082  1.0761 -1.3427  1.3979
  355MPD2     N 5377   3.520   3.760  11.908 -0.3181  0.3450 -0.0051
  355MPD2    H5 5378   3.558   3.772  12.002  1.7367 -0.5341 -0.7224
  355MPD2    N1 5379   3.107   3.809  11.645  0.1661  0.2482 -0.0394
  355MPD2    H7 5380   3.007   3.794  11.654  0.1704 -0.0612 -0.5047
  356TMC3    C1 5381   3.734   3.845  11.853  0.6016 -0.6832 -0.0012
  356TMC3    C2 5382   3.776   3.947  11.776  0.1904  0.3575 -0.0700
  356TMC3    C3 5383   3.842   4.055  11.828  0.5943 -0.0130 -0.0091
  356TMC3    C4 5384   3.777   3.827  11.976  0.9784 -0.0531  0.1836
  356TMC3    C5 5385   3.858   3.927  12.031  0.2854 -0.8092  0.2303
  356TMC3    C6 5386   3.886   4.037  11.954  0.0436 -0.0907 -0.3399
  356TMC3     C 5387   3.606   3.790  11.808  0.0594  0.2642 -0.0054
  356TMC3     O 5388   3.595   3.784  11.688 -0.0986  0.1054 -0.4905
  356TMC3     H 5389   3.746   3.950  11.672 -1.7940  0.7733  0.5072
  356TMC3    H1 5390   3.747   3.740  12.032 -0.6166 -0.3984 -1.2110
  356TMC3    H2 5391   3.950   4.110  12.003  1.0178 -0.0671 -1.6344
  356TMC3    C7 5392   3.848   3.933  12.179 -0.0218  0.4277 -0.1784
  356TMC3    C8 5393   3.899   4.150  11.735 -0.1644  0.0362  0.3465
  356TMC3    O1 5394   3.835   3.826  12.236  0.0297 -0.3388  0.7656
  356TMC3    O2 5395   3.865   4.134  11.618  0.3259  0.4795  0.4790
  357MPD2     C 5396   3.881   4.054   1.151 -0.8563  0.0397 -0.2070
  357MPD2    C1 5397   3.825   3.936   1.184  0.2034 -0.4100 -0.5614
  357MPD2    C2 5398   3.684   3.927   1.211  0.4285  0.3634 -0.0279
  357MPD2    C3 5399   3.604   4.037   1.180 -0.1262 -0.8011  0.1295
  357MPD2    C4 5400   3.664   4.156   1.139 -0.4359 -0.1536  0.9657
  357MPD2    C5 5401   3.800   4.160   1.126  0.2033  0.3077  0.6173
  357MPD2     H 5402   3.642   3.830   1.236  0.5906  0.3778  0.2970
  357MPD2    H1 5403   3.610   4.247   1.114 -1.3981 -0.6123  1.3966
  357MPD2    H2 5404   3.989   4.064   1.144 -0.6828  0.2963  2.9096
  357MPD2    H3 5405   3.848   4.255   1.106  0.4351 -0.3384 -1.9659
  357MPD2     N 5406   3.468   4.045   1.207  0.2300  0.0710 -0.4930
  357MPD2    H5 5407   3.424   4.135   1.193 -0.2700 -0.1519 -0.3411
  357MPD2    N1 5408   3.915   3.827   1.209 -0.3643  0.0174  0.2538
  357MPD2    H7 5409   4.013   3.843   1.188 -0.4568 -1.9341 -1.7483
  358TMC3    C1 5410   4.014   3.625   1.261 -0.1081 -0.6635  0.6219
  358TMC3    C2 5411   4.075   3.628   1.136 -0.4194 -0.1587 -0.6909
  358TMC3    C3 5412   4.163   3.529   1.112  0.7173 -0.6389  0.2106
  358TMC3    C4 5413   4.037   3.532   1.353  0.1546  0.0961 -0.0987
  358TMC3    C5 5414   4.134   3.442   1.323  0.1619 -1.3074 -0.1764
  358TMC3    C6 5415   4.208   3.442   1.208 -1.1510  0.4989  0.4415
  358TMC3     C 5416   3.894   3.711   1.275  0.4693  0.3198 -0.0398
  358TMC3     O 5417   3.810   3.691   1.362  0.1118  0.1811 -0.2403
  358TMC3     H 5418   4.042   3.689   1.053  1.7998  1.8220 -0.1174
  358TMC3    H1 5419   3.978   3.529   1.443 -2.2405  0.3660 -1.6632
  358TMC3    H2 5420   4.261   3.350   1.185 -2.2387 -0.0053 -0.0439
  358TMC3    C7 5421   4.171   3.365   1.435  0.2953  0.8788  0.4435
  358TMC3    C8 5422   4.219   3.522   0.984  0.5805  0.2231 -0.6193
  358TMC3    O1 5423   4.126   3.406   1.538  0.1202 -1.0079  0.2657
  358TMC3    O2 5424   4.151   3.557   0.887  0.0425 -0.2903  0.1957
  359MPD2     C 5425   4.139   2.782  12.497 -0.0004  0.1457 -0.1371
  359MPD2    C1 5426   4.163   2.648  12.497  0.2668 -0.3257 -0.2876
  359MPD2    C2 5427   4.063   2.555  12.528 -0.0556  0.3506 -0.7892
  359MPD2    C3 5428   3.934   2.597  12.556 -0.3751  0.4838 -0.3184
  359MPD2    C4 5429   3.910   2.736  12.555  0.0634 -0.9045  1.1256
  359MPD2    C5 5430   4.010   2.822  12.521 -0.4050 -0.3996  0.6526
  359MPD2     H 5431   4.086   2.449  12.524 -1.3199  0.0416  0.1082
  359MPD2    H1 5432   3.810   2.772  12.576  1.1471  2.5543  0.3361
  359MPD2    H2 5433   4.212   2.859  12.474  0.9616 -1.1277 -1.2890
  359MPD2    H3 5434   3.988   2.928  12.509  0.6549 -0.5494 -2.5960
  359MPD2     N 5435   3.824   2.510  12.587  0.1103 -0.5823  0.0753
  359MPD2    H5 5436   3.732   2.551  12.574  0.8967  1.6983  1.6829
  359MPD2    N1 5437   4.285   2.599  12.450 -0.1008  0.0443  0.5985
  359MPD2    H7 5438   4.307   2.500  12.442 -0.8468  0.0643 -1.5585
  360TMC3    C1 5439   4.478   2.614  12.298  0.5309 -0.5258 -0.4620
  360TMC3    C2 5440   4.593   2.687  12.264 -0.5192 -0.0226  0.0030
  360TMC3    C3 5441   4.663   2.646  12.159  0.0234 -0.3336  0.2887
  360TMC3    C4 5442   4.430   2.516  12.218 -0.2984 -0.0314 -0.7865
  360TMC3    C5 5443   4.500   2.485  12.104  0.2458  0.4461 -0.2196
  360TMC3    C6 5444   4.620   2.546  12.081  0.4522 -0.0196  0.7353
  360TMC3     C 5445   4.387   2.683  12.393 -0.5985  0.1378  0.0070
  360TMC3     O 5446   4.423   2.798  12.408 -0.2886  0.3340  0.1747
  360TMC3     H 5447   4.647   2.756  12.328  0.1916  0.3807 -1.0330
  360TMC3    H1 5448   4.330   2.476  12.230 -0.3050  0.7862  1.9419
  360TMC3    H2 5449   4.679   2.527  11.992 -1.2963 -1.9364 -0.0457
  360TMC3    C7 5450   4.431   2.444  11.978  0.8299 -0.3555  0.2140
  360TMC3    C8 5451   4.731   2.764  12.099  0.0267 -0.6266 -0.4383
  360TMC3    O1 5452   4.481   2.494  11.878  0.3800 -0.5568 -0.2139
  360TMC3    O2 5453   4.698   2.873  12.139 -0.2612 -0.1474  0.0018
  361MPD2     C 5454   1.328   0.853  16.626 -0.0186 -1.4146  0.8084
  361MPD2    C1 5455   1.280   0.879  16.749  0.6968  0.1645  0.3734
  361MPD2    C2 5456   1.343   0.835  16.867  0.3350 -0.0978 -0.2777
  361MPD2    C3 5457   1.448   0.748  16.860 -0.1257  0.8116  0.0067
  361MPD2    C4 5458   1.505   0.721  16.737 -0.1531  0.2225  0.5811
  361MPD2    C5 5459   1.440   0.769  16.624 -0.0977 -0.2686 -0.3737
  361MPD2     H 5460   1.307   0.863  16.965 -0.6917  1.3204 -1.0521
  361MPD2    H1 5461   1.594   0.662  16.720  0.6980  1.2258  1.5284
  361MPD2    H2 5462   1.272   0.879  16.537  2.1611 -2.6698 -0.9123
  361MPD2    H3 5463   1.482   0.738  16.529  1.5455 -2.2014  0.9877
  361MPD2     N 5464   1.509   0.684  16.966 -0.5046  0.0566 -0.8427
  361MPD2    H5 5465   1.568   0.605  16.940  0.0100  0.0469  0.3475
  361MPD2    N1 5466   1.164   0.958  16.773 -0.1106  0.2145 -0.2211
  361MPD2    H7 5467   1.155   0.984  16.871 -1.7025  3.8533 -1.3579
  362TMC3    C1 5468   0.959   1.072  16.736  0.1129  0.0128  0.5037
  362TMC3    C2 5469   0.938   1.095  16.872  0.3676  0.5009  0.5558
  362TMC3    C3 5470   0.826   1.160  16.912 -0.0560  0.2540 -0.1254
  362TMC3    C4 5471   0.877   1.128  16.643  0.3925 -0.7262  0.3477
  362TMC3    C5 5472   0.763   1.196  16.691  0.4760 -0.1513 -0.0386
  362TMC3    C6 5473   0.740   1.212  16.824  0.2635 -0.1876  0.4691
  362TMC3     C 5474   1.067   0.989  16.679  0.8697 -0.3895  0.0116
  362TMC3     O 5475   1.053   0.952  16.560  0.5724  0.3715  0.2499
  362TMC3     H 5476   1.006   1.058  16.948  2.2744  0.5911 -1.1050
  362TMC3    H1 5477   0.891   1.114  16.537 -1.4746  0.9023 -0.1010
  362TMC3    H2 5478   0.666   1.285  16.855 -0.0445  0.1007 -0.9468
  362TMC3    C7 5479   0.700   1.292  16.608  0.4196  0.3930  0.7055
  362TMC3    C8 5480   0.806   1.190  17.051 -0.0036 -0.3256 -0.3434
  362TMC3    O1 5481   0.696   1.403  16.659 -0.0114 -0.2699  0.1979
  362TMC3    O2 5482   0.900   1.172  17.126  0.1796  0.0667 -0.1352
  363TMC3    C1 5483   3.196   4.093   9.620 -0.2570  0.1194 -0.7021
  363TMC3    C2 5484   3.305   4.100   9.707 -0.3045  0.2120 -0.4059
  363TMC3    C3 5485   3.286   4.181   9.811  0.3057  0.5114  0.8695
  363TMC3    C4 5486   3.077   4.156   9.638 -0.0344  0.2171  0.2392
  363TMC3    C5 5487   3.062   4.221   9.759 -0.0176 -0.2631 -0.2269
  363TMC3    C6 5488   3.163   4.231   9.847 -0.4895 -0.5370 -0.1897
  363TMC3     C 5489   3.188   3.968   9.559  0.2051 -0.0760  0.7882
  363TMC3     O 5490   3.065   3.948   9.541  0.0830 -0.1179  0.5831
  363TMC3     H 5491   3.394   4.044   9.683 -0.7208 -1.1733  1.2742
  363TMC3    H1 5492   3.006   4.146   9.557  1.3744  0.6991 -1.0503
  363TMC3    H2 5493   3.140   4.276   9.943  1.2813  2.9760 -1.3880
  363TMC3    C7 5494   2.930   4.186   9.823 -0.4403  0.3757 -0.9978
  363TMC3    C8 5495   3.391   4.169   9.912 -0.2078 -0.9011 -0.8058
  363TMC3    O1 5496   2.910   4.225   9.938  0.4709  0.0469 -0.1607
  363TMC3    O2 5497   3.350   4.216  10.017  0.2259  0.2233 -0.0748
  364MPD2     C 5498   3.075   3.495  11.456 -0.4374 -0.3772  0.8263
  364MPD2    C1 5499   3.055   3.453  11.327 -0.8624 -0.5082  0.2361
  364MPD2    C2 5500   3.065   3.321  11.297  0.1157  0.3116  0.4938
  364MPD2    C3 5501   3.077   3.224  11.398  0.5568  0.1593 -0.1212
  364MPD2    C4 5502   3.097   3.271  11.528  0.3978 -1.0967 -0.0551
  364MPD2    C5 5503   3.104   3.406  11.559  0.3902 -0.3156  0.3857
  364MPD2     H 5504   3.055   3.285  11.195 -0.3577  3.2743 -0.5039
  364MPD2    H1 5505   3.095   3.203  11.612 -1.3925 -0.5014  0.3785
  364MPD2    H2 5506   3.077   3.601  11.479  0.2713  0.1384 -1.6811
  364MPD2    H3 5507   3.120   3.436  11.661  0.7189  0.9421 -0.0450
  364MPD2     N 5508   3.075   3.084  11.377 -0.2049 -0.3695 -0.1763
  364MPD2    H5 5509   3.091   3.023  11.456  1.4233 -2.3304 -2.0541
  364MPD2    N1 5510   3.044   3.558  11.226  0.1071 -0.1425 -0.3135
  364MPD2    H7 5511   3.053   3.653  11.261 -0.1065 -0.8086  1.5026
  365TMC3    C1 5512   3.013   3.651  11.007 -0.7198  0.4814 -1.0094
  365TMC3    C2 5513   3.004   3.631  10.868  0.3589  0.8074  0.8940
  365TMC3    C3 5514   3.011   3.731  10.779 -0.1429 -0.2383  0.0400
  365TMC3    C4 5515   3.033   3.781  11.058  0.0667 -0.6222 -0.4171
  365TMC3    C5 5516   3.063   3.877  10.961 -0.1067  0.4817  0.3430
  365TMC3    C6 5517   3.050   3.855  10.823 -0.0647 -0.0728  0.1037
  365TMC3     C 5518   3.020   3.531  11.089  0.7908  0.9585 -0.3765
  365TMC3     O 5519   3.007   3.424  11.033 -0.1140 -0.3803  0.5982
  365TMC3     H 5520   2.994   3.530  10.830  1.0913  0.5220  1.4614
  365TMC3    H1 5521   3.061   3.791  11.162 -0.2580  1.4954 -0.5228
  365TMC3    H2 5522   3.062   3.941  10.757  1.5720  0.1082  0.6211
  365TMC3    C7 5523   3.065   4.018  10.994 -0.7175 -0.3484 -0.5600
  365TMC3    C8 5524   3.013   3.718  10.630 -0.0541 -0.5121 -0.3315
  365TMC3    O1 5525   3.075   4.111  10.908  0.3669 -0.3330  0.4460
  365TMC3    O2 5526   3.047   3.814  10.563  0.1883  0.4696 -0.6678
  366MPD2     C 5527   1.216   3.928  15.739 -0.0065 -0.2604  0.0518
  366MPD2    C1 5528   1.265   4.021  15.651 -0.4541  0.3075 -0.3022
  366MPD2    C2 5529   1.345   3.981  15.554 -0.2052 -0.2101  0.6143
  366MPD2    C3 5530   1.393   3.852  15.538 -0.2889 -0.1945  0.4893
  366MPD2    C4 5531   1.348   3.761  15.633  0.1317 -0.4323 -0.3227
  366MPD2    C5 5532   1.255   3.797  15.732 -0.1699 -0.6197  0.2210
  366MPD2     H 5533   1.387   4.054  15.485 -1.3332  0.5414  0.7342
  366MPD2    H1 5534   1.375   3.656  15.631  1.2613 -0.1148 -1.8441
  366MPD2    H2 5535   1.153   3.957  15.823  0.0606 -1.4174  0.5041
  366MPD2    H3 5536   1.220   3.721  15.800  1.3981 -2.6951 -1.2676
  366MPD2     N 5537   1.480   3.826  15.433  0.5535 -0.7457 -0.1897
  366MPD2    H5 5538   1.479   3.895  15.358  0.0148 -1.0449 -0.4591
  366MPD2    N1 5539   1.234   4.162  15.648  0.0041 -0.4903 -0.3562
  366MPD2    H7 5540   1.295   4.215  15.586 -2.1284  2.9003  0.4430
  367TMC3    C1 5541   1.136   4.367  15.688  0.4543 -0.4591 -1.2972
  367TMC3    C2 5542   1.268   4.417  15.698  0.7823 -0.1929  1.3051
  367TMC3    C3 5543   1.304   4.517  15.611 -0.7375  0.6001  0.0488
  367TMC3    C4 5544   1.050   4.418  15.602 -0.5005  0.1611  0.0054
  367TMC3    C5 5545   1.092   4.509  15.510 -0.5978 -0.3317 -0.0897
  367TMC3    C6 5546   1.215   4.569  15.525 -0.4500 -0.4530 -0.7726
  367TMC3     C 5547   1.123   4.221  15.704 -0.6894 -0.6576 -0.1098
  367TMC3     O 5548   1.018   4.168  15.733 -0.1146 -0.5223  0.9283
  367TMC3     H 5549   1.328   4.376  15.779 -1.5831 -1.8877  2.2126
  367TMC3    H1 5550   0.948   4.380  15.600 -0.4478 -0.0020  0.3003
  367TMC3    H2 5551   1.237   4.648  15.453 -0.7522 -0.7143 -1.1545
  367TMC3    C7 5552   0.993   4.570  15.420  0.4535 -0.3970 -0.0933
  367TMC3    C8 5553   1.420   4.589  15.658 -0.1272  0.4760 -0.1413
  367TMC3    O1 5554   1.017   4.677  15.371  0.4428  0.6913 -0.2657
  367TMC3    O2 5555   1.468   4.540  15.760 -0.2143 -0.5695 -0.4226
  368MPD2     C 5556   2.276   1.686  13.566 -0.1176 -0.3759 -0.2590
  368MPD2    C1 5557   2.258   1.779  13.467  0.2291  0.1108 -0.2816
  368MPD2    C2 5558   2.368   1.816  13.392 -0.2481 -0.0813  0.2028
  368MPD2    C3 5559   2.486   1.753  13.404  0.6476  0.4036 -0.4264
  368MPD2    C4 5560   2.503   1.650  13.495 -0.5901  0.3549 -0.0390
  368MPD2    C5 5561   2.395   1.615  13.573  0.9452 -0.2296  0.5400
  368MPD2     H 5562   2.355   1.895  13.319 -1.7482  1.8638  2.5396
  368MPD2    H1 5563   2.601   1.608  13.508 -1.4982 -2.1275 -1.2849
  368MPD2    H2 5564   2.199   1.671  13.640 -0.2197 -1.2242 -0.5365
  368MPD2    H3 5565   2.399   1.537  13.648  1.2802 -0.9505 -0.2310
  368MPD2     N 5566   2.595   1.779  13.318 -0.0778 -0.0299  0.4063
  368MPD2    H5 5567   2.686   1.741  13.338  0.5484  2.0803  1.5902
  368MPD2    N1 5568   2.124   1.835  13.462 -0.2309  1.1269  0.0040
  368MPD2    H7 5569   2.050   1.791  13.516 -3.0316  2.3187 -2.8711
  369TMC3    C1 5570   1.986   2.025  13.432 -0.3777 -0.2565  0.1814
  369TMC3    C2 5571   1.959   2.146  13.372 -0.1193  0.6039 -0.5355
  369TMC3    C3 5572   1.844   2.206  13.390  0.3446 -0.3787 -0.3238
  369TMC3    C4 5573   1.883   1.963  13.505 -0.2788 -0.3139  0.6237
  369TMC3    C5 5574   1.761   2.025  13.501 -0.0206  0.0511 -0.8265
  369TMC3    C6 5575   1.734   2.153  13.451  0.3162 -0.0439 -0.4557
  369TMC3     C 5576   2.104   1.954  13.399 -0.0524 -0.5025  0.2194
  369TMC3     O 5577   2.181   2.018  13.329  0.0924  0.2885 -0.4571
  369TMC3     H 5578   2.035   2.185  13.307 -0.9436 -1.6143 -2.8547
  369TMC3    H1 5579   1.900   1.879  13.571  0.9840 -2.2481 -2.2061
  369TMC3    H2 5580   1.645   2.212  13.466  1.0123  0.9030 -0.0307
  369TMC3    C7 5581   1.649   1.940  13.533  0.0404 -0.9770 -0.2072
  369TMC3    C8 5582   1.829   2.334  13.326 -0.1253  0.0397  0.3228
  369TMC3    O1 5583   1.677   1.828  13.582 -0.2226 -0.0497  0.6100
  369TMC3    O2 5584   1.715   2.363  13.295 -0.5074 -0.0618 -0.2422
  370TMC3    C1 5585   1.938   2.061  16.256  0.2870 -0.4420 -0.1217
  370TMC3    C2 5586   1.848   2.000  16.327  0.2669 -0.4410  1.0085
  370TMC3    C3 5587   1.790   1.889  16.265 -0.1744 -0.3842 -0.5219
  370TMC3    C4 5588   1.980   2.024  16.132  0.7412  0.0459  0.2470
  370TMC3    C5 5589   1.925   1.915  16.078  0.0573  0.0429  0.0675
  370TMC3    C6 5590   1.833   1.836  16.145 -0.5896 -0.5928 -0.0996
  370TMC3     C 5591   2.026   2.147  16.342  0.9152  0.0304  0.1414
  370TMC3     O 5592   2.041   2.116  16.459 -0.2869  0.0803 -1.0938
  370TMC3     H 5593   1.817   2.053  16.417  0.4609  1.9524 -0.3410
  370TMC3    H1 5594   2.046   2.093  16.080 -0.1354  0.5026 -0.2510
  370TMC3    H2 5595   1.795   1.746  16.096 -0.9789 -0.9416  0.8378
  370TMC3    C7 5596   1.955   1.878  15.938  0.4139 -0.0754  0.1586
  370TMC3    C8 5597   1.694   1.818  16.347 -0.0985 -0.3382 -0.3237
  370TMC3    O1 5598   1.967   1.960  15.850 -0.2662  0.0806 -0.8213
  370TMC3    O2 5599   1.660   1.705  16.314 -0.5166 -0.3499 -0.4263
  371TMC3    C1 5600   3.243   0.227  15.698  0.6202  0.0806  0.2842
  371TMC3    C2 5601   3.113   0.203  15.681  0.8725  0.1046 -0.3383
  371TMC3    C3 5602   3.031   0.304  15.660  0.5494  0.1024 -0.3363
  371TMC3    C4 5603   3.297   0.345  15.662  1.0544  0.2422  0.2374
  371TMC3    C5 5604   3.214   0.435  15.610 -0.3826 -0.9942 -0.3013
  371TMC3    C6 5605   3.078   0.427  15.620  0.5958  0.0332  0.7913
  371TMC3     C 5606   3.327   0.132  15.768 -0.3949 -0.1439 -0.3914
  371TMC3     O 5607   3.446   0.140  15.756  0.0755 -0.3546  0.6926
  371TMC3     H 5608   3.068   0.108  15.707  0.9906 -0.0282 -0.6168
  371TMC3    H1 5609   3.402   0.370  15.674  1.0943  0.0898  0.1987
  371TMC3    H2 5610   3.014   0.505  15.580 -0.2430 -1.0068  0.1196
  371TMC3    C7 5611   3.260   0.538  15.516  0.5804  0.4225  1.0666
  371TMC3    C8 5612   2.888   0.285  15.669  0.5494 -0.1385 -0.9317
  371TMC3    O1 5613   3.181   0.634  15.502 -0.1892  0.1290 -0.5087
  371TMC3    O2 5614   2.847   0.172  15.641  0.0364  0.4279 -0.2613
  372MPD2     C 5615   1.924   1.916  13.871 -0.0488  0.0685  0.5503
  372MPD2    C1 5616   2.056   1.870  13.866  0.6333  0.0552  0.3499
  372MPD2    C2 5617   2.088   1.738  13.886 -0.1201 -0.4479  0.3677
  372MPD2    C3 5618   1.987   1.646  13.879  0.0851  0.7498 -0.3099
  372MPD2    C4 5619   1.856   1.690  13.869  0.1642  0.5653 -0.1216
  372MPD2    C5 5620   1.824   1.822  13.868  0.1007  1.0944  0.1513
  372MPD2     H 5621   2.192   1.707  13.886  0.1305  0.3978  0.4353
  372MPD2    H1 5622   1.774   1.621  13.853 -0.1973  0.9054  0.2800
  372MPD2    H2 5623   1.911   2.023  13.879  0.2267  0.2338 -1.1637
  372MPD2    H3 5624   1.720   1.851  13.862 -1.0140 -2.3850  2.9278
  372MPD2     N 5625   2.016   1.511  13.891 -0.0948 -0.3196  0.3234
  372MPD2    H5 5626   2.114   1.487  13.906 -0.0134  0.3824  0.9378
  372MPD2    N1 5627   2.163   1.960  13.825 -0.3067  0.2957  0.2519
  372MPD2    H7 5628   2.256   1.918  13.822 -0.3095  0.3630 -0.8502
  373TMC3    C1 5629   1.989   1.281  13.900  0.2446 -0.3873  0.5506
  373TMC3    C2 5630   1.941   1.229  14.015  0.5248 -0.3007 -0.0194
  373TMC3    C3 5631   1.921   1.098  14.031 -0.3407 -0.2960 -0.6746
  373TMC3    C4 5632   2.017   1.192  13.801  0.0482  0.0194 -0.5855
  373TMC3    C5 5633   2.014   1.056  13.822  0.6603  0.8769  0.5722
  373TMC3    C6 5634   1.964   1.006  13.935  0.0495  0.0833  0.1935
  373TMC3     C 5635   1.927   1.410  13.866 -0.5195 -0.2109  0.5710
  373TMC3     O 5636   1.814   1.410  13.813 -0.8774  0.0697  0.0042
  373TMC3     H 5637   1.931   1.297  14.098 -0.3486 -0.3777 -0.0614
  373TMC3    H1 5638   2.064   1.233  13.711 -0.5997 -1.5949 -1.6671
  373TMC3    H2 5639   1.967   0.898  13.951 -0.8408 -0.0681 -0.7057
  373TMC3    C7 5640   2.130   0.993  13.761 -0.5809 -0.1559  0.5267
  373TMC3    C8 5641   1.881   1.058  14.164  0.4342 -0.1728  0.2214
  373TMC3    O1 5642   2.188   1.061  13.676  0.1761  0.3912 -0.5341
  373TMC3    O2 5643   1.778   1.122  14.196 -0.0629  0.6161 -0.0692
  374TMC3    C1 5644   3.318   2.277   9.884  0.0223  0.6092 -0.1682
  374TMC3    C2 5645   3.256   2.338   9.991  0.7499 -0.2817  0.0232
  374TMC3    C3 5646   3.328   2.430  10.060  0.0333  0.7251 -0.4129
  374TMC3    C4 5647   3.441   2.301   9.840 -0.8404  0.2264 -0.3892
  374TMC3    C5 5648   3.518   2.388   9.913 -0.8208 -0.0165  0.8677
  374TMC3    C6 5649   3.463   2.463  10.019  0.3256  0.0780  0.3677
  374TMC3     C 5650   3.254   2.152   9.849 -0.0275  0.1147  0.3020
  374TMC3     O 5651   3.199   2.094   9.944 -0.0062 -0.2006 -0.0787
  374TMC3     H 5652   3.154   2.315  10.022  0.5357 -0.9531 -1.1532
  374TMC3    H1 5653   3.495   2.242   9.767  0.7814  1.6258 -0.3263
  374TMC3    H2 5654   3.521   2.540  10.070 -0.2287  0.6045  0.2099
  374TMC3    C7 5655   3.641   2.438   9.862 -0.3568  1.4417 -0.3388
  374TMC3    C8 5656   3.304   2.439  10.199  0.2137  0.1746 -0.1860
  374TMC3    O1 5657   3.675   2.553   9.898 -0.4922 -0.4793 -0.3218
  374TMC3    O2 5658   3.186   2.429  10.231  0.5315  0.5081 -0.1682
  375MPD2     C 5659   3.567   2.432  17.140 -0.0505 -0.2642 -0.2189
  375MPD2    C1 5660   3.460   2.363  17.073  0.4966 -0.0317  0.4583
  375MPD2    C2 5661   3.490   2.260  16.996  0.7072 -0.9358  0.0954
  375MPD2    C3 5662   3.620   2.209  16.977 -0.2017  0.4769 -0.2421
  375MPD2    C4 5663   3.725   2.275  17.047 -1.0798  0.5025  1.0461
  375MPD2    C5 5664   3.692   2.386  17.126 -0.0450 -0.2948  0.0870
  375MPD2     H 5665   3.415   2.208  16.938  0.6057 -0.8963  0.1915
  375MPD2    H1 5666   3.827   2.239  17.038 -1.4272 -0.5440  1.3141
  375MPD2    H2 5667   3.549   2.524  17.195  0.4109  0.9432 -2.0609
  375MPD2    H3 5668   3.774   2.435  17.177 -0.6585 -0.0273  0.8102
  375MPD2     N 5669   3.653   2.115  16.876  0.2776  0.1330  0.4453
  375MPD2    H5 5670   3.749   2.086  16.859  0.4171  0.4920  0.6225
  375MPD2    N1 5671   3.323   2.405  17.087  0.0185  0.0292 -0.2509
  375MPD2    H7 5672   3.252   2.365  17.026 -2.0894  0.5442  1.9117
  376TMC3    C1 5673   3.625   1.959  16.703  0.0575  0.5865 -0.2032
  376TMC3    C2 5674   3.756   1.914  16.721 -0.6379  0.5560 -0.2156
  376TMC3    C3 5675   3.830   1.873  16.615  0.2934 -0.0803 -0.4803
  376TMC3    C4 5676   3.565   1.940  16.580  0.2475  0.7400 -0.0662
  376TMC3    C5 5677   3.635   1.889  16.475  0.1246 -0.4438  0.3287
  376TMC3    C6 5678   3.767   1.862  16.492 -0.1572  0.1123  0.2805
  376TMC3     C 5679   3.563   2.050  16.794  0.0675  0.1326 -0.3391
  376TMC3     O 5680   3.448   2.085  16.772 -0.1146 -0.1624 -0.1350
  376TMC3     H 5681   3.813   1.944  16.807  0.6665 -1.9106 -0.2331
  376TMC3    H1 5682   3.467   1.984  16.563 -0.7910 -1.6396 -0.2299
  376TMC3    H2 5683   3.829   1.846  16.405 -2.3534  1.4073 -1.5394
  376TMC3    C7 5684   3.604   1.923  16.336 -0.4193  0.4706  0.2882
  376TMC3    C8 5685   3.968   1.913  16.618  0.1249  0.5180  0.6115
  376TMC3    O1 5686   3.694   1.919  16.252  0.2238 -0.1424 -0.1793
  376TMC3    O2 5687   4.020   1.969  16.523  0.2236  0.4622  0.2086
  377MPD2     C 5688   0.562   2.103  13.110  0.9261 -0.2128  1.0082
  377MPD2    C1 5689   0.684   2.097  13.170 -0.4059  0.9863 -0.6264
  377MPD2    C2 5690   0.697   2.037  13.292  0.3974  0.5160  0.2271
  377MPD2    C3 5691   0.584   2.000  13.366  0.3179  0.2483  0.0841
  377MPD2    C4 5692   0.458   2.015  13.312 -0.2286 -0.0499  0.8081
  377MPD2    C5 5693   0.455   2.048  13.180 -0.5078  0.3128  0.8588
  377MPD2     H 5694   0.799   2.030  13.329  0.8134 -0.4057 -1.0668
  377MPD2    H1 5695   0.370   1.974  13.361 -1.2528  0.8166 -0.2880
  377MPD2    H2 5696   0.554   2.130  13.005  3.7838 -2.8596  0.0962
  377MPD2    H3 5697   0.364   2.048  13.122  1.2310  1.2453 -1.8774
  377MPD2     N 5698   0.591   1.951  13.498 -0.2947 -0.0890 -0.0318
  377MPD2    H5 5699   0.504   1.926  13.543 -0.1734 -0.4714 -0.0041
  377MPD2    N1 5700   0.801   2.132  13.089 -0.3948 -0.1797 -0.1645
  377MPD2    H7 5701   0.781   2.200  13.017 -0.6396  1.6235  1.5839
  378TMC3    C1 5702   1.051   2.230  12.790 -0.3673  0.6294  0.0778
  378TMC3    C2 5703   0.975   2.169  12.885 -0.2922 -0.0152  1.1675
  378TMC3    C3 5704   1.022   2.141  13.009  0.7334  0.4802 -0.4870
  378TMC3    C4 5705   1.182   2.261  12.826  0.0113  0.2112  0.0804
  378TMC3    C5 5706   1.235   2.223  12.948 -0.1027 -0.0802 -0.5898
  378TMC3    C6 5707   1.150   2.171  13.047 -0.2966  0.7222  0.4238
  378TMC3     C 5708   0.985   2.304  12.686 -0.6809  0.3504 -0.3910
  378TMC3     O 5709   0.867   2.334  12.702 -0.2888  0.2820  0.2483
  378TMC3     H 5710   0.873   2.148  12.854 -0.3039 -1.3890  2.1451
  378TMC3    H1 5711   1.234   2.320  12.751 -0.3234  1.0671  0.5131
  378TMC3    H2 5712   1.187   2.150  13.147  0.3594 -2.5984 -0.5066
  378TMC3    C7 5713   1.378   2.252  12.973 -1.0053  0.1782 -0.0455
  378TMC3    C8 5714   0.930   2.099  13.113  0.1096  0.2675  0.2875
  378TMC3    O1 5715   1.414   2.302  13.083 -0.1680 -0.3319 -0.5032
  378TMC3    O2 5716   0.982   2.034  13.203  0.4326 -0.3658  0.1185
  379MPD2     C 5717   2.567   0.258  16.069 -0.5866 -0.8569 -0.1457
  379MPD2    C1 5718   2.510   0.178  16.158  0.3590 -0.6611 -0.5700
  379MPD2    C2 5719   2.570   0.149  16.274  0.1605 -0.7293  0.1961
  379MPD2    C3 5720   2.694   0.205  16.308  0.4331 -0.3136 -0.0121
  379MPD2    C4 5721   2.758   0.284  16.214 -0.2773 -0.1391 -0.3033
  379MPD2    C5 5722   2.688   0.315  16.096 -0.1448 -0.8464  0.7164
  379MPD2     H 5723   2.524   0.079  16.343 -0.8123 -1.2100 -0.9435
  379MPD2    H1 5724   2.856   0.326  16.233 -0.3977  0.6570 -1.3972
  379MPD2    H2 5725   2.521   0.290  15.977 -0.8877  4.4963  1.8706
  379MPD2    H3 5726   2.723   0.377  16.014 -1.0175 -0.6000  0.5280
  379MPD2     N 5727   2.770   0.186  16.427 -0.3121  0.0371 -0.1785
  379MPD2    H5 5728   2.861   0.231  16.432 -0.7993  1.2101 -1.8973
  379MPD2    N1 5729   2.385   0.116  16.120  0.2708  0.0623 -0.0984
  379MPD2    H7 5730   2.339   0.165  16.043  0.5839  0.5825  0.0541
  380TMC3    C1 5731   2.220   4.690  16.105 -0.2808  0.2914  0.3513
  380TMC3    C2 5732   2.238   4.562  16.054  0.4172  0.4744 -0.3837
  380TMC3    C3 5733   2.168   4.529  15.939 -0.3364 -0.7241 -0.2179
  380TMC3    C4 5734   2.140   0.037  16.041 -0.1765 -0.0725 -0.2878
  380TMC3    C5 5735   2.058   4.731  15.939  0.0324 -0.1260 -0.3852
  380TMC3    C6 5736   2.068   4.603  15.894  0.1662  0.1414  0.5016
  380TMC3     C 5737   2.328   0.004  16.177  0.1105 -0.3087 -0.1602
  380TMC3     O 5738   2.373   4.666  16.262  0.1925  0.8677 -0.4973
  380TMC3     H 5739   2.315   4.504  16.105  0.6866  0.8211 -0.3949
  380TMC3    H1 5740   2.139   0.142  16.069  1.4608 -0.2796  0.5540
  380TMC3    H2 5741   2.027   4.569  15.800 -3.7911  3.1099  1.1211
  380TMC3    C7 5742   1.980   0.093  15.859 -0.0045  0.9593 -0.4499
  380TMC3    C8 5743   2.270   4.517  15.824 -0.2331 -0.0617 -0.1284
  380TMC3    O1 5744   2.031   0.204  15.841 -0.3185  0.2800  0.2839
  380TMC3    O2 5745   2.237   4.522  15.704  0.2208  0.5277  0.0950
  381TMC3    C1 5746   1.510   1.391  16.223 -0.0538 -0.3162  0.7421
  381TMC3    C2 5747   1.626   1.439  16.164 -0.3529  0.3831  0.7016
  381TMC3    C3 5748   1.745   1.411  16.224  0.8704 -0.0732 -0.6266
  381TMC3    C4 5749   1.514   1.312  16.337  0.0307 -0.8036 -0.2397
  381TMC3    C5 5750   1.639   1.282  16.385 -0.6145 -0.5902 -0.3309
  381TMC3    C6 5751   1.757   1.329  16.331 -0.3143  0.6168  0.1889
  381TMC3     C 5752   1.396   1.359  16.138  0.6463  0.1191 -0.6156
  381TMC3     O 5753   1.300   1.308  16.190 -0.2049 -0.0207 -0.0725
  381TMC3     H 5754   1.634   1.513  16.085 -0.6740  1.9262  2.1000
  381TMC3    H1 5755   1.423   1.263  16.368 -0.0793 -1.1275 -1.0641
  381TMC3    H2 5756   1.857   1.306  16.366 -0.0331  0.9511 -0.4017
  381TMC3    C7 5757   1.654   1.189  16.483 -1.0211 -0.2696  0.0916
  381TMC3    C8 5758   1.863   1.486  16.188  0.2372 -0.3676  0.0916
  381TMC3    O1 5759   1.759   1.119  16.490 -0.0684  1.1155  0.2983
  381TMC3    O2 5760   1.893   1.525  16.076 -0.1549 -0.5117 -0.0311
  382MPD2     C 5761   1.227   3.595  17.113 -0.3816 -0.2077  0.4479
  382MPD2    C1 5762   1.271   3.566  17.245 -0.2874 -0.5413  0.0374
  382MPD2    C2 5763   1.219   3.448  17.299  0.2501  0.0586 -0.3763
  382MPD2    C3 5764   1.145   3.356  17.230  0.4368 -0.8096  0.1347
  382MPD2    C4 5765   1.107   3.386  17.099 -0.3883 -0.2399 -0.2793
  382MPD2    C5 5766   1.146   3.508  17.046  0.6379 -0.0186  0.5928
  382MPD2     H 5767   1.246   3.438  17.404 -1.1888 -1.6298 -0.1732
  382MPD2    H1 5768   1.059   3.315  17.033 -0.3965 -1.1368  0.6976
  382MPD2    H2 5769   1.266   3.679  17.056 -1.8661 -1.5735 -2.6024
  382MPD2    H3 5770   1.128   3.528  16.941 -0.8358 -2.8622  0.2778
  382MPD2     N 5771   1.093   3.236  17.279 -0.2626 -0.0053  0.2368
  382MPD2    H5 5772   1.060   3.167  17.212 -1.4668 -0.6342  1.4810
  382MPD2    N1 5773   1.363   3.635  17.315 -0.8409  0.4202 -0.1138
  382MPD2    H7 5774   1.374   3.603  17.410  0.7755  2.4328  0.3928
  383TMC3    C1 5775   1.075   3.056  17.427  0.2974  0.2807  0.1254
  383TMC3    C2 5776   0.989   2.997  17.347 -0.3749 -0.0837 -0.7998
  383TMC3    C3 5777   0.974   2.861  17.365  0.2244 -0.3085  0.5168
  383TMC3    C4 5778   1.154   2.990  17.517  0.1246  0.2470  0.0871
  383TMC3    C5 5779   1.134   2.853  17.537 -0.1553  0.7458 -1.0052
  383TMC3    C6 5780   1.040   2.792  17.464 -0.5498 -0.0358  0.2359
  383TMC3     C 5781   1.096   3.196  17.411  0.3959  0.0429 -0.1876
  383TMC3     O 5782   1.147   3.254  17.504  0.2448 -0.0303  0.1410
  383TMC3     H 5783   0.918   3.055  17.289  0.3443  0.6333 -0.9665
  383TMC3    H1 5784   1.232   3.043  17.572  0.6204 -1.9121  1.4638
  383TMC3    H2 5785   1.019   2.687  17.481 -2.0188 -0.0600 -1.6531
  383TMC3    C7 5786   1.186   2.782  17.647  0.3248  0.0015 -0.1335
  383TMC3    C8 5787   0.848   2.809  17.317 -0.0633 -0.3976  0.7044
  383TMC3    O1 5788   1.112   2.710  17.719 -0.2909  0.3463  0.4143
  383TMC3    O2 5789   0.767   2.892  17.277  0.4403  0.7147  0.1582
  384MPD2     C 5790   2.119   0.788  12.551 -0.2950 -0.8065  0.6203
  384MPD2    C1 5791   2.154   0.657  12.585 -0.4346 -0.0886 -0.1104
  384MPD2    C2 5792   2.287   0.616  12.562  0.1804  0.7372  0.1201
  384MPD2    C3 5793   2.381   0.693  12.503  0.0216 -0.1218  0.1573
  384MPD2    C4 5794   2.345   0.818  12.464  0.1814 -0.3002 -1.2432
  384MPD2    C5 5795   2.220   0.872  12.494  0.2208 -0.3030  0.2479
  384MPD2     H 5796   2.317   0.517  12.594 -0.7738  0.9361  1.5969
  384MPD2    H1 5797   2.413   0.889  12.420  0.9732 -0.3857 -0.1517
  384MPD2    H2 5798   2.020   0.830  12.563 -0.4811 -0.2296 -3.0170
  384MPD2    H3 5799   2.190   0.969  12.457  1.1916 -0.9953 -2.3005
  384MPD2     N 5800   2.511   0.636  12.477 -0.6231 -0.7306  0.1471
  384MPD2    H5 5801   2.525   0.549  12.527 -1.2938 -0.7184  0.3506
  384MPD2    N1 5802   2.059   0.586  12.659  0.4011 -0.3564 -0.1887
  384MPD2    H7 5803   1.981   0.640  12.695  2.3900  0.5969  2.6918
  385TMC3    C1 5804   2.736   0.615  12.446 -0.4910 -0.4943 -0.0275
  385TMC3    C2 5805   2.802   0.551  12.342 -0.8016 -0.7440 -0.5710
  385TMC3    C3 5806   2.840   0.422  12.359  0.4541  0.0334  0.4737
  385TMC3    C4 5807   2.721   0.553  12.564 -0.3335  0.4361  0.1398
  385TMC3    C5 5808   2.762   0.422  12.580 -0.0855  0.2343  0.2596
  385TMC3    C6 5809   2.824   0.352  12.480  0.4622 -0.1141 -0.7993
  385TMC3     C 5810   2.619   0.702  12.415  0.5829 -0.9564 -0.0720
  385TMC3     O 5811   2.626   0.799  12.342  0.3069  0.6562 -0.3305
  385TMC3     H 5812   2.805   0.596  12.244  1.1291 -0.7179 -0.5029
  385TMC3    H1 5813   2.678   0.606  12.649 -0.3128 -0.9430  1.0198
  385TMC3    H2 5814   2.856   0.251  12.499 -1.1932 -0.7831 -1.5249
  385TMC3    C7 5815   2.659   0.349  12.642  0.3283 -0.2212  0.1933
  385TMC3    C8 5816   2.938   0.372  12.268 -0.2530  0.5757 -0.6245
  385TMC3    O1 5817   2.557   0.412  12.631 -0.2760  0.1488  0.3370
  385TMC3    O2 5818   3.012   0.451  12.210  0.4719 -0.0864 -0.1768
  386TMC3    C1 5819   2.548   2.175  12.020 -0.3627 -0.7732 -1.1571
  386TMC3    C2 5820   2.582   2.223  11.894  0.7147 -0.1190  0.0675
  386TMC3    C3 5821   2.501   2.326  11.834 -0.8659 -0.2068  0.2906
  386TMC3    C4 5822   2.431   2.225  12.074  0.1683  0.0024  0.0165
  386TMC3    C5 5823   2.352   2.310  12.004 -1.0818 -0.4804  0.3658
  386TMC3    C6 5824   2.384   2.366  11.884 -0.0132 -0.4565 -0.1102
  386TMC3     C 5825   2.650   2.102  12.098 -0.3173  0.9331 -0.1470
  386TMC3     O 5826   2.757   2.088  12.041 -0.3288 -0.2968  0.2783
  386TMC3     H 5827   2.662   2.177  11.838 -0.9286 -0.0565 -2.3613
  386TMC3    H1 5828   2.390   2.186  12.167  0.3368 -1.0666 -0.3576
  386TMC3    H2 5829   2.323   2.452  11.858 -0.2295 -0.7451 -0.5367
  386TMC3    C7 5830   2.228   2.337  12.072  0.2066  0.2853 -0.6458
  386TMC3    C8 5831   2.526   2.375  11.701 -0.2595  0.2529  0.6452
  386TMC3    O1 5832   2.233   2.330  12.196  0.8890  0.0561  0.4826
  386TMC3    O2 5833   2.427   2.433  11.649  0.0749 -0.3333  0.5236
  387MPD2     C 5834   0.134   2.774  10.053 -0.4043 -0.4268  0.2620
  387MPD2    C1 5835   0.224   2.731  10.149 -0.0452  0.5922  0.6208
  387MPD2    C2 5836   0.232   2.604  10.194  0.0444  0.3715  0.9331
  387MPD2    C3 5837   0.141   2.506  10.151 -0.6610 -0.1064  0.7085
  387MPD2    C4 5838   0.056   2.545  10.047  0.5537  0.2319  0.4950
  387MPD2    C5 5839   0.050   2.676   9.999  0.1553  0.1937 -0.5661
  387MPD2     H 5840   0.294   2.569  10.275  1.3107  0.0399 -0.1729
  387MPD2    H1 5841   4.721   2.479  10.002  0.5365  1.0281 -0.6605
  387MPD2    H2 5842   0.139   2.873  10.009 -0.4794 -0.9335 -0.8799
  387MPD2    H3 5843   4.723   2.699   9.917  0.0491 -0.8746 -0.7778
  387MPD2     N 5844   0.170   2.381  10.200 -0.1258  0.5659  0.2852
  387MPD2    H5 5845   0.233   2.373  10.280  0.4644  1.8513 -0.0518
  387MPD2    N1 5846   0.332   2.815  10.184  0.3519 -0.2687 -0.6006
  387MPD2    H7 5847   0.407   2.771  10.236  0.4068  1.7410  1.0408
  388TMC3    C1 5848   0.484   2.982  10.180  0.3754 -0.7145  0.2357
  388TMC3    C2 5849   0.515   3.108  10.219  0.2047 -0.2251  0.0178
  388TMC3    C3 5850   0.640   3.135  10.264  0.2666 -0.6328 -0.1943
  388TMC3    C4 5851   0.577   2.877  10.185 -0.3255 -0.1337  0.0629
  388TMC3    C5 5852   0.701   2.916  10.232  0.8204 -0.4170 -0.7244
  388TMC3    C6 5853   0.741   3.044  10.269  0.7439 -0.2078 -0.0525
  388TMC3     C 5854   0.349   2.945  10.157  0.0888  0.5838  0.5890
  388TMC3     O 5855   0.270   3.023  10.108 -0.3190 -0.1813  0.4455
  388TMC3     H 5856   0.439   3.184  10.203  1.5417  0.9502 -0.7650
  388TMC3    H1 5857   0.553   2.781  10.141 -1.2373 -0.1201  0.5269
  388TMC3    H2 5858   0.846   3.064  10.287  0.7467 -0.7885  0.6037
  388TMC3    C7 5859   0.803   2.812  10.228 -0.2580 -0.4516 -0.0871
  388TMC3    C8 5860   0.672   3.266  10.313  0.0729  0.1041 -0.1818
  388TMC3    O1 5861   0.901   2.828  10.161 -0.6390  0.3195 -0.2865
  388TMC3    O2 5862   0.775   3.315  10.274 -0.7303  0.7412 -0.3180
  389MPD2     C 5863   4.558   0.558  11.731 -0.3240 -0.0995 -0.2446
  389MPD2    C1 5864   4.460   0.506  11.656 -0.6336 -0.5366 -0.1980
  389MPD2    C2 5865   4.383   0.413  11.719 -0.3756  0.2963 -0.4635
  389MPD2    C3 5866   4.398   0.373  11.849 -0.3749 -0.6442 -0.2863
  389MPD2    C4 5867   4.488   0.441  11.926  0.4938 -0.3158  0.3102
  389MPD2    C5 5868   4.578   0.526  11.868  0.4033 -0.2761 -0.1595
  389MPD2     H 5869   4.301   0.373  11.660 -3.0275  3.3903  1.1061
  389MPD2    H1 5870   4.506   0.417  12.030  0.3558  1.7219  0.7949
  389MPD2    H2 5871   4.610   0.646  11.695  2.0943 -0.4093  2.4498
  389MPD2    H3 5872   4.652   0.584  11.921  1.0251 -0.5092 -0.7800
  389MPD2     N 5873   4.314   0.284  11.920  0.3486  0.3015  0.3988
  389MPD2    H5 5874   4.319   0.280  12.022 -0.0161  1.0503  0.4481
  389MPD2    N1 5875   4.440   0.566  11.530 -0.3364 -0.1796 -0.1806
  389MPD2    H7 5876   4.504   0.642  11.509 -0.4505  0.3474  1.3713
  390TMC3    C1 5877   4.118   0.157  11.945  0.6110  0.0180 -0.1786
  390TMC3    C2 5878   4.078   0.028  11.931 -0.4000 -0.3132 -0.1616
  390TMC3    C3 5879   3.980   4.710  12.016  0.0433 -0.7571 -0.8965
  390TMC3    C4 5880   4.053   0.239  12.035  0.3403  0.2562 -0.0883
  390TMC3    C5 5881   3.950   0.181  12.107 -0.5882  0.0645  0.0474
  390TMC3    C6 5882   3.918   0.052  12.111  0.0451 -0.5102 -0.4369
  390TMC3     C 5883   4.220   0.206  11.855 -0.0467 -0.3232 -0.2215
  390TMC3     O 5884   4.219   0.170  11.738 -0.3151 -0.1821 -1.2786
  390TMC3     H 5885   4.107   4.710  11.843 -1.4576 -1.5252  0.2921
  390TMC3    H1 5886   4.074   0.343  12.055  0.5120  0.1236  0.4244
  390TMC3    H2 5887   3.857   0.021  12.196  1.5400  0.7612  1.0971
  390TMC3    C7 5888   3.853   0.263  12.174 -0.3039 -0.3057 -0.8139
  390TMC3    C8 5889   3.900   4.595  11.964 -0.0538 -0.0840 -0.3105
  390TMC3    O1 5890   3.905   0.358  12.233  0.1282 -0.1767  0.0695
  390TMC3    O2 5891   3.892   4.581  11.844  0.1688 -0.8171 -0.2197
  391MPD2     C 5892   4.170   2.004  11.437  0.0823 -0.0505 -0.1684
  391MPD2    C1 5893   4.276   2.074  11.385  0.2947 -0.0308 -0.8036
  391MPD2    C2 5894   4.248   2.143  11.268 -0.8921 -0.3800 -0.3053
  391MPD2    C3 5895   4.128   2.145  11.204  0.2999  0.6756 -0.0361
  391MPD2    C4 5896   4.029   2.069  11.256  0.3179 -0.0262 -0.3100
  391MPD2    C5 5897   4.044   2.001  11.374 -1.0159 -0.4543 -0.0354
  391MPD2     H 5898   4.329   2.203  11.229 -1.1300  0.5454  0.6144
  391MPD2    H1 5899   3.932   2.058  11.208 -0.2501  0.3690  0.7613
  391MPD2    H2 5900   4.183   1.940  11.523 -1.0883  0.1722  0.1676
  391MPD2    H3 5901   3.968   1.929  11.403 -0.1208 -0.5725  2.0417
  391MPD2     N 5902   4.116   2.215  11.076  0.4682 -0.0295 -0.4490
  391MPD2    H5 5903   4.207   2.243  11.042 -0.3900  2.6373 -0.6061
  391MPD2    N1 5904   4.403   2.072  11.449  0.7223  0.1044 -0.2464
  391MPD2    H7 5905   4.402   2.044  11.547 -2.4478  0.4498 -0.1769
  392TMC3    C1 5906   4.022   2.297  10.874  0.3521  0.1284 -0.8773
  392TMC3    C2 5907   3.907   2.327  10.809 -0.1622  0.4010  0.0796
  392TMC3    C3 5908   3.921   2.388  10.684  0.1745  0.2152  0.0132
  392TMC3    C4 5909   4.145   2.327  10.823 -0.2679  0.3553 -0.4432
  392TMC3    C5 5910   4.158   2.393  10.700  0.0971 -0.2515 -0.0891
  392TMC3    C6 5911   4.043   2.412  10.629  0.5077  0.3294  0.1755
  392TMC3     C 5912   4.001   2.231  11.006  0.2886  0.2033 -0.1621
  392TMC3     O 5913   3.889   2.206  11.038 -0.2593  0.0654  0.3542
  392TMC3     H 5914   3.810   2.298  10.847 -1.2607  1.9573 -1.5498
  392TMC3    H1 5915   4.232   2.323  10.886 -2.0506  1.7417  2.0874
  392TMC3    H2 5916   4.053   2.440  10.524 -0.3025 -0.8312 -0.1974
  392TMC3    C7 5917   4.241   2.513  10.708 -0.3241 -0.6160 -0.2653
  392TMC3    C8 5918   3.805   2.410  10.598 -0.0631  0.5757  0.2545
  392TMC3    O1 5919   4.260   2.541  10.827  0.4829  0.0043 -0.7820
  392TMC3    O2 5920   3.821   2.447  10.480 -0.3385  0.0629  0.0915
  393TMC3    C1 5921   2.347   0.812  11.521 -0.4649 -0.5071  0.4897
  393TMC3    C2 5922   2.229   0.816  11.587 -0.6289  0.0187  0.7231
  393TMC3    C3 5923   2.211   0.727  11.690 -0.4359  0.5105 -0.0994
  393TMC3    C4 5924   2.441   0.713  11.552  0.9974  0.2604 -0.1453
  393TMC3    C5 5925   2.411   0.614  11.642 -1.2987  0.3107 -0.0968
  393TMC3    C6 5926   2.288   0.615  11.702 -1.0011  0.0757  0.3901
  393TMC3     C 5927   2.381   0.920  11.428  0.0570  0.0129  0.2205
  393TMC3     O 5928   2.318   1.025  11.433  0.1061  0.2419 -0.1326
  393TMC3     H 5929   2.166   0.902  11.571  0.9717  1.1135  0.3270
  393TMC3    H1 5930   2.537   0.720  11.501  0.6653  1.5484 -0.6113
  393TMC3    H2 5931   2.281   0.543  11.782  1.3440  1.8575  2.2128
  393TMC3    C7 5932   2.510   0.502  11.663 -0.1104  0.4966  0.5487
  393TMC3    C8 5933   2.069   0.701  11.729 -0.2867 -0.2092  0.3308
  393TMC3    O1 5934   2.622   0.531  11.625 -0.1590  0.0872 -0.1095
  393TMC3    O2 5935   2.039   0.584  11.737  0.2651  0.2072  0.2876
  394TMC3    C1 5936   4.325   0.645  11.339 -0.3443  0.3144 -0.4680
  394TMC3    C2 5937   4.246   0.615  11.235  0.0642 -0.0619 -0.3140
  394TMC3    C3 5938   4.235   0.698  11.129  0.1560 -0.1768 -0.4120
  394TMC3    C4 5939   4.407   0.756  11.336 -0.1389  0.3472  0.3833
  394TMC3    C5 5940   4.387   0.845  11.231  0.2955 -0.6279 -0.2137
  394TMC3    C6 5941   4.304   0.814  11.131 -0.3469  0.0288 -0.3460
  394TMC3     C 5942   4.341   0.540  11.440 -0.3433  0.1051 -0.1049
  394TMC3     O 5943   4.259   0.446  11.444 -0.2159  1.0143  0.2560
  394TMC3     H 5944   4.202   0.516  11.228 -1.6136  0.7808 -1.6165
  394TMC3    H1 5945   4.463   0.790  11.423 -0.6009  2.4679 -0.1682
  394TMC3    H2 5946   4.292   0.892  11.056  2.3594  0.0351 -0.7957
  394TMC3    C7 5947   4.480   0.949  11.198  0.5949 -0.1702 -0.1910
  394TMC3    C8 5948   4.226   0.629  10.999  0.0439  0.5373  0.2685
  394TMC3    O1 5949   4.438   1.045  11.132  0.2107  0.2694 -0.5171
  394TMC3    O2 5950   4.259   0.511  10.999 -0.0429 -0.3389  0.2229
  395TMC3    C1 5951   4.325   2.286  15.428  0.0507  0.0177  0.1470
  395TMC3    C2 5952   4.201   2.340  15.415 -0.1056  0.6656 -0.0325
  395TMC3    C3 5953   4.186   2.433  15.321  0.4204 -0.7495 -0.2506
  395TMC3    C4 5954   4.428   2.325  15.345  0.0185 -0.3965  0.4492
  395TMC3    C5 5955   4.401   2.423  15.244  0.2035  0.5592  0.5309
  395TMC3    C6 5956   4.274   2.473  15.226  0.4596 -0.2571 -0.2867
  395TMC3     C 5957   4.355   2.244  15.561 -0.4144 -0.3071  0.3020
  395TMC3     O 5958   4.314   2.320  15.651  0.1994  0.3601  0.0584
  395TMC3     H 5959   4.133   2.329  15.499 -0.6614  1.6575 -0.3590
  395TMC3    H1 5960   4.527   2.294  15.377  0.1645  0.6987  1.0309
  395TMC3    H2 5961   4.252   2.553  15.157 -2.5024  0.5972  1.6681
  395TMC3    C7 5962   4.519   2.503  15.199  0.3780  0.1857 -0.1915
  395TMC3    C8 5963   4.051   2.485  15.300 -0.3831 -0.6477 -0.3598
  395TMC3    O1 5964   4.623   2.495  15.262 -0.0775  0.2157 -0.0459
  395TMC3    O2 5965   4.031   2.599  15.262 -0.3403  0.1263 -0.1354
  396MPD2     C 5966   4.544   3.198   0.084  0.4862  0.5646  0.2820
  396MPD2    C1 5967   4.636   3.226  17.739 -0.7088  0.2577 -0.4146
  396MPD2    C2 5968   4.599   3.307  17.632  0.2761  0.4397  0.1130
  396MPD2    C3 5969   4.470   3.356  17.630  0.3654  0.8945  0.0100
  396MPD2    C4 5970   4.379   3.341  17.730 -0.5276  0.5510 -0.3964
  396MPD2    C5 5971   4.419   3.260   0.080 -0.6790  0.5759 -0.7688
  396MPD2     H 5972   4.675   3.326  17.557  0.5290 -0.0356  0.2536
  396MPD2    H1 5973   4.285   3.393  17.739 -0.4339  1.0044 -1.9854
  396MPD2    H2 5974   4.557   3.128   0.165  0.5740  1.7669  1.3054
  396MPD2    H3 5975   4.343   3.237   0.153  1.1406 -0.7660  0.6933
  396MPD2     N 5976   4.442   3.438  17.515 -0.5486 -0.0582  0.1678
  396MPD2    H5 5977   4.512   3.457  17.444 -1.2482 -0.7620 -0.7010
  396MPD2    N1 5978   0.011   3.153  17.736  0.4035 -0.6574 -0.0414
  396MPD2    H7 5979   0.020   3.077   0.047  1.3019 -0.2838  0.2668
  397TMC3    C1 5980   0.217   3.072  17.651 -0.7371  0.4475  0.6855
  397TMC3    C2 5981   0.233   3.051  17.517  0.2545  0.3261 -0.8500
  397TMC3    C3 5982   0.206   2.926  17.463 -0.6799 -0.1216  0.7146
  397TMC3    C4 5983   0.179   2.966  17.732  0.3688  0.1994  0.2706
  397TMC3    C5 5984   0.148   2.844  17.680 -0.3874 -0.1695 -0.2656
  397TMC3    C6 5985   0.167   2.826  17.541 -0.1680  0.4714 -0.0477
  397TMC3     C 5986   0.117   3.182  17.657  0.8761  0.5038 -0.5429
  397TMC3     O 5987   0.149   3.283  17.592 -0.2266  0.0174 -0.4320
  397TMC3     H 5988   0.235   3.135  17.448  0.5289 -0.9458 -2.3802
  397TMC3    H1 5989   0.170   2.984   0.083 -0.7843  1.6252 -0.0737
  397TMC3    H2 5990   0.143   2.725  17.510  0.7957  0.2358 -0.0547
  397TMC3    C7 5991   0.022   2.789  17.726  0.4058 -0.3819  0.7730
  397TMC3    C8 5992   0.140   2.924  17.332  0.1050  0.0089  0.5630
  397TMC3    O1 5993   4.690   2.733  17.642 -0.5235  0.3732 -0.2157
  397TMC3    O2 5994   0.031   2.869  17.323  0.5571 -0.2410 -0.3564
  398MPD2     C 5995   2.738   4.452  17.545 -0.2274 -0.1195 -0.0786
  398MPD2    C1 5996   2.751   4.409  17.677  1.2987 -0.1519 -0.4158
  398MPD2    C2 5997   2.792   4.495   0.015  0.1132 -0.1947 -0.3550
  398MPD2    C3 5998   2.811   4.627  17.740  0.5800  0.2217  0.5748
  398MPD2    C4 5999   2.816   4.666  17.607  0.2989  0.4245  0.2219
  398MPD2    C5 6000   2.772   4.578  17.511 -0.4669  0.4197  0.3735
  398MPD2     H 6001   2.784   4.467   0.119 -1.4624 -3.2675 -1.3185
  398MPD2    H1 6002   2.854   0.021  17.570 -1.0165  0.6354 -0.5981
  398MPD2    H2 6003   2.687   4.402  17.463 -0.4327 -1.5656  0.9496
  398MPD2    H3 6004   2.779   4.609  17.408 -1.6428  2.8957  1.0331
  398MPD2     N 6005   2.844   4.720   0.082 -0.4386 -0.2714  0.2131
  398MPD2    H5 6006   2.877   4.685   0.172 -2.7560 -0.2410  1.0626
  398MPD2    N1 6007   2.699   4.285  17.717  0.4857 -0.3188  0.1530
  398MPD2    H7 6008   2.685   4.270   0.061 -0.7052  1.7266  0.3003
  399TMC3    C1 6009   2.613   4.065  17.708  0.0526 -0.5540  0.0926
  399TMC3    C2 6010   2.680   4.026   0.070  0.9278 -0.7927  0.2441
  399TMC3    C3 6011   2.662   3.905   0.118 -0.1610  0.1233 -0.3779
  399TMC3    C4 6012   2.535   3.977  17.636 -0.7363 -0.4270 -0.5314
  399TMC3    C5 6013   2.524   3.844  17.691 -0.1123 -0.4712 -0.5409
  399TMC3    C6 6014   2.576   3.813   0.058 -0.7023 -0.0652 -0.1934
  399TMC3     C 6015   2.660   4.181  17.634  0.4012 -0.5859 -0.1636
  399TMC3     O 6016   2.657   4.171  17.512 -0.3488 -0.5384  0.1703
  399TMC3     H 6017   2.754   4.086   0.121 -0.0992  0.0530  0.7440
  399TMC3    H1 6018   2.476   4.015  17.554  1.0238  2.7969 -0.3103
  399TMC3    H2 6019   2.563   3.718   0.109  0.8559  1.2005  2.5789
  399TMC3    C7 6020   2.411   3.766  17.658 -0.2860 -0.0527 -0.2030
  399TMC3    C8 6021   2.702   3.902   0.262  0.8766 -0.1746 -0.7531
  399TMC3    O1 6022   2.370   3.697  17.750  0.4259 -0.2344 -0.5387
  399TMC3    O2 6023   2.679   4.004   0.327 -0.2816 -0.3258  0.1869
  400TMC3    C1 6024   1.032   2.672  16.974  0.4238 -0.8661  0.0462
  400TMC3    C2 6025   0.964   2.610  16.875  0.5297  0.4500  0.6427
  400TMC3    C3 6026   0.852   2.677  16.834  0.1010 -0.1981 -0.1153
  400TMC3    C4 6027   1.006   2.801  17.010  0.2309  0.3138 -0.6472
  400TMC3    C5 6028   0.898   2.864  16.958 -0.3438 -0.1144 -0.2660
  400TMC3    C6 6029   0.816   2.806  16.865 -0.0027  1.1967  0.1263
  400TMC3     C 6030   1.042   2.575  17.086  0.0770 -0.6119  0.3701
  400TMC3     O 6031   0.981   2.472  17.070 -0.0625 -0.2117  0.7113
  400TMC3     H 6032   0.993   2.508  16.854 -0.4306  0.1137  0.9700
  400TMC3    H1 6033   1.063   2.857  17.084  0.8681 -1.6224  0.3261
  400TMC3    H2 6034   0.718   2.842  16.838 -0.0568  0.1577 -1.0303
  400TMC3    C7 6035   0.883   3.006  16.984 -0.5008 -0.2887 -0.7855
  400TMC3    C8 6036   0.748   2.597  16.795  0.2423  0.3297  0.8800
  400TMC3    O1 6037   0.954   3.060  17.066  0.4023 -0.3028 -0.0261
  400TMC3    O2 6038   0.661   2.630  16.711  0.1113 -0.3963 -0.3156
  401MPD2     C 6039   0.142   1.250   1.156 -0.0152 -0.0949  0.3280
  401MPD2    C1 6040   0.198   1.255   1.283  0.0726 -0.2014 -0.1446
  401MPD2    C2 6041   0.286   1.155   1.321 -0.3278  0.0067 -0.1969
  401MPD2    C3 6042   0.320   1.052   1.233 -0.4054  0.4261 -0.5143
  401MPD2    C4 6043   0.254   1.045   1.108 -0.5879  0.0743 -0.5544
  401MPD2    C5 6044   0.175   1.149   1.071  0.0607  0.1514  0.2128
  401MPD2     H 6045   0.345   1.163   1.411 -2.0120  0.6624  0.8521
  401MPD2    H1 6046   0.279   0.962   1.042 -0.9921  1.0475 -1.9151
  401MPD2    H2 6047   0.072   1.324   1.118  1.0807  0.5639 -0.4115
  401MPD2    H3 6048   0.137   1.157   0.970 -0.2683  3.3622  0.5766
  401MPD2     N 6049   0.407   0.956   1.288  0.1230  0.9624  0.2608
  401MPD2    H5 6050   0.430   0.966   1.387  0.5918 -1.2830  0.3788
  401MPD2    N1 6051   0.169   1.364   1.365 -0.3839  0.0046 -0.0078
  401MPD2    H7 6052   0.213   1.361   1.456 -0.9722 -2.4539  0.2063
  402TMC3    C1 6053   0.537   0.766   1.313  0.4780 -0.4226  0.3939
  402TMC3    C2 6054   0.548   0.794   1.445 -0.4749  0.8128 -0.0483
  402TMC3    C3 6055   0.640   0.717   1.515  0.3114  0.0540  0.5843
  402TMC3    C4 6056   0.629   0.687   1.246 -1.1869  0.6551  0.5623
  402TMC3    C5 6057   0.723   0.628   1.317 -0.2472 -0.1059  1.1154
  402TMC3    C6 6058   0.729   0.633   1.453 -0.2718  0.3844  0.5386
  402TMC3     C 6059   0.464   0.852   1.224 -0.1381 -0.5329 -0.6804
  402TMC3     O 6060   0.448   0.829   1.107  0.5288 -0.2817 -0.0633
  402TMC3     H 6061   0.468   0.853   1.487 -0.5108 -0.4817  1.6770
  402TMC3    H1 6062   0.603   0.662   1.144  0.9802 -0.4088  0.2730
  402TMC3    H2 6063   0.798   0.567   1.504  1.1112  1.3711 -0.0648
  402TMC3    C7 6064   0.781   0.509   1.256 -0.4152  0.1067  0.6236
  402TMC3    C8 6065   0.618   0.704   1.658  0.1323 -0.2235  0.8593
  402TMC3    O1 6066   0.781   0.412   1.333  0.2431 -0.3514  0.1133
  402TMC3    O2 6067   0.664   0.600   1.706 -0.0916 -0.3997 -0.3276
  403MPD2     C 6068   2.005   4.520  13.468  0.2699 -0.0908  0.1142
  403MPD2    C1 6069   1.951   4.564  13.582 -0.1002  0.0099  0.1612
  403MPD2    C2 6070   2.029   4.579  13.694  0.4491  0.6498  0.1790
  403MPD2    C3 6071   2.165   4.544  13.685 -0.5365 -0.1442 -0.0141
  403MPD2    C4 6072   2.220   4.501  13.561 -0.0237  0.9583  0.4486
  403MPD2    C5 6073   2.139   4.497  13.453  0.4299  0.3487 -0.2278
  403MPD2     H 6074   1.979   4.603  13.787 -1.8264  2.6242 -1.5710
  403MPD2    H1 6075   2.322   4.472  13.541 -0.2946  0.7916 -0.7202
  403MPD2    H2 6076   1.945   4.518  13.377 -0.7120  1.5746  0.7330
  403MPD2    H3 6077   2.178   4.488  13.352 -0.0339 -0.0010 -0.3731
  403MPD2     N 6078   2.248   4.555  13.796 -0.0497  0.7089 -0.5894
  403MPD2    H5 6079   2.205   4.600  13.876  0.8635 -1.7340  1.2637
  403MPD2    N1 6080   1.815   4.585  13.574  0.2325  0.0040  0.0414
  403MPD2    H7 6081   1.774   4.572  13.482  0.3200  1.5771 -0.2228
  404TMC3    C1 6082   1.590   4.589  13.632 -0.4191  0.0973 -0.2058
  404TMC3    C2 6083   1.521   4.488  13.692 -0.9679 -0.1870 -0.1452
  404TMC3    C3 6084   1.481   4.373  13.626  0.0317  0.8161 -1.2379
  404TMC3    C4 6085   1.589   4.597  13.503  0.5581  0.6342  0.2660
  404TMC3    C5 6086   1.540   4.492  13.438 -0.1751  0.1585 -0.2587
  404TMC3    C6 6087   1.486   4.380  13.492  1.1425  0.2343  0.0632
  404TMC3     C 6088   1.727   4.590  13.682  0.1483 -0.6095 -0.2081
  404TMC3     O 6089   1.748   4.530  13.788  0.5159 -0.6042 -0.7589
  404TMC3     H 6090   1.516   4.499  13.800  0.6168 -0.3239 -0.0660
  404TMC3    H1 6091   1.633   4.680  13.450 -0.7915  1.0358 -0.2254
  404TMC3    H2 6092   1.488   4.288  13.435  1.0570 -0.3221  0.9622
  404TMC3    C7 6093   1.596   4.474  13.307  0.5734 -0.0449  0.1727
  404TMC3    C8 6094   1.554   4.258  13.682  0.4770  0.3752 -0.3619
  404TMC3    O1 6095   1.707   4.522  13.304  0.3612 -0.2971  0.4673
  404TMC3    O2 6096   1.628   4.198  13.604  0.2838  0.2778 -0.6667
  405MPD2     C 6097   2.941   0.220  14.958 -0.9874 -0.8775 -0.5988
  405MPD2    C1 6098   2.926   0.159  14.834 -0.4144 -0.1239 -0.0535
  405MPD2    C2 6099   2.890   0.236  14.725  0.7447 -0.3701  0.3139
  405MPD2    C3 6100   2.873   0.374  14.735  0.5635  0.4008  0.4699
  405MPD2    C4 6101   2.902   0.439  14.854 -0.6264  0.0694 -0.1004
  405MPD2    C5 6102   2.929   0.359  14.969  0.7310 -1.0466  0.0870
  405MPD2     H 6103   2.872   0.192  14.628 -2.1166 -0.6644  0.9759
  405MPD2    H1 6104   2.899   0.546  14.868  2.1063  0.7292 -4.3908
  405MPD2    H2 6105   2.968   0.167  15.049 -0.5415 -1.2482 -0.9467
  405MPD2    H3 6106   2.953   0.404  15.064 -1.9621 -0.4905  0.4987
  405MPD2     N 6107   2.844   0.441  14.616  0.1933  0.4200  0.0192
  405MPD2    H5 6108   2.852   0.393  14.527  1.4441 -2.4915  1.7166
  405MPD2    N1 6109   2.917   0.017  14.832 -0.0792 -0.1090 -0.6000
  405MPD2    H7 6110   2.933   4.702  14.917 -2.1331 -1.1457 -0.8865
  406TMC3    C1 6111   2.537   0.720  14.436  0.9924 -0.4875 -0.3368
  406TMC3    C2 6112   2.482   0.612  14.386 -0.1013  0.2497  0.8836
  406TMC3    C3 6113   2.559   0.498  14.367 -0.6338 -0.6283 -0.2061
  406TMC3    C4 6114   2.666   0.714  14.492 -0.3789 -0.8929  0.0733
  406TMC3    C5 6115   2.742   0.599  14.484  0.1451  0.6040 -0.2096
  406TMC3    C6 6116   2.688   0.490  14.421 -0.4810 -0.3867  0.2585
  406TMC3     C 6117   2.461   0.836  14.484 -0.3454 -0.4627  0.3143
  406TMC3     O 6118   2.528   0.937  14.504 -0.1275  0.0977 -1.5149
  406TMC3     H 6119   2.375   0.609  14.365  0.4847  1.1607 -2.2548
  406TMC3    H1 6120   2.698   0.789  14.563 -2.0711  2.2490 -2.4841
  406TMC3    H2 6121   2.749   0.402  14.407  0.0019  0.1192 -0.8235
  406TMC3    C7 6122   2.821   0.575  14.603 -0.3086  0.0069  0.0804
  406TMC3    C8 6123   2.481   0.379  14.339  0.1215  0.2116 -0.8137
  406TMC3    O1 6124   2.818   0.662  14.688 -0.1079 -0.0384  0.0064
  406TMC3    O2 6125   2.361   0.392  14.298 -0.5611  0.4554 -0.3234
  407MPD2     C 6126   4.289   2.370   9.932  0.0780  0.1540  0.4750
  407MPD2    C1 6127   4.409   2.341   9.994  0.7480 -0.1777 -0.8042
  407MPD2    C2 6128   4.467   2.425  10.082 -0.4653 -0.3969 -0.1466
  407MPD2    C3 6129   4.410   2.551  10.103  0.7952  1.2462  0.0989
  407MPD2    C4 6130   4.289   2.578  10.037 -0.3224  0.0184  0.1859
  407MPD2    C5 6131   4.233   2.488   9.960  0.2603  0.0361 -0.4606
  407MPD2     H 6132   4.558   2.387  10.128  0.7881  1.0154 -1.4156
  407MPD2    H1 6133   4.243   2.674  10.057 -0.2781 -0.0137  0.4488
  407MPD2    H2 6134   4.235   2.297   9.872 -1.3622  1.1869  0.5174
  407MPD2    H3 6135   4.136   2.502   9.914 -0.7916  0.1184  1.7677
  407MPD2     N 6136   4.471   2.652  10.182 -0.6048 -0.5398 -0.3214
  407MPD2    H5 6137   4.438   2.747  10.172  1.0704  0.0404 -0.3523
  407MPD2    N1 6138   4.484   2.230   9.962  0.0957  0.5394  0.1600
  407MPD2    H7 6139   4.579   2.223   9.997  0.1321  1.0080  0.1618
  408TMC3    C1 6140   4.530   2.016   9.892 -0.5984  0.0354  0.1745
  408TMC3    C2 6141   4.657   2.066   9.844  0.5338  0.8909 -0.1113
  408TMC3    C3 6142   0.011   1.973   9.815  0.0666  0.7998 -0.5997
  408TMC3    C4 6143   4.503   1.881   9.910  0.0010 -0.0610 -0.1551
  408TMC3    C5 6144   4.604   1.799   9.884 -0.5661  0.0464  0.1609
  408TMC3    C6 6145   4.725   1.844   9.842  0.2566  0.0226  0.5067
  408TMC3     C 6146   4.431   2.121   9.899 -0.3193  0.4095 -0.0557
  408TMC3     O 6147   4.315   2.102   9.867 -0.4837 -0.0700  0.1360
  408TMC3     H 6148   4.672   2.171   9.821  2.3047  0.8157  0.7279
  408TMC3    H1 6149   4.407   1.835   9.930  0.4609 -1.1450 -0.3927
  408TMC3    H2 6150   0.065   1.770   9.844  0.8715  0.6589 -0.5730
  408TMC3    C7 6151   4.581   1.657   9.895 -0.3567 -0.6503  0.6936
  408TMC3    C8 6152   0.152   2.010   9.817 -0.9064 -0.2665 -0.0969
  408TMC3    O1 6153   4.492   1.618   9.967  0.3074 -0.1013 -0.4493
  408TMC3    O2 6154   0.234   1.918   9.813 -0.7349  0.1384  0.2671
  409MPD2     C 6155   4.489   2.054  17.117 -0.3490  0.0472  0.8149
  409MPD2    C1 6156   4.614   2.091  17.168 -0.3020 -0.3245  0.5238
  409MPD2    C2 6157   4.659   2.214  17.149  0.0476 -0.0854 -0.9275
  409MPD2    C3 6158   4.586   2.302  17.072 -0.6564 -0.7186  0.2693
  409MPD2    C4 6159   4.459   2.269  17.036  0.4598 -0.4000 -0.3690
  409MPD2    C5 6160   4.415   2.142  17.052  0.2310  0.2357 -0.4678
  409MPD2     H 6161   0.016   2.232  17.195  0.1521 -0.5592 -0.9563
  409MPD2    H1 6162   4.400   2.339  16.978  1.9871  0.1705 -1.2433
  409MPD2    H2 6163   4.447   1.955  17.131  0.3281 -0.2393  0.8567
  409MPD2    H3 6164   4.314   2.113  17.025 -0.3621  1.7286  0.1274
  409MPD2     N 6165   4.621   2.435  17.047  0.3583  0.3060 -0.0560
  409MPD2    H5 6166   4.549   2.500  17.015 -2.1117 -2.2988  0.1884
  409MPD2    N1 6167   4.703   2.011  17.244 -0.3228  0.8899  0.5279
  409MPD2    H7 6168   0.045   2.053  17.287  0.3051  1.1593 -0.9015
  410TMC3    C1 6169   0.045   2.622  17.025 -0.7175 -0.2453  0.4948
  410TMC3    C2 6170   0.158   2.671  17.091  0.7552 -0.4374 -0.5533
  410TMC3    C3 6171   0.239   2.751  17.017 -0.2875  0.0991  0.0350
  410TMC3    C4 6172   4.737   2.669  16.911  0.2651  0.2479  0.8159
  410TMC3    C5 6173   0.082   2.750  16.836 -1.4852 -0.5084  0.1650
  410TMC3    C6 6174   0.203   2.788  16.889  0.3448 -0.1388  0.2184
  410TMC3     C 6175   0.014   2.487  17.070 -0.1054 -0.7981  0.7356
  410TMC3     O 6176   0.118   2.433  17.114  0.1234 -0.5231  0.1739
  410TMC3     H 6177   0.178   2.646  17.195 -1.2289 -1.2961 -0.3786
  410TMC3    H1 6178   4.645   2.630  16.867 -0.0424  0.0624  1.6283
  410TMC3    H2 6179   0.285   2.828  16.831 -0.2328  0.0144 -0.4947
  410TMC3    C7 6180   0.043   2.819  16.716 -1.3204  0.4026 -0.4292
  410TMC3    C8 6181   0.377   2.736  17.047  0.1517  0.2313  0.0236
  410TMC3    O1 6182   4.683   2.786  16.656  0.0216  0.0435 -0.5925
  410TMC3    O2 6183   0.458   2.829  17.033 -0.4890  0.0421  0.0415
  411MPD2     C 6184   4.103   2.655  14.882  0.4381 -0.5754  0.1029
  411MPD2    C1 6185   4.150   2.705  14.760 -0.0617  0.2047  0.0301
  411MPD2    C2 6186   4.130   2.632  14.642  0.0121 -0.1992  0.0341
  411MPD2    C3 6187   4.042   2.522  14.637 -0.1350 -0.4631  0.2331
  411MPD2    C4 6188   3.987   2.482  14.755  0.2154  0.7853  0.3004
  411MPD2    C5 6189   4.015   2.550  14.873  0.2499 -0.0222 -1.1745
  411MPD2     H 6190   4.174   2.668  14.550 -1.5051  1.7776  0.0981
  411MPD2    H1 6191   3.911   2.405  14.759 -0.2719  1.1307 -2.0829
  411MPD2    H2 6192   4.115   2.699  14.980 -1.1583  0.2190 -0.0582
  411MPD2    H3 6193   3.972   2.517  14.967  1.4384  1.6398 -0.0573
  411MPD2     N 6194   4.018   2.458  14.511 -0.2559 -0.6369  0.1983
  411MPD2    H5 6195   4.081   2.483  14.435 -1.3773 -1.0553 -0.8740
  411MPD2    N1 6196   4.237   2.814  14.773  0.2118  0.3899  0.0449
  411MPD2    H7 6197   4.248   2.845  14.869  0.4401  1.2434 -0.2627
  412TMC3    C1 6198   3.919   2.332  14.353  0.3781  0.2005 -0.5882
  412TMC3    C2 6199   3.811   2.385  14.288  0.2788  0.3053  0.6125
  412TMC3    C3 6200   3.807   2.371  14.150  0.4849  0.2572  0.4443
  412TMC3    C4 6201   4.011   2.242  14.296 -0.1589 -0.0123  0.4379
  412TMC3    C5 6202   3.996   2.223  14.167  0.0570 -0.2633 -0.2708
  412TMC3    C6 6203   3.895   2.277  14.090 -0.2065  0.3293  0.1506
  412TMC3     C 6204   3.929   2.355  14.492  0.1798  0.7179 -0.3459
  412TMC3     O 6205   3.843   2.315  14.570 -0.3637 -0.0258 -0.0907
  412TMC3     H 6206   3.753   2.451  14.352 -1.3392 -0.5335  0.0014
  412TMC3    H1 6207   4.084   2.183  14.351 -1.1688 -2.2255 -0.5907
  412TMC3    H2 6208   3.889   2.252  13.985  1.3966  0.0895  0.1197
  412TMC3    C7 6209   4.114   2.238  14.092 -0.4052  0.1141 -0.2680
  412TMC3    C8 6210   3.801   2.496  14.083 -0.0959  0.0454 -0.0160
  412TMC3    O1 6211   4.104   2.321  14.006 -0.1154  0.1847 -0.3866
  412TMC3    O2 6212   3.720   2.572  14.134 -0.4050  0.1481  0.5320
  413MPD2     C 6213   1.658   1.738  15.245 -0.0976 -0.3594 -0.3995
  413MPD2    C1 6214   1.581   1.628  15.231 -0.0367  0.6167 -0.0988
  413MPD2    C2 6215   1.644   1.505  15.213  0.4797  0.0712  0.6094
  413MPD2    C3 6216   1.781   1.495  15.207 -0.6900 -0.4656 -0.2376
  413MPD2    C4 6217   1.863   1.604  15.234  0.1143 -0.0879 -0.5610
  413MPD2    C5 6218   1.797   1.725  15.241  0.6018 -0.2895  0.0167
  413MPD2     H 6219   1.586   1.414  15.223 -2.7939  2.3670  2.5342
  413MPD2    H1 6220   1.971   1.600  15.245 -0.2603  0.8112  3.6301
  413MPD2    H2 6221   1.608   1.826  15.284 -2.4913 -2.0343  0.2766
  413MPD2    H3 6222   1.854   1.815  15.260  1.8682 -1.1582  0.3158
  413MPD2     N 6223   1.834   1.363  15.175  0.0782  0.4651 -0.2782
  413MPD2    H5 6224   1.775   1.286  15.144 -0.6869  1.4474 -1.2405
  413MPD2    N1 6225   1.453   1.640  15.267 -0.1367 -0.0488 -0.5647
  413MPD2    H7 6226   1.420   1.729  15.303 -2.1253 -0.9810 -0.1035
  414TMC3    C1 6227   1.970   1.178  15.162 -0.2917  0.2730  0.9433
  414TMC3    C2 6228   2.040   1.111  15.267 -0.1211 -0.1183 -0.0047
  414TMC3    C3 6229   2.028   0.975  15.249  0.6253 -0.1152 -1.0581
  414TMC3    C4 6230   1.903   1.119  15.056  0.7730  0.0279 -0.1432
  414TMC3    C5 6231   1.910   0.981  15.048 -0.4381 -0.1450 -0.3136
  414TMC3    C6 6232   1.966   0.910  15.150  0.4236 -0.2676  0.5510
  414TMC3     C 6233   1.961   1.322  15.173  0.4773  0.5998  0.5008
  414TMC3     O 6234   2.059   1.388  15.208 -0.3082  0.1771 -0.0007
  414TMC3     H 6235   2.087   1.161  15.351  3.6527 -2.4744 -0.7377
  414TMC3    H1 6236   1.858   1.176  14.975  0.1589 -0.6742 -0.3048
  414TMC3    H2 6237   1.960   0.802  15.146 -2.4594 -0.1066  0.3934
  414TMC3    C7 6238   1.857   0.923  14.923  0.4529  0.5012 -0.0068
  414TMC3    C8 6239   2.134   0.887  15.288  0.0408 -0.1169  0.3480
  414TMC3    O1 6240   1.759   0.984  14.886 -0.1529 -0.1384 -0.7308
  414TMC3    O2 6241   2.104   0.767  15.286 -0.1806 -0.4735  0.0333
  415TMC3    C1 6242   2.026   4.308  10.521 -0.5886  0.0746 -0.0548
  415TMC3    C2 6243   2.064   4.311  10.392  0.4414  0.7568 -0.1140
  415TMC3    C3 6244   2.034   4.197  10.319 -0.7099  0.6777  0.2694
  415TMC3    C4 6245   1.951   4.208  10.581  0.0558  0.3526  0.0678
  415TMC3    C5 6246   1.916   4.101  10.501  0.0618  0.4906 -0.4310
  415TMC3    C6 6247   1.961   4.094  10.376  0.3199  0.2660 -0.0862
  415TMC3     C 6248   2.072   4.412  10.605 -0.6138 -0.5023  0.0296
  415TMC3     O 6249   2.002   4.418  10.708 -0.0970 -0.2733  0.3728
  415TMC3     H 6250   2.097   4.399  10.338 -0.7098  0.9775 -0.4636
  415TMC3    H1 6251   1.895   4.234  10.670 -0.0461 -1.3988  0.5168
  415TMC3    H2 6252   1.932   4.014  10.309 -1.7568  0.4791  0.5654
  415TMC3    C7 6253   1.802   4.029  10.537  0.2325 -0.0589  0.2888
  415TMC3    C8 6254   2.097   4.167  10.195 -0.1016  0.7637 -0.6460
  415TMC3    O1 6255   1.724   3.989  10.453  0.4224 -0.0829 -0.3450
  415TMC3    O2 6256   2.047   4.077  10.128  0.0016  0.0766 -0.0466
  416MPD2     C 6257   3.966   2.978  11.755  0.0800 -0.2068 -0.0311
  416MPD2    C1 6258   3.942   3.046  11.640 -0.7618  0.1197  0.2121
  416MPD2    C2 6259   4.020   3.013  11.529 -0.1788  0.3687  0.1864
  416MPD2    C3 6260   4.118   2.917  11.546  0.1019 -0.8519 -0.4371
  416MPD2    C4 6261   4.150   2.873  11.671 -0.0864  0.8234  1.2099
  416MPD2    C5 6262   4.070   2.891  11.774 -0.0441  0.0126 -0.1117
  416MPD2     H 6263   3.990   3.053  11.433 -0.3267  0.4094  0.2493
  416MPD2    H1 6264   4.222   2.792  11.671 -3.0089 -1.7835 -0.1876
  416MPD2    H2 6265   3.905   3.000  11.841 -0.5623 -0.3709 -0.4483
  416MPD2    H3 6266   4.091   2.846  11.871  1.5733  2.6097  0.7458
  416MPD2     N 6267   4.181   2.845  11.444  0.6113 -0.0843  0.3436
  416MPD2    H5 6268   4.239   2.766  11.470 -1.3466 -1.8674 -0.7206
  416MPD2    N1 6269   3.841   3.143  11.638 -0.1046 -0.5351  0.3238
  416MPD2    H7 6270   3.806   3.156  11.732  1.6918  1.7755  0.6776
  417TMC3    C1 6271   3.701   3.316  11.584  0.6884 -0.2366  0.0935
  417TMC3    C2 6272   3.661   3.330  11.720 -0.2064  0.9043 -0.5939
  417TMC3    C3 6273   3.551   3.406  11.751  0.1761  0.7372 -0.5055
  417TMC3    C4 6274   3.630   3.383  11.489 -0.5897 -0.1349 -0.6582
  417TMC3    C5 6275   3.513   3.440  11.519  0.0967 -0.2570 -0.2231
  417TMC3    C6 6276   3.467   3.455  11.651  0.1400 -0.1928  0.2499
  417TMC3     C 6277   3.796   3.220  11.537  0.0154 -0.0186  0.2432
  417TMC3     O 6278   3.839   3.233  11.426  0.1814 -0.1039 -0.0271
  417TMC3     H 6279   3.709   3.285  11.806  0.8974  0.4502 -1.4498
  417TMC3    H1 6280   3.648   3.369  11.383 -2.0264 -2.1555 -0.6351
  417TMC3    H2 6281   3.381   3.516  11.677  0.4845  0.6440 -0.6041
  417TMC3    C7 6282   3.460   3.541  11.430  1.0441  0.4069 -0.1476
  417TMC3    C8 6283   3.491   3.413  11.883 -0.4162  0.0626 -0.0059
  417TMC3    O1 6284   3.431   3.650  11.473 -0.1488 -0.4517  0.3412
  417TMC3    O2 6285   3.374   3.390  11.897  0.5828 -0.2113  0.0697
  418TMC3    C1 6286   3.052   0.363   0.229 -0.0320  0.3158 -0.9194
  418TMC3    C2 6287   2.969   0.304   0.139 -0.9475 -0.4254  0.6107
  418TMC3    C3 6288   2.909   0.189   0.173  0.5526  0.0116  0.0643
  418TMC3    C4 6289   3.062   0.327   0.359 -0.2758 -0.1638  0.5376
  418TMC3    C5 6290   2.989   0.215   0.393 -0.3044 -0.9372 -0.1470
  418TMC3    C6 6291   2.918   0.145   0.305 -0.3650  0.1696  0.1115
  418TMC3     C 6292   3.137   0.472   0.184  0.1769 -0.6262  0.0679
  418TMC3     O 6293   3.112   0.542   0.083 -0.2034 -0.0672 -0.0946
  418TMC3     H 6294   2.971   0.343   0.038 -0.2225 -1.0670  0.3727
  418TMC3    H1 6295   3.128   0.372   0.432  1.3163  0.9524 -1.5957
  418TMC3    H2 6296   2.861   0.059   0.338 -1.2560  0.3773 -0.8828
  418TMC3    C7 6297   2.977   0.199   0.534  0.3023 -0.0854 -0.8375
  418TMC3    C8 6298   2.841   0.119   0.066 -0.5750  0.7617  0.2761
  418TMC3    O1 6299   2.964   0.086   0.578 -0.0400 -0.0559 -0.1969
  418TMC3    O2 6300   2.801   0.187  17.731  0.4213 -0.7382 -0.0393
  419MPD2     C 6301   1.176   2.963  12.371 -0.1438 -0.2114 -0.1063
  419MPD2    C1 6302   1.098   3.079  12.357  0.7195 -0.2265 -0.3268
  419MPD2    C2 6303   1.070   3.146  12.470  0.1270  0.6063  0.1396
  419MPD2    C3 6304   1.107   3.098  12.595  0.3934  0.4261  0.1189
  419MPD2    C4 6305   1.180   2.981  12.599  0.4357  0.2563 -0.2848
  419MPD2    C5 6306   1.210   2.917  12.489  0.4162 -0.0026  0.1475
  419MPD2     H 6307   1.004   3.230  12.455  1.0652  1.3058 -0.1132
  419MPD2    H1 6308   1.226   2.936  12.686  1.1315  0.9262 -0.3084
  419MPD2    H2 6309   1.217   2.901  12.292  1.5160 -0.0942  0.6707
  419MPD2    H3 6310   1.272   2.828  12.490 -0.4323 -0.5851 -0.1394
  419MPD2     N 6311   1.070   3.168  12.717  0.3351 -0.2385 -0.0065
  419MPD2    H5 6312   1.019   3.256  12.707  0.3305 -0.1489  0.8703
  419MPD2    N1 6313   1.042   3.125  12.237 -0.5422 -0.0273  0.6082
  419MPD2    H7 6314   0.965   3.190  12.244 -0.2027  0.4252  0.1416
  420TMC3    C1 6315   1.014   3.196  12.943 -0.1124 -0.4575  0.2631
  420TMC3    C2 6316   0.907   3.280  12.909  0.1009 -0.5479  0.3572
  420TMC3    C3 6317   0.849   3.349  13.011 -0.3907  0.1745 -0.1256
  420TMC3    C4 6318   1.051   3.175  13.073  0.1901  0.4707 -0.2451
  420TMC3    C5 6319   1.003   3.264  13.164 -0.5144 -0.2342 -0.3551
  420TMC3    C6 6320   0.900   3.349  13.140  0.0378 -0.6524 -0.5316
  420TMC3     C 6321   1.089   3.129  12.844 -0.3443 -0.2950 -0.5027
  420TMC3     O 6322   1.136   3.023  12.885 -0.1999 -0.2985 -0.1530
  420TMC3     H 6323   0.878   3.294  12.806  1.8134 -0.6487 -0.1354
  420TMC3    H1 6324   1.133   3.111  13.104 -1.3420 -0.7726  1.2290
  420TMC3    H2 6325   0.832   3.394  13.211 -0.7138 -1.5840 -0.6584
  420TMC3    C7 6326   1.032   3.244  13.306 -0.1987 -0.2899  0.4460
  420TMC3    C8 6327   0.726   3.413  12.990 -0.0442 -0.4871  0.5789
  420TMC3    O1 6328   1.080   3.143  13.354  0.2952  0.7506 -0.2302
  420TMC3    O2 6329   0.689   3.502  13.063 -0.3535 -0.1497 -0.3723
  421TMC3    C1 6330   2.433   4.517  13.936 -0.3671  0.0567  0.6445
  421TMC3    C2 6331   2.461   4.646  13.959 -0.1838  0.5208 -0.5733
  421TMC3    C3 6332   2.569   4.680  14.026 -0.1287  0.8128 -0.4620
  421TMC3    C4 6333   2.514   4.423  13.985 -0.3212  0.1497 -0.1550
  421TMC3    C5 6334   2.619   4.453  14.066 -0.0573  0.3688  0.7807
  421TMC3    C6 6335   2.646   4.586  14.086 -0.4888 -0.1699  0.6368
  421TMC3     C 6336   2.377   4.503  13.802  0.4490 -0.7460 -0.1475
  421TMC3     O 6337   2.435   4.434  13.725 -0.4829  0.0607 -0.3671
  421TMC3     H 6338   2.416   4.726  13.900  0.3681  1.6681  0.5695
  421TMC3    H1 6339   2.492   4.321  13.957  0.1468  0.7096 -2.5113
  421TMC3    H2 6340   2.722   4.620  14.155 -1.8881 -0.3911  2.2700
  421TMC3    C7 6341   2.727   4.364  14.107 -0.5649 -0.0671 -0.8505
  421TMC3    C8 6342   2.619   0.070  14.024  0.2302 -1.0167  0.2030
  421TMC3    O1 6343   2.812   4.410  14.181 -0.3886  0.4355 -0.0394
  421TMC3    O2 6344   2.739   0.085  14.050  0.2535 -0.7503 -0.6129
  422TMC3    C1 6345   0.266   1.159  13.190  0.3424 -0.1397  0.1346
  422TMC3    C2 6346   0.204   1.277  13.220  0.0565  0.4698 -0.4595
  422TMC3    C3 6347   0.068   1.287  13.232  0.1205 -0.0521  0.7326
  422TMC3    C4 6348   0.189   1.045  13.187  0.5243 -0.6592 -0.2186
  422TMC3    C5 6349   0.057   1.048  13.217  0.1571  0.1159  0.0300
  422TMC3    C6 6350   4.731   1.173  13.227  0.1158 -0.1548 -1.0597
  422TMC3     C 6351   0.353   1.174  13.082 -0.5204  0.3629  0.6299
  422TMC3     O 6352   0.350   1.278  13.019 -0.2714 -0.0702  0.2178
  422TMC3     H 6353   0.255   1.370  13.201 -3.0680  2.3234  0.1563
  422TMC3    H1 6354   0.237   0.948  13.192  0.8294 -0.3780  2.7574
  422TMC3    H2 6355   4.626   1.189  13.250  0.3240  0.0830 -0.2893
  422TMC3    C7 6356   4.723   0.950  13.149  0.2270 -0.5749 -0.4121
  422TMC3    C8 6357   0.012   1.418  13.203  0.6529 -0.1634  0.2253
  422TMC3    O1 6358   0.043   0.905  13.055 -0.2257 -0.1000 -0.2083
  422TMC3    O2 6359   0.048   1.507  13.275 -0.6191  0.0373 -0.0461
  423MPD2     C 6360   1.578   1.727   0.721  0.1177  0.2415 -0.2492
  423MPD2    C1 6361   1.665   1.790   0.635  0.7971 -0.4867  0.1824
  423MPD2    C2 6362   1.670   1.753   0.503 -0.1872 -0.0450  0.6174
  423MPD2    C3 6363   1.581   1.659   0.452  0.1753 -0.2464 -0.5874
  423MPD2    C4 6364   1.495   1.596   0.537 -0.2335  0.4245  0.6033
  423MPD2    C5 6365   1.488   1.633   0.670 -0.1413 -0.2871  0.5883
  423MPD2     H 6366   1.748   1.798   0.442 -0.1856 -0.1208  0.5644
  423MPD2    H1 6367   1.424   1.524   0.496  1.3763  1.5967 -4.2642
  423MPD2    H2 6368   1.576   1.740   0.829  1.4454 -3.0155  0.1921
  423MPD2    H3 6369   1.428   1.573   0.738  1.0988 -1.2453  0.8399
  423MPD2     N 6370   1.593   1.611   0.319 -0.0495 -0.0315 -0.2420
  423MPD2    H5 6371   1.541   1.530   0.286 -0.1679 -0.5612  1.2222
  423MPD2    N1 6372   1.765   1.880   0.690 -0.3655 -0.3770 -0.4577
  423MPD2    H7 6373   1.843   1.901   0.629 -0.1985 -1.5055 -0.6277
  424TMC3    C1 6374   1.894   1.972   0.851 -0.2437 -0.0232  0.2989
  424TMC3    C2 6375   2.013   1.943   0.777 -0.2268 -0.5084  0.6626
  424TMC3    C3 6376   2.133   1.943   0.840 -0.3533 -0.0865  0.5562
  424TMC3    C4 6377   1.904   2.013   0.980  0.2175 -0.0350 -0.1255
  424TMC3    C5 6378   2.031   2.027   1.032 -0.2180 -0.2931  0.4333
  424TMC3    C6 6379   2.148   1.997   0.962 -0.6629 -0.8820 -0.2035
  424TMC3     C 6380   1.765   1.922   0.816 -0.2266  1.2148  0.3334
  424TMC3     O 6381   1.675   1.919   0.902  0.4697  0.0212  0.2879
  424TMC3     H 6382   2.008   1.892   0.681  1.9487 -0.6049  0.5980
  424TMC3    H1 6383   1.820   2.052   1.036  0.7719  0.6123  0.2643
  424TMC3    H2 6384   2.244   1.996   1.012 -1.2790 -1.1082  0.9721
  424TMC3    C7 6385   2.049   2.064   1.173  0.1564 -0.6447 -0.6540
  424TMC3    C8 6386   2.241   1.869   0.778 -0.2610 -0.0319  0.9056
  424TMC3    O1 6387   2.162   2.083   1.217  0.3166  0.4412  0.0375
  424TMC3    O2 6388   2.320   1.819   0.852  0.8214 -0.6642 -0.4652
  425MPD2     C 6389   1.144   1.268  17.466 -0.4198  0.8338  0.1974
  425MPD2    C1 6390   1.168   1.180  17.566 -0.1223 -0.0995  0.2282
  425MPD2    C2 6391   1.101   1.208  17.684 -0.3414 -0.1314  0.4618
  425MPD2    C3 6392   1.014   1.315  17.691 -0.0187 -0.6688  0.7854
  425MPD2    C4 6393   1.002   1.406  17.593 -0.2795 -0.4123 -0.0172
  425MPD2    C5 6394   1.071   1.387  17.476 -0.0200  0.6160  0.0151
  425MPD2     H 6395   1.102   1.142   0.014 -1.4920  0.4444  0.9105
  425MPD2    H1 6396   0.941   1.494  17.610  0.9446  0.2848  0.8025
  425MPD2    H2 6397   1.195   1.248  17.372 -2.2200  1.4220 -0.9132
  425MPD2    H3 6398   1.075   1.441  17.382 -1.1041 -1.1679 -1.0445
  425MPD2     N 6399   0.926   1.306   0.048 -0.0235 -0.1843  0.0596
  425MPD2    H5 6400   0.943   1.227   0.109  0.3660 -0.3166 -0.2223
  425MPD2    N1 6401   1.228   1.052  17.544  0.9664 -0.1744 -0.1479
  425MPD2    H7 6402   1.254   1.039  17.447 -0.9031  1.1082 -0.8336
  426TMC3    C1 6403   1.282   0.821  17.588  0.1906  0.0664 -0.0447
  426TMC3    C2 6404   1.245   0.793  17.458  0.2566  0.4180  0.3437
  426TMC3    C3 6405   1.255   0.658  17.437 -0.1581  0.7474 -0.4825
  426TMC3    C4 6406   1.319   0.731  17.683  0.4313  0.5865  0.5586
  426TMC3    C5 6407   1.347   0.600  17.641 -0.0789  0.8641  0.4909
  426TMC3    C6 6408   1.313   0.564  17.519  0.0620 -0.1313 -0.0537
  426TMC3     C 6409   1.248   0.954  17.638  0.1654 -0.1349  0.0162
  426TMC3     O 6410   1.254   0.974   0.006 -0.0724  0.5590  0.4371
  426TMC3     H 6411   1.229   0.870  17.383  1.4494  0.4136  0.0907
  426TMC3    H1 6412   1.342   0.761   0.029  0.4354  2.2488  0.0723
  426TMC3    H2 6413   1.316   0.460  17.488  2.1369  0.0780 -0.5086
  426TMC3    C7 6414   1.395   0.492  17.722 -0.3912  0.2942 -0.2823
  426TMC3    C8 6415   1.202   0.610  17.307 -0.9991  0.2485 -0.7106
  426TMC3    O1 6416   1.410   0.384  17.667 -0.4946 -0.3113  0.2585
  426TMC3    O2 6417   1.225   0.494  17.270  0.3926  0.0992 -0.4435
  427MPD2     C 6418   3.935   2.984  14.957 -0.1156  0.5814 -0.1001
  427MPD2    C1 6419   3.934   3.014  15.097 -0.3587 -0.0588  0.2837
  427MPD2    C2 6420   3.831   3.097  15.141  0.3330  0.3746 -0.0134
  427MPD2    C3 6421   3.726   3.141  15.057 -0.0331  0.1575  0.1588
  427MPD2    C4 6422   3.729   3.095  14.926  0.8548  0.4613 -0.2517
  427MPD2    C5 6423   3.830   3.027  14.874 -0.2787  0.2286  0.6791
  427MPD2     H 6424   3.833   3.108  15.249 -2.4940  3.6380 -0.3062
  427MPD2    H1 6425   3.649   3.111  14.855  1.4318 -0.0936 -1.0343
  427MPD2    H2 6426   4.013   2.922  14.914  0.4210  2.2536 -1.5131
  427MPD2    H3 6427   3.832   3.000  14.769 -1.1971  0.2955  0.6438
  427MPD2     N 6428   3.620   3.225  15.100 -0.4437  0.0238  0.0201
  427MPD2    H5 6429   3.540   3.232  15.038 -1.3934 -0.6840  1.1498
  427MPD2    N1 6430   4.042   2.974  15.188  0.2993 -0.4668 -0.1973
  427MPD2    H7 6431   4.022   3.003  15.283  0.1211  1.6271 -0.8597
  428TMC3    C1 6432   4.260   2.902  15.253 -0.1218  0.0187 -0.4381
  428TMC3    C2 6433   4.210   2.847  15.375 -0.3237  1.0947 -0.1028
  428TMC3    C3 6434   4.297   2.766  15.438  0.5549 -0.0363 -0.4421
  428TMC3    C4 6435   4.391   2.890  15.223 -0.9267 -0.1776  0.2022
  428TMC3    C5 6436   4.481   2.829  15.307  0.2670  0.5569  0.2771
  428TMC3    C6 6437   4.434   2.757  15.415  0.6142  0.2170  0.2966
  428TMC3     C 6438   4.168   2.938  15.149  0.0514 -0.0095  0.0557
  428TMC3     O 6439   4.208   2.904  15.038  0.4823 -1.1364 -0.7699
  428TMC3     H 6440   4.105   2.849  15.400 -0.0345 -0.2895  1.2335
  428TMC3    H1 6441   4.429   2.915  15.125 -0.3728 -0.5264  0.3263
  428TMC3    H2 6442   4.500   2.700  15.478  0.9950  0.0738 -0.2305
  428TMC3    C7 6443   4.580   2.922  15.360  0.1718  0.0891 -0.0063
  428TMC3    C8 6444   4.270   2.708  15.571 -0.2368 -0.1558 -0.7828
  428TMC3    O1 6445   4.647   2.886  15.457 -0.2651 -0.3906  0.2702
  428TMC3    O2 6446   4.343   2.617  15.609  0.3704 -0.2001  0.4285
  429MPD2     C 6447   0.369   3.124   0.236  0.4650  0.0295  0.4089
  429MPD2    C1 6448   0.457   3.059   0.152 -0.1541  0.3401 -0.1368
  429MPD2    C2 6449   0.547   3.134   0.076 -0.9043  0.1118 -0.2131
  429MPD2    C3 6450   0.550   3.275   0.083 -0.9898  0.3192  0.3991
  429MPD2    C4 6451   0.472   3.340   0.176  0.6835  0.0912  0.2165
  429MPD2    C5 6452   0.376   3.258   0.240 -0.4586  0.3457  0.1786
  429MPD2     H 6453   0.628   3.084   0.024 -0.5488  2.4555 -1.9211
  429MPD2    H1 6454   0.463   3.447   0.188  2.9066  0.3640 -0.4507
  429MPD2    H2 6455   0.298   3.074   0.302  0.9627 -1.4925 -0.1936
  429MPD2    H3 6456   0.312   3.314   0.307 -2.5866 -2.8819  0.8265
  429MPD2     N 6457   0.642   3.342  17.754 -0.8325 -0.6313 -0.4523
  429MPD2    H5 6458   0.677   3.287  17.677  0.1457 -0.4329 -0.1491
  429MPD2    N1 6459   0.460   2.918   0.147  0.4744  0.2145 -0.8350
  429MPD2    H7 6460   0.541   2.869   0.111 -0.3056 -1.5339 -0.2139
  430TMC3    C1 6461   0.747   3.524  17.626 -0.3867 -0.5050  0.7480
  430TMC3    C2 6462   0.763   3.658  17.617 -0.0851  0.1261 -0.2781
  430TMC3    C3 6463   0.815   3.705  17.500 -0.2439  0.1881  0.1950
  430TMC3    C4 6464   0.774   3.432  17.528 -0.0360 -0.3127 -0.8715
  430TMC3    C5 6465   0.804   3.487  17.406  0.5237 -0.7569  1.0888
  430TMC3    C6 6466   0.821   3.621  17.392 -0.4209  0.6025  0.0265
  430TMC3     C 6467   0.673   3.474  17.748  0.2803  0.1912  0.1708
  430TMC3     O 6468   0.661   3.554   0.080 -0.1090 -0.2223  0.1592
  430TMC3     H 6469   0.754   3.726  17.701 -0.2530  0.2006 -0.3547
  430TMC3    H1 6470   0.762   3.327  17.548  0.2225 -0.8312 -3.4289
  430TMC3    H2 6471   0.864   3.664  17.302  0.6862 -0.2955  0.1366
  430TMC3    C7 6472   0.775   3.406  17.284 -0.3924 -1.3216 -0.0620
  430TMC3    C8 6473   0.781   3.838  17.465 -0.2506  0.2177 -0.1734
  430TMC3    O1 6474   0.726   3.296  17.310  0.2636 -0.2101  0.4693
  430TMC3    O2 6475   0.824   3.931  17.531 -0.7199  0.3202 -0.2882
  431MPD2     C 6476   0.762   3.643  12.538 -0.4019  0.4340  0.2361
  431MPD2    C1 6477   0.856   3.705  12.457 -0.4364 -0.3459  0.3840
  431MPD2    C2 6478   0.867   3.643  12.331  0.3430 -0.6679 -0.0803
  431MPD2    C3 6479   0.784   3.539  12.288 -0.4068  0.4709  0.3187
  431MPD2    C4 6480   0.675   3.504  12.361 -0.4380 -0.0419 -0.3294
  431MPD2    C5 6481   0.663   3.560  12.490  0.0373 -0.0076 -0.8806
  431MPD2     H 6482   0.948   3.676  12.267 -0.0496 -1.4241 -0.9594
  431MPD2    H1 6483   0.610   3.423  12.331 -0.3183  0.0684 -0.9006
  431MPD2    H2 6484   0.746   3.679  12.639  0.6142  2.0793 -0.1894
  431MPD2    H3 6485   0.592   3.524  12.563  0.7011 -0.2764 -0.3662
  431MPD2     N 6486   0.811   3.467  12.167  0.0199  0.1136  0.7109
  431MPD2    H5 6487   0.747   3.389  12.151 -0.2824  0.5007 -0.0086
  431MPD2    N1 6488   0.935   3.820  12.485  0.2828 -0.5367  0.3866
  431MPD2    H7 6489   0.987   3.860  12.407 -1.0072 -1.1392 -0.7795
  432TMC3    C1 6490   0.939   3.381  11.988  0.0181  0.3552  0.7385
  432TMC3    C2 6491   1.041   3.404  11.898  0.3730  0.3963  0.3528
  432TMC3    C3 6492   1.131   3.309  11.873  0.3330  1.0319 -0.5136
  432TMC3    C4 6493   0.929   3.254  12.038 -0.5407  0.1450 -0.7604
  432TMC3    C5 6494   1.025   3.158  12.009  0.5174  0.3048 -0.0142
  432TMC3    C6 6495   1.122   3.184  11.919  0.0814 -0.4368 -0.5367
  432TMC3     C 6496   0.915   3.486  12.084  0.3813 -0.4234  0.2919
  432TMC3     O 6497   0.997   3.577  12.080  0.6601 -0.6234  0.4878
  432TMC3     H 6498   1.060   3.502  11.858 -1.7475  0.1327 -1.3278
  432TMC3    H1 6499   0.844   3.224  12.100  1.4227 -2.4611  0.6752
  432TMC3    H2 6500   1.192   3.105  11.896 -0.2099 -0.1749 -2.2928
  432TMC3    C7 6501   1.071   3.077  12.111  0.2643  0.1846  0.0284
  432TMC3    C8 6502   1.246   3.350  11.797  0.5018 -0.6512  0.2698
  432TMC3    O1 6503   1.161   2.996  12.082  0.1035  0.7606  0.1266
  432TMC3    O2 6504   1.223   3.403  11.691 -0.0854 -0.2360 -0.9712
  433MPD2     C 6505   4.549   2.363  10.692  0.6442 -0.6756  0.2846
  433MPD2    C1 6506   4.620   2.266  10.765 -0.3416 -0.4631 -0.3644
  433MPD2    C2 6507   4.707   2.310  10.861  0.2531 -0.8818  0.4237
  433MPD2    C3 6508   4.727   2.442  10.893  0.4250 -0.6402 -0.5047
  433MPD2    C4 6509   4.661   2.537  10.816  0.2011  0.5246  0.2221
  433MPD2    C5 6510   4.577   2.497  10.711  0.0176  0.2724  0.2912
  433MPD2     H 6511   0.012   2.235  10.925 -0.6562 -2.3674 -0.7050
  433MPD2    H1 6512   4.669   2.642  10.841  1.5486  0.4833 -0.0242
  433MPD2    H2 6513   4.470   2.334  10.623  1.5974 -1.0696 -0.6257
  433MPD2    H3 6514   4.518   2.576  10.664 -1.9627  0.6587  3.4451
  433MPD2     N 6515   0.075   2.465  11.006 -0.2038 -0.3943 -0.3518
  433MPD2    H5 6516   0.109   2.383  11.056  1.1266  1.1009  1.1934
  433MPD2    N1 6517   4.594   2.126  10.746  0.0141 -0.2150 -0.6197
  433MPD2    H7 6518   4.517   2.092  10.690 -0.7615  0.6463 -0.0856
  434TMC3    C1 6519   4.652   1.888  10.758 -0.2232  0.2179  0.5950
  434TMC3    C2 6520   0.014   1.802  10.782 -0.6498 -0.0533  0.0640
  434TMC3    C3 6521   4.722   1.664  10.803  0.9111  0.2835  0.5681
  434TMC3    C4 6522   4.521   1.846  10.760 -0.2775 -0.1455 -0.2202
  434TMC3    C5 6523   4.492   1.716  10.793  0.1036 -0.3964  1.5350
  434TMC3    C6 6524   4.590   1.621  10.802  0.7490 -0.2535 -0.9541
  434TMC3     C 6525   4.689   2.028  10.771  0.0054 -0.0546  0.4007
  434TMC3     O 6526   0.066   2.041  10.806 -0.3991 -0.1358  0.0147
  434TMC3     H 6527   0.120   1.828  10.784 -0.9085  0.8845  1.2714
  434TMC3    H1 6528   4.441   1.918  10.744 -2.1320 -1.7185  1.9206
  434TMC3    H2 6529   4.566   1.515  10.806 -2.6297  0.6619  3.1083
  434TMC3    C7 6530   4.357   1.667  10.772 -0.0353  0.1147  0.3636
  434TMC3    C8 6531   0.075   1.574  10.872 -0.2711 -0.1052  0.1271
  434TMC3    O1 6532   4.280   1.730  10.698  0.1353  0.6374 -0.1798
  434TMC3    O2 6533   0.017   1.496  10.945 -0.0920 -0.8167 -0.8915
  435MPD2     C 6534   2.134   2.023  15.331 -0.2034  0.1364  0.0991
  435MPD2    C1 6535   2.090   2.023  15.461  0.4414 -0.7108 -0.2883
  435MPD2    C2 6536   2.171   1.969  15.560  0.6515  0.4541 -0.4899
  435MPD2    C3 6537   2.296   1.919  15.521 -0.1463  0.2001 -0.5970
  435MPD2    C4 6538   2.343   1.923  15.389  0.7306  0.3056 -0.4628
  435MPD2    C5 6539   2.256   1.977  15.289  0.0558  0.1603  0.2700
  435MPD2     H 6540   2.144   1.969  15.665  0.0307 -1.1744 -0.6602
  435MPD2    H1 6541   2.441   1.885  15.363 -0.2479 -1.7653 -1.1073
  435MPD2    H2 6542   2.074   2.077  15.259  0.0708  0.0558 -0.1853
  435MPD2    H3 6543   2.285   1.977  15.185  0.4193 -0.0073  0.3713
  435MPD2     N 6544   2.379   1.854  15.619 -0.2175  0.1445 -0.2911
  435MPD2    H5 6545   2.341   1.853  15.713 -0.4778  0.1582 -0.3960
  435MPD2    N1 6546   1.964   2.075  15.507  0.3397  0.1456  0.1268
  435MPD2    H7 6547   1.939   2.048  15.601 -0.4715 -0.5133 -0.2764
  436TMC3    C1 6548   1.675   2.191  15.735  0.2451  0.0170 -0.4483
  436TMC3    C2 6549   1.791   2.178  15.653 -0.5084 -0.2308 -0.2866
  436TMC3    C3 6550   1.756   2.152  15.520 -0.2591  0.5326 -0.1431
  436TMC3    C4 6551   1.546   2.191  15.694 -0.8192 -0.3670 -0.2337
  436TMC3    C5 6552   1.520   2.187  15.560 -0.3361 -0.5398  0.0359
  436TMC3    C6 6553   1.629   2.172  15.474  0.5952  0.3358  0.1302
  436TMC3     C 6554   1.701   2.238  15.864  0.6949 -0.2389 -0.1613
  436TMC3     O 6555   1.813   2.287  15.883  0.2015  0.0194 -0.7283
  436TMC3     H 6556   1.891   2.197  15.691 -0.8791 -0.4706  0.8222
  436TMC3    H1 6557   1.460   2.206  15.758 -0.7584  0.4722 -0.3462
  436TMC3    H2 6558   1.607   2.166  15.368  1.7190  0.6747 -0.1224
  436TMC3    C7 6559   1.383   2.185  15.515 -0.3267  0.7547  0.1672
  436TMC3    C8 6560   1.863   2.125  15.432  0.2978 -1.0849 -0.3621
  436TMC3    O1 6561   1.376   2.234  15.404 -0.1758  0.2174 -0.3361
  436TMC3    O2 6562   1.856   2.153  15.313  0.3389  0.0118 -0.2515
  437TMC3    C1 6563   0.034   4.451  13.454  0.3370  0.7484 -1.0278
  437TMC3    C2 6564   4.650   4.495  13.482 -1.2510  0.0248 -0.3701
  437TMC3    C3 6565   4.588   4.576  13.389  0.2554  0.1908 -0.8207
  437TMC3    C4 6566   0.106   4.483  13.342 -0.4047  0.7641  0.7159
  437TMC3    C5 6567   0.052   4.581  13.259 -0.5267 -0.0992 -0.3856
  437TMC3    C6 6568   4.663   4.634  13.286  0.8222  0.5687  0.6531
  437TMC3     C 6569   0.076   4.346  13.546  0.5222  0.5120 -0.5520
  437TMC3     O 6570   0.000   4.313  13.631  0.2795  0.0357 -0.0709
  437TMC3     H 6571   4.588   4.445  13.556 -0.8813  1.0539  0.6352
  437TMC3    H1 6572   0.202   4.436  13.323 -0.6275  0.2694  0.8272
  437TMC3    H2 6573   4.622   4.696  13.207 -1.1646 -1.2690  0.2366
  437TMC3    C7 6574   0.119   4.630  13.138 -0.8798 -0.4974 -0.1432
  437TMC3    C8 6575   4.453   4.624  13.407 -0.1597 -0.6236  0.0059
  437TMC3    O1 6576   0.061   4.693  13.052 -0.3968 -0.6429  0.0292
  437TMC3    O2 6577   4.402   4.661  13.303 -0.9017 -0.0481 -0.8713
  438MPD2     C 6578   3.764   0.221  16.989  0.0645  0.1721 -0.0186
  438MPD2    C1 6579   3.822   0.134  17.078 -1.1017 -0.2685 -0.4122
  438MPD2    C2 6580   3.866   0.188  17.200  0.0553 -0.6654  0.6431
  438MPD2    C3 6581   3.871   0.327  17.223 -0.1066 -0.6379 -0.7612
  438MPD2    C4 6582   3.823   0.408  17.123  0.6017  0.2966  0.3268
  438MPD2    C5 6583   3.766   0.356  17.009  0.1157  0.4033  0.4391
  438MPD2     H 6584   3.904   0.116  17.272  2.3627  2.2592  2.3572
  438MPD2    H1 6585   3.830   0.516  17.128 -2.4708  0.4071  2.1886
  438MPD2    H2 6586   3.719   0.189  16.895  1.3835  1.0986 -0.9591
  438MPD2    H3 6587   3.725   0.414  16.928 -0.4439 -0.2232  0.2789
  438MPD2     N 6588   3.912   0.385  17.347  0.7290 -0.5296 -0.1328
  438MPD2    H5 6589   3.894   0.484  17.360  1.1112 -0.4721 -0.0292
  438MPD2    N1 6590   3.843   4.739  17.051 -0.2400  0.3621  0.0225
  438MPD2    H7 6591   3.890   4.694  17.130  0.3801 -0.4341 -0.8041
  439TMC3    C1 6592   3.829   4.521  16.963  0.6795  0.2820  0.5128
  439TMC3    C2 6593   3.786   4.434  16.867 -0.3355  0.2121  0.8645
  439TMC3    C3 6594   3.817   4.297  16.878 -0.0605  0.3617  0.3388
  439TMC3    C4 6595   3.894   4.478  17.075 -0.3381 -0.4371 -0.1599
  439TMC3    C5 6596   3.907   4.342  17.088  0.2689  0.4662  0.5347
  439TMC3    C6 6597   3.869   4.248  16.994  0.1915  0.1308 -0.4436
  439TMC3     C 6598   3.805   4.662  16.942  0.0734  0.8095  0.2199
  439TMC3     O 6599   3.748   4.689  16.840 -0.3010 -0.1848  0.6189
  439TMC3     H 6600   3.743   4.461  16.770 -1.1187 -2.0546  0.5873
  439TMC3    H1 6601   3.931   4.541  17.155  1.1101  0.5243 -1.6125
  439TMC3    H2 6602   3.901   4.145  17.003 -2.7358 -0.8216 -0.9263
  439TMC3    C7 6603   3.973   4.289  17.208 -0.5949  0.0850  0.4694
  439TMC3    C8 6604   3.763   4.187  16.790 -0.3770 -0.0266  0.3735
  439TMC3    O1 6605   4.039   4.375  17.263  0.5115  0.0476 -0.4119
  439TMC3    O2 6606   3.800   4.076  16.808  0.2241 -0.4326  0.5866
  440MPD2     C 6607   1.743   0.324  15.064  0.7225 -0.1545  0.6479
  440MPD2    C1 6608   1.822   0.410  15.136 -0.4641  0.5182  0.1417
  440MPD2    C2 6609   1.960   0.386  15.150  0.4914  0.5222  0.0784
  440MPD2    C3 6610   2.006   0.266  15.102  0.5410  0.2343 -0.8106
  440MPD2    C4 6611   1.919   0.185  15.029  0.5343  0.3679 -0.4404
  440MPD2    C5 6612   1.789   0.212  15.010 -0.8715  0.0734  0.8822
  440MPD2     H 6613   2.021   0.457  15.205  0.2624  1.3674 -0.7626
  440MPD2    H1 6614   1.955   0.093  14.983 -1.7649 -0.8359  0.1797
  440MPD2    H2 6615   1.641   0.349  15.037 -0.3100 -3.3711  1.6418
  440MPD2    H3 6616   1.725   0.138  14.962  0.1422  0.2169 -0.6910
  440MPD2     N 6617   2.139   0.221  15.116  0.4370 -0.4874  0.4082
  440MPD2    H5 6618   2.156   0.130  15.074  2.0139 -0.5960  1.2806
  440MPD2    N1 6619   1.777   0.538  15.180  0.1119 -0.5154  0.3011
  440MPD2    H7 6620   1.836   0.588  15.244 -1.5981 -0.8634  2.1496
  441TMC3    C1 6621   2.370   0.227  15.165 -0.4986  0.4649  0.8554
  441TMC3    C2 6622   2.458   0.325  15.142 -0.1354  0.0327 -0.2868
  441TMC3    C3 6623   2.554   0.337  15.235 -0.0435  0.0273 -0.1199
  441TMC3    C4 6624   2.393   0.119  15.244  0.8548  0.6610 -0.6564
  441TMC3    C5 6625   2.511   0.120  15.314 -0.5805  0.3292  0.2775
  441TMC3    C6 6626   2.591   0.231  15.314 -0.2991 -0.3937  0.4770
  441TMC3     C 6627   2.239   0.291  15.176  0.2337 -0.1435 -0.5762
  441TMC3     O 6628   2.239   0.407  15.216  0.3713 -0.3897  0.6356
  441TMC3     H 6629   2.438   0.403  15.069 -1.3163  0.4718  0.4932
  441TMC3    H1 6630   2.320   0.042  15.265  1.5559  0.5001  1.1814
  441TMC3    H2 6631   2.673   0.233  15.385 -0.4843  1.9128  0.6206
  441TMC3    C7 6632   2.487   0.073  15.450 -0.2116 -0.4701 -0.2525
  441TMC3    C8 6633   2.608   0.470  15.271 -0.4425  0.4742 -0.2357
  441TMC3    O1 6634   2.379   0.099  15.495  0.7053 -0.4169  0.0332
  441TMC3    O2 6635   2.728   0.484  15.283 -0.0069  0.3339 -0.0874
  442MPD2     C 6636   0.511   0.772  16.692 -0.1974 -0.0660 -0.2939
  442MPD2    C1 6637   0.528   0.696  16.806 -0.5232  0.1555  0.1046
  442MPD2    C2 6638   0.512   0.560  16.800 -0.7189 -0.7003  0.0922
  442MPD2    C3 6639   0.471   0.499  16.685  0.4550 -0.0924 -0.3632
  442MPD2    C4 6640   0.453   0.581  16.572 -0.0199 -0.1641 -0.0089
  442MPD2    C5 6641   0.469   0.713  16.578 -0.1961 -0.1278 -0.3187
  442MPD2     H 6642   0.524   0.504  16.892 -3.1398  0.0509  0.8448
  442MPD2    H1 6643   0.441   0.532  16.475 -0.3280  2.1078 -1.1070
  442MPD2    H2 6644   0.515   0.880  16.695 -0.6003 -0.1646  3.5035
  442MPD2    H3 6645   0.459   0.776  16.490 -1.9965  1.8534  1.3239
  442MPD2     N 6646   0.465   0.359  16.668 -0.0271 -0.1435  0.0743
  442MPD2    H5 6647   0.429   0.318  16.582  0.4687  0.2390 -0.3141
  442MPD2    N1 6648   0.559   0.749  16.930  0.1926  0.1259  0.4465
  442MPD2    H7 6649   0.545   0.682  17.005  1.1437 -0.5901 -0.0161
  443TMC3    C1 6650   0.549   0.904  17.101 -0.0524  0.6855  0.1216
  443TMC3    C2 6651   0.469   1.014  17.125 -0.4531  0.1455  0.3154
  443TMC3    C3 6652   0.412   1.020  17.246  0.2819  0.3457 -0.5349
  443TMC3    C4 6653   0.565   0.803  17.195 -0.1122 -0.3271  0.1675
  443TMC3    C5 6654   0.521   0.823  17.326 -0.2630  0.3553 -0.3729
  443TMC3    C6 6655   0.450   0.940  17.356  0.6453  0.2643  0.2339
  443TMC3     C 6656   0.568   0.879  16.962  0.4587 -0.6066 -0.2778
  443TMC3     O 6657   0.556   0.969  16.882 -0.0013 -0.4462  0.5740
  443TMC3     H 6658   0.444   1.086  17.048  2.4831  0.1901 -0.5729
  443TMC3    H1 6659   0.628   0.718  17.174  0.1150  0.1618 -1.1193
  443TMC3    H2 6660   0.400   0.956  17.451  1.6138  0.8381  0.6454
  443TMC3    C7 6661   0.495   0.694  17.393  0.0928 -0.0893  0.6708
  443TMC3    C8 6662   0.267   1.025  17.242  0.0746  0.2249  0.2855
  443TMC3    O1 6663   0.477   0.599  17.312 -0.4793  0.3265  0.4222
  443TMC3    O2 6664   0.214   1.006  17.351  0.5609  0.4616  0.1835
  444MPD2     C 6665   0.960   0.249  17.162 -0.0482  0.6690 -0.3542
  444MPD2    C1 6666   0.847   0.168  17.156  0.6931  0.0684 -0.2099
  444MPD2    C2 6667   0.841   0.066  17.065 -0.0481 -0.6581 -0.1421
  444MPD2    C3 6668   0.946   0.032  16.987 -0.8370  0.1815 -0.6555
  444MPD2    C4 6669   1.054   0.126  16.985 -0.0866  0.3065 -0.1922
  444MPD2    C5 6670   1.059   0.236  17.073  0.2079 -0.1770  0.0298
  444MPD2     H 6671   0.756   4.739  17.063  0.4019 -1.2905  1.6986
  444MPD2    H1 6672   1.143   0.115  16.924 -0.3370  0.3345 -0.5612
  444MPD2    H2 6673   0.976   0.325  17.237 -1.2374 -0.8670  1.4628
  444MPD2    H3 6674   1.155   0.288  17.077  0.2158 -0.2900  1.2418
  444MPD2     N 6675   0.936   4.651  16.916 -0.0284 -0.3440 -0.4557
  444MPD2    H5 6676   0.855   4.592  16.933 -1.0479  1.1225 -0.2402
  444MPD2    N1 6677   0.742   0.186  17.244  1.0701  0.2115 -0.2122
  444MPD2    H7 6678   0.661   0.125  17.241  1.2551 -0.0586  0.2696
  445TMC3    C1 6679   1.032   4.467  16.804 -0.1295 -0.0175  0.1370
  445TMC3    C2 6680   0.914   4.412  16.786 -0.4410 -0.5787  0.1574
  445TMC3    C3 6681   0.905   4.282  16.744 -0.3554 -0.0296 -0.1131
  445TMC3    C4 6682   1.143   4.388  16.800  0.0102 -0.6281 -0.5684
  445TMC3    C5 6683   1.138   4.261  16.753  0.0086 -0.8589 -0.2913
  445TMC3    C6 6684   1.016   4.201  16.731 -0.6670 -0.5217 -0.0554
  445TMC3     C 6685   1.048   4.602  16.850 -0.3014 -0.0794 -0.1239
  445TMC3     O 6686   1.164   4.643  16.838  0.1567  0.0803 -0.2568
  445TMC3     H 6687   0.819   4.463  16.800  0.7209  1.6967 -0.3269
  445TMC3    H1 6688   1.241   4.433  16.809  0.9159 -2.0509 -3.1775
  445TMC3    H2 6689   1.015   4.094  16.712  1.2703 -0.5232 -0.0812
  445TMC3    C7 6690   1.264   4.201  16.712  0.1783  0.2428  0.0042
  445TMC3    C8 6691   0.775   4.227  16.738 -0.0776 -0.1666  0.4077
  445TMC3    O1 6692   1.263   4.119  16.623  1.0631 -0.3526 -0.7984
  445TMC3    O2 6693   0.672   4.293  16.766  0.1563 -0.4012 -0.1371
  446MPD2     C 6694   4.651   1.788  11.282 -0.1280  0.0524  0.0934
  446MPD2    C1 6695   4.614   1.865  11.174 -0.6591 -0.1629 -0.3516
  446MPD2    C2 6696   4.715   1.917  11.094 -0.6125  0.0878  0.0202
  446MPD2    C3 6697   0.111   1.892  11.129  0.2087 -0.5673 -0.5445
  446MPD2    C4 6698   0.139   1.810  11.235  0.2696  0.1798  0.1760
  446MPD2    C5 6699   0.042   1.748  11.299  0.3653 -0.1446  0.3050
  446MPD2     H 6700   4.686   1.994  11.024  0.2725 -2.0702 -2.7374
  446MPD2    H1 6701   0.240   1.786  11.268  0.5873 -0.8556 -1.5498
  446MPD2    H2 6702   4.575   1.743  11.346  0.0586  3.2164  2.5644
  446MPD2    H3 6703   0.071   1.684  11.382  1.8119 -0.4562 -0.4405
  446MPD2     N 6704   0.208   1.943  11.036  0.3808  0.5342 -0.0043
  446MPD2    H5 6705   0.168   2.003  10.965  2.0582 -0.3886 -1.7292
  446MPD2    N1 6706   4.477   1.880  11.122  0.8562 -0.3095  0.4683
  446MPD2    H7 6707   4.455   1.953  11.054  0.6375  1.6336  2.6103
  447TMC3    C1 6708   0.425   2.006  10.962 -0.1599 -0.5708  0.1136
  447TMC3    C2 6709   0.372   2.103  10.880  0.2534  0.3126 -0.1023
  447TMC3    C3 6710   0.452   2.189  10.813 -0.3231  0.3359 -0.6169
  447TMC3    C4 6711   0.561   1.997  10.973 -0.5915  0.5386  0.1618
  447TMC3    C5 6712   0.643   2.086  10.906  0.0355 -0.2899 -0.0325
  447TMC3    C6 6713   0.587   2.182  10.831  0.6611 -0.2108 -0.0650
  447TMC3     C 6714   0.345   1.920  11.045 -0.4801  0.5072  0.2615
  447TMC3     O 6715   0.409   1.865  11.131 -0.7709 -0.3865 -0.6276
  447TMC3     H 6716   0.265   2.121  10.876  0.1082 -0.6075 -0.4429
  447TMC3    H1 6717   0.603   1.924  11.041 -0.7062  2.1603  1.9368
  447TMC3    H2 6718   0.650   2.260  10.790  2.5350 -1.3948  0.5753
  447TMC3    C7 6719   0.787   2.077  10.940 -0.0750 -0.3040 -0.0985
  447TMC3    C8 6720   0.384   2.314  10.771  0.2104  0.0416 -0.5160
  447TMC3    O1 6721   0.819   1.970  10.990 -0.3629  0.0637 -0.7910
  447TMC3    O2 6722   0.306   2.303  10.677  0.2910 -0.2804 -0.6911
  448TMC3    C1 6723   3.804   1.348  17.151 -0.6819  0.9631 -0.0120
  448TMC3    C2 6724   3.803   1.221  17.106 -0.0655 -0.0799  0.0648
  448TMC3    C3 6725   3.879   1.126  17.167 -0.0810 -0.2314  0.4499
  448TMC3    C4 6726   3.863   1.388  17.262 -0.3102 -0.1445 -0.3733
  448TMC3    C5 6727   3.941   1.292  17.324  0.1559  0.6144  0.4743
  448TMC3    C6 6728   3.966   1.165  17.270  0.2644  0.4590 -0.1711
  448TMC3     C 6729   3.727   1.445  17.086 -0.4560  0.3068 -0.4910
  448TMC3     O 6730   3.709   1.557  17.138  0.6810 -0.4474 -0.1661
  448TMC3     H 6731   3.727   1.185  17.038 -0.5253 -0.4006  0.7452
  448TMC3    H1 6732   3.861   1.487  17.304 -0.0857 -1.1757  2.0325
  448TMC3    H2 6733   4.011   1.087  17.330  0.6681 -1.1089 -2.5029
  448TMC3    C7 6734   4.045   1.338  17.418  0.2315 -0.3582 -0.3056
  448TMC3    C8 6735   3.912   1.000  17.097 -0.4558  0.1595 -0.1975
  448TMC3    O1 6736   4.091   1.450  17.395 -0.1809  0.7961 -0.1538
  448TMC3    O2 6737   3.986   0.930  17.160  0.1670  0.0470  0.1692
  449MPD2     C 6738   4.426   4.468  14.071 -0.6630  0.4199  0.1178
  449MPD2    C1 6739   4.325   4.561  14.079  0.7332 -0.6659 -0.5108
  449MPD2    C2 6740   4.194   4.515  14.079 -0.1902  0.0656  0.4437
  449MPD2    C3 6741   4.161   4.379  14.073 -0.6209  0.1005  0.3682
  449MPD2    C4 6742   4.264   4.287  14.070 -0.9934 -0.5669  0.4230
  449MPD2    C5 6743   4.395   4.329  14.076  0.0268  0.2840 -0.1962
  449MPD2     H 6744   4.119   4.593  14.075  1.1037  1.2162 -1.3357
  449MPD2    H1 6745   4.249   4.180  14.070 -0.0447 -0.6848  1.9984
  449MPD2    H2 6746   4.527   4.504  14.062 -1.3672  1.8104 -2.1315
  449MPD2    H3 6747   4.478   4.261  14.059 -0.6929 -0.1381 -1.9843
  449MPD2     N 6748   4.025   4.341  14.046  0.1900  0.2818 -0.4207
  449MPD2    H5 6749   3.955   4.415  14.039  0.5814  0.6674 -0.2487
  449MPD2    N1 6750   4.348   4.701  14.068 -0.1566  0.0943  0.6161
  449MPD2    H7 6751   4.267   0.023  14.059  0.0790  0.1461 -1.0151
  450TMC3    C1 6752   4.441   0.156  14.002 -0.4014 -0.4799 -0.3031
  450TMC3    C2 6753   4.475   0.168  13.871 -0.3781 -0.0646 -0.0310
  450TMC3    C3 6754   4.391   0.238  13.787  0.1331 -0.9351 -0.4466
  450TMC3    C4 6755   4.323   0.213  14.043 -0.7233 -0.3066  0.4965
  450TMC3    C5 6756   4.240   0.280  13.962 -0.3848  0.0022  0.2640
  450TMC3    C6 6757   4.271   0.293  13.831 -0.1663  0.5093 -0.1429
  450TMC3     C 6758   4.468   0.024  14.048  0.1448  0.0561  0.2619
  450TMC3     O 6759   4.582   4.722  14.041 -0.0664  0.2839  0.2590
  450TMC3     H 6760   4.537   0.093  13.822  2.0366  1.5412  0.5458
  450TMC3    H1 6761   4.301   0.207  14.149  2.1100 -0.2627  1.0995
  450TMC3    H2 6762   4.210   0.348  13.760 -0.3148 -0.5283 -0.8165
  450TMC3    C7 6763   4.106   0.221  13.980  0.1725  0.3095  0.4338
  450TMC3    C8 6764   4.414   0.240  13.640  0.0880  0.0103  0.5929
  450TMC3    O1 6765   4.105   0.115  14.039 -0.1213  0.1910  0.3772
  450TMC3    O2 6766   4.309   0.259  13.578 -0.3874  0.0427 -0.0234
  451MPD2     C 6767   1.307   2.877   1.605  1.1124  0.2569 -0.0387
  451MPD2    C1 6768   1.394   2.943   1.523  0.5300 -0.3925 -0.2929
  451MPD2    C2 6769   1.417   2.884   1.395 -0.4359  0.3842  0.0660
  451MPD2    C3 6770   1.358   2.773   1.350 -0.2552 -0.6744  0.1899
  451MPD2    C4 6771   1.261   2.714   1.430  0.1772 -0.7241 -0.4239
  451MPD2    C5 6772   1.239   2.770   1.555  0.0476 -0.0491  0.3504
  451MPD2     H 6773   1.486   2.937   1.330 -0.6784  0.1002 -0.4216
  451MPD2    H1 6774   1.221   2.617   1.402  0.9307 -0.7376 -1.4567
  451MPD2    H2 6775   1.276   2.908   1.704  1.6880  0.0355  0.2137
  451MPD2    H3 6776   1.165   2.725   1.620 -0.2849  2.3821  1.6762
  451MPD2     N 6777   1.387   2.716   1.226 -0.0618 -0.4302 -0.6249
  451MPD2    H5 6778   1.313   2.656   1.191 -1.1961  0.2300  0.6392
  451MPD2    N1 6779   1.436   3.075   1.557  0.1099 -0.4888  0.2079
  451MPD2    H7 6780   1.419   3.101   1.654  0.7252 -0.9932  0.4458
  452TMC3    C1 6781   1.493   2.707   1.018  0.3325  0.2586  0.3689
  452TMC3    C2 6782   1.422   2.592   0.982  0.0602  0.6333  0.0260
  452TMC3    C3 6783   1.412   2.568   0.846  1.4004  0.2975 -0.2231
  452TMC3    C4 6784   1.545   2.799   0.926  1.1391  0.3628  0.3994
  452TMC3    C5 6785   1.526   2.766   0.789  0.7324 -0.0203  0.1872
  452TMC3    C6 6786   1.467   2.646   0.744 -0.3065  0.2981 -0.2168
  452TMC3     C 6787   1.496   2.760   1.152 -0.0566 -0.7696 -0.0106
  452TMC3     O 6788   1.600   2.818   1.188 -0.0813  0.0513 -0.2734
  452TMC3     H 6789   1.368   2.543   1.062  0.9895  0.4850  0.5580
  452TMC3    H1 6790   1.559   2.904   0.950  1.7607  0.1155  1.1183
  452TMC3    H2 6791   1.463   2.631   0.637  0.9381 -0.6955 -0.1160
  452TMC3    C7 6792   1.569   2.863   0.691 -0.4582 -0.2899 -0.5259
  452TMC3    C8 6793   1.311   2.470   0.813  0.3172 -0.5439 -0.1068
  452TMC3    O1 6794   1.513   2.865   0.585 -0.1505 -0.5249 -0.3633
  452TMC3    O2 6795   1.247   2.418   0.903  0.3624 -0.5910 -0.0516
  453TMC3    C1 6796   2.507   1.523  12.294 -0.3445 -0.1305  0.4510
  453TMC3    C2 6797   2.374   1.488  12.301  0.0895 -0.3336 -0.2928
  453TMC3    C3 6798   2.293   1.552  12.207  0.1173  0.0443  0.1992
  453TMC3    C4 6799   2.552   1.634  12.224 -0.3541 -0.1613 -0.6815
  453TMC3    C5 6800   2.467   1.691  12.134  0.4751 -1.2688  0.5275
  453TMC3    C6 6801   2.336   1.648  12.119 -0.1383  0.0374 -0.1345
  453TMC3     C 6802   2.603   1.460  12.383  0.5892 -0.0240 -0.2648
  453TMC3     O 6803   2.714   1.512  12.392  0.4474  0.4247 -0.0917
  453TMC3     H 6804   2.325   1.416  12.365  1.9315 -2.0447 -0.8070
  453TMC3    H1 6805   2.655   1.665  12.235 -0.9192  1.1170  1.1249
  453TMC3    H2 6806   2.262   1.689  12.051 -0.1171 -1.1240 -0.8563
  453TMC3    C7 6807   2.528   1.753  12.021 -0.6312 -0.5163  0.1038
  453TMC3    C8 6808   2.159   1.495  12.190  0.1718 -0.2698  0.6793
  453TMC3    O1 6809   2.649   1.733  12.008  0.3249 -0.3370  0.4747
  453TMC3    O2 6810   2.071   1.560  12.132 -0.3537  0.1981  0.9008
  454MPD2     C 6811   1.606   4.502  16.439 -1.1551  0.2862  0.1088
  454MPD2    C1 6812   1.542   4.570  16.333 -0.3321  0.2124 -0.7581
  454MPD2    C2 6813   1.508   4.704  16.349 -0.5603 -0.1674  0.5583
  454MPD2    C3 6814   1.542   0.031  16.467 -0.6027 -1.0614 -0.5667
  454MPD2    C4 6815   1.599   4.701  16.567  0.3686 -0.7633 -0.3040
  454MPD2    C5 6816   1.633   4.570  16.548 -0.0917  0.4141  0.5018
  454MPD2     H 6817   1.456   0.019  16.271 -0.9446 -1.6976 -0.2404
  454MPD2    H1 6818   1.626   4.738  16.665  1.1139 -0.0513 -0.7758
  454MPD2    H2 6819   1.639   4.400  16.430 -0.5123  0.5985 -1.1093
  454MPD2    H3 6820   1.676   4.523  16.635  2.0405  3.4415  1.1018
  454MPD2     N 6821   1.494   0.159  16.489 -0.2047 -0.0636 -0.3777
  454MPD2    H5 6822   1.507   0.191  16.585 -0.5224 -1.9190  0.2779
  454MPD2    N1 6823   1.498   4.502  16.217 -0.1430 -0.2440  0.3340
  454MPD2    H7 6824   1.476   4.568  16.144  2.5853  0.2540 -0.0305
  455TMC3    C1 6825   1.299   0.291  16.484  0.2498  0.1315  0.1697
  455TMC3    C2 6826   1.308   0.328  16.612 -0.1008 -0.2684  0.9108
  455TMC3    C3 6827   1.189   0.327  16.679  0.6691 -0.3727  0.3460
  455TMC3    C4 6828   1.182   0.234  16.437 -0.1236 -0.2470  0.0905
  455TMC3    C5 6829   1.072   0.218  16.513 -0.5552  0.8363  0.0067
  455TMC3    C6 6830   1.075   0.268  16.638 -0.5720  0.2413  0.0081
  455TMC3     C 6831   1.412   0.243  16.407  0.0651  0.1455 -0.9261
  455TMC3     O 6832   1.386   0.247  16.286  0.2170 -0.2755 -0.0265
  455TMC3     H 6833   1.392   0.377  16.659 -2.5237  2.1850  2.6314
  455TMC3    H1 6834   1.169   0.192  16.338 -0.6462 -3.9551  1.7287
  455TMC3    H2 6835   0.990   0.245  16.700 -0.7530  4.1492  1.2103
  455TMC3    C7 6836   1.010   0.086  16.511 -0.0955  1.3239 -0.7218
  455TMC3    C8 6837   1.190   0.402  16.805  0.8213 -0.0480  0.4404
  455TMC3    O1 6838   0.906   0.070  16.569  0.4682 -0.2673 -0.0681
  455TMC3    O2 6839   1.286   0.395  16.875  0.2137 -0.0404 -0.3370
  456MPD2     C 6840   4.011   4.354  16.609 -0.1626 -0.6938  0.4575
  456MPD2    C1 6841   4.103   4.333  16.714 -0.4167 -0.1629  0.0783
  456MPD2    C2 6842   4.146   4.435  16.801  0.2143 -0.2054 -0.7705
  456MPD2    C3 6843   4.112   4.567  16.774  0.2507 -0.1546  0.0435
  456MPD2    C4 6844   4.027   4.584  16.668 -0.5884 -0.2294  0.0357
  456MPD2    C5 6845   3.981   4.488  16.585  0.0505 -0.1937 -0.1662
  456MPD2     H 6846   4.230   4.410  16.865 -2.2512  1.0332  2.9745
  456MPD2    H1 6847   3.974   4.675  16.644  1.3642  0.7402 -0.6310
  456MPD2    H2 6848   3.978   4.278  16.539  0.3167  0.8279 -1.4174
  456MPD2    H3 6849   3.910   4.516  16.508 -0.0586  0.0940  0.0339
  456MPD2     N 6850   4.152   4.666  16.865  0.2802  0.7685  0.1485
  456MPD2    H5 6851   4.201   4.646  16.952 -0.7475 -0.4989  0.4317
  456MPD2    N1 6852   4.147   4.200  16.710 -0.0041 -0.7345 -0.4709
  456MPD2    H7 6853   4.104   4.139  16.642  0.7030  0.4641 -1.9866
  457TMC3    C1 6854   4.188   0.159  16.936  0.2072 -0.7113 -0.3157
  457TMC3    C2 6855   4.152   0.286  16.914 -0.0029  0.3158  0.0229
  457TMC3    C3 6856   4.166   0.379  17.011  0.1012 -0.6255  0.2708
  457TMC3    C4 6857   4.230   0.118  17.065  0.3112  0.0576  0.3212
  457TMC3    C5 6858   4.250   0.216  17.153  0.7066  0.1152 -0.1958
  457TMC3    C6 6859   4.211   0.345  17.131 -0.0801 -0.2832 -0.3712
  457TMC3     C 6860   4.152   0.057  16.837  0.6980  0.2804 -0.3474
  457TMC3     O 6861   4.107   0.107  16.735  0.3074 -0.1054 -0.1321
  457TMC3     H 6862   4.122   0.313  16.813  0.1810  1.4088  0.2564
  457TMC3    H1 6863   4.263   0.017  17.087 -1.2138 -0.6734 -0.7444
  457TMC3    H2 6864   4.201   0.416  17.212 -3.8607  0.3820 -1.4302
  457TMC3    C7 6865   4.336   0.202  17.277 -0.2871 -0.1721 -0.3352
  457TMC3    C8 6866   4.100   0.510  16.999  0.3158  0.2316  0.1225
  457TMC3    O1 6867   4.338   0.096  17.333  0.4616 -0.2622 -0.2382
  457TMC3    O2 6868   4.127   0.590  17.089 -0.3355  0.4679  0.2109
  458MPD2     C 6869   0.546   4.727  12.858 -0.6982 -0.4919  0.4044
  458MPD2    C1 6870   0.583   4.654  12.969 -0.0943  0.4424 -0.4741
  458MPD2    C2 6871   0.482   4.608  13.063  0.3843 -0.8106  0.1983
  458MPD2    C3 6872   0.352   4.653  13.040 -0.1850 -0.2178 -0.2496
  458MPD2    C4 6873   0.322   4.720  12.925  0.1641 -0.1213 -0.1728
  458MPD2    C5 6874   0.416   0.020  12.837 -0.9913  0.4780  0.0024
  458MPD2     H 6875   0.503   4.553  13.153  3.0555 -0.2996 -0.1159
  458MPD2    H1 6876   0.226   0.022  12.897 -0.1409 -1.0772 -0.5237
  458MPD2    H2 6877   0.619   0.035  12.793 -0.4724 -1.5139 -0.0861
  458MPD2    H3 6878   0.385   0.088  12.758 -0.4561  1.3515  0.5504
  458MPD2     N 6879   0.253   4.606  13.136  0.2416 -0.1126  0.2163
  458MPD2    H5 6880   0.301   4.580  13.222  1.1551  4.4805  1.0998
  458MPD2    N1 6881   0.718   4.622  12.984  0.0051 -0.2767  0.3493
  458MPD2    H7 6882   0.778   4.677  12.923  4.0336 -4.4995  0.4751
  459TMC3    C1 6883   0.912   4.518  13.078 -0.5095  0.1024 -0.4796
  459TMC3    C2 6884   0.991   4.621  13.037  0.6436  0.4767 -0.2391
  459TMC3    C3 6885   1.127   4.612  13.065  1.5958 -0.3957  0.5581
  459TMC3    C4 6886   0.963   4.417  13.149  0.0984 -0.1409  0.3949
  459TMC3    C5 6887   1.099   4.410  13.179  0.2390  1.1816 -0.2452
  459TMC3    C6 6888   1.181   4.503  13.130 -0.0202  0.2214  0.0908
  459TMC3     C 6889   0.762   4.525  13.067 -0.1155  0.3478 -0.9435
  459TMC3     O 6890   0.703   4.446  13.140 -0.1730 -0.1853 -0.4956
  459TMC3     H 6891   0.940   4.713  13.012  2.5796  1.7797  0.6409
  459TMC3    H1 6892   0.898   4.338  13.186 -1.5638  1.6087  1.1999
  459TMC3    H2 6893   1.285   4.508  13.161 -0.0431 -1.0507  0.3913
  459TMC3    C7 6894   1.153   4.310  13.270 -0.4956 -0.8332  0.0424
  459TMC3    C8 6895   1.202   4.726  13.033 -0.1880 -0.1008  0.2067
  459TMC3    O1 6896   1.272   4.328  13.306 -0.0793  0.1009 -0.3064
  459TMC3    O2 6897   1.292   0.012  13.117  0.0362  0.2635 -0.0406
  460MPD2     C 6898   0.432   2.654  10.902  0.7805 -0.6973  0.2280
  460MPD2    C1 6899   0.378   2.554  10.822  0.1627  0.4969  0.1759
  460MPD2    C2 6900   0.291   2.589  10.713 -0.6976 -0.1800  0.0191
  460MPD2    C3 6901   0.266   2.726  10.701  0.4159 -0.4760  0.8973
  460MPD2    C4 6902   0.311   2.823  10.791  0.3571  0.5130 -0.1690
  460MPD2    C5 6903   0.399   2.787  10.892  0.5591 -0.3138 -0.4907
  460MPD2     H 6904   0.255   2.525  10.634  0.7152  3.1356 -3.2750
  460MPD2    H1 6905   0.276   2.925  10.785  1.3164  0.9881  2.2465
  460MPD2    H2 6906   0.504   2.628  10.979 -0.6406 -0.2570  1.7101
  460MPD2    H3 6907   0.435   2.858  10.966  1.7190  1.7129 -2.9689
  460MPD2     N 6908   0.183   2.759  10.590 -0.0273 -0.0215  0.0815
  460MPD2    H5 6909   0.157   2.680  10.531 -0.1699 -2.0960  2.9004
  460MPD2    N1 6910   0.428   2.424  10.847  0.0609  0.1975 -0.0232
  460MPD2    H7 6911   0.493   2.409  10.923  0.1822  2.2311  0.2708
  461TMC3    C1 6912   0.052   2.872  10.437 -0.1480 -0.2828 -0.4961
  461TMC3    C2 6913   4.724   2.756  10.402  0.1942 -0.1695  0.2153
  461TMC3    C3 6914   4.638   2.763  10.301  0.5802 -0.3810  0.7725
  461TMC3    C4 6915   0.040   2.979  10.356  1.0206  0.0997 -0.7333
  461TMC3    C5 6916   4.690   2.980  10.256 -0.7872  0.1486  0.2285
  461TMC3    C6 6917   4.616   2.869  10.220 -0.4177 -0.2867  0.7372
  461TMC3     C 6918   0.133   2.881  10.556  0.0045  0.3691 -0.3398
  461TMC3     O 6919   0.179   2.991  10.578  1.1035 -0.3875 -0.3218
  461TMC3     H 6920   4.729   2.668  10.464 -0.9470  1.6469  2.8931
  461TMC3    H1 6921   0.094   3.066  10.392 -0.0097  0.0569  0.9075
  461TMC3    H2 6922   4.544   2.884  10.140 -1.2023  2.6533  2.0045
  461TMC3    C7 6923   4.657   3.104  10.196  0.5666  0.5120  0.4515
  461TMC3    C8 6924   4.579   2.638  10.263  0.6590  0.1250 -0.1749
  461TMC3    O1 6925   4.536   3.130  10.176  0.1297 -0.1884  0.0454
  461TMC3    O2 6926   4.627   2.531  10.300  0.1493  0.5992  0.5826
  462TMC3    C1 6927   1.062   3.272   0.154  0.0594  0.7391  0.1207
  462TMC3    C2 6928   1.001   3.208   0.045  0.0794  0.4710 -0.7938
  462TMC3    C3 6929   0.958   3.076   0.062 -0.2723  0.2954  0.1348
  462TMC3    C4 6930   1.063   3.208   0.274  0.2368 -0.2010  0.2555
  462TMC3    C5 6931   1.024   3.076   0.283 -0.2323  0.7288  0.6349
  462TMC3    C6 6932   0.984   3.003   0.177  0.2881 -0.0152  0.6839
  462TMC3     C 6933   1.091   3.412   0.150  0.2885  0.9552 -0.2659
  462TMC3     O 6934   1.125   3.469   0.251  0.1800  0.0901  0.0207
  462TMC3     H 6935   0.988   3.253  17.703 -1.9931  1.5577 -0.0297
  462TMC3    H1 6936   1.081   3.267   0.363  2.6598  0.6259 -0.7871
  462TMC3    H2 6937   0.918   2.919   0.190  1.0695 -0.9590 -1.4001
  462TMC3    C7 6938   0.978   3.012   0.406  0.4324  0.0773  0.7289
  462TMC3    C8 6939   0.871   3.028  17.714 -0.0284  0.0593 -0.0582
  462TMC3    O1 6940   1.024   2.902   0.435 -0.6343  0.0451 -0.4974
  462TMC3    O2 6941   0.836   3.110  17.629  0.5211 -0.2584 -0.5158
  463MPD2     C 6942   1.807   1.801   2.769 -0.0780  0.1859  0.0355
  463MPD2    C1 6943   1.782   1.795   2.631  0.3013  0.4091 -0.1335
  463MPD2    C2 6944   1.667   1.856   2.585 -0.4267  0.1519 -0.5429
  463MPD2    C3 6945   1.591   1.936   2.669  0.2427 -0.2523  0.1265
  463MPD2    C4 6946   1.634   1.950   2.803  0.3976 -0.0846 -0.0102
  463MPD2    C5 6947   1.733   1.879   2.853  0.3456  0.1752  0.1982
  463MPD2     H 6948   1.644   1.847   2.479  0.5853 -2.4084 -0.5487
  463MPD2    H1 6949   1.573   2.007   2.872 -1.1434 -3.5867  1.5366
  463MPD2    H2 6950   1.890   1.747   2.812 -1.2028 -1.5759 -0.0059
  463MPD2    H3 6951   1.744   1.871   2.960  1.2920  0.9936  0.1596
  463MPD2     N 6952   1.476   2.009   2.625  0.9120  0.3968  0.3943
  463MPD2    H5 6953   1.418   2.054   2.695  0.5517 -0.1215  0.4300
  463MPD2    N1 6954   1.850   1.712   2.543  0.0253 -0.4594 -0.1212
  463MPD2    H7 6955   1.816   1.695   2.449 -1.0561 -0.4012  0.2676
  464TMC3    C1 6956   1.987   1.549   2.461 -0.8067 -0.2905  0.1925
  464TMC3    C2 6957   1.940   1.586   2.336 -0.4140 -0.3855  0.0620
  464TMC3    C3 6958   1.943   1.484   2.240  0.0294  0.0558 -0.3942
  464TMC3    C4 6959   2.014   1.416   2.487 -0.0819  0.0372  0.4613
  464TMC3    C5 6960   2.003   1.319   2.395 -0.7297 -0.1507  0.1521
  464TMC3    C6 6961   1.963   1.352   2.266 -0.2557  0.2985 -0.2229
  464TMC3     C 6962   1.940   1.616   2.577  0.1201 -0.2529  0.0393
  464TMC3     O 6963   1.978   1.584   2.688  0.0202  0.4398  0.2625
  464TMC3     H 6964   1.907   1.685   2.306  2.9279  0.1722 -1.7865
  464TMC3    H1 6965   2.028   1.389   2.591  1.4551  1.3716  0.5902
  464TMC3    H2 6966   1.961   1.290   2.177  1.5846  0.5338 -0.4121
  464TMC3    C7 6967   2.002   1.183   2.445 -0.2055  0.3490 -0.0162
  464TMC3    C8 6968   1.868   1.512   2.117  0.4841  0.3082  0.0993
  464TMC3    O1 6969   2.057   1.167   2.548 -0.3170 -0.3156  0.2997
  464TMC3    O2 6970   1.799   1.428   2.061 -0.0436  0.0497 -0.0331
  465MPD2     C 6971   3.290   0.474  16.629  0.6551  0.0592  0.0085
  465MPD2    C1 6972   3.227   0.553  16.722  0.9989  0.3760  0.0031
  465MPD2    C2 6973   3.106   0.603  16.696 -0.4239 -0.2548  0.6378
  465MPD2    C3 6974   3.038   0.573  16.574 -0.0855  0.2844 -0.6866
  465MPD2    C4 6975   3.114   0.503  16.483 -0.1410  1.0669  0.4711
  465MPD2    C5 6976   3.240   0.459  16.506 -0.3756 -0.2604 -0.0398
  465MPD2     H 6977   3.052   0.654  16.776 -1.0627 -0.5250  0.3829
  465MPD2    H1 6978   3.073   0.486  16.384 -0.1687  1.5751  0.3960
  465MPD2    H2 6979   3.389   0.432  16.644  0.4969 -0.4549 -0.3978
  465MPD2    H3 6980   3.302   0.406  16.435 -0.2022 -1.1069  0.7375
  465MPD2     N 6981   2.905   0.612  16.549  0.2985 -0.4750  0.5285
  465MPD2    H5 6982   2.853   0.651  16.628 -0.2941 -0.4050  0.0996
  465MPD2    N1 6983   3.293   0.593  16.838  0.6580  0.4599 -0.0224
  465MPD2    H7 6984   3.252   0.668  16.894 -0.2859 -1.1199  1.3930
  466TMC3    C1 6985   2.526   0.468  16.589  0.0223 -0.2728  0.0105
  466TMC3    C2 6986   2.445   0.477  16.482  0.2009  0.0296  0.0845
  466TMC3    C3 6987   2.493   0.527  16.368  0.2990 -0.4623 -0.1482
  466TMC3    C4 6988   2.651   0.514  16.584  0.7572  0.0305  0.4611
  466TMC3    C5 6989   2.701   0.564  16.465 -0.7074 -0.8213  0.5314
  466TMC3    C6 6990   2.619   0.577  16.354  0.3207 -0.2922 -0.3199
  466TMC3     C 6991   2.461   0.451  16.710  0.6205 -0.4006 -0.7127
  466TMC3     O 6992   2.512   0.497  16.808 -0.3593  0.1277 -0.2636
  466TMC3     H 6993   2.343   0.439  16.485 -0.5355  2.1013  1.4454
  466TMC3    H1 6994   2.706   0.516  16.677  2.9524 -0.5982 -0.8123
  466TMC3    H2 6995   2.652   0.636  16.269  1.8610 -2.1968 -1.0446
  466TMC3    C7 6996   2.840   0.575  16.442 -0.6643 -0.1810  0.0579
  466TMC3    C8 6997   2.387   0.599  16.295 -0.3486  0.2219  0.5745
  466TMC3    O1 6998   2.875   0.571  16.322  0.5728 -0.0218  0.3695
  466TMC3    O2 6999   2.401   0.615  16.174 -0.3427  0.4494  0.1992
  467TMC3    C1 7000   3.570   3.747  14.061 -0.7105 -0.1105  0.0645
  467TMC3    C2 7001   3.515   3.866  14.032  0.3546 -0.4336 -0.6188
  467TMC3    C3 7002   3.384   3.873  13.998 -0.6643 -0.1709 -0.5758
  467TMC3    C4 7003   3.489   3.640  14.063 -0.1526 -0.5741 -0.7444
  467TMC3    C5 7004   3.354   3.651  14.044  0.3730 -0.2379  0.1201
  467TMC3    C6 7005   3.302   3.763  14.001  0.3650  0.1646  0.2174
  467TMC3     C 7006   3.714   3.724  14.039  0.5425  0.5421  0.5469
  467TMC3     O 7007   3.796   3.782  14.109  1.0887  0.0308 -0.3738
  467TMC3     H 7008   3.579   3.953  14.048 -1.4151  0.3232  2.2773
  467TMC3    H1 7009   3.537   3.545  14.084 -3.6432 -1.7324  2.0212
  467TMC3    H2 7010   3.195   3.765  13.982  0.2454 -1.5754  0.7111
  467TMC3    C7 7011   3.271   3.531  14.047  0.4136 -0.8232  0.3679
  467TMC3    C8 7012   3.339   3.989  13.920  1.0469  0.8697  0.1094
  467TMC3    O1 7013   3.338   3.428  14.034  0.6383 -0.5695 -0.0481
  467TMC3    O2 7014   3.422   4.078  13.912 -0.3773 -0.5217  0.0246
  468MPD2     C 7015   1.951   2.448  11.075 -0.6247  0.3558  0.2106
  468MPD2    C1 7016   2.061   2.448  11.154  1.1656 -0.0961 -0.2543
  468MPD2    C2 7017   2.114   2.336  11.206  0.0440  0.4807 -0.2400
  468MPD2    C3 7018   2.055   2.217  11.170  0.3659  0.1747 -0.0154
  468MPD2    C4 7019   1.946   2.216  11.086 -0.0108  0.1024 -0.1959
  468MPD2    C5 7020   1.898   2.331  11.034  0.0090 -0.2452 -0.3156
  468MPD2     H 7021   2.196   2.344  11.276 -0.9605  0.8389  0.9030
  468MPD2    H1 7022   1.895   2.120  11.081 -1.0070  0.6350 -0.2621
  468MPD2    H2 7023   1.896   2.536  11.043 -0.7750  0.9488  2.1239
  468MPD2    H3 7024   1.805   2.330  10.978  0.3222  1.2388 -0.8677
  468MPD2     N 7025   2.099   2.090  11.212  0.0217 -0.3638 -0.2451
  468MPD2    H5 7026   2.042   2.011  11.182  0.1355 -1.1156  1.5856
  468MPD2    N1 7027   2.129   2.564  11.198 -0.1901 -0.3427 -0.4428
  468MPD2    H7 7028   2.201   2.542  11.266 -0.7552 -1.8240 -0.3159
  469TMC3    C1 7029   2.182   2.794  11.215  0.2864 -0.3759 -0.5825
  469TMC3    C2 7030   2.317   2.768  11.238  0.3201 -1.0126 -0.0869
  469TMC3    C3 7031   2.378   2.851  11.327 -0.3555  0.2207 -0.4166
  469TMC3    C4 7032   2.108   2.895  11.266 -0.4059  0.5089  0.1361
  469TMC3    C5 7033   2.167   2.953  11.375 -0.2109 -0.2912  0.1677
  469TMC3    C6 7034   2.305   2.943  11.393  0.7813 -0.4223  0.8047
  469TMC3     C 7035   2.097   2.695  11.156 -0.2892 -0.6978 -0.6705
  469TMC3     O 7036   2.002   2.738  11.090  0.0868 -0.3124  0.5807
  469TMC3     H 7037   2.365   2.680  11.199 -1.1248 -1.2324 -1.3753
  469TMC3    H1 7038   2.001   2.906  11.257 -0.5075 -0.7462 -0.2193
  469TMC3    H2 7039   2.353   3.008  11.465 -0.0459  1.1989 -0.1038
  469TMC3    C7 7040   2.089   2.940  11.495  0.1482  0.8801  0.0113
  469TMC3    C8 7041   2.486   2.794  11.413 -0.2042  0.1553  0.9903
  469TMC3    O1 7042   1.972   2.936  11.474  0.2400  0.3768  0.3460
  469TMC3    O2 7043   2.468   2.820  11.534  0.2911  0.1487 -0.1373
  470TMC3    C1 7044   0.196   2.796   1.189  0.7195 -0.1583  0.5897
  470TMC3    C2 7045   0.293   2.871   1.253  0.2596  0.5452  0.3726
  470TMC3    C3 7046   0.284   2.888   1.386 -0.6118 -0.3744  0.1832
  470TMC3    C4 7047   0.099   2.729   1.257  0.0351 -0.4006  0.3444
  470TMC3    C5 7048   0.096   2.754   1.390  1.0151  0.2806  0.0263
  470TMC3    C6 7049   0.187   2.832   1.459 -0.1558 -0.3913 -0.5790
  470TMC3     C 7050   0.193   2.802   1.049 -0.2186 -0.0217 -0.3268
  470TMC3     O 7051   0.296   2.833   0.986 -0.3071  0.1965  0.0726
  470TMC3     H 7052   0.361   2.938   1.202  1.8293 -0.6097  0.9691
  470TMC3    H1 7053   0.038   2.655   1.206  0.4717 -0.2616 -0.3753
  470TMC3    H2 7054   0.186   2.840   1.567  1.5320 -0.7383 -0.5307
  470TMC3    C7 7055   4.719   2.697   1.459 -0.4854  0.4606 -0.2288
  470TMC3    C8 7056   0.385   2.969   1.457 -0.7641 -0.0672  0.2360
  470TMC3    O1 7057   4.636   2.659   1.381 -0.2344 -0.2562  0.0811
  470TMC3    O2 7058   0.356   2.996   1.574  0.3367 -0.5022  0.1742
  471MPD2     C 7059   0.642   4.062  17.029 -1.0215 -0.0018  0.4524
  471MPD2    C1 7060   0.570   3.944  17.040  0.0392 -0.5261 -0.1336
  471MPD2    C2 7061   0.587   3.877  17.158  0.4890 -0.0651 -0.4133
  471MPD2    C3 7062   0.672   3.917  17.257  0.3669  1.3617  0.3876
  471MPD2    C4 7063   0.752   4.026  17.239  0.4155 -0.0276 -0.9283
  471MPD2    C5 7064   0.733   4.099  17.124  0.2965  0.0592  0.2298
  471MPD2     H 7065   0.529   3.788  17.179 -1.0495  1.0394  0.0575
  471MPD2    H1 7066   0.828   4.057  17.311 -0.1661 -2.4134  0.7064
  471MPD2    H2 7067   0.640   4.124  16.939  2.4211 -1.0678 -0.3567
  471MPD2    H3 7068   0.793   4.188  17.107  0.6848 -0.5785 -1.7019
  471MPD2     N 7069   0.697   3.823  17.358  0.3156 -0.0311 -0.1739
  471MPD2    H5 7070   0.649   3.733  17.350  1.1948 -0.7463  2.5170
  471MPD2    N1 7071   0.497   3.891  16.929  0.7444  0.1650  0.5507
  471MPD2    H7 7072   0.473   3.946  16.847  0.6521 -0.9262 -0.1619
  472TMC3    C1 7073   0.401   3.717  16.797  0.3468  0.6122 -0.8175
  472TMC3    C2 7074   0.311   3.805  16.744  0.5848  0.1184  0.3412
  472TMC3    C3 7075   0.269   3.755  16.621 -1.1439 -0.3925  0.0613
  472TMC3    C4 7076   0.406   3.584  16.763 -0.1000 -0.3156  0.0295
  472TMC3    C5 7077   0.352   3.538  16.641 -0.4410 -0.6442  0.3473
  472TMC3    C6 7078   0.286   3.629  16.566 -0.0887  0.3540 -0.4042
  472TMC3     C 7079   0.464   3.754  16.925  0.0248 -1.0360  0.1035
  472TMC3     O 7080   0.503   3.668  17.001 -0.0082 -0.2602 -0.1992
  472TMC3     H 7081   0.306   3.912  16.763  2.0314  0.3476 -0.5576
  472TMC3    H1 7082   0.471   3.523  16.825 -0.3327 -0.6777 -0.0867
  472TMC3    H2 7083   0.235   3.601  16.475  0.7718  2.0926 -1.4057
  472TMC3    C7 7084   0.334   3.393  16.619 -0.2331 -0.7465 -0.2695
  472TMC3    C8 7085   0.140   3.803  16.574  0.1683  0.3678 -0.4372
  472TMC3    O1 7086   0.403   3.312  16.685 -0.1810 -0.0750  0.2555
  472TMC3    O2 7087   0.142   3.876  16.474  0.3861  0.3443  0.3404
  473MPD2     C 7088   4.692   1.227  13.732 -0.8554 -0.2024  0.2732
  473MPD2    C1 7089   4.632   1.350  13.749 -0.0049  0.0491 -0.1905
  473MPD2    C2 7090   4.648   1.422  13.865  0.2537 -0.0053 -0.4697
  473MPD2    C3 7091   4.716   1.363  13.973  0.1625  0.5841 -0.0575
  473MPD2    C4 7092   0.024   1.235  13.954  0.2961  0.0355  0.2478
  473MPD2    C5 7093   0.013   1.170  13.835  0.1099  0.3235  0.5535
  473MPD2     H 7094   4.632   1.530  13.865  1.9862  0.2531  0.5357
  473MPD2    H1 7095   0.081   1.187  14.032  1.2293 -2.2652 -1.8470
  473MPD2    H2 7096   4.680   1.163  13.645  0.7336 -0.7589  0.4783
  473MPD2    H3 7097   0.061   1.073  13.833 -1.9491 -0.6123 -5.1588
  473MPD2     N 7098   4.731   1.415  14.105  0.0752 -0.5886  0.5706
  473MPD2    H5 7099   0.058   1.371  14.168  0.1036 -0.8485  0.3590
  473MPD2    N1 7100   4.563   1.416  13.638  0.1721 -0.0845  1.0436
  473MPD2    H7 7101   4.525   1.507  13.665  1.2509  0.2869  1.3426
  474TMC3    C1 7102   4.700   1.553  14.286  0.4586  0.2453 -0.1536
  474TMC3    C2 7103   4.625   1.642  14.342  0.0595 -0.4750  0.1739
  474TMC3    C3 7104   4.597   1.644  14.474 -0.2151 -0.4810  0.0295
  474TMC3    C4 7105   0.008   1.454  14.367 -0.4894  0.5836 -0.3274
  474TMC3    C5 7106   4.719   1.456  14.505  0.3461  0.0482  0.3429
  474TMC3    C6 7107   4.638   1.549  14.560  0.4946 -0.2280  0.5952
  474TMC3     C 7108   4.677   1.525  14.149  0.1755 -0.0517 -0.0688
  474TMC3     O 7109   4.588   1.594  14.102  0.5361  0.5619  0.3842
  474TMC3     H 7110   4.583   1.725  14.286  1.2407 -0.0902 -0.1506
  474TMC3    H1 7111   0.085   1.383  14.340  0.4084  2.4386 -2.6120
  474TMC3    H2 7112   4.614   1.559  14.665  0.7042  0.0216  0.6192
  474TMC3    C7 7113   0.060   1.378  14.598  0.2094  0.5311  0.3093
  474TMC3    C8 7114   4.506   1.747  14.529 -0.7671 -0.2833 -0.3226
  474TMC3    O1 7115   0.108   1.269  14.564 -0.6530 -0.0551  0.1647
  474TMC3    O2 7116   4.442   1.702  14.620 -0.2540 -0.8169 -0.4614
  475MPD2     C 7117   2.702   0.025  11.655 -0.7161  0.1364  0.4130
  475MPD2    C1 7118   2.765   0.150  11.664  0.0507  0.1616 -0.2913
  475MPD2    C2 7119   2.687   0.260  11.671 -0.1295 -0.1671  0.3079
  475MPD2    C3 7120   2.548   0.257  11.677 -0.2922 -0.3653 -0.7307
  475MPD2    C4 7121   2.491   0.135  11.677 -0.6589  0.0813 -0.2033
  475MPD2    C5 7122   2.567   0.022  11.668 -0.3274  0.2278 -0.2016
  475MPD2     H 7123   2.740   0.354  11.675  0.7874 -0.6455 -0.5342
  475MPD2    H1 7124   2.383   0.127  11.672 -0.7094 -0.0995  1.4509
  475MPD2    H2 7125   2.764   4.678  11.635 -0.1418 -0.0705  2.9863
  475MPD2    H3 7126   2.512   4.668  11.659  0.0697  0.1885 -2.1144
  475MPD2     N 7127   2.465   0.373  11.688 -0.1362 -0.7188 -0.7978
  475MPD2    H5 7128   2.364   0.370  11.695 -0.2940 -0.4165 -3.0863
  475MPD2    N1 7129   2.904   0.154  11.639  0.3899  0.7472  0.8078
  475MPD2    H7 7130   2.957   0.072  11.611 -1.9065 -0.0115 -1.2959
  476TMC3    C1 7131   3.121   0.251  11.596  0.1849 -0.4411 -0.3964
  476TMC3    C2 7132   3.128   0.205  11.472  0.5019 -0.3809 -0.1907
  476TMC3    C3 7133   3.219   0.272  11.395 -0.3177  0.0542 -0.3519
  476TMC3    C4 7134   3.192   0.355  11.642 -0.0844 -0.1519  0.7213
  476TMC3    C5 7135   3.277   0.418  11.561 -0.0410  1.0387 -0.0862
  476TMC3    C6 7136   3.293   0.378  11.435 -0.3831  0.0808  0.2811
  476TMC3     C 7137   2.986   0.263  11.650  0.0672  0.0963 -0.2029
  476TMC3     O 7138   2.965   0.371  11.699  0.5643 -0.3924 -0.8529
  476TMC3     H 7139   3.052   0.138  11.434 -0.2276 -0.4458  1.3822
  476TMC3    H1 7140   3.181   0.390  11.744 -2.5343 -1.3901  0.8883
  476TMC3    H2 7141   3.349   0.439  11.365 -0.5418  1.6544  1.5289
  476TMC3    C7 7142   3.245   0.563  11.549 -0.0090  0.0181  0.0756
  476TMC3    C8 7143   3.221   0.242  11.253 -0.6409  0.6369 -0.2424
  476TMC3    O1 7144   3.324   0.633  11.490 -0.2899  0.0235  0.1462
  476TMC3    O2 7145   3.287   0.307  11.174  0.3377 -0.0260 -0.0333
  477MPD2     C 7146   0.572   1.683  12.178 -0.0970  0.1438 -0.3359
  477MPD2    C1 7147   0.594   1.578  12.097 -0.1136 -0.3177  0.3203
  477MPD2    C2 7148   0.676   1.478  12.143  0.4925  0.5042  0.2463
  477MPD2    C3 7149   0.728   1.481  12.266  0.1453  0.8240 -0.1839
  477MPD2    C4 7150   0.707   1.593  12.346  0.0726 -0.4837  0.6830
  477MPD2    C5 7151   0.629   1.694  12.297  0.4665 -0.3645 -0.4070
  477MPD2     H 7152   0.691   1.388  12.083  1.4070  0.6590  0.2395
  477MPD2    H1 7153   0.747   1.608  12.446  1.2460 -1.8410  0.4218
  477MPD2    H2 7154   0.498   1.758  12.151  2.9331  2.3804 -2.4028
  477MPD2    H3 7155   0.605   1.777  12.363 -0.4102 -1.9173  1.2003
  477MPD2     N 7156   0.805   1.366  12.306 -0.1087  0.1963  0.5831
  477MPD2    H5 7157   0.822   1.291  12.239 -0.1749  0.6366  0.0660
  477MPD2    N1 7158   0.530   1.570  11.962  0.1523 -0.7561  0.3924
  477MPD2    H7 7159   0.482   1.654  11.931  0.7229 -0.5457  0.0741
  478TMC3    C1 7160   0.455   1.483  11.756  0.9016  0.5531 -0.0255
  478TMC3    C2 7161   0.354   1.572  11.773 -0.4512 -0.0585  0.9799
  478TMC3    C3 7162   0.283   1.602  11.652 -0.7903 -0.8651  0.3983
  478TMC3    C4 7163   0.491   1.427  11.635 -0.2514 -0.2669  0.3257
  478TMC3    C5 7164   0.418   1.461  11.527  0.0078  0.0124 -0.8282
  478TMC3    C6 7165   0.325   1.554  11.531  0.6633  0.6884  0.5458
  478TMC3     C 7166   0.548   1.471  11.873  0.4957  0.1170 -0.3204
  478TMC3     O 7167   0.626   1.381  11.878 -0.6140 -0.3244 -0.4442
  478TMC3     H 7168   0.328   1.615  11.869 -2.7738  1.9427 -0.5328
  478TMC3    H1 7169   0.571   1.355  11.623 -0.6128 -0.4576 -1.0248
  478TMC3    H2 7170   0.276   1.600  11.446  0.2833 -1.5508 -0.4649
  478TMC3    C7 7171   0.466   1.419  11.394  0.1234 -0.8111  0.2942
  478TMC3    C8 7172   0.198   1.719  11.662 -0.8592 -0.2501  0.0039
  478TMC3    O1 7173   0.582   1.392  11.388 -0.3453 -0.0024 -0.0693
  478TMC3    O2 7174   0.131   1.723  11.766 -0.0509  0.2256 -0.4465
  479MPD2     C 7175   4.667   3.274  15.259 -0.0721  0.5500  0.3481
  479MPD2    C1 7176   4.640   3.169  15.348 -0.3811  0.9067 -0.2911
  479MPD2    C2 7177   4.688   3.171  15.478  0.3427 -0.3699  0.0476
  479MPD2    C3 7178   0.021   3.279  15.526  0.2512  0.5421 -0.4223
  479MPD2    C4 7179   0.050   3.379  15.437  0.7033  0.2475 -0.1770
  479MPD2    C5 7180   0.007   3.375  15.304 -0.0319  0.2586 -0.2925
  479MPD2     H 7181   4.680   3.081  15.538  5.4243 -1.1840 -0.4216
  479MPD2    H1 7182   0.109   3.466  15.463 -0.1777  0.4363  1.1902
  479MPD2    H2 7183   4.635   3.283  15.156 -0.5269 -2.0282  0.2660
  479MPD2    H3 7184   0.045   3.439  15.226  0.3505 -2.0727 -2.0372
  479MPD2     N 7185   0.059   3.299  15.663 -0.3661  0.3169  1.2510
  479MPD2    H5 7186   0.146   3.346  15.685 -0.9599  1.9161  0.2108
  479MPD2    N1 7187   4.579   3.047  15.295  0.4593 -0.0471 -0.9917
  479MPD2    H7 7188   4.532   3.055  15.206  0.5122  1.2271 -0.9058
  480TMC3    C1 7189   4.492   3.054  15.911  0.3025 -0.1304 -0.2510
  480TMC3    C2 7190   4.375   3.110  15.859  0.4853 -0.2962 -0.3548
  480TMC3    C3 7191   4.394   3.191  15.756 -0.2797  0.0663  0.3956
  480TMC3    C4 7192   4.618   3.069  15.865 -0.1407 -0.1948  0.5488
  480TMC3    C5 7193   4.632   3.169  15.774 -0.4111  0.4130 -0.6059
  480TMC3    C6 7194   4.521   3.229  15.719  0.3971  0.3136  0.1206
  480TMC3     C 7195   4.484   2.970  16.030  0.7105  0.3763  0.3924
  480TMC3     O 7196   4.584   2.919  16.074  0.5142  0.4495 -0.5406
  480TMC3     H 7197   4.277   3.071  15.886  0.8685  0.3564  1.9737
  480TMC3    H1 7198   4.699   3.012  15.908 -0.0630 -0.2320  0.3534
  480TMC3    H2 7199   4.540   3.307  15.647 -1.4331 -0.1369 -0.8525
  480TMC3    C7 7200   0.024   3.224  15.776  0.1858 -0.5820  0.1739
  480TMC3    C8 7201   4.284   3.230  15.677 -0.8909 -0.9314 -0.4780
  480TMC3    O1 7202   0.076   3.221  15.887  0.0397 -0.3240  0.3923
  480TMC3    O2 7203   4.178   3.240  15.733 -0.4106  0.0440 -0.7917
  481MPD2     C 7204   1.341   3.134  14.590  0.7080  0.0905 -0.7673
  481MPD2    C1 7205   1.260   3.033  14.561  0.0838 -0.0346  0.7532
  481MPD2    C2 7206   1.237   2.932  14.659  0.6923 -0.0214 -0.1824
  481MPD2    C3 7207   1.316   2.923  14.769  0.0728 -0.8706  0.3117
  481MPD2    C4 7208   1.404   3.023  14.804 -0.3607 -0.5761  0.4681
  481MPD2    C5 7209   1.411   3.131  14.713  0.1023 -0.1528  0.2287
  481MPD2     H 7210   1.169   2.854  14.625  0.9557 -0.5605  0.5245
  481MPD2    H1 7211   1.458   3.030  14.897 -0.0050 -2.0477  0.3725
  481MPD2    H2 7212   1.350   3.216  14.520 -0.2411 -0.1152 -1.1322
  481MPD2    H3 7213   1.487   3.207  14.729 -1.0339  1.5789 -2.5141
  481MPD2     N 7214   1.314   2.815  14.858  0.0734  0.0685 -0.1643
  481MPD2    H5 7215   1.376   2.827  14.938 -1.9718 -0.5530  1.5086
  481MPD2    N1 7216   1.203   3.040  14.433 -0.4926  0.1378  0.2696
  481MPD2    H7 7217   1.232   3.117  14.373  3.9050  1.2049  3.7855
  482TMC3    C1 7218   1.056   2.993  14.249  0.2819  0.6799 -0.7648
  482TMC3    C2 7219   0.965   2.906  14.203 -0.1840  0.2193  0.8417
  482TMC3    C3 7220   0.928   2.924  14.071  0.0224  0.0068  0.2077
  482TMC3    C4 7221   1.116   3.094  14.174  0.8114  0.2616  0.4247
  482TMC3    C5 7222   1.078   3.101  14.043 -0.0394  0.4887  0.3019
  482TMC3    C6 7223   0.975   3.022  13.986  0.3851 -0.1583  0.7706
  482TMC3     C 7224   1.102   2.961  14.381 -0.3348  0.0053  0.0971
  482TMC3     O 7225   1.056   2.859  14.429 -0.3586  0.3531 -0.3710
  482TMC3     H 7226   0.905   2.839  14.263  0.5543 -1.2034 -0.0001
  482TMC3    H1 7227   1.202   3.151  14.207  1.3068 -0.4819  0.4241
  482TMC3    H2 7228   0.917   3.048  13.899  2.3961  3.3894  0.4774
  482TMC3    C7 7229   1.114   3.223  13.968  0.3556  0.5059  0.3418
  482TMC3    C8 7230   0.857   2.815  14.016 -0.0679  0.5009  0.1127
  482TMC3    O1 7231   1.184   3.305  14.029 -0.0506 -0.7731 -0.5142
  482TMC3    O2 7232   0.881   2.779  13.903  0.1872  0.4532 -0.0562
  483TMC3    C1 7233   0.159   1.584   1.427 -0.4579 -0.9244  0.4761
  483TMC3    C2 7234   0.214   1.696   1.367 -0.0804 -0.0952  0.3551
  483TMC3    C3 7235   0.333   1.756   1.410 -0.7135  0.4298 -0.4306
  483TMC3    C4 7236   0.239   1.523   1.525 -0.4550 -0.6543  0.2800
  483TMC3    C5 7237   0.345   1.594   1.574  0.4821  0.4492  0.3291
  483TMC3    C6 7238   0.391   1.706   1.515  0.0891  0.2070  0.3562
  483TMC3     C 7239   0.109   1.482   1.329 -0.6176  0.0415 -0.6097
  483TMC3     O 7240   0.052   1.518   1.228 -0.3627  0.4210  0.1545
  483TMC3     H 7241   0.162   1.724   1.277  0.0795  2.6888  1.1229
  483TMC3    H1 7242   0.214   1.441   1.591 -0.8234 -0.3399  0.5303
  483TMC3    H2 7243   0.490   1.740   1.543  0.6839 -0.7141 -0.6464
  483TMC3    C7 7244   0.439   1.517   1.654 -0.2193  0.2734 -0.1950
  483TMC3    C8 7245   0.387   1.868   1.336 -0.1206  0.3846  0.4044
  483TMC3    O1 7246   0.441   1.398   1.640 -0.0162 -0.1027  0.1024
  483TMC3    O2 7247   0.338   1.882   1.226 -0.2728 -0.0502  0.4486
  484MPD2     C 7248   1.193   0.186  12.732  0.5694  0.6030 -0.5781
  484MPD2    C1 7249   1.252   0.128  12.839 -0.2796  0.6027 -0.2314
  484MPD2    C2 7250   1.388   0.146  12.862 -0.1471 -0.1213  0.4013
  484MPD2    C3 7251   1.460   0.237  12.784 -0.4000 -0.2318  0.2235
  484MPD2    C4 7252   1.393   0.301  12.680  0.1805  0.0898 -0.0313
  484MPD2    C5 7253   1.263   0.275  12.660 -0.6772 -0.7330 -0.0379
  484MPD2     H 7254   1.439   0.101  12.946  0.3652  0.3929  0.3660
  484MPD2    H1 7255   1.431   0.382  12.619  1.0046 -0.3745 -0.1340
  484MPD2    H2 7256   1.087   0.172  12.715  0.4116  0.0467  0.8512
  484MPD2    H3 7257   1.209   0.329  12.583  0.8267  2.9701  1.4787
  484MPD2     N 7258   1.604   0.261  12.792  0.0823  0.0014 -0.1179
  484MPD2    H5 7259   1.641   0.344  12.748  0.4162  0.2106  0.5635
  484MPD2    N1 7260   1.167   0.039  12.912 -0.3667  0.3782  0.4049
  484MPD2    H7 7261   1.081   0.010  12.868  1.5690 -2.2939 -1.6587
  485TMC3    C1 7262   1.832   0.243  12.859 -0.0192 -0.4213  0.0580
  485TMC3    C2 7263   1.919   0.194  12.954  0.7860  0.0227 -0.6871
  485TMC3    C3 7264   2.038   0.251  12.970 -0.5094 -0.2129  0.5647
  485TMC3    C4 7265   1.858   0.346  12.775  0.0252  0.5112  0.4231
  485TMC3    C5 7266   1.980   0.408  12.798  0.3749 -0.0028 -0.1649
  485TMC3    C6 7267   2.071   0.358  12.892 -1.0160 -0.1337  0.5056
  485TMC3     C 7268   1.695   0.189  12.868 -0.2320  0.2101 -0.4806
  485TMC3     O 7269   1.680   0.099  12.949 -0.1102 -0.3346 -0.0208
  485TMC3     H 7270   1.902   0.101  13.008 -0.9178  0.3790 -0.6053
  485TMC3    H1 7271   1.805   0.365  12.682  0.6907 -0.9595 -0.2540
  485TMC3    H2 7272   2.160   0.416  12.915 -0.6210 -0.0448 -1.3159
  485TMC3    C7 7273   2.066   0.449  12.691  0.6558 -1.0176  0.8159
  485TMC3    C8 7274   2.151   0.166  12.996 -0.4278  0.6467  0.0913
  485TMC3    O1 7275   2.158   0.373  12.668 -0.3820  0.7426  0.4370
  485TMC3    O2 7276   2.152   0.088  13.088 -0.1786 -0.2174 -0.3413
  486MPD2     C 7277   4.308   3.464  12.915 -0.4397 -0.1327  0.0178
  486MPD2    C1 7278   4.189   3.398  12.895 -0.2243  0.3556 -1.6553
  486MPD2    C2 7279   4.071   3.467  12.903  0.3667 -0.3676  0.2902
  486MPD2    C3 7280   4.075   3.604  12.922 -0.3914  0.1622  0.3816
  486MPD2    C4 7281   4.193   3.670  12.935  0.1807  0.4062  0.0884
  486MPD2    C5 7282   4.310   3.598  12.939  0.0103  0.4741 -0.5012
  486MPD2     H 7283   3.973   3.422  12.890  0.4834 -0.6868  0.5165
  486MPD2    H1 7284   4.196   3.778  12.944  0.5008  0.5491 -1.7197
  486MPD2    H2 7285   4.400   3.407  12.926  1.3934  2.6794 -0.7691
  486MPD2    H3 7286   4.405   3.649  12.954  0.0726 -0.2521  1.5387
  486MPD2     N 7287   3.952   3.672  12.935  0.0167  0.8226 -0.0230
  486MPD2    H5 7288   3.869   3.615  12.944 -1.1793  2.6205  0.2566
  486MPD2    N1 7289   4.194   3.257  12.886  0.0071  0.2959 -0.9085
  486MPD2    H7 7290   4.288   3.220  12.890 -1.4859 -3.4081  0.2037
  487TMC3    C1 7291   4.121   3.038  12.841 -0.1961 -0.0331  0.0374
  487TMC3    C2 7292   4.011   2.964  12.823  0.4955  0.4099  0.4626
  487TMC3    C3 7293   4.010   2.837  12.867  0.4696  0.4946  0.2336
  487TMC3    C4 7294   4.230   2.988  12.903 -0.8571 -0.0793  0.5312
  487TMC3    C5 7295   4.219   2.865  12.960 -0.3770  0.2527  0.1708
  487TMC3    C6 7296   4.115   2.776  12.930  0.2150 -0.1626  0.0595
  487TMC3     C 7297   4.093   3.180  12.844 -0.1439 -0.7288 -0.8886
  487TMC3     O 7298   3.976   3.204  12.819 -0.0999 -0.1152  0.7656
  487TMC3     H 7299   3.920   3.001  12.777  0.1324  0.7879  1.4970
  487TMC3    H1 7300   4.310   3.054  12.932  0.2527 -0.6904 -1.1625
  487TMC3    H2 7301   4.102   2.705  13.010  1.5808  1.5225  1.7920
  487TMC3    C7 7302   4.334   2.821  13.041  0.7591 -0.4221 -0.6836
  487TMC3    C8 7303   3.876   2.784  12.894  0.1868  0.2853  1.1286
  487TMC3    O1 7304   4.376   2.906  13.120  0.3359  0.2027 -0.0741
  487TMC3    O2 7305   3.788   2.867  12.900  0.2074  0.4378  0.1661
  488MPD2     C 7306   4.523   0.054  16.797 -0.7558  0.1025  0.3259
  488MPD2    C1 7307   4.585   0.167  16.848 -0.1990 -0.1492 -0.4426
  488MPD2    C2 7308   4.639   0.163  16.974 -0.3488 -0.4687  0.2191
  488MPD2    C3 7309   4.625   0.053  17.050 -0.3138  0.5497  0.2994
  488MPD2    C4 7310   4.550   4.685  17.007  0.1047 -0.0976 -0.3870
  488MPD2    C5 7311   4.508   4.684  16.876 -0.5370 -0.2257  0.7950
  488MPD2     H 7312   4.680   0.250  17.023  0.6092  0.8983 -3.0171
  488MPD2    H1 7313   4.545   4.591  17.061 -1.0351  0.4149  0.4019
  488MPD2    H2 7314   4.483   0.047  16.697  1.1259 -1.7417 -0.2900
  488MPD2    H3 7315   4.463   4.594  16.835  1.5977 -0.0685 -1.8447
  488MPD2     N 7316   4.688   0.053  17.183 -0.0230 -0.1100  0.2684
  488MPD2    H5 7317   0.010   0.127  17.215  1.1213 -0.1346 -1.9131
  488MPD2    N1 7318   4.592   0.292  16.785 -0.4340 -0.1713  0.0173
  488MPD2    H7 7319   4.639   0.367  16.835 -0.8651 -0.2427  0.5324
  489TMC3    C1 7320   0.019   4.715  17.387 -0.6401  0.5561  0.0950
  489TMC3    C2 7321   0.116   0.074  17.387  0.5357  0.8752  0.1846
  489TMC3    C3 7322   0.183   0.099  17.501 -0.7136 -0.0663 -0.1908
  489TMC3    C4 7323   4.721   4.648  17.500 -1.2189  0.6809 -0.0204
  489TMC3    C5 7324   0.045   4.684  17.623 -0.3648 -0.3392  0.2817
  489TMC3    C6 7325   0.144   0.039  17.618 -0.2593 -0.5671 -0.2491
  489TMC3     C 7326   4.680   4.691  17.272  0.3460 -0.0445  0.5464
  489TMC3     O 7327   4.615   4.590  17.274  0.0039  0.0878  0.6335
  489TMC3     H 7328   0.149   0.120  17.294 -0.5055  1.0766 -0.0767
  489TMC3    H1 7329   4.650   4.567  17.498  1.9670 -2.1219 -0.7975
  489TMC3    H2 7330   0.197   0.053  17.711 -0.3170 -0.5408 -0.2201
  489TMC3    C7 7331   0.002   4.622  17.748 -0.1141  0.0482  0.0531
  489TMC3    C8 7332   0.255   0.228  17.508 -0.3087 -0.3136  0.0795
  489TMC3    O1 7333   0.086   4.632   0.081  0.0465  0.5824 -0.1937
  489TMC3    O2 7334   0.285   0.278  17.398  0.1350  0.7183  0.7047
  490MPD2     C 7335   0.870   4.596  17.372  0.0539  0.2076 -0.1003
  490MPD2    C1 7336   0.860   4.515  17.485  0.6866  0.2440 -0.4489
  490MPD2    C2 7337   0.943   4.521  17.597 -0.3377 -0.4525  0.2469
  490MPD2    C3 7338   1.050   4.608  17.602 -0.4556  0.2013 -1.1829
  490MPD2    C4 7339   1.067   4.694  17.490 -0.1779 -0.4976 -0.6660
  490MPD2    C5 7340   0.973   4.689  17.382  0.4470  0.1754  0.1836
  490MPD2     H 7341   0.927   4.451  17.678  0.4706 -1.1088 -0.1620
  490MPD2    H1 7342   1.152   0.022  17.489 -1.5919  1.3170  1.2967
  490MPD2    H2 7343   0.813   4.583  17.281  0.4251 -1.9557 -0.0204
  490MPD2    H3 7344   0.982   0.016  17.297  0.9542  1.7887  1.5027
  490MPD2     N 7345   1.146   4.614  17.703  0.0578 -0.6272  0.4691
  490MPD2    H5 7346   1.224   4.676  17.681  0.8926 -1.9196 -0.2130
  490MPD2    N1 7347   0.761   4.411  17.492 -0.2302 -0.0789 -0.8581
  490MPD2    H7 7348   0.770   4.360  17.579  1.2676 -0.8382 -1.4482
  491TMC3    C1 7349   0.579   4.261  17.453  0.3697  0.0684 -0.1753
  491TMC3    C2 7350   0.610   4.193  17.566  1.0013 -0.3587 -0.6712
  491TMC3    C3 7351   0.533   4.078  17.590  0.3571  0.1045  0.5103
  491TMC3    C4 7352   0.482   4.227  17.364  0.0980  0.3397  0.1097
  491TMC3    C5 7353   0.401   4.124  17.403  0.5864  0.3424 -0.0874
  491TMC3    C6 7354   0.423   4.049  17.516  0.2485  0.8172  0.0113
  491TMC3     C 7355   0.657   4.376  17.406 -0.6928  0.5623  0.3310
  491TMC3     O 7356   0.629   4.426  17.298  0.5607  0.0471 -0.3818
  491TMC3     H 7357   0.689   4.229  17.631 -0.3472  1.1317  0.1553
  491TMC3    H1 7358   0.461   4.282  17.273  3.3457 -0.4408 -1.1088
  491TMC3    H2 7359   0.368   3.960  17.541  1.3317  0.3372  0.7003
  491TMC3    C7 7360   0.283   4.086  17.328  0.6300  0.2403 -0.0865
  491TMC3    C8 7361   0.539   4.016  17.722 -0.7058  0.0580  0.2358
  491TMC3    O1 7362   0.257   3.968  17.326 -0.7092  0.3552 -0.3828
  491TMC3    O2 7363   0.435   3.968   0.014 -0.5377 -0.3313  0.8971
  492MPD2     C 7364   0.432   0.250  11.736  0.1004 -0.3590  0.2529
  492MPD2    C1 7365   0.370   0.145  11.668 -0.3993 -0.8211  0.4243
  492MPD2    C2 7366   0.308   0.042  11.730  0.0855  0.7662 -0.4957
  492MPD2    C3 7367   0.325   0.022  11.867  0.2664  0.4529 -0.0710
  492MPD2    C4 7368   0.391   0.123  11.937  1.1280  0.3107 -0.3060
  492MPD2    C5 7369   0.436   0.236  11.874  0.1710  0.1413 -0.3768
  492MPD2     H 7370   0.267   4.701  11.669 -0.9148 -0.6271  2.0496
  492MPD2    H1 7371   0.399   0.115  12.044 -0.0365 -0.0329 -0.2455
  492MPD2    H2 7372   0.477   0.336  11.688  1.5519 -0.2458  1.8240
  492MPD2    H3 7373   0.474   0.317  11.934 -3.5710 -0.5394  2.8859
  492MPD2     N 7374   0.279   4.650  11.944  0.4885 -0.4217 -0.7794
  492MPD2    H5 7375   0.308   4.644  12.041 -1.0141  0.9026 -0.2546
  492MPD2    N1 7376   0.377   0.165  11.523  0.2303  0.3939  0.0399
  492MPD2    H7 7377   0.421   0.251  11.492 -0.5011 -0.1463 -2.4676
  493TMC3    C1 7378   0.364   0.129  11.283  0.3036  0.3078  0.1132
  493TMC3    C2 7379   0.473   0.212  11.265 -0.6098  0.8033 -0.3443
  493TMC3    C3 7380   0.493   0.254  11.135  0.1816  0.0904 -0.4844
  493TMC3    C4 7381   0.281   0.081  11.191 -0.0439 -0.1509 -0.2207
  493TMC3    C5 7382   0.307   0.126  11.060 -0.2002  0.0214 -0.4726
  493TMC3    C6 7383   0.416   0.207  11.035  0.3216 -0.7121  0.3056
  493TMC3     C 7384   0.338   0.077  11.419 -0.6673  0.3985 -0.2322
  493TMC3     O 7385   0.282   4.709  11.428 -0.4601  0.2841  0.3568
  493TMC3     H 7386   0.526   0.257  11.349 -1.5341  1.7341 -0.2545
  493TMC3    H1 7387   0.185   0.039  11.218  1.6890 -1.7541  3.3369
  493TMC3    H2 7388   0.424   0.232  10.930  1.8175  0.5909  0.7301
  493TMC3    C7 7389   0.222   0.080  10.951  0.1333 -0.5504 -0.4967
  493TMC3    C8 7390   0.612   0.336  11.119 -0.4402 -1.1820 -0.3152
  493TMC3    O1 7391   0.213   0.152  10.851  0.3931  0.0841 -0.1834
  493TMC3    O2 7392   0.698   0.343  11.205 -0.3432 -0.0298  0.1239
  494TMC3    C1 7393   1.384   1.254   0.715 -0.2793  0.0034  0.1110
  494TMC3    C2 7394   1.488   1.163   0.733  0.0499  0.8825 -0.7790
  494TMC3    C3 7395   1.539   1.102   0.619  0.2208  0.3247  0.1449
  494TMC3    C4 7396   1.334   1.284   0.595 -0.2841  0.5556 -0.1041
  494TMC3    C5 7397   1.390   1.225   0.484  0.1934 -0.5089 -0.0105
  494TMC3    C6 7398   1.495   1.144   0.494  0.1735  0.0711  0.2738
  494TMC3     C 7399   1.315   1.291   0.841 -0.5067  0.7769 -0.2701
  494TMC3     O 7400   1.381   1.283   0.943  0.3777  0.3567  0.6690
  494TMC3     H 7401   1.527   1.146   0.832  0.3574  1.0183 -0.8762
  494TMC3    H1 7402   1.263   1.366   0.590 -0.2447  0.6452  0.8158
  494TMC3    H2 7403   1.540   1.109   0.402  1.2337  0.3971  0.6621
  494TMC3    C7 7404   1.376   1.300   0.356 -0.2122 -0.6811 -0.4862
  494TMC3    C8 7405   1.673   1.055   0.624  0.1584  0.2701  0.8333
  494TMC3    O1 7406   1.472   1.328   0.294 -0.0178  0.2817 -0.2621
  494TMC3    O2 7407   1.738   1.072   0.523  0.6915  0.4615 -0.2054
  495TMC3    C1 7408   4.366   3.007  14.712 -0.2894 -0.6353 -0.3790
  495TMC3    C2 7409   4.389   3.094  14.613 -0.6301  0.4068  0.4159
  495TMC3    C3 7410   4.373   3.230  14.635  0.0722 -0.0983  0.3804
  495TMC3    C4 7411   4.376   3.048  14.840 -0.4722  0.2913 -0.5322
  495TMC3    C5 7412   4.369   3.182  14.870  0.5421  0.1407 -0.7297
  495TMC3    C6 7413   4.349   3.276  14.763 -0.4288  0.6449  0.0679
  495TMC3     C 7414   4.306   2.881  14.669 -0.3104  0.1321  0.1052
  495TMC3     O 7415   4.281   2.877  14.548  0.1230 -0.0838 -0.2950
  495TMC3     H 7416   4.393   3.061  14.510 -0.2489 -1.4136  1.0214
  495TMC3    H1 7417   4.390   2.970  14.914 -0.1904  1.1841  0.3533
  495TMC3    H2 7418   4.332   3.381  14.784 -2.3240  0.5360 -0.9068
  495TMC3    C7 7419   4.365   3.209  15.015  0.6500  0.3761  0.2448
  495TMC3    C8 7420   4.282   3.290  14.537  0.1108 -0.5594 -0.1451
  495TMC3    O1 7421   4.446   3.146  15.081  0.7251  0.3522 -0.0433
  495TMC3    O2 7422   4.178   3.324  14.589  0.2146 -0.1341 -0.0014
  496MPD2     C 7423   1.826   3.707  15.798  0.0005  0.1065  0.6295
  496MPD2    C1 7424   1.908   3.605  15.845 -0.4260 -0.1915 -0.0887
  496MPD2    C2 7425   1.893   3.575  15.976  0.2860  0.2368 -0.3132
  496MPD2    C3 7426   1.809   3.642  16.064  0.0753  0.2835  0.2992
  496MPD2    C4 7427   1.721   3.729  16.014  0.1096  0.1252 -0.4076
  496MPD2    C5 7428   1.732   3.763  15.881 -0.1982 -0.3880  0.9121
  496MPD2     H 7429   1.957   3.497  16.013  1.1833  0.3578 -1.6140
  496MPD2    H1 7430   1.653   3.788  16.075 -0.3975 -0.7210 -0.1573
  496MPD2    H2 7431   1.826   3.741  15.695 -1.6762 -0.8789  0.3152
  496MPD2    H3 7432   1.667   3.841  15.843  0.7975 -1.4796 -3.0397
  496MPD2     N 7433   1.792   3.612  16.193  0.3503 -0.0890 -0.0402
  496MPD2    H5 7434   1.720   3.657  16.249  1.9765  1.9201  0.4205
  496MPD2    N1 7435   1.991   3.527  15.750  0.7275 -0.4857 -0.3522
  496MPD2    H7 7436   1.977   3.540  15.651 -1.4618 -0.1828 -0.0115
  497TMC3    C1 7437   1.772   3.493  16.382 -0.1554  0.3909  0.4224
  497TMC3    C2 7438   1.633   3.490  16.365 -0.2787 -0.0038  0.4699
  497TMC3    C3 7439   1.558   3.441  16.464  0.7252  0.0723  0.1951
  497TMC3    C4 7440   1.843   3.431  16.486 -0.5109 -0.1442  0.0950
  497TMC3    C5 7441   1.760   3.371  16.576 -0.0704  0.4647  0.4017
  497TMC3    C6 7442   1.621   3.380  16.568  0.1168  0.2052  0.8822
  497TMC3     C 7443   1.848   3.512  16.266 -0.5175 -0.0049  1.0130
  497TMC3     O 7444   1.946   3.446  16.240  0.4133  0.2387 -0.2440
  497TMC3     H 7445   1.591   3.506  16.267  0.8773  2.7020  0.4075
  497TMC3    H1 7446   1.951   3.419  16.486 -0.5006 -0.0418 -1.2618
  497TMC3    H2 7447   1.560   3.329  16.642 -1.3215  3.7541  2.0942
  497TMC3    C7 7448   1.813   3.281  16.684 -0.4429  0.5078  0.4506
  497TMC3    C8 7449   1.423   3.392  16.438 -0.0004  0.2899  0.0646
  497TMC3    O1 7450   1.733   3.209  16.746  0.4599  0.7925 -0.2069
  497TMC3    O2 7451   1.387   3.300  16.510 -0.2215  0.6489  0.9458
  498MPD2     C 7452   2.443   4.265   9.820  0.2542 -0.1118  0.6417
  498MPD2    C1 7453   2.468   4.339   9.933 -0.2904 -0.0935 -0.6229
  498MPD2    C2 7454   2.392   4.315  10.049 -0.3921  0.7530 -0.0541
  498MPD2    C3 7455   2.284   4.232  10.052  0.0341  0.7132 -1.0131
  498MPD2    C4 7456   2.261   4.159   9.939 -0.4337 -0.2830 -0.6942
  498MPD2    C5 7457   2.340   4.173   9.828 -0.3087 -0.0952 -0.4285
  498MPD2     H 7458   2.411   4.380  10.133  1.1221  0.3134 -0.0572
  498MPD2    H1 7459   2.188   4.080   9.924  0.5793 -1.3999  0.2976
  498MPD2    H2 7460   2.494   4.275   9.724  1.1675 -2.3635  0.8901
  498MPD2    H3 7461   2.334   4.097   9.751  0.2142 -0.6976  0.1195
  498MPD2     N 7462   2.211   4.229  10.171  0.2241 -0.9077  0.4005
  498MPD2    H5 7463   2.249   4.289  10.244 -0.7943  1.6070 -1.1390
  498MPD2    N1 7464   2.570   4.435   9.944 -0.4107  0.0779  0.4007
  498MPD2    H7 7465   2.573   4.481  10.035 -0.5954  0.5226  0.1854
  499TMC3    C1 7466   2.768   4.566   9.911 -0.3857  0.2475  0.0521
  499TMC3    C2 7467   2.734   4.631  10.022  0.0315  0.0645  0.9239
  499TMC3    C3 7468   2.834   4.684  10.101  0.4248 -0.0910 -0.3513
  499TMC3    C4 7469   2.896   4.547   9.878  0.1538 -0.9404 -0.0935
  499TMC3    C5 7470   2.990   4.583   9.973 -0.9777  0.7077 -0.4429
  499TMC3    C6 7471   2.960   4.653  10.084 -0.1902 -0.0599 -0.4826
  499TMC3     C 7472   2.668   4.477   9.851  0.2116  0.3974  0.1634
  499TMC3     O 7473   2.703   4.422   9.747  0.4161  0.7190 -0.1829
  499TMC3     H 7474   2.629   4.642  10.046  0.2104 -2.0360  2.6706
  499TMC3    H1 7475   2.926   4.482   9.796  0.1724 -2.7395  1.3291
  499TMC3    H2 7476   3.041   4.693  10.144 -0.6435  0.5474 -0.2723
  499TMC3    C7 7477   3.125   4.573   9.941 -0.2799 -0.2239  0.2568
  499TMC3    C8 7478   2.795   0.021  10.227 -0.4539  0.0240 -0.8474
  499TMC3    O1 7479   3.195   4.563  10.039 -0.6569 -0.5111  0.2690
  499TMC3    O2 7480   2.688   4.737  10.282  0.0627 -0.6641 -0.4117
  500MPD2     C 7481   3.899   0.567  11.210  0.1913 -0.0971  0.3339
  500MPD2    C1 7482   3.895   0.694  11.147 -0.5258 -0.3573 -0.0127
  500MPD2    C2 7483   3.870   0.696  11.011 -0.0297 -0.2273  1.1065
  500MPD2    C3 7484   3.852   0.585  10.939 -0.6613 -0.3190 -0.5183
  500MPD2    C4 7485   3.862   0.457  11.003 -0.5232 -0.5745  0.4754
  500MPD2    C5 7486   3.889   0.454  11.138  0.2045 -0.0965 -0.1866
  500MPD2     H 7487   3.877   0.797  10.973  0.9326  0.7515  3.8887
  500MPD2    H1 7488   3.860   0.365  10.946  1.3541 -1.2643  1.5376
  500MPD2    H2 7489   3.931   0.556  11.313  3.0851  1.0983 -0.4275
  500MPD2    H3 7490   3.914   0.357  11.179  1.1277  1.6669  3.3992
  500MPD2     N 7491   3.818   0.580  10.807 -0.0911  0.3899 -0.8237
  500MPD2    H5 7492   3.819   0.491  10.758  1.3777  1.1060 -2.0739
  500MPD2    N1 7493   3.930   0.818  11.218 -0.2302  1.1635 -0.1671
  500MPD2    H7 7494   3.917   0.894  11.151 -0.7340 -0.4337 -1.8769
  501TMC3    C1 7495   4.019   0.961  11.389 -0.3693  0.7234  0.0475
  501TMC3    C2 7496   4.050   1.045  11.291 -0.5922  0.3407  0.2477
  501TMC3    C3 7497   4.116   1.160  11.333 -0.0267  0.2181 -0.4455
  501TMC3    C4 7498   4.083   0.964  11.509  0.0688  0.1963 -0.6169
  501TMC3    C5 7499   4.154   1.074  11.546 -0.0321 -0.3714  0.2462
  501TMC3    C6 7500   4.164   1.180  11.463  0.0906  0.2649  0.4399
  501TMC3     C 7501   3.968   0.831  11.347 -0.4083  0.2183  0.6644
  501TMC3     O 7502   3.974   0.744  11.435 -0.5739 -0.2277  0.3544
  501TMC3     H 7503   4.009   1.036  11.191 -1.1899  2.2768  0.3021
  501TMC3    H1 7504   4.101   0.880  11.576  2.4539  2.2273  1.3014
  501TMC3    H2 7505   4.231   1.261  11.488 -0.3336 -0.1546  2.9909
  501TMC3    C7 7506   4.278   1.056  11.624 -0.2208  0.1893  0.2944
  501TMC3    C8 7507   4.158   1.251  11.225 -0.1494 -0.7394  0.3420
  501TMC3    O1 7508   4.381   1.088  11.572  0.4785 -0.1759 -0.3966
  501TMC3    O2 7509   4.265   1.306  11.236 -0.1168 -0.3506  0.2529
  502TMC3    C1 7510   3.985   4.075  15.745 -0.3522 -0.3955  0.0960
  502TMC3    C2 7511   4.044   4.158  15.649  0.7421  0.6069  0.3521
  502TMC3    C3 7512   3.995   4.278  15.623 -0.5081  0.3730  0.5339
  502TMC3    C4 7513   3.896   4.133  15.838 -0.2389  0.2859 -0.4010
  502TMC3    C5 7514   3.847   4.256  15.805  0.7899  0.2749  0.2390
  502TMC3    C6 7515   3.894   4.335  15.698 -0.4373 -0.1721  0.5114
  502TMC3     C 7516   4.060   3.960  15.798 -0.0726 -0.3621 -0.3673
  502TMC3     O 7517   4.180   3.967  15.791 -0.1565 -0.4454 -0.6954
  502TMC3     H 7518   4.122   4.107  15.593 -1.6688  0.7038 -3.0857
  502TMC3    H1 7519   3.854   4.068  15.913 -2.1697  3.7065  1.4620
  502TMC3    H2 7520   3.858   4.432  15.666  1.6969 -0.0086 -1.4098
  502TMC3    C7 7521   3.705   4.285  15.824 -0.3449  0.0907 -0.2294
  502TMC3    C8 7522   4.050   4.345  15.513 -0.4104  0.0429 -0.6396
  502TMC3    O1 7523   3.661   4.372  15.750  0.0148 -0.2831 -0.3992
  502TMC3    O2 7524   4.083   4.458  15.539 -0.8113 -0.3021 -0.0826
  503MPD2     C 7525   1.834   0.094  16.916  0.0203 -0.3219 -0.6030
  503MPD2    C1 7526   1.850   0.101  17.056  0.4673  0.1326  0.2357
  503MPD2    C2 7527   1.897   4.733  17.121  0.0654 -0.3924 -0.1962
  503MPD2    C3 7528   1.928   4.617  17.049 -0.3631  0.2178  0.3306
  503MPD2    C4 7529   1.909   4.611  16.913 -0.1552 -0.4665 -0.4000
  503MPD2    C5 7530   1.862   4.718  16.846  0.0896 -0.0228 -0.6870
  503MPD2     H 7531   1.913   4.720  17.227 -2.1659 -4.2587 -0.3239
  503MPD2    H1 7532   1.942   4.530  16.850 -1.1233  0.4537 -2.0828
  503MPD2    H2 7533   1.818   0.181  16.854 -0.4998 -1.3093 -1.8379
  503MPD2    H3 7534   1.855   4.709  16.739  1.3352 -2.7629 -0.5187
  503MPD2     N 7535   1.995   4.514  17.122 -0.2015 -0.2234 -0.8066
  503MPD2    H5 7536   2.031   4.540  17.213 -0.5223 -0.2452 -0.6748
  503MPD2    N1 7537   1.817   0.213  17.136 -0.5600  0.0859 -0.0382
  503MPD2    H7 7538   1.846   0.205  17.233 -0.1870  2.7569  0.0690
  504TMC3    C1 7539   2.094   4.310  17.154  0.1892  0.6235  0.1419
  504TMC3    C2 7540   2.067   4.300  17.290  0.1550 -0.4234 -1.0865
  504TMC3    C3 7541   2.163   4.303  17.386  0.2858  0.2116 -0.1647
  504TMC3    C4 7542   2.224   4.343  17.120 -0.4017 -1.1048  0.0322
  504TMC3    C5 7543   2.319   4.357  17.219  0.0964  0.0081  0.1209
  504TMC3    C6 7544   2.295   4.336  17.356 -0.3085  1.1274 -0.1016
  504TMC3     C 7545   2.004   4.389  17.072 -0.2363 -0.2409  0.2799
  504TMC3     O 7546   1.956   4.334  16.981  0.5706 -0.4704  0.1626
  504TMC3     H 7547   1.965   4.290  17.324  0.3532  1.0584 -0.0552
  504TMC3    H1 7548   2.237   4.368  17.015  2.0124 -0.6392  0.4525
  504TMC3    H2 7549   2.380   4.328  17.423  0.3105 -2.3193 -1.3086
  504TMC3    C7 7550   2.420   4.450  17.184 -0.1570 -1.0746  0.0965
  504TMC3    C8 7551   2.144   4.219  17.499 -0.2562 -0.1090  0.6240
  504TMC3    O1 7552   2.469   4.442  17.072 -0.3587  0.1595  0.4077
  504TMC3    O2 7553   2.061   4.130  17.492  0.6599 -0.0574  0.5368
  505MPD2     C 7554   1.494   4.439  11.456 -0.6315  0.7005 -0.6095
  505MPD2    C1 7555   1.620   4.372  11.459 -0.2536  0.6010 -0.9129
  505MPD2    C2 7556   1.735   4.447  11.434 -0.3515  0.2326 -0.0275
  505MPD2    C3 7557   1.730   4.586  11.420 -0.4087  0.2697 -0.5719
  505MPD2    C4 7558   1.609   4.648  11.424  0.5347  0.0929  0.7346
  505MPD2    C5 7559   1.494   4.574  11.437 -0.3839 -0.2075 -0.0496
  505MPD2     H 7560   1.830   4.395  11.431  1.0507  2.6703  1.8483
  505MPD2    H1 7561   1.596   0.015  11.405 -2.7212 -0.2526  0.9976
  505MPD2    H2 7562   1.394   4.397  11.458 -0.5018  0.4143 -0.3425
  505MPD2    H3 7563   1.403   4.632  11.445 -0.6385 -0.5247 -0.6356
  505MPD2     N 7564   1.846   4.665  11.402  0.5730 -0.1780 -0.3964
  505MPD2    H5 7565   1.830   0.026  11.393 -1.0543 -0.1719  2.7307
  505MPD2    N1 7566   1.618   4.235  11.479  0.2619 -0.5383 -0.6075
  505MPD2    H7 7567   1.530   4.185  11.481  0.5023 -0.9275  0.0273
  506TMC3    C1 7568   1.731   4.026  11.504 -0.4009 -0.4290  0.2253
  506TMC3    C2 7569   1.674   3.972  11.380  0.8886  0.0419  0.3538
  506TMC3    C3 7570   1.747   3.878  11.315 -0.1768  0.9581 -0.8376
  506TMC3    C4 7571   1.841   3.969  11.555  0.1467 -0.4356 -0.2753
  506TMC3    C5 7572   1.904   3.870  11.488 -0.5386 -0.0173  0.6274
  506TMC3    C6 7573   1.865   3.826  11.370 -0.0615  0.3422  0.0956
  506TMC3     C 7574   1.730   4.171  11.517 -0.2664  0.5039 -0.2619
  506TMC3     O 7575   1.831   4.212  11.564  0.1597  0.8726  0.0133
  506TMC3     H 7576   1.588   4.020  11.334  0.8931  0.9425  1.2890
  506TMC3    H1 7577   1.872   3.994  11.655 -0.9636 -2.6769  0.6467
  506TMC3    H2 7578   1.925   3.748  11.324 -1.4313 -0.3244 -0.5570
  506TMC3    C7 7579   2.051   3.886  11.496  0.7614 -0.4559 -0.0158
  506TMC3    C8 7580   1.746   3.865  11.166 -0.5825  0.5760  0.0529
  506TMC3    O1 7581   2.116   3.790  11.465  0.3390 -0.0566 -0.1708
  506TMC3    O2 7582   1.848   3.820  11.111 -0.5673  0.3579 -0.4579
  507TMC3    C1 7583   2.679   4.455  14.886 -0.3519 -0.5545 -0.3132
  507TMC3    C2 7584   2.637   4.379  14.780  0.5287 -0.7910  0.0281
  507TMC3    C3 7585   2.706   4.393  14.656 -0.0467 -0.1420 -0.6653
  507TMC3    C4 7586   2.788   4.538  14.872 -0.0300  0.3349 -0.0703
  507TMC3    C5 7587   2.856   4.546  14.755  0.6116  1.2220  0.0019
  507TMC3    C6 7588   2.815   4.474  14.646 -0.0181  0.5800  0.0459
  507TMC3     C 7589   2.623   4.429  15.020 -0.2897 -0.0031 -1.0868
  507TMC3     O 7590   2.681   4.476  15.117 -0.4400 -0.0801 -0.2630
  507TMC3     H 7591   2.540   4.330  14.782  0.6126 -0.9096  1.1979
  507TMC3    H1 7592   2.806   4.592  14.964  0.0299 -0.4148  0.3605
  507TMC3    H2 7593   2.869   4.485  14.552 -1.5938  0.6194 -0.8600
  507TMC3    C7 7594   2.900   4.679  14.721  0.2823  0.2269  0.1418
  507TMC3    C8 7595   2.610   4.430  14.556 -0.2627  0.1991 -0.2284
  507TMC3    O1 7596   2.860   4.720  14.610 -0.4072 -0.0695  0.0794
  507TMC3    O2 7597   2.516   4.359  14.530  0.2087 -0.4010 -0.2493
  508MPD2     C 7598   3.272   2.018  16.208 -0.1946 -0.0248  0.0508
  508MPD2    C1 7599   3.408   2.002  16.202  0.2311 -0.2050 -0.4733
  508MPD2    C2 7600   3.476   2.032  16.088  0.7359  0.1363  0.2243
  508MPD2    C3 7601   3.407   2.097  15.978 -0.2307 -0.1754  0.1461
  508MPD2    C4 7602   3.273   2.108  15.983  0.8970 -0.5485 -0.3623
  508MPD2    C5 7603   3.204   2.070  16.100  0.3103  1.0664  0.4026
  508MPD2     H 7604   3.583   2.020  16.075  0.5795 -0.4381 -0.5926
  508MPD2    H1 7605   3.203   2.146  15.909  0.1096 -2.5570 -0.6493
  508MPD2    H2 7606   3.212   2.005  16.298 -0.7712 -1.4878 -0.5445
  508MPD2    H3 7607   3.096   2.082  16.102  0.0885 -0.8898  1.0655
  508MPD2     N 7608   3.482   2.156  15.876 -0.2016 -0.0926  0.5827
  508MPD2    H5 7609   3.579   2.129  15.881 -0.2553  0.3612  3.7882
  508MPD2    N1 7610   3.468   1.945  16.318 -0.3090 -0.3144 -0.3608
  508MPD2    H7 7611   3.413   1.927  16.401  1.0159  0.7593  0.7406
  509TMC3    C1 7612   3.568   2.524  15.623 -0.6396 -0.9194  0.2332
  509TMC3    C2 7613   3.694   2.527  15.668  0.0725  0.6049  0.0921
  509TMC3    C3 7614   3.743   2.420  15.737 -0.2121 -0.4522  0.2821
  509TMC3    C4 7615   3.474   2.428  15.646  0.2243 -0.0614  0.0967
  509TMC3    C5 7616   3.527   2.320  15.708 -0.1489  0.2763  0.2776
  509TMC3    C6 7617   3.659   2.315  15.755  0.2618  0.3924 -0.1970
  509TMC3     C 7618   3.514   2.656  15.596 -0.6121 -0.6067  0.0495
  509TMC3     O 7619   3.590   2.731  15.532  0.0233 -0.1304 -0.2254
  509TMC3     H 7620   3.762   2.604  15.635  0.1308  1.3159  1.8538
  509TMC3    H1 7621   3.379   2.427  15.595 -0.3596  0.2972  1.1712
  509TMC3    H2 7622   3.703   2.222  15.791 -0.9690  0.0788  0.5024
  509TMC3    C7 7623   3.433   2.245  15.784 -0.4387  0.2782 -0.0515
  509TMC3    C8 7624   3.789   2.466  15.867  0.1273  0.7488  0.4656
  509TMC3    O1 7625   3.324   2.301  15.781  0.6437  0.3695  0.2818
  509TMC3    O2 7626   3.838   2.377  15.940 -0.0491  0.1784 -0.2800
  510MPD2     C 7627   0.975   3.998  14.942 -0.0817 -0.3866  0.4945
  510MPD2    C1 7628   1.081   3.931  15.005 -0.5474 -0.3523 -0.3842
  510MPD2    C2 7629   1.194   3.900  14.930 -0.9647 -0.0919 -0.3346
  510MPD2    C3 7630   1.197   3.924  14.791 -0.0120 -0.1450 -0.0059
  510MPD2    C4 7631   1.087   3.966  14.728  0.0245  0.6131 -0.0983
  510MPD2    C5 7632   0.978   4.002  14.803 -0.2858 -0.5448  0.3373
  510MPD2     H 7633   1.277   3.856  14.984 -1.4608  0.8479  1.1942
  510MPD2    H1 7634   1.083   3.977  14.620  0.0968  0.6671 -0.0955
  510MPD2    H2 7635   0.880   4.018  14.990  0.1326  1.2266  0.2636
  510MPD2    H3 7636   0.903   4.053  14.744 -0.4179 -0.1512  0.8444
  510MPD2     N 7637   1.311   3.877  14.729 -0.6153  0.2404 -0.8653
  510MPD2    H5 7638   1.380   3.842  14.795 -1.8217  2.4140  1.5606
  510MPD2    N1 7639   1.077   3.878  15.140 -0.5870  0.0937 -0.0467
  510MPD2    H7 7640   1.012   3.926  15.201  1.1854  0.6040  1.4371
  511TMC3    C1 7641   1.123   3.736  15.332 -0.6004 -0.4162 -0.4998
  511TMC3    C2 7642   1.022   3.787  15.399 -0.5487 -0.5560  0.7696
  511TMC3    C3 7643   0.966   3.724  15.508  0.2268 -0.3297 -0.0850
  511TMC3    C4 7644   1.172   3.613  15.371  0.1311 -0.0401  0.4075
  511TMC3    C5 7645   1.116   3.557  15.478 -0.2054  0.8039  0.7248
  511TMC3    C6 7646   1.014   3.607  15.554 -1.3797  0.0071 -0.0750
  511TMC3     C 7647   1.152   3.776  15.195 -0.2901  0.5891  0.1951
  511TMC3     O 7648   1.249   3.718  15.146  0.0381 -0.2917 -0.7776
  511TMC3     H 7649   0.965   3.875  15.370  1.8889  1.3647  1.9222
  511TMC3    H1 7650   1.258   3.576  15.316  1.3122  0.5966  1.8159
  511TMC3    H2 7651   0.973   3.560  15.643  1.7731  0.4504  1.6057
  511TMC3    C7 7652   1.089   3.418  15.459 -0.6634 -0.6635 -0.3125
  511TMC3    C8 7653   0.864   3.789  15.582  0.1809  0.2800 -0.5822
  511TMC3    O1 7654   1.076   3.349  15.560 -0.1721 -0.1267 -0.1542
  511TMC3    O2 7655   0.863   3.915  15.579  0.5458 -0.2796 -0.5480
  512TMC3    C1 7656   4.734   3.416  13.452  0.9634  0.7007 -0.8969
  512TMC3    C2 7657   0.130   3.429  13.485 -0.5950  0.2952 -1.2052
  512TMC3    C3 7658   0.214   3.325  13.449 -0.4412 -0.3554  0.0921
  512TMC3    C4 7659   4.684   3.310  13.386  0.3395 -0.2301  0.1820
  512TMC3    C5 7660   0.031   3.213  13.339  0.2760  0.5776 -0.2676
  512TMC3    C6 7661   0.167   3.225  13.370 -0.6382 -0.0064  0.0120
  512TMC3     C 7662   4.631   3.522  13.486 -0.5059 -0.1920 -0.2271
  512TMC3     O 7663   4.649   3.599  13.582  0.0028  0.1178  0.5754
  512TMC3     H 7664   0.163   3.511  13.546  0.4430 -0.7677 -0.3546
  512TMC3    H1 7665   4.582   3.296  13.354  0.0920  0.6398  0.5976
  512TMC3    H2 7666   0.230   3.146  13.330  0.8615  1.0899  0.2135
  512TMC3    C7 7667   4.705   3.134  13.231  1.0258 -0.1671  0.0298
  512TMC3    C8 7668   0.339   3.310  13.516  0.2384 -0.6761 -0.0100
  512TMC3    O1 7669   4.642   3.195  13.146  0.3595 -0.1424 -0.7217
  512TMC3    O2 7670   0.369   3.193  13.546 -0.8567  0.2023  0.3900
  513MPD2     C 7671   1.504   3.166  13.744 -0.6679 -0.4431  0.2496
  513MPD2    C1 7672   1.624   3.145  13.684 -0.0724  0.6518  0.5572
  513MPD2    C2 7673   1.733   3.200  13.743  0.1796  0.0208 -0.1284
  513MPD2    C3 7674   1.727   3.285  13.855  0.0627  0.0094 -0.5101
  513MPD2    C4 7675   1.610   3.300  13.917 -0.1372 -0.2045 -0.1571
  513MPD2    C5 7676   1.500   3.247  13.857 -0.5488  0.7709  0.0470
  513MPD2     H 7677   1.834   3.174  13.713  0.2684 -2.9317  2.7299
  513MPD2    H1 7678   1.602   3.361  14.007  0.7622 -0.0312 -0.1875
  513MPD2    H2 7679   1.414   3.119  13.708  0.1495 -0.5103 -1.6985
  513MPD2    H3 7680   1.405   3.242  13.908  0.3983 -1.4225  1.6249
  513MPD2     N 7681   1.851   3.327  13.907 -0.5855  0.2689 -0.0450
  513MPD2    H5 7682   1.933   3.312  13.848 -0.4762 -1.1041  0.4540
  513MPD2    N1 7683   1.626   3.069  13.564  0.2742 -0.3032 -0.2971
  513MPD2    H7 7684   1.538   3.020  13.549  0.0747 -0.2009  0.5389
  514TMC3    C1 7685   1.842   3.129  13.475 -0.4712 -0.8845 -0.0634
  514TMC3    C2 7686   1.806   3.258  13.441 -0.1504  0.0748  0.2081
  514TMC3    C3 7687   1.893   3.318  13.355  0.5305 -0.2736  0.8606
  514TMC3    C4 7688   1.949   3.059  13.423 -0.2837  0.3736 -0.4359
  514TMC3    C5 7689   2.040   3.136  13.358 -0.5829  0.6825  0.4861
  514TMC3    C6 7690   2.015   3.267  13.320 -0.3039 -0.5161  0.7648
  514TMC3     C 7691   1.734   3.036  13.484 -0.0714  0.4735 -0.3504
  514TMC3     O 7692   1.742   2.944  13.404 -0.3392  0.4657  0.4098
  514TMC3     H 7693   1.707   3.294  13.463 -0.0063  0.4699  0.2108
  514TMC3    H1 7694   1.982   2.962  13.458  2.2346  1.2550 -0.3901
  514TMC3    H2 7695   2.086   3.332  13.269 -2.4212  0.4842 -0.9158
  514TMC3    C7 7696   2.138   3.059  13.292 -0.1270  0.6263  1.0415
  514TMC3    C8 7697   1.841   3.426  13.282 -0.7356 -0.1260  0.1715
  514TMC3    O1 7698   2.089   2.986  13.207  0.0111 -0.3271  0.4635
  514TMC3    O2 7699   1.756   3.488  13.338  0.1386  0.0524  0.1919
  515MPD2     C 7700   0.311   4.379  15.383 -0.3447  0.3215 -0.2045
  515MPD2    C1 7701   0.239   4.448  15.295 -0.3588 -0.2486 -0.2202
  515MPD2    C2 7702   0.221   4.579  15.323  0.0321 -0.5329  0.3010
  515MPD2    C3 7703   0.295   4.646  15.420  0.2668  0.1959 -0.2175
  515MPD2    C4 7704   0.379   4.574  15.498  0.2781 -0.0600 -0.4802
  515MPD2    C5 7705   0.381   4.437  15.483 -0.4982  0.0985  0.2824
  515MPD2     H 7706   0.163   4.637  15.253  0.2820 -1.2862 -0.5341
  515MPD2    H1 7707   0.444   4.621  15.570  3.9395 -2.6469 -2.0904
  515MPD2    H2 7708   0.324   4.273  15.362 -3.2104 -0.3405  1.3347
  515MPD2    H3 7709   0.442   4.376  15.549 -1.6209  1.7637  2.8967
  515MPD2     N 7710   0.298   0.048  15.433  0.9391 -0.8634  0.3649
  515MPD2    H5 7711   0.366   0.079  15.501  0.4150  1.0813  0.0198
  515MPD2    N1 7712   0.177   4.408  15.173  0.3150  0.1954 -0.5073
  515MPD2    H7 7713   0.106   4.470  15.136 -0.0825  0.4298  0.6570
  516TMC3    C1 7714   0.117   4.268  14.994  0.6848  0.3312 -0.4912
  516TMC3    C2 7715   0.073   4.372  14.914 -0.8147  0.3596 -0.0009
  516TMC3    C3 7716   4.699   4.348  14.838  0.6895  0.7616 -0.1445
  516TMC3    C4 7717   0.060   4.144  14.984  0.0479  0.4495 -0.4860
  516TMC3    C5 7718   4.697   4.127  14.902  0.3639 -0.1158  0.3248
  516TMC3    C6 7719   4.637   4.224  14.823 -0.1405  0.3279  0.5024
  516TMC3     C 7720   0.208   4.289  15.111  0.4689  0.1529  1.0275
  516TMC3     O 7721   0.259   4.198  15.163 -0.4276 -0.1760  0.2520
  516TMC3     H 7722   0.140   4.457  14.908  0.5817 -0.6237  1.5992
  516TMC3    H1 7723   0.095   4.059  15.041  0.3860  1.0336  0.1874
  516TMC3    H2 7724   4.540   4.213  14.775  0.3671 -1.5470 -0.1000
  516TMC3    C7 7725   4.611   4.025  14.956 -0.4235  0.3469 -0.0898
  516TMC3    C8 7726   4.633   4.455  14.756  0.1593 -0.4868 -0.3847
  516TMC3    O1 7727   4.616   4.010  15.079 -0.4107 -0.1566 -0.1951
  516TMC3    O2 7728   4.540   4.415  14.683 -0.2184 -0.0513 -0.3011
  517MPD2     C 7729   0.267   1.700   0.359 -0.2001  0.1433  0.1174
  517MPD2    C1 7730   0.392   1.698   0.417  0.9719 -0.0804 -0.1099
  517MPD2    C2 7731   0.439   1.824   0.453  1.0691  0.1100  1.1459
  517MPD2    C3 7732   0.363   1.938   0.456  0.4265  0.0199  0.4498
  517MPD2    C4 7733   0.241   1.937   0.401  0.2903 -0.0834 -0.4196
  517MPD2    C5 7734   0.194   1.817   0.344 -0.3183  0.4654  0.1863
  517MPD2     H 7735   0.543   1.836   0.479  1.6642 -0.0695 -1.2017
  517MPD2    H1 7736   0.179   2.026   0.406  1.9966  1.0145  0.8852
  517MPD2    H2 7737   0.221   1.615   0.310  1.1344 -1.8289  2.3356
  517MPD2    H3 7738   0.099   1.809   0.293 -1.3186 -0.2406  2.1641
  517MPD2     N 7739   0.413   2.058   0.511  0.4032  0.3629 -0.1777
  517MPD2    H5 7740   0.349   2.138   0.504  0.0639  0.3004  2.4931
  517MPD2    N1 7741   0.481   1.591   0.404  0.3068 -0.0664 -1.0231
  517MPD2    H7 7742   0.579   1.610   0.423 -0.1641  1.0057  0.3497
  518TMC3    C1 7743   0.567   1.377   0.335  0.1111 -0.0729 -0.0941
  518TMC3    C2 7744   0.537   1.247   0.338 -0.0271 -0.1079 -0.1220
  518TMC3    C3 7745   0.618   1.157   0.270  0.1702 -0.0705  0.0501
  518TMC3    C4 7746   0.667   1.423   0.256  0.8037  0.4770 -0.4005
  518TMC3    C5 7747   0.743   1.335   0.190 -0.4335  0.0994  0.0075
  518TMC3    C6 7748   0.724   1.196   0.198 -0.1526 -0.4538 -0.2501
  518TMC3     C 7749   0.458   1.465   0.356 -0.0198 -0.4014  0.2957
  518TMC3     O 7750   0.350   1.411   0.344 -0.6408  0.0727 -0.2233
  518TMC3     H 7751   0.457   1.208   0.401 -0.2153  0.1749 -0.1867
  518TMC3    H1 7752   0.681   1.527   0.227  2.2843  0.7005  1.0747
  518TMC3    H2 7753   0.773   1.129   0.128  1.1023 -1.5094  1.6622
  518TMC3    C7 7754   0.831   1.395   0.089  0.5284 -0.5675  0.0027
  518TMC3    C8 7755   0.623   1.023   0.318  0.1847  0.1947 -0.0529
  518TMC3    O1 7756   0.817   1.508   0.054 -0.1288 -0.3894  0.4062
  518TMC3    O2 7757   0.613   1.014   0.443  0.1759 -0.2886 -0.4749
  519MPD2     C 7758   1.378   4.644  14.892 -0.6457 -0.2709 -0.6490
  519MPD2    C1 7759   1.361   4.715  14.781 -0.1054  0.3577  0.0740
  519MPD2    C2 7760   1.468   0.011  14.694 -0.3720  0.0558  0.2752
  519MPD2    C3 7761   1.590   4.692  14.718 -0.3306 -0.5008  0.0087
  519MPD2    C4 7762   1.607   4.624  14.838  0.3551 -0.0366 -0.3481
  519MPD2    C5 7763   1.506   4.594  14.921 -0.3075  0.0912  0.2267
  519MPD2     H 7764   1.457   0.065  14.601  0.7748  0.4685  0.3785
  519MPD2    H1 7765   1.697   4.564  14.851  1.1108  0.6133 -2.5283
  519MPD2    H2 7766   1.292   4.603  14.942  0.5064  0.2849  1.7601
  519MPD2    H3 7767   1.526   4.521  14.997  0.1782 -0.6532 -0.6141
  519MPD2     N 7768   1.687   4.682  14.622  0.6993 -0.3558 -0.1997
  519MPD2    H5 7769   1.759   4.611  14.633  0.2364 -0.8148 -0.1521
  519MPD2    N1 7770   1.231   0.015  14.743  0.6500  0.2437  0.1914
  519MPD2    H7 7771   1.152   4.717  14.794  0.5055  0.4316  0.1080
  520TMC3    C1 7772   1.810   0.007  14.424 -1.3050  0.5501 -0.3476
  520TMC3    C2 7773   1.797   0.070  14.305  0.2348  0.1232 -0.2167
  520TMC3    C3 7774   1.865   0.018  14.201  0.3837  0.3235  0.0042
  520TMC3    C4 7775   1.904   4.647  14.442  0.2222 -0.8740  0.3048
  520TMC3    C5 7776   1.976   4.601  14.330 -0.2708 -0.0798 -0.3911
  520TMC3    C6 7777   1.956   4.657  14.212 -0.1589 -0.3008 -0.4453
  520TMC3     C 7778   1.713   0.045  14.529 -0.8207 -0.3468 -0.0727
  520TMC3     O 7779   1.670   0.158  14.534 -0.3060 -0.0091  0.9106
  520TMC3     H 7780   1.706   0.127  14.290 -1.5440 -2.3724  1.0013
  520TMC3    H1 7781   1.937   4.620  14.542 -0.2046 -0.0072  0.6776
  520TMC3    H2 7782   2.000   4.624  14.119  1.3234  2.5649 -0.7803
  520TMC3    C7 7783   2.069   4.494  14.352  0.2381 -0.3921  0.6951
  520TMC3    C8 7784   1.811   0.042  14.069  0.2424  0.9302 -0.2643
  520TMC3    O1 7785   2.119   4.483  14.465 -0.0121 -0.2530 -0.4753
  520TMC3    O2 7786   1.893   0.068  13.980 -0.6745 -0.5899 -0.0358
  521MPD2     C 7787   2.519   2.551   0.006  0.2654  0.2147  0.7800
  521MPD2    C1 7788   2.472   2.515  17.638  0.1795 -0.3295 -0.0764
  521MPD2    C2 7789   2.543   2.542  17.526  0.1624 -0.1163  0.3837
  521MPD2    C3 7790   2.666   2.600  17.549  0.2319  0.0072 -0.6157
  521MPD2    C4 7791   2.711   2.649  17.670  0.0032 -0.7900 -0.1284
  521MPD2    C5 7792   2.630   2.627   0.023 -1.2215 -0.1846 -0.3071
  521MPD2     H 7793   2.501   2.504  17.433  0.5219 -0.5098  0.3811
  521MPD2    H1 7794   2.798   2.711  17.684 -1.6700  1.5175 -0.0761
  521MPD2    H2 7795   2.464   2.523   0.095  1.2283  0.9079  1.5905
  521MPD2    H3 7796   2.663   2.648   0.125 -2.3720  0.3052 -0.0431
  521MPD2     N 7797   2.752   2.601  17.437 -0.1262  0.0009 -0.7145
  521MPD2    H5 7798   2.705   2.565  17.355  0.3045  1.2783 -1.5209
  521MPD2    N1 7799   2.330   2.473  17.629 -0.6601 -0.2611  0.5181
  521MPD2    H7 7800   2.277   2.447  17.711 -0.7196 -0.8506  0.2980
  522TMC3    C1 7801   2.948   2.584  17.308 -0.4553 -0.0591  0.1911
  522TMC3    C2 7802   3.075   2.548  17.312 -0.1427  0.1320 -0.1528
  522TMC3    C3 7803   3.135   2.522  17.191  0.0573  0.1259  0.3699
  522TMC3    C4 7804   2.883   2.620  17.198  0.4083 -0.3143  0.1587
  522TMC3    C5 7805   2.941   2.592  17.080  0.2441 -0.8795  0.5051
  522TMC3    C6 7806   3.068   2.544  17.070 -0.6359  0.5808  0.1526
  522TMC3     C 7807   2.890   2.621  17.438 -0.5045  0.2420  0.4664
  522TMC3     O 7808   2.968   2.639  17.528  0.2593 -0.5319 -0.1756
  522TMC3     H 7809   3.129   2.537  17.405  1.5600 -0.0740 -1.1684
  522TMC3    H1 7810   2.782   2.659  17.207 -0.2789 -1.9590 -0.5136
  522TMC3    H2 7811   3.113   2.527  16.973  0.6847  0.8159  0.7236
  522TMC3    C7 7812   2.898   2.680  16.970 -0.1774  0.7118 -0.3679
  522TMC3    C8 7813   3.281   2.479  17.197  0.1651  0.6159 -0.2395
  522TMC3    O1 7814   2.985   2.709  16.889  0.4090  0.3336  0.4526
  522TMC3    O2 7815   3.347   2.515  17.293 -0.4370  0.2455 -0.8272
  523MPD2     C 7816   0.139   3.314   9.982 -0.0490  0.0198  1.1726
  523MPD2    C1 7817   0.030   3.291  10.064 -0.0804  0.5496  0.7221
  523MPD2    C2 7818   4.662   3.384  10.058  0.1934  0.3621 -0.4422
  523MPD2    C3 7819   4.652   3.474   9.955  0.1790  0.7203  0.1738
  523MPD2    C4 7820   0.026   3.505   9.882  0.3090 -0.4682 -0.1396
  523MPD2    C5 7821   0.137   3.421   9.900  0.1950 -0.6631 -0.0708
  523MPD2     H 7822   4.570   3.377  10.115 -0.2310 -0.1772 -1.2025
  523MPD2    H1 7823   0.025   3.581   9.805 -0.5613 -1.3274 -0.9762
  523MPD2    H2 7824   0.222   3.245   9.979 -1.2518 -1.3938  0.5196
  523MPD2    H3 7825   0.223   3.437   9.835  1.7132 -0.4942  1.9757
  523MPD2     N 7826   4.531   3.539   9.924 -0.4869 -0.4380 -0.4381
  523MPD2    H5 7827   4.530   3.593   9.838 -1.9155 -0.4593 -0.4344
  523MPD2    N1 7828   0.026   3.178  10.149  0.1149  0.0790  0.2147
  523MPD2    H7 7829   0.117   3.134  10.142 -0.4750 -1.0211 -0.6209
  524TMC3    C1 7830   4.301   3.591   9.921 -0.3894  0.2765 -0.7900
  524TMC3    C2 7831   4.285   3.559   9.788 -0.1127  0.2019 -0.3658
  524TMC3    C3 7832   4.174   3.598   9.720 -0.0317 -0.5468 -0.4501
  524TMC3    C4 7833   4.209   3.663   9.984 -0.4250  0.0562 -0.2138
  524TMC3    C5 7834   4.103   3.712   9.915  0.3662 -0.2441  0.2158
  524TMC3    C6 7835   4.087   3.689   9.777  0.2642  0.3771 -0.1467
  524TMC3     C 7836   4.412   3.536  10.001 -0.3590  0.5449  0.6937
  524TMC3     O 7837   4.401   3.538  10.125  0.0520  0.5498 -0.3198
  524TMC3     H 7838   4.357   3.491   9.745 -0.8611 -0.7689 -0.0827
  524TMC3    H1 7839   4.226   3.666  10.091 -3.4018  2.7282  0.1741
  524TMC3    H2 7840   3.995   3.718   9.728 -0.0345  1.6738  1.1896
  524TMC3    C7 7841   4.026   3.812   9.987 -0.6538  0.1422 -0.2033
  524TMC3    C8 7842   4.151   3.553   9.583  0.9262 -0.4534 -0.3149
  524TMC3    O1 7843   4.080   3.836  10.092  0.3908  0.0037  0.2309
  524TMC3    O2 7844   4.065   3.612   9.519 -0.6637 -0.0037 -0.4773
  525MPD2     C 7845   2.998   4.112  14.668 -0.8517  0.2083  0.3229
  525MPD2    C1 7846   3.104   4.145  14.750  0.2980  0.1375  0.5354
  525MPD2    C2 7847   3.203   4.230  14.704 -0.2581 -0.1806  0.2040
  525MPD2    C3 7848   3.187   4.297  14.585 -0.3596 -0.5671  0.3178
  525MPD2    C4 7849   3.075   4.268  14.510  0.3757  0.3392 -0.6199
  525MPD2    C5 7850   2.982   4.175  14.548 -0.2506 -0.2517  0.1057
  525MPD2     H 7851   3.295   4.247  14.759  1.3909 -1.1251 -2.2636
  525MPD2    H1 7852   3.064   4.314  14.413  1.4329 -1.2225 -1.4807
  525MPD2    H2 7853   2.924   4.042  14.705 -0.6311 -0.4570 -0.4894
  525MPD2    H3 7854   2.901   4.136  14.486 -1.3885  0.5903  1.0482
  525MPD2     N 7855   3.270   4.398  14.529  0.2819  0.4155  0.4023
  525MPD2    H5 7856   3.235   4.464  14.461  1.3287 -1.5399 -2.0379
  525MPD2    N1 7857   3.126   4.074  14.872  0.0482  0.0958 -0.6759
  525MPD2    H7 7858   3.218   4.088  14.913  1.0451 -5.3881 -1.0267
  526TMC3    C1 7859   3.100   3.938  15.066  0.3088  1.0439 -0.2861
  526TMC3    C2 7860   3.020   3.908  15.173  0.2526  0.2941  0.3445
  526TMC3    C3 7861   3.085   3.866  15.288  0.6814  0.1092 -0.0595
  526TMC3    C4 7862   3.230   3.888  15.057  0.3408  0.0761  0.3377
  526TMC3    C5 7863   3.286   3.843  15.172 -0.3769 -0.2935  0.7031
  526TMC3    C6 7864   3.224   3.845  15.293  0.8217 -0.5267  0.3567
  526TMC3     C 7865   3.039   3.987  14.939  0.2991  0.3155  0.7132
  526TMC3     O 7866   2.925   3.956  14.909  0.2527  0.1452 -0.2695
  526TMC3     H 7867   2.924   3.957  15.178  0.2851  0.5846 -1.6396
  526TMC3    H1 7868   3.280   3.894  14.961  1.9849  1.0727  1.2568
  526TMC3    H2 7869   3.276   3.813  15.383  0.1181 -1.0757  0.5727
  526TMC3    C7 7870   3.417   3.774  15.157 -0.8272 -0.2109  0.8910
  526TMC3    C8 7871   3.016   3.887  15.414 -0.4756 -1.1250 -0.3574
  526TMC3    O1 7872   3.485   3.750  15.257 -0.2073  0.4453  0.1576
  526TMC3    O2 7873   3.084   3.922  15.506  0.0688 -0.5271 -0.5580
  527MPD2     C 7874   1.864   2.196   1.627 -0.3987  0.1009  0.5289
  527MPD2    C1 7875   1.766   2.130   1.559  0.7169 -0.3986 -0.4072
  527MPD2    C2 7876   1.791   2.086   1.433  0.6670 -0.3709  0.8310
  527MPD2    C3 7877   1.915   2.098   1.378  0.9614 -0.7154 -1.0757
  527MPD2    C4 7878   2.015   2.168   1.451  0.1349 -0.9046 -0.2591
  527MPD2    C5 7879   1.984   2.216   1.573  0.0660 -0.4598 -0.5733
  527MPD2     H 7880   1.721   2.038   1.366  0.4909  2.4880 -1.0407
  527MPD2    H1 7881   2.110   2.196   1.407 -0.3131  1.3853  0.2239
  527MPD2    H2 7882   1.851   2.234   1.728 -0.6710 -0.7295  0.8034
  527MPD2    H3 7883   2.059   2.278   1.619 -2.0166  0.8797  1.0389
  527MPD2     N 7884   1.932   2.056   1.245  0.2698 -0.2362  0.1778
  527MPD2    H5 7885   1.850   2.013   1.203 -2.1808  3.2229  1.3925
  527MPD2    N1 7886   1.641   2.107   1.624  0.0169  0.1747  0.0042
  527MPD2    H7 7887   1.570   2.065   1.565 -0.6408  1.8357 -0.3874
  528TMC3    C1 7888   1.475   2.065   1.790 -0.0720  0.7977  0.3838
  528TMC3    C2 7889   1.379   2.067   1.692  0.4880  0.1026  0.5608
  528TMC3    C3 7890   1.271   1.992   1.721 -0.0273  0.5450  1.2071
  528TMC3    C4 7891   1.462   2.009   1.916 -0.2539  0.3926 -0.6993
  528TMC3    C5 7892   1.345   1.943   1.939  0.8119 -0.7172 -0.5905
  528TMC3    C6 7893   1.247   1.936   1.847 -0.2219  0.1667  1.1261
  528TMC3     C 7894   1.607   2.124   1.758  0.0337  0.2316  0.0514
  528TMC3     O 7895   1.674   2.181   1.846  0.1218 -0.3260  0.3559
  528TMC3     H 7896   1.396   2.109   1.593 -0.8441  0.3577  0.4409
  528TMC3    H1 7897   1.544   2.012   1.987 -0.3814 -1.5451 -0.4821
  528TMC3    H2 7898   1.163   1.875   1.877 -0.8400 -0.3637 -1.7653
  528TMC3    C7 7899   1.341   1.861   2.055  0.3723  0.1379 -0.5769
  528TMC3    C8 7900   1.180   1.968   1.613  0.6563 -0.1380 -0.1086
  528TMC3    O1 7901   1.444   1.830   2.115  0.2101 -0.4880  0.4680
  528TMC3    O2 7902   1.204   2.010   1.500 -0.0054  0.4565 -0.4718
  529MPD2     C 7903   4.548   0.331   0.636 -0.0714 -0.1578  0.1810
  529MPD2    C1 7904   4.453   0.373   0.726  0.4080  0.2137  0.4709
  529MPD2    C2 7905   4.404   0.503   0.713 -0.1048 -0.4010  0.4645
  529MPD2    C3 7906   4.438   0.586   0.607 -0.3039 -0.0765 -0.5140
  529MPD2    C4 7907   4.537   0.544   0.520 -0.1908 -0.1698 -0.0266
  529MPD2    C5 7908   4.590   0.420   0.541  0.1809  0.6240 -0.2564
  529MPD2     H 7909   4.350   0.545   0.798  0.0206  1.1855 -0.2305
  529MPD2    H1 7910   4.576   0.604   0.438 -0.4090  0.1865  0.1317
  529MPD2    H2 7911   4.605   0.239   0.645  0.3901 -0.0753 -1.9483
  529MPD2    H3 7912   4.666   0.384   0.472  1.5385  0.3785  1.3527
  529MPD2     N 7913   4.388   0.721   0.593 -0.3341  0.3936 -0.2035
  529MPD2    H5 7914   4.402   0.764   0.502  0.5426 -1.4289 -0.9377
  529MPD2    N1 7915   4.419   0.296   0.836 -0.1436  0.0088 -0.0387
  529MPD2    H7 7916   4.359   0.346   0.902 -1.9002 -0.6268 -1.1644
  530TMC3    C1 7917   4.394   0.124   0.982 -0.1522 -0.2209  0.1102
  530TMC3    C2 7918   4.400   0.216   1.087 -0.2851  0.5050  0.2985
  530TMC3    C3 7919   4.357   0.168   1.207 -0.5155 -0.1919 -0.5994
  530TMC3    C4 7920   4.341   4.736   0.995 -0.4486 -0.2332 -0.0548
  530TMC3    C5 7921   4.283   4.707   1.115  0.1858  0.3499  0.3310
  530TMC3    C6 7922   4.286   0.051   1.224 -0.2977  0.1639  0.4482
  530TMC3     C 7923   4.451   0.162   0.860  0.9654  0.4647 -0.0590
  530TMC3     O 7924   4.484   0.088   0.773  0.5218 -0.4379  0.2796
  530TMC3     H 7925   4.459   0.308   1.082 -1.7991  1.3601 -1.5025
  530TMC3    H1 7926   4.332   4.670   0.910  2.2101  1.3040 -1.5137
  530TMC3    H2 7927   4.236   0.026   1.317  1.4376 -2.3644  0.6790
  530TMC3    C7 7928   4.255   4.565   1.134 -0.6726  0.1152 -0.2780
  530TMC3    C8 7929   4.393   0.248   1.323 -0.0026  0.5178  0.8471
  530TMC3    O1 7930   4.319   4.484   1.069 -0.3909 -0.7780 -0.2387
  530TMC3    O2 7931   4.428   0.362   1.306 -0.2615 -0.4942  0.5922
  531MPD2     C 7932   2.493   3.365  13.547  0.2331  0.2935 -0.3128
  531MPD2    C1 7933   2.361   3.345  13.580  0.2968  0.2286  0.8511
  531MPD2    C2 7934   2.286   3.254  13.499 -0.5803  0.4890  0.0721
  531MPD2    C3 7935   2.333   3.205  13.380 -0.6276  0.0699 -0.1425
  531MPD2    C4 7936   2.456   3.247  13.344  0.1247  0.5581  0.4268
  531MPD2    C5 7937   2.536   3.324  13.427 -0.1324 -0.2208  0.3985
  531MPD2     H 7938   2.183   3.237  13.532 -0.0262  0.1709  1.6655
  531MPD2    H1 7939   2.501   3.213  13.252 -0.5760  1.3837 -0.2204
  531MPD2    H2 7940   2.560   3.419  13.613 -0.6599  2.0776 -0.8796
  531MPD2    H3 7941   2.639   3.336  13.396  0.0998 -3.5951 -0.0937
  531MPD2     N 7942   2.259   3.121  13.285 -0.4017 -0.1241  0.0464
  531MPD2    H5 7943   2.321   3.083  13.215  0.5193  0.0321  0.7837
  531MPD2    N1 7944   2.305   3.425  13.683 -0.1186  0.5175 -0.0798
  531MPD2    H7 7945   2.360   3.502  13.721  0.6088  0.1622 -0.4227
  532TMC3    C1 7946   2.167   3.510  13.842  0.0307 -0.7083  0.0264
  532TMC3    C2 7947   2.034   3.500  13.876 -0.0613  0.4240 -0.5464
  532TMC3    C3 7948   1.995   3.478  14.006 -1.0342  0.0798  0.1069
  532TMC3    C4 7949   2.258   3.498  13.943  0.2679  0.2557  0.7494
  532TMC3    C5 7950   2.216   3.496  14.073 -0.0424 -0.0016 -0.5552
  532TMC3    C6 7951   2.086   3.469  14.104  0.6171 -0.3743 -0.3313
  532TMC3     C 7952   2.178   3.425  13.735  0.3640  0.0957 -0.4718
  532TMC3     O 7953   2.088   3.339  13.725  0.0690  0.6075  0.1024
  532TMC3     H 7954   1.963   3.522  13.797  0.0186  2.1380 -0.1433
  532TMC3    H1 7955   2.364   3.507  13.922  0.5629 -1.6300  1.3841
  532TMC3    H2 7956   2.055   3.464  14.208 -1.2901  1.1313 -0.8396
  532TMC3    C7 7957   2.290   3.415  14.161  0.0017  0.3831 -0.3958
  532TMC3    C8 7958   1.867   3.407  14.021  0.4883 -0.4889  0.2513
  532TMC3    O1 7959   2.288   3.445  14.281 -0.1988  0.0337 -0.7790
  532TMC3    O2 7960   1.793   3.415  14.114 -0.0198  0.4798  0.6431
  533TMC3    C1 7961   3.409   4.578  14.561  0.1591  0.0346  0.1645
  533TMC3    C2 7962   3.538   4.629  14.586 -0.1235 -0.2172 -0.1553
  533TMC3    C3 7963   3.548   0.021  14.618  0.1918 -0.1426  0.1736
  533TMC3    C4 7964   3.298   4.655  14.590  0.5960 -0.1487  0.8725
  533TMC3    C5 7965   3.318   0.030  14.661 -0.2012 -0.1808  0.3468
  533TMC3    C6 7966   3.439   0.097  14.649  0.1324 -1.0296 -0.9056
  533TMC3     C 7967   3.391   4.438  14.580  0.1276 -0.4873  0.3116
  533TMC3     O 7968   3.465   4.389  14.667 -0.2447  1.1472 -0.6105
  533TMC3     H 7969   3.625   4.579  14.546  1.5112  1.6465  1.0210
  533TMC3    H1 7970   3.203   4.604  14.602  0.3343  0.0676 -0.2869
  533TMC3    H2 7971   3.450   0.203  14.673  1.2039 -1.1259 -0.9834
  533TMC3    C7 7972   3.266   0.012  14.803 -0.8026  0.1683 -0.0665
  533TMC3    C8 7973   3.679   0.085  14.629  0.3376  0.5037  0.0648
  533TMC3    O1 7974   3.204   4.651  14.833 -0.0215  0.4029  0.1379
  533TMC3    O2 7975   3.772   0.004  14.634  0.1078  0.1657 -0.5099
  534MPD2     C 7976   1.999   0.874   2.447 -0.3463 -0.3254 -0.0679
  534MPD2    C1 7977   1.933   0.959   2.356  0.5520 -0.6725  0.7445
  534MPD2    C2 7978   1.855   0.896   2.262 -0.0354 -0.0514  0.2271
  534MPD2    C3 7979   1.827   0.764   2.264 -0.6867 -0.1642  0.2436
  534MPD2    C4 7980   1.887   0.686   2.358  0.2207  0.4211  0.0850
  534MPD2    C5 7981   1.967   0.741   2.453 -0.3658 -0.3741 -0.1504
  534MPD2     H 7982   1.812   0.949   2.178  1.5149  1.3952  0.3397
  534MPD2    H1 7983   1.870   0.579   2.365  1.5865  0.2422  0.6203
  534MPD2    H2 7984   2.061   0.922   2.522  0.4705 -0.7142 -0.5024
  534MPD2    H3 7985   2.008   0.684   2.535  0.3682 -1.3309 -1.1786
  534MPD2     N 7986   1.752   0.701   2.159 -0.4261 -0.2308  0.1993
  534MPD2    H5 7987   1.736   0.601   2.167  0.2258 -0.3854 -0.4458
  534MPD2    N1 7988   1.946   1.098   2.353 -0.0362 -0.4368 -0.6279
  534MPD2    H7 7989   1.888   1.144   2.283 -1.7252 -1.8809 -0.1921
  535TMC3    C1 7990   1.613   0.669   1.962  0.0569 -0.1454 -0.1344
  535TMC3    C2 7991   1.554   0.553   2.020  0.4363  0.2357  0.5264
  535TMC3    C3 7992   1.476   0.467   1.952 -0.4585 -0.0322  0.7639
  535TMC3    C4 7993   1.590   0.684   1.827  0.1211  0.6724  0.2351
  535TMC3    C5 7994   1.518   0.591   1.754  0.6170 -0.0951  0.2438
  535TMC3    C6 7995   1.462   0.475   1.820 -0.5046  0.1587  0.8252
  535TMC3     C 7996   1.682   0.763   2.050  0.5849 -0.0148  0.0984
  535TMC3     O 7997   1.667   0.883   2.018  0.0722 -0.0826  0.9507
  535TMC3     H 7998   1.562   0.551   2.128  0.4177  2.3349  0.5687
  535TMC3    H1 7999   1.634   0.768   1.774 -1.7698  1.4959 -0.0134
  535TMC3    H2 8000   1.403   0.402   1.766 -0.1062  0.9608 -0.6744
  535TMC3    C7 8001   1.526   0.580   1.610 -0.7499  0.4262 -0.0095
  535TMC3    C8 8002   1.362   0.406   2.028  0.0631 -0.4303  0.1022
  535TMC3    O1 8003   1.533   0.472   1.559  0.2304  0.5661 -0.2087
  535TMC3    O2 8004   1.256   0.410   1.961 -0.4439  0.3332 -0.0985
  536MPD2     C 8005   4.250   3.696  16.715 -0.2952  0.3575  0.4792
  536MPD2    C1 8006   4.186   3.635  16.811 -0.4080 -0.3242  0.0940
  536MPD2    C2 8007   4.084   3.545  16.785 -0.0992 -0.2398  0.6588
  536MPD2    C3 8008   4.048   3.529  16.652  0.4641 -0.3263  0.0437
  536MPD2    C4 8009   4.102   3.603  16.554 -0.3617 -0.1844  0.5177
  536MPD2    C5 8010   4.200   3.690  16.589 -0.4193  0.1492 -0.3802
  536MPD2     H 8011   4.029   3.484  16.857 -1.9128  0.6016 -0.0070
  536MPD2    H1 8012   4.058   3.604  16.455  2.0952  0.5024 -0.5622
  536MPD2    H2 8013   4.326   3.769  16.741 -0.5147  0.2854  1.3148
  536MPD2    H3 8014   4.247   3.748  16.510 -0.6445  1.5803  0.5434
  536MPD2     N 8015   3.925   3.453  16.624 -0.2750  0.2782 -0.3676
  536MPD2    H5 8016   3.872   3.435  16.708 -0.2775 -0.6354 -0.5619
  536MPD2    N1 8017   4.232   3.657  16.938 -0.0974  0.4743 -0.0125
  536MPD2    H7 8018   4.311   3.719  16.950  1.0203 -0.6351 -1.7377
  537TMC3    C1 8019   4.247   3.650  17.164  0.2954  0.4126 -0.1307
  537TMC3    C2 8020   4.348   3.740  17.155 -0.2991  0.5916  0.0699
  537TMC3    C3 8021   4.438   3.740  17.254 -0.7630  0.1817  0.6319
  537TMC3    C4 8022   4.247   3.556  17.272 -0.0078  0.0830  0.0810
  537TMC3    C5 8023   4.333   3.583  17.376 -0.0196 -0.6750  0.5805
  537TMC3    C6 8024   4.433   3.666  17.361 -0.2175 -0.1926  0.4405
  537TMC3     C 8025   4.177   3.602  17.052 -0.0470 -0.7993 -0.1366
  537TMC3     O 8026   4.074   3.538  17.073  0.4265 -0.0898 -0.2292
  537TMC3     H 8027   4.360   3.814  17.077  0.7702 -2.3267 -2.5622
  537TMC3    H1 8028   4.172   3.478  17.272 -1.5494  1.5492 -0.2496
  537TMC3    H2 8029   4.501   3.697  17.440 -0.2988 -0.7762  0.7394
  537TMC3    C7 8030   4.326   3.499  17.490  0.0263  0.5463  0.1483
  537TMC3    C8 8031   4.553   3.838  17.244 -0.4128 -0.2560 -0.4358
  537TMC3    O1 8032   4.210   3.474  17.523  0.1153  0.2605 -0.0651
  537TMC3    O2 8033   4.663   3.797  17.278 -0.0605 -0.5242  0.4741
  538TMC3    C1 8034   0.792   2.726  11.184  0.3861  0.2550 -0.1154
  538TMC3    C2 8035   0.866   2.728  11.068 -0.2880  0.0506 -0.5645
  538TMC3    C3 8036   0.864   2.843  10.986 -1.1614 -0.3615  0.5411
  538TMC3    C4 8037   0.701   2.828  11.203  0.0730  0.2914  0.4776
  538TMC3    C5 8038   0.694   2.929  11.108  0.4263  0.1150  0.6315
  538TMC3    C6 8039   0.774   2.944  11.004 -0.3749 -0.2838 -0.4934
  538TMC3     C 8040   0.792   2.605  11.262  0.3260  0.9733  0.4548
  538TMC3     O 8041   0.847   2.508  11.211  0.3911 -0.2794  0.1829
  538TMC3     H 8042   0.929   2.644  11.038 -1.1756 -0.5076 -0.8617
  538TMC3    H1 8043   0.619   2.820  11.273 -1.1366  0.9368 -0.8773
  538TMC3    H2 8044   0.755   3.019  10.928  0.9192 -1.0430 -1.5726
  538TMC3    C7 8045   0.585   3.018  11.125  0.2451  0.1256 -0.2985
  538TMC3    C8 8046   0.907   2.824  10.855  0.3020  0.3718  0.6003
  538TMC3    O1 8047   0.481   2.974  11.169 -0.0942 -0.4689  0.1878
  538TMC3    O2 8048   0.938   2.711  10.817  0.1032 -0.2667 -0.1223
  539MPD2     C 8049   0.212   2.000  11.747  0.2992  0.1083 -0.3881
  539MPD2    C1 8050   0.245   1.961  11.613  0.5619 -0.0889 -0.4097
  539MPD2    C2 8051   0.279   2.060  11.521 -0.0211 -0.6337 -0.0933
  539MPD2    C3 8052   0.289   2.195  11.563  0.2738 -0.5636  0.3006
  539MPD2    C4 8053   0.262   2.226  11.693  0.4726  0.1510  0.5685
  539MPD2    C5 8054   0.222   2.133  11.783 -0.0191 -0.3419 -0.2584
  539MPD2     H 8055   0.279   2.031  11.417 -1.0540 -1.3283  0.1072
  539MPD2    H1 8056   0.258   2.328  11.731  1.1919  0.3045  0.2179
  539MPD2    H2 8057   0.193   1.930  11.828  0.8589 -1.0785 -1.2743
  539MPD2    H3 8058   0.213   2.158  11.888 -1.0667  2.6003 -1.0612
  539MPD2     N 8059   0.323   2.300  11.479  0.0444  0.6238 -0.0531
  539MPD2    H5 8060   0.315   2.395  11.513 -0.5289  0.9185 -0.9998
  539MPD2    N1 8061   0.245   1.820  11.583 -0.3559 -0.6237  0.3968
  539MPD2    H7 8062   0.308   1.796  11.508 -0.8823 -1.6615  0.2803
  540TMC3    C1 8063   0.362   2.419  11.284  0.3217 -0.2570  0.7129
  540TMC3    C2 8064   0.287   2.439  11.174  0.9393  0.3727  0.3272
  540TMC3    C3 8065   0.211   2.560  11.168  0.1499 -0.3058  0.2320
  540TMC3    C4 8066   0.362   2.523  11.376 -0.2959 -0.0621 -0.0298
  540TMC3    C5 8067   0.290   2.638  11.376  0.0037 -0.2192  0.7762
  540TMC3    C6 8068   0.220   2.663  11.265  0.2690  0.2289  0.1101
  540TMC3     C 8069   0.352   2.284  11.342 -0.2472 -1.0457 -0.5599
  540TMC3     O 8070   0.350   2.187  11.270 -0.3740 -0.0644  0.0889
  540TMC3     H 8071   0.298   2.366  11.094  0.1241  0.6988 -0.0856
  540TMC3    H1 8072   0.432   2.513  11.459  0.9263 -0.8788 -1.1513
  540TMC3    H2 8073   0.158   2.752  11.264 -1.2108 -0.8160 -0.4578
  540TMC3    C7 8074   0.236   2.661  11.509  0.0730 -0.3034  0.5969
  540TMC3    C8 8075   0.110   2.582  11.061  0.3031  0.2450 -0.2379
  540TMC3    O1 8076   0.240   2.564  11.580 -0.1524  0.1154  0.5835
  540TMC3    O2 8077   0.054   2.691  11.047  0.1422 -0.0089 -0.4077
  541MPD2     C 8078   2.954   3.265  13.273  0.6001  0.2175  0.1055
  541MPD2    C1 8079   3.003   3.180  13.178  0.3229  0.4395  0.1493
  541MPD2    C2 8080   2.998   3.229  13.048  0.4764 -0.3521  0.3323
  541MPD2    C3 8081   2.949   3.355  13.011 -0.7380 -0.5587  0.0929
  541MPD2    C4 8082   2.906   3.429  13.112 -0.1142 -1.1334  0.0613
  541MPD2    C5 8083   2.910   3.389  13.242  0.0302 -0.5379 -0.4219
  541MPD2     H 8084   3.037   3.162  12.972 -0.9297  0.8750 -1.4404
  541MPD2    H1 8085   2.869   3.530  13.099  0.6557 -1.1389 -2.2743
  541MPD2    H2 8086   2.948   3.240  13.379 -1.8810 -1.1212 -0.3382
  541MPD2    H3 8087   2.877   3.456  13.321 -0.0182 -0.4579 -0.5100
  541MPD2     N 8088   2.948   3.412  12.883  0.0117 -0.1927  0.2527
  541MPD2    H5 8089   2.900   3.502  12.880  0.6145  0.1409  0.7037
  541MPD2    N1 8090   3.052   3.053  13.222 -0.2870 -0.0964  0.4026
  541MPD2    H7 8091   3.037   3.038  13.321 -1.1963 -1.9238 -0.0101
  542TMC3    C1 8092   3.038   3.452  12.660 -0.2506  1.2576  1.5292
  542TMC3    C2 8093   3.077   3.396  12.542  0.0355 -0.3446  0.0944
  542TMC3    C3 8094   3.079   3.473  12.428 -0.1155 -0.3956  0.6451
  542TMC3    C4 8095   3.004   3.581  12.670 -0.5690  0.3901  0.3412
  542TMC3    C5 8096   2.997   3.655  12.552 -0.0831 -0.0268  0.6570
  542TMC3    C6 8097   3.035   3.603  12.428  0.3363 -0.4535 -0.4583
  542TMC3     C 8098   3.001   3.361  12.766 -0.1258 -0.2861 -1.2490
  542TMC3     O 8099   3.037   3.247  12.743  0.1853 -0.1072 -0.2799
  542TMC3     H 8100   3.117   3.295  12.538 -0.0152 -0.3477 -0.3352
  542TMC3    H1 8101   2.974   3.631  12.761 -0.8111  0.2472  0.3401
  542TMC3    H2 8102   3.044   3.663  12.338 -1.4219 -0.1218 -0.4053
  542TMC3    C7 8103   2.976   3.799  12.554  0.8118 -0.6754 -0.3585
  542TMC3    C8 8104   3.172   3.445  12.322 -0.0225  0.3108  0.0008
  542TMC3    O1 8105   2.987   3.857  12.663  0.3626  0.4278 -0.3090
  542TMC3    O2 8106   3.152   3.487  12.212 -0.0757 -0.1734  0.4079
  543TMC3    C1 8107   3.954   0.361  17.577 -0.0940  0.6849 -0.5840
  543TMC3    C2 8108   3.944   0.264  17.673 -0.4744 -0.7818  0.0246
  543TMC3    C3 8109   3.901   0.295   0.048 -0.2891 -0.2925  0.0806
  543TMC3    C4 8110   3.897   0.486  17.605  0.0995 -0.1189 -0.1720
  543TMC3    C5 8111   3.867   0.515  17.735 -0.9855 -0.2009  0.1623
  543TMC3    C6 8112   3.863   0.428   0.082  0.7419 -0.3131 -0.3605
  543TMC3     C 8113   3.981   0.313  17.443 -0.3139 -1.0195  0.6671
  543TMC3     O 8114   4.045   0.210  17.428  0.5239 -0.5320  0.0441
  543TMC3     H 8115   3.975   0.161  17.657 -0.4495 -1.2167  2.8726
  543TMC3    H1 8116   3.913   0.566  17.534 -1.4226  0.5623  0.2445
  543TMC3    H2 8117   3.826   0.457   0.180 -1.2105 -2.5140 -0.4608
  543TMC3    C7 8118   3.845   0.656   0.021 -0.3471 -0.2190  0.7409
  543TMC3    C8 8119   3.852   0.194   0.137  0.3562  1.2844  0.2993
  543TMC3    O1 8120   3.880   0.693   0.131 -0.0787  0.2574 -0.6339
  543TMC3    O2 8121   3.863   0.212   0.258  0.1098 -0.8033  0.3368
  544MPD2     C 8122   3.634   4.481   0.208  0.0355 -1.2043  0.5792
  544MPD2    C1 8123   3.632   4.504   0.074 -0.3451  0.0720  0.2642
  544MPD2    C2 8124   3.687   4.623   0.028 -0.2695  0.0632 -0.1149
  544MPD2    C3 8125   3.750   4.707   0.116 -0.1902 -0.5822  0.7413
  544MPD2    C4 8126   3.762   4.676   0.252 -0.1783  0.2029  0.6745
  544MPD2    C5 8127   3.690   4.565   0.298  0.0431  0.4030 -0.6534
  544MPD2     H 8128   3.688   4.643  17.677  1.7306 -0.4916 -0.2153
  544MPD2    H1 8129   3.819   4.736   0.322 -0.9399 -0.7783  2.1351
  544MPD2    H2 8130   3.592   4.389   0.246 -0.9736 -1.6748 -1.6546
  544MPD2    H3 8131   3.694   4.552   0.405 -0.7116 -0.3192 -0.7150
  544MPD2     N 8132   3.814   0.086   0.061 -0.1457 -0.2038 -0.4017
  544MPD2    H5 8133   3.805   0.095  17.716  1.6525 -0.3743 -0.5825
  544MPD2    N1 8134   3.570   4.403  17.738  0.3554 -0.5302 -0.5373
  544MPD2    H7 8135   3.561   4.307   0.013 -0.0460 -0.2263  0.2994
  545TMC3    C1 8136   3.473   4.331  17.532  0.0772 -0.0323  0.1177
  545TMC3    C2 8137   3.365   4.361  17.442  0.2993 -0.6356 -0.2668
  545TMC3    C3 8138   3.287   4.260  17.398 -0.1232 -0.8224  0.3095
  545TMC3    C4 8139   3.512   4.199  17.560  0.9172 -0.0260  0.1167
  545TMC3    C5 8140   3.426   4.109  17.497  0.1082  0.5031 -0.3146
  545TMC3    C6 8141   3.320   4.136  17.421 -0.1803  0.3832  0.5707
  545TMC3     C 8142   3.525   4.441  17.611  0.3720 -0.3277 -0.6033
  545TMC3     O 8143   3.537   4.550  17.557  0.0697 -0.2896 -0.0644
  545TMC3     H 8144   3.344   4.463  17.413  2.0290 -0.4121 -0.6771
  545TMC3    H1 8145   3.593   4.178  17.628  0.5538  1.3264  0.9725
  545TMC3    H2 8146   3.267   4.060  17.364  0.8554  0.5813 -0.6495
  545TMC3    C7 8147   3.445   3.968  17.517 -0.1283 -0.6035 -0.6290
  545TMC3    C8 8148   3.191   4.283  17.294  0.0848 -0.5790  0.0164
  545TMC3    O1 8149   3.351   3.892  17.493  0.1546  0.0208  0.7775
  545TMC3    O2 8150   3.169   4.185  17.221  0.0747 -0.2122 -0.3478
  546MPD2     C 8151   0.419   4.293   0.156 -0.0571  0.8174 -0.3335
  546MPD2    C1 8152   0.336   4.340   0.055  0.4862 -1.4275 -0.2659
  546MPD2    C2 8153   0.377   4.457  17.742  0.3864 -0.0673 -0.0836
  546MPD2    C3 8154   0.501   4.509   0.028  0.6504  0.6053  0.2493
  546MPD2    C4 8155   0.586   4.459   0.122 -0.5488  0.2244  0.4776
  546MPD2    C5 8156   0.538   4.350   0.189 -0.5396 -0.2209  0.1062
  546MPD2     H 8157   0.319   4.500  17.660 -2.0520 -1.2427  1.0187
  546MPD2    H1 8158   0.687   4.495   0.141 -0.1374 -0.4957 -0.3404
  546MPD2    H2 8159   0.375   4.215   0.216  1.5499  1.0448  1.1635
  546MPD2    H3 8160   0.599   4.316   0.272 -1.5684  0.0142  0.9437
  546MPD2     N 8161   0.554   4.628  17.724 -0.0711  0.4332 -0.2789
  546MPD2    H5 8162   0.631   4.677   0.013 -0.1102  0.6886 -0.4897
  546MPD2    N1 8163   0.220   4.270   0.015 -0.6630 -0.2569 -0.2392
  546MPD2    H7 8164   0.193   4.194   0.077  2.8786  0.5130  2.2108
  547TMC3    C1 8165   0.009   4.214  17.679 -0.9286  0.2917  0.0375
  547TMC3    C2 8166   4.650   4.222  17.584 -0.2926 -0.1823 -0.5626
  547TMC3    C3 8167   4.533   4.155  17.599  0.3219 -0.3046 -1.1648
  547TMC3    C4 8168   4.726   4.151   0.040  0.4866  0.0238 -0.6747
  547TMC3    C5 8169   4.609   4.080   0.046 -0.1778 -0.2554 -0.6497
  547TMC3    C6 8170   4.505   4.087  17.713  0.4060  0.0502 -0.2345
  547TMC3     C 8171   0.126   4.299  17.670 -0.2690  0.4800  0.0620
  547TMC3     O 8172   0.139   4.365  17.573  0.0253 -0.2089 -0.1381
  547TMC3     H 8173   4.665   4.279  17.493  0.0476  0.3307 -0.1805
  547TMC3    H1 8174   0.047   4.155   0.130  0.4628 -0.2436 -0.6477
  547TMC3    H2 8175   4.414   4.034  17.738 -1.8584  2.2475 -3.8180
  547TMC3    C7 8176   4.577   4.004   0.161 -0.2170  0.7649 -0.3443
  547TMC3    C8 8177   4.426   4.183  17.508 -0.6858  0.1757 -0.2235
  547TMC3    O1 8178   4.456   4.012   0.197 -0.0805 -0.1061 -0.4539
  547TMC3    O2 8179   4.420   4.291  17.454  0.2391  0.3012  0.1945
  548MPD2     C 8180   4.055   0.190  13.170 -0.3616 -0.6128 -0.5073
  548MPD2    C1 8181   3.978   0.099  13.114 -0.0719  1.0138 -0.0915
  548MPD2    C2 8182   4.037   4.734  13.045  0.4517 -0.5888 -0.3457
  548MPD2    C3 8183   4.173   4.725  13.024  0.1757  0.2171  0.1755
  548MPD2    C4 8184   4.250   0.074  13.095 -0.1404 -0.3192 -0.2927
  548MPD2    C5 8185   4.185   0.180  13.156 -0.0347 -0.2724 -0.7686
  548MPD2     H 8186   3.980   4.653  13.001 -0.3671  0.9938 -2.1955
  548MPD2    H1 8187   4.358   0.073  13.103 -0.1897 -0.6213  0.3333
  548MPD2    H2 8188   4.013   0.273  13.226 -2.3791 -0.7359 -1.8068
  548MPD2    H3 8189   4.240   0.245  13.223  1.4678 -1.2798 -1.0154
  548MPD2     N 8190   4.216   4.618  12.942  0.8718  0.5214 -0.5192
  548MPD2    H5 8191   4.148   4.565  12.888 -1.2307 -0.2951  2.9569
  548MPD2    N1 8192   3.837   0.125  13.121  0.3091  0.1220  0.1748
  548MPD2    H7 8193   3.812   0.215  13.160 -0.6399  0.8893 -2.2135
  549TMC3    C1 8194   3.615   0.108  13.051 -0.1993 -0.1282  0.8711
  549TMC3    C2 8195   3.611   0.237  13.000 -0.2040 -0.2630 -0.7579
  549TMC3    C3 8196   3.498   0.274  12.931  0.5051 -0.6174 -0.4974
  549TMC3    C4 8197   3.498   0.027  13.057  0.2825  0.4039 -0.4917
  549TMC3    C5 8198   3.384   0.076  12.995 -0.3799  1.0315 -0.2469
  549TMC3    C6 8199   3.382   0.197  12.925  0.8702  0.6462  0.3458
  549TMC3     C 8200   3.738   0.042  13.071  0.1815 -0.1064 -0.2695
  549TMC3     O 8201   3.743   4.665  13.028  0.3983  0.5357  0.3624
  549TMC3     H 8202   3.692   0.305  13.024 -0.2822 -0.5536  0.2876
  549TMC3    H1 8203   3.499   4.671  13.109 -0.7208  0.4485 -0.3925
  549TMC3    H2 8204   3.289   0.232  12.883  0.5637  0.4050  0.8196
  549TMC3    C7 8205   3.292   4.716  12.938 -0.2197 -0.4979  0.6550
  549TMC3    C8 8206   3.502   0.400  12.849  0.3781 -0.2922 -0.0059
  549TMC3    O1 8207   3.190   0.021  12.884  1.0795 -0.0691  0.0188
  549TMC3    O2 8208   3.397   0.447  12.804  0.1524 -0.2148 -0.1033
  550TMC3    C1 8209   2.308   3.327  13.021  0.7107 -0.6395 -0.3707
  550TMC3    C2 8210   2.280   3.445  13.085  0.5618 -0.0786 -0.2190
  550TMC3    C3 8211   2.369   3.547  13.082  0.0567  0.6641 -0.9319
  550TMC3    C4 8212   2.426   3.312  12.956 -0.5360  0.3350  0.1797
  550TMC3    C5 8213   2.510   3.417  12.945 -0.7080 -0.2438  0.1950
  550TMC3    C6 8214   2.488   3.532  13.017 -0.1116  0.3832  0.2538
  550TMC3     C 8215   2.194   3.275  12.955 -0.3631  0.3602 -0.3112
  550TMC3     O 8216   2.094   3.243  13.014  0.2492 -0.1752  0.3423
  550TMC3     H 8217   2.186   3.454  13.138  0.9265  0.3101  0.3624
  550TMC3    H1 8218   2.447   3.219  12.904  0.6297  0.4997  0.3433
  550TMC3    H2 8219   2.550   3.620  13.003 -2.6440  1.9893 -0.9397
  550TMC3    C7 8220   2.519   3.448  12.804  0.0776  0.2693 -0.7716
  550TMC3    C8 8221   2.318   3.683  13.091 -0.0128  0.0897  0.7551
  550TMC3    O1 8222   2.461   3.374  12.731  0.3383  0.3380 -0.3837
  550TMC3    O2 8223   2.378   3.771  13.028 -0.5965 -0.2101 -0.1737
  551TMC3    C1 8224   0.486   0.783  13.569  0.0889 -0.9129  0.9870
  551TMC3    C2 8225   0.615   0.748  13.564 -0.6642 -0.3898  0.4302
  551TMC3    C3 8226   0.691   0.764  13.680 -0.2959 -0.1462  0.1094
  551TMC3    C4 8227   0.421   0.816  13.685  0.0367  0.2733  0.0494
  551TMC3    C5 8228   0.494   0.824  13.797 -0.1841 -0.2797  0.0576
  551TMC3    C6 8229   0.632   0.803  13.797 -0.1956 -0.0783  0.2954
  551TMC3     C 8230   0.411   0.767  13.442  0.2588 -0.0322 -0.0665
  551TMC3     O 8231   0.472   0.763  13.332 -0.1838  0.0789 -0.1047
  551TMC3     H 8232   0.669   0.737  13.470 -2.1317 -1.5529 -0.2664
  551TMC3    H1 8233   0.320   0.855  13.681 -0.5602 -1.1375  1.3466
  551TMC3    H2 8234   0.709   0.825  13.870  0.1315  0.6853 -0.2865
  551TMC3    C7 8235   0.437   0.903  13.904 -0.9119  0.0348  0.4549
  551TMC3    C8 8236   0.811   0.839  13.652 -0.2466 -0.2903  0.3936
  551TMC3    O1 8237   0.431   0.848  14.010 -0.2032 -0.3879  0.5043
  551TMC3    O2 8238   0.898   0.789  13.586 -0.2232  0.0538 -0.2946
  552MPD2     C 8239   2.167   3.273  14.544  0.1372 -0.1275 -0.9183
  552MPD2    C1 8240   2.160   3.139  14.527 -0.2509  0.0671 -0.1906
  552MPD2    C2 8241   2.269   3.068  14.581  0.9197 -0.6314  0.3892
  552MPD2    C3 8242   2.365   3.130  14.656  0.1167 -0.1821 -0.5812
  552MPD2    C4 8243   2.373   3.267  14.667  0.7237  0.5809  0.2181
  552MPD2    C5 8244   2.273   3.332  14.603  0.1919  0.8601  0.5257
  552MPD2     H 8245   2.267   2.961  14.564  2.5928 -0.5897 -0.0933
  552MPD2    H1 8246   2.455   3.316  14.719 -0.9422  0.7125  2.7526
  552MPD2    H2 8247   2.098   3.339  14.493  1.0334  1.0436 -0.6115
  552MPD2    H3 8248   2.277   3.440  14.608 -1.3087  0.9636 -0.4481
  552MPD2     N 8249   2.458   3.054  14.721  0.3801 -0.4353  0.9200
  552MPD2    H5 8250   2.535   3.101  14.769  2.5369 -1.8529 -1.1330
  552MPD2    N1 8251   2.061   3.072  14.459  0.2559 -0.2467  0.4325
  552MPD2    H7 8252   2.077   2.972  14.460  0.2875 -0.2418  0.3844
  553TMC3    C1 8253   1.899   3.028  14.309  0.0691  0.1531  0.5219
  553TMC3    C2 8254   1.874   3.050  14.178 -0.5537  0.2980 -0.0595
  553TMC3    C3 8255   1.822   2.951  14.096 -0.0716  0.9744  1.3349
  553TMC3    C4 8256   1.875   2.911  14.368  0.4449 -0.2468 -0.1678
  553TMC3    C5 8257   1.828   2.813  14.284  0.4689  0.7186  0.7591
  553TMC3    C6 8258   1.797   2.828  14.150  0.3983  0.5566  0.1307
  553TMC3     C 8259   1.950   3.125  14.400 -0.0702  0.0649 -0.5472
  553TMC3     O 8260   1.906   3.238  14.397  0.3638  0.4089 -0.0633
  553TMC3     H 8261   1.888   3.147  14.131 -4.2887  0.2031 -1.3883
  553TMC3    H1 8262   1.890   2.894  14.474  1.0405  2.4742  0.1908
  553TMC3    H2 8263   1.766   2.743  14.091 -1.7074  1.1590  0.3624
  553TMC3    C7 8264   1.845   2.681  14.328  0.6242 -0.3303 -0.3527
  553TMC3    C8 8265   1.896   2.946  13.963  0.4541  0.3879 -0.3140
  553TMC3    O1 8266   1.772   2.602  14.270  0.6172  0.1282  0.0144
  553TMC3    O2 8267   1.998   3.015  13.949 -0.2810  0.2195  0.3157
  554TMC3    C1 8268   4.620   2.227  11.713 -0.2499 -0.7761 -0.0723
  554TMC3    C2 8269   4.580   2.139  11.616 -0.8814 -0.2822  0.0698
  554TMC3    C3 8270   4.605   2.174  11.483  0.5560 -0.0199  0.0606
  554TMC3    C4 8271   4.681   2.345  11.678 -0.4720  0.1497 -0.0462
  554TMC3    C5 8272   4.692   2.374  11.550 -0.7775 -0.2371 -0.7733
  554TMC3    C6 8273   4.666   2.290  11.444  0.7705  0.3793 -0.6301
  554TMC3     C 8274   4.615   2.189  11.855  0.1591 -0.0493  0.7645
  554TMC3     O 8275   4.693   2.259  11.922  1.0210 -0.2825  0.7323
  554TMC3     H 8276   4.577   2.035  11.648  0.7991  0.1257  1.5827
  554TMC3    H1 8277   4.695   2.419  11.757  1.9991 -2.6159  2.0832
  554TMC3    H2 8278   4.675   2.319  11.340  2.4578  0.7666 -0.3828
  554TMC3    C7 8279   4.672   2.507  11.508 -0.7041  0.2837 -1.0072
  554TMC3    C8 8280   4.517   2.114  11.383 -0.8483  0.8525 -0.3047
  554TMC3    O1 8281   4.701   2.524  11.389  0.4670 -0.0105 -0.3692
  554TMC3    O2 8282   4.540   2.138  11.266 -0.4801  0.8498  0.1175
  555TMC3    C1 8283   3.199   1.175  14.905 -0.0632  0.2788 -0.0830
  555TMC3    C2 8284   3.142   1.286  14.966  0.0700 -0.2879 -1.0899
  555TMC3    C3 8285   3.151   1.285  15.103 -0.5874  0.2384 -0.0365
  555TMC3    C4 8286   3.256   1.075  14.970  0.1336 -0.0965 -0.0362
  555TMC3    C5 8287   3.248   1.074  15.108  0.4126  1.1023  0.0524
  555TMC3    C6 8288   3.192   1.174  15.176 -0.1406  0.0779  0.4410
  555TMC3     C 8289   3.226   1.183  14.762  0.9874 -0.6010 -0.1047
  555TMC3     O 8290   3.294   1.098  14.702  0.2430 -0.4403  0.2254
  555TMC3     H 8291   3.110   1.380  14.922 -0.6115 -0.6193 -1.3017
  555TMC3    H1 8292   3.308   0.992  14.922  0.7254  0.8410 -1.0258
  555TMC3    H2 8293   3.179   1.161  15.283 -3.0498  0.9372  0.2069
  555TMC3    C7 8294   3.315   0.966  15.195  0.4651  0.7079 -0.0430
  555TMC3    C8 8295   3.094   1.398  15.172 -0.2410 -0.1731 -0.4704
  555TMC3    O1 8296   3.268   0.956  15.307 -0.0986 -0.5419  0.1393
  555TMC3    O2 8297   3.045   1.485  15.101 -0.2043  0.3120  0.6677
  556MPD2     C 8298   1.090   4.142  10.904  0.0314  1.1709 -0.0848
  556MPD2    C1 8299   1.090   4.010  10.945 -0.0814 -0.5878 -0.4650
  556MPD2    C2 8300   1.086   3.902  10.847 -0.2716 -0.1049 -0.4322
  556MPD2    C3 8301   1.087   3.939  10.713 -0.1649  0.1857  0.5364
  556MPD2    C4 8302   1.095   4.072  10.673  0.4047 -0.2765 -0.2480
  556MPD2    C5 8303   1.088   4.174  10.767 -1.0255 -0.0793  0.8926
  556MPD2     H 8304   1.099   3.798  10.875  2.3004 -0.0069 -1.2523
  556MPD2    H1 8305   1.111   4.092  10.567 -0.2598 -1.1873 -0.5221
  556MPD2    H2 8306   1.105   4.230  10.966 -0.4689  0.5953  0.8710
  556MPD2    H3 8307   1.085   4.278  10.738  1.3745 -0.4841 -0.7758
  556MPD2     N 8308   1.109   3.832  10.621  0.6710  0.0568  0.4222
  556MPD2    H5 8309   1.107   3.745  10.674 -3.6240 -0.7585 -1.0449
  556MPD2    N1 8310   1.104   3.971  11.078  0.1144 -0.2016 -0.9204
  556MPD2    H7 8311   1.087   3.874  11.101 -3.8305  1.1234  1.9865
  557TMC3    C1 8312   1.143   3.702  10.420  0.1403  0.8064  0.0389
  557TMC3    C2 8313   1.106   3.705  10.291 -0.7089 -0.3376 -0.2913
  557TMC3    C3 8314   1.060   3.584  10.235 -0.9930  0.2783 -0.4318
  557TMC3    C4 8315   1.118   3.588  10.494 -0.0612 -0.3942 -0.1896
  557TMC3    C5 8316   1.084   3.469  10.428  0.0765 -0.3172 -1.0028
  557TMC3    C6 8317   1.046   3.466  10.298  0.5592 -0.0531 -0.4648
  557TMC3     C 8318   1.138   3.835  10.489 -0.0152  0.2523  0.5143
  557TMC3     O 8319   1.143   3.931  10.417 -0.4171  0.0670  0.0375
  557TMC3     H 8320   1.127   3.797  10.238  1.6695 -0.9158 -0.3362
  557TMC3    H1 8321   1.153   3.573  10.595 -1.9236 -1.5177  0.2966
  557TMC3    H2 8322   1.009   3.377  10.249  0.3547 -1.4042  2.1412
  557TMC3    C7 8323   1.060   3.355  10.507  0.1174  0.2704 -1.0661
  557TMC3    C8 8324   1.007   3.598  10.096  0.2296  0.0930 -0.3733
  557TMC3    O1 8325   1.020   3.380  10.619 -0.0748 -0.4693 -0.2242
  557TMC3    O2 8326   1.025   3.705  10.045 -0.0483  0.1301  0.1234
  558TMC3    C1 8327   3.733   0.659  10.602 -0.4281  0.4333  0.3696
  558TMC3    C2 8328   3.615   0.718  10.575 -0.5643 -0.1602  0.2935
  558TMC3    C3 8329   3.528   0.632  10.500 -0.0120  0.4723 -0.2165
  558TMC3    C4 8330   3.781   0.548  10.541  0.2583  0.5123 -0.1556
  558TMC3    C5 8331   3.696   0.481  10.456 -0.3431  0.2625 -0.9666
  558TMC3    C6 8332   3.567   0.512  10.445  0.1124  0.1801  0.3670
  558TMC3     C 8333   3.798   0.693  10.729  0.0834  0.1499 -0.2643
  558TMC3     O 8334   3.768   0.806  10.768  0.1260  0.5516  0.5434
  558TMC3     H 8335   3.586   0.814  10.616  1.1085  0.2186  0.5778
  558TMC3    H1 8336   3.882   0.514  10.560  0.9026  0.7326 -3.1436
  558TMC3    H2 8337   3.498   0.458  10.381 -0.8595 -1.4441  2.7489
  558TMC3    C7 8338   3.745   0.368  10.376 -0.2928 -0.2427 -0.5495
  558TMC3    C8 8339   3.391   0.681  10.484  0.3122 -0.1734  0.5553
  558TMC3    O1 8340   3.673   0.266  10.361 -0.1194  0.7415  0.8311
  558TMC3    O2 8341   3.323   0.641  10.392  0.6538  0.5843  0.0098
  559MPD2     C 8342   3.697   2.060  10.472  0.2928 -0.0839  0.5626
  559MPD2    C1 8343   3.633   2.039  10.586 -0.2417 -0.0953  0.2218
  559MPD2    C2 8344   3.701   2.027  10.706  0.4659 -0.7399 -0.4462
  559MPD2    C3 8345   3.842   2.015  10.701 -0.1679 -0.0712 -0.5182
  559MPD2    C4 8346   3.908   2.024  10.578  1.0412 -0.4136 -0.9498
  559MPD2    C5 8347   3.836   2.056  10.473  0.6050 -0.3729 -0.6627
  559MPD2     H 8348   3.642   2.023  10.797  0.1033 -1.0011 -0.6940
  559MPD2    H1 8349   4.015   2.003  10.573  1.4231  0.9519  1.3049
  559MPD2    H2 8350   3.631   2.080  10.388 -0.5022  2.4594  1.7869
  559MPD2    H3 8351   3.879   2.072  10.375 -0.0879  0.0369 -0.9023
  559MPD2     N 8352   3.911   1.963  10.816  0.3019  0.6862  0.3478
  559MPD2    H5 8353   3.852   1.932  10.893  0.3085 -0.7626 -0.2317
  559MPD2    N1 8354   3.489   2.049  10.598  0.1622  0.2012  0.1947
  559MPD2    H7 8355   3.435   2.091  10.524  1.3679 -0.4494 -1.0497
  560TMC3    C1 8356   4.074   1.887  10.976 -0.7321  0.8140  0.1194
  560TMC3    C2 8357   3.969   1.821  11.039  0.3316 -0.0612  0.1284
  560TMC3    C3 8358   4.009   1.739  11.142 -0.5786 -0.7154 -0.7294
  560TMC3    C4 8359   4.211   1.885  11.015  0.8588  0.0687  0.8670
  560TMC3    C5 8360   4.244   1.804  11.114  0.0560  0.1227 -0.0277
  560TMC3    C6 8361   4.141   1.739  11.185 -0.3044  0.1289 -0.1419
  560TMC3     C 8362   4.045   1.947  10.843 -0.5670  0.4935  0.7665
  560TMC3     O 8363   4.136   2.004  10.789  0.2815 -0.1512 -0.2976
  560TMC3     H 8364   3.871   1.814  10.992  0.4870 -1.0981 -0.0374
  560TMC3    H1 8365   4.292   1.931  10.959  0.3937  0.2848  0.3698
  560TMC3    H2 8366   4.178   1.682  11.269 -2.3070 -0.7928  0.1145
  560TMC3    C7 8367   4.376   1.789  11.161 -0.1447  0.5103 -0.7046
  560TMC3    C8 8368   3.906   1.658  11.204  0.3608 -0.0292 -0.0176
  560TMC3    O1 8369   4.386   1.691  11.236  0.1337 -0.5079  0.3779
  560TMC3    O2 8370   3.798   1.676  11.153 -0.2436 -0.6443  0.3867
  561TMC3    C1 8371   1.572   0.933  11.586 -0.5216  0.0755 -0.7536
  561TMC3    C2 8372   1.445   0.874  11.590 -0.2689  0.8034 -0.3412
  561TMC3    C3 8373   1.343   0.946  11.629 -0.1556 -0.6785 -0.7010
  561TMC3    C4 8374   1.591   1.068  11.605  0.1529 -0.2076  0.1459
  561TMC3    C5 8375   1.482   1.145  11.633  0.1196 -0.2063 -0.6607
  561TMC3    C6 8376   1.356   1.082  11.648 -0.1683 -0.2745 -0.0187
  561TMC3     C 8377   1.674   0.847  11.539 -0.0764 -0.1393  0.3686
  561TMC3     O 8378   1.657   0.727  11.548  0.0199 -0.0190  0.2262
  561TMC3     H 8379   1.435   0.767  11.605  0.1732  0.2676 -3.7416
  561TMC3    H1 8380   1.692   1.100  11.627 -0.1834 -0.3401  1.8883
  561TMC3    H2 8381   1.273   1.149  11.668 -1.5635 -2.3672  1.1706
  561TMC3    C7 8382   1.488   1.286  11.633  0.7594  0.1010  0.4547
  561TMC3    C8 8383   1.223   0.881  11.674 -0.1713  0.4944  0.3641
  561TMC3    O1 8384   1.387   1.346  11.671 -0.0372 -0.0594  0.0555
  561TMC3    O2 8385   1.193   0.779  11.619 -0.2528  0.1569  0.3062
  562TMC3    C1 8386   2.820   1.593  16.559  0.3618 -0.1109 -0.2707
  562TMC3    C2 8387   2.829   1.731  16.546 -0.3105 -0.0484  0.4339
  562TMC3    C3 8388   2.897   1.785  16.433 -0.5555  0.6834  0.4173
  562TMC3    C4 8389   2.869   1.519  16.457 -0.3223 -0.8168 -0.0408
  562TMC3    C5 8390   2.935   1.573  16.351  0.0858 -0.1002  0.4986
  562TMC3    C6 8391   2.940   1.710  16.333  0.4890 -0.2326 -0.4080
  562TMC3     C 8392   2.765   1.522  16.673  0.6988  0.2674  0.4830
  562TMC3     O 8393   2.761   1.401  16.670  0.5507  0.2176  0.0895
  562TMC3     H 8394   2.778   1.796  16.616  0.3158  0.6331  0.2585
  562TMC3    H1 8395   2.857   1.412  16.467  0.8309 -0.8776  0.7945
  562TMC3    H2 8396   3.006   1.753  16.259 -0.6186  0.3343 -1.0686
  562TMC3    C7 8397   2.988   1.482  16.249  0.6105  0.2704 -0.1788
  562TMC3    C8 8398   2.892   1.926  16.422 -0.0773  0.3794 -0.8630
  562TMC3    O1 8399   2.983   1.517  16.133  0.1650  0.3472 -0.3398
  562TMC3    O2 8400   2.887   1.988  16.528 -0.6029 -0.0457  0.5218
  563MPD2     C 8401   0.561   3.044  15.926  0.3854 -0.1649 -0.1761
  563MPD2    C1 8402   0.608   3.061  16.052  0.8776  0.5609 -0.6831
  563MPD2    C2 8403   0.734   3.017  16.080 -0.9815  0.0576 -0.2884
  563MPD2    C3 8404   0.816   2.960  15.988 -0.8772 -0.0420  0.5639
  563MPD2    C4 8405   0.775   2.959  15.858 -0.1134  0.3887 -0.4775
  563MPD2    C5 8406   0.648   2.997  15.829 -0.1245 -0.5639 -0.4132
  563MPD2     H 8407   0.772   3.018  16.182 -2.2643  2.4359  0.1452
  563MPD2    H1 8408   0.824   2.907  15.778  0.8376 -1.2084  1.1461
  563MPD2    H2 8409   0.457   3.069  15.906  0.8615 -0.1073 -2.5910
  563MPD2    H3 8410   0.606   2.989  15.730  1.5564 -1.9768 -1.0098
  563MPD2     N 8411   0.935   2.893  16.030  0.4389  0.3884  0.3513
  563MPD2    H5 8412   0.950   2.899  16.130 -3.6619  0.6722  0.9352
  563MPD2    N1 8413   0.527   3.115  16.150  0.1210 -0.0529 -0.1526
  563MPD2    H7 8414   0.428   3.112  16.129 -0.0883 -0.2394  0.8505
  564TMC3    C1 8415   0.490   3.094  16.381  0.4921 -0.2841 -0.3196
  564TMC3    C2 8416   0.383   3.023  16.333 -0.0127  0.2549  0.2701
  564TMC3    C3 8417   0.349   2.916  16.399  1.3717 -0.5008 -0.2112
  564TMC3    C4 8418   0.559   3.051  16.493 -0.5380  0.3929  0.6182
  564TMC3    C5 8419   0.545   2.921  16.525  0.4782 -0.1943 -0.4085
  564TMC3    C6 8420   0.437   2.857  16.483  0.4259  0.2464  0.8084
  564TMC3     C 8421   0.570   3.149  16.275 -0.1618  0.3821  0.5025
  564TMC3     O 8422   0.678   3.201  16.306  0.1822  0.1521  0.3482
  564TMC3     H 8423   0.302   3.053  16.267  0.6473 -1.4849 -1.3483
  564TMC3    H1 8424   0.642   3.109  16.530 -0.2767  0.4536 -0.0785
  564TMC3    H2 8425   0.433   2.749  16.496  0.5830  0.1330 -0.0834
  564TMC3    C7 8426   0.664   2.845  16.491 -1.0091 -0.1827  0.3373
  564TMC3    C8 8427   0.297   2.806  16.317 -0.3413 -0.4391  0.6905
  564TMC3    O1 8428   0.766   2.862  16.552  0.2557 -0.3858  0.6368
  564TMC3    O2 8429   0.256   2.709  16.373 -0.0910 -0.6808  0.0233
  565TMC3    C1 8430   0.764   0.094   9.959  0.2113 -0.2546  0.2017
  565TMC3    C2 8431   0.802   0.027  10.072  0.1903  0.3878  0.2914
  565TMC3    C3 8432   0.791   4.629  10.058  0.1886  0.1306  0.6905
  565TMC3    C4 8433   0.734   0.039   9.840 -0.4170 -0.2322 -0.1800
  565TMC3    C5 8434   0.729   4.641   9.840  0.5112  0.2806 -0.5293
  565TMC3    C6 8435   0.742   4.563   9.955 -0.0039  0.0403 -0.4294
  565TMC3     C 8436   0.775   0.240   9.966 -0.4614 -0.2733 -0.7693
  565TMC3     O 8437   0.719   0.303   9.877  0.0626 -0.7533  0.6841
  565TMC3     H 8438   0.842   0.072  10.162  0.3253 -1.0293  0.9295
  565TMC3    H1 8439   0.707   0.100   9.755 -1.4057  0.8684  0.9204
  565TMC3    H2 8440   0.769   4.458   9.948  0.5667  0.2232 -0.9988
  565TMC3    C7 8441   0.719   4.573   9.711 -0.4053 -0.7950 -0.2432
  565TMC3    C8 8442   0.802   4.554  10.184  0.0365  1.0421 -0.3675
  565TMC3    O1 8443   0.752   4.636   9.609 -0.2044 -0.1255 -0.5599
  565TMC3    O2 8444   0.830   4.622  10.280  0.6588  0.3219 -1.3971
  566MPD2     C 8445   2.293   0.768  14.136  0.1883 -0.3145  0.5882
  566MPD2    C1 8446   2.281   0.903  14.116 -0.1177 -0.2552 -0.7144
  566MPD2    C2 8447   2.164   0.970  14.149 -0.2959  0.4687  0.6092
  566MPD2    C3 8448   2.060   0.893  14.202 -0.1727  0.7261  0.3908
  566MPD2    C4 8449   2.075   0.753  14.224  0.2272 -0.1627 -0.0037
  566MPD2    C5 8450   2.192   0.702  14.187  0.4863  0.3057  0.0221
  566MPD2     H 8451   2.156   1.076  14.131  1.0740  0.2551 -1.2386
  566MPD2    H1 8452   1.994   0.691  14.261  0.1478 -0.7763 -1.1771
  566MPD2    H2 8453   2.381   0.707  14.118 -1.1300 -1.7997 -0.8068
  566MPD2    H3 8454   2.191   0.597  14.216 -1.3669 -0.0464 -1.2830
  566MPD2     N 8455   1.924   0.937  14.216 -1.0380 -0.3781 -0.0064
  566MPD2    H5 8456   1.856   0.891  14.275  2.1175  0.2312  4.1163
  566MPD2    N1 8457   2.395   0.971  14.063 -0.2526 -0.1172 -0.4014
  566MPD2    H7 8458   2.477   0.912  14.057  0.9322  1.3211  1.5950
  567TMC3    C1 8459   2.543   1.133  13.959 -0.2479 -0.3961 -0.9096
  567TMC3    C2 8460   2.551   1.249  13.890 -1.0221 -0.1640  0.2550
  567TMC3    C3 8461   2.672   1.305  13.883  0.6478 -0.0300  0.4502
  567TMC3    C4 8462   2.651   1.078  14.022  0.0579 -0.3686 -0.0560
  567TMC3    C5 8463   2.777   1.141  14.010 -0.1939 -0.4718  0.6363
  567TMC3    C6 8464   2.791   1.256  13.947 -0.3156  0.3013  0.3006
  567TMC3     C 8465   2.411   1.093  14.002  0.4103  0.3286  0.2030
  567TMC3     O 8466   2.326   1.180  13.991 -0.0844  0.4271 -0.2023
  567TMC3     H 8467   2.473   1.281  13.823 -1.1574  3.7823  2.2762
  567TMC3    H1 8468   2.650   0.987  14.081  2.0121  0.6849  1.5708
  567TMC3    H2 8469   2.891   1.295  13.927  0.4733 -2.2182 -0.6347
  567TMC3    C7 8470   2.881   1.107  14.099  0.4551 -0.1128  0.1334
  567TMC3    C8 8471   2.672   1.447  13.842  0.0234 -0.2197 -0.8158
  567TMC3    O1 8472   2.993   1.120  14.056 -0.1970  0.0376  0.0196
  567TMC3    O2 8473   2.581   1.510  13.890 -0.1425 -0.5202 -0.1605
  568MPD2     C 8474   0.667   1.252  16.242  0.4642 -0.0242  0.3396
  568MPD2    C1 8475   0.672   1.320  16.359  0.5236 -0.6681  0.0537
  568MPD2    C2 8476   0.641   1.459  16.367  0.5724 -0.4269 -0.0392
  568MPD2    C3 8477   0.629   1.522  16.250  0.4342 -0.0431  0.4721
  568MPD2    C4 8478   0.637   1.459  16.131  0.8478  0.3595  0.1096
  568MPD2    C5 8479   0.652   1.326  16.123 -0.2665  0.5967  0.0152
  568MPD2     H 8480   0.640   1.516  16.459 -0.6279 -2.1439  1.0227
  568MPD2    H1 8481   0.627   1.515  16.038 -0.6612  2.1354  1.3317
  568MPD2    H2 8482   0.683   1.145  16.241  0.0700 -0.0780 -2.1550
  568MPD2    H3 8483   0.641   1.283  16.024 -2.6557  0.0425  0.5226
  568MPD2     N 8484   0.606   1.666  16.259  0.3745  0.2587 -0.0028
  568MPD2    H5 8485   0.586   1.692  16.355 -1.5154  1.1094 -0.6268
  568MPD2    N1 8486   0.701   1.247  16.479 -0.2061  0.3075 -0.6394
  568MPD2    H7 8487   0.719   1.147  16.477 -2.3136 -0.0702 -0.9329
  569TMC3    C1 8488   0.551   1.886  16.209 -0.2925  0.0915  0.0528
  569TMC3    C2 8489   0.539   1.908  16.340  0.3500 -0.6748 -0.4168
  569TMC3    C3 8490   0.508   2.037  16.389 -0.6178 -0.2755  0.0957
  569TMC3    C4 8491   0.535   1.989  16.120  0.1226  0.5825 -0.2703
  569TMC3    C5 8492   0.500   2.112  16.172 -0.7900 -0.4039 -0.5286
  569TMC3    C6 8493   0.476   2.141  16.305  1.1307 -0.1136  0.4217
  569TMC3     C 8494   0.597   1.757  16.160 -0.1199 -0.1536  0.3870
  569TMC3     O 8495   0.607   1.743  16.035  0.5059  0.3186  0.0669
  569TMC3     H 8496   0.568   1.837  16.417 -1.0190 -0.6438  0.1249
  569TMC3    H1 8497   0.521   1.968  16.015 -0.6194 -3.5290  0.6790
  569TMC3    H2 8498   0.435   2.234  16.342  0.9791  0.4696 -1.1948
  569TMC3    C7 8499   0.464   2.216  16.078  0.9361  0.1844  0.1002
  569TMC3    C8 8500   0.510   2.048  16.536  0.2418  0.4422 -0.3386
  569TMC3    O1 8501   0.473   2.193  15.960  0.4339  0.0295 -0.1040
  569TMC3    O2 8502   0.510   1.949  16.602 -0.2207 -0.2375 -0.1229
  570TMC3    C1 8503   4.651   0.416  16.589 -0.2360 -0.1851 -0.1181
  570TMC3    C2 8504   0.009   0.400  16.492  0.0689  0.2470  0.8557
  570TMC3    C3 8505   0.078   0.510  16.457  0.2410  0.0824  0.0023
  570TMC3    C4 8506   4.642   0.534  16.658 -0.2477  0.3494  0.2340
  570TMC3    C5 8507   4.717   0.643  16.623  0.6244  0.2435 -0.1956
  570TMC3    C6 8508   0.072   0.623  16.525  0.2237 -0.1839  0.1335
  570TMC3     C 8509   4.588   0.298  16.642  0.3677  0.7807 -0.3278
  570TMC3     O 8510   4.558   0.210  16.561 -0.0986 -0.6427 -0.3857
  570TMC3     H 8511   0.004   0.311  16.431  2.3033  1.1412 -0.6488
  570TMC3    H1 8512   4.575   0.554  16.741 -0.4656 -2.0840  0.6409
  570TMC3    H2 8513   0.146   0.700  16.508  0.8361 -0.1670  2.9759
  570TMC3    C7 8514   0.003   0.752  16.711 -0.2814 -0.2442 -1.1852
  570TMC3    C8 8515   0.185   0.491  16.360 -0.1176 -0.4020 -0.0265
  570TMC3    O1 8516   0.099   0.824  16.685  0.4041  0.7507  1.3408
  570TMC3    O2 8517   0.229   0.596  16.314  0.0538  0.3794 -0.1840
  571MPD2     C 8518   1.960   2.119   0.229  0.2247  0.2159 -0.1983
  571MPD2    C1 8519   1.908   2.136   0.353 -0.2800 -0.3811  0.1658
  571MPD2    C2 8520   1.997   2.177   0.452  0.0893  0.8581  1.1991
  571MPD2    C3 8521   2.139   2.179   0.434  0.7644 -0.2942  0.7122
  571MPD2    C4 8522   2.186   2.149   0.304  0.1783  0.7461  0.2040
  571MPD2    C5 8523   2.097   2.120   0.207  1.2303  0.1494  0.2769
  571MPD2     H 8524   1.955   2.207   0.547  0.4861  1.1775  1.2742
  571MPD2    H1 8525   2.294   2.149   0.289  0.0490 -0.7083 -0.7385
  571MPD2    H2 8526   1.891   2.114   0.146  2.1540 -1.5506 -1.6858
  571MPD2    H3 8527   2.125   2.092   0.106  1.1103 -0.4304  0.4055
  571MPD2     N 8528   2.234   2.219   0.529  0.5683 -0.3172 -0.5225
  571MPD2    H5 8529   2.331   2.234   0.503  0.4893 -0.5629 -0.9523
  571MPD2    N1 8530   1.768   2.128   0.361 -0.3608  0.1424 -0.2109
  571MPD2    H7 8531   1.725   2.110   0.270  1.5039  0.3241 -1.1157
  572TMC3    C1 8532   2.318   2.323   0.719 -0.3282 -0.0961 -0.0634
  572TMC3    C2 8533   2.316   2.319   0.849 -0.1005  0.3744  0.6084
  572TMC3    C3 8534   2.427   2.372   0.911 -0.0798  0.1925  0.3431
  572TMC3    C4 8535   2.417   2.380   0.638  0.1889  0.0603  0.0897
  572TMC3    C5 8536   2.525   2.435   0.701 -0.4980  0.6879 -0.3140
  572TMC3    C6 8537   2.526   2.441   0.839 -0.0652 -0.0637 -0.2022
  572TMC3     C 8538   2.202   2.265   0.656 -0.2586 -0.6841 -0.3803
  572TMC3     O 8539   2.108   2.242   0.723 -0.0491  0.2025 -0.5562
  572TMC3     H 8540   2.251   2.244   0.893 -1.2784 -0.0290 -1.8296
  572TMC3    H1 8541   2.418   2.378   0.529  1.1737  2.8551  0.0284
  572TMC3    H2 8542   2.593   2.502   0.898  0.0842 -0.8085  0.3995
  572TMC3    C7 8543   2.611   2.520   0.626 -0.4514  0.5965  0.7893
  572TMC3    C8 8544   2.407   2.398   1.049  0.1194 -0.0119  0.0034
  572TMC3    O1 8545   2.587   2.543   0.508  0.5435 -0.1010  0.1714
  572TMC3    O2 8546   2.515   2.424   1.101 -0.2115 -0.1043  0.5121
  573MPD2     C 8547   4.574   3.449   0.880 -0.1858 -0.0644  0.3588
  573MPD2    C1 8548   4.439   3.486   0.866  0.0430  0.1413 -0.4907
  573MPD2    C2 8549   4.394   3.509   0.737 -0.3832  0.0868  0.9788
  573MPD2    C3 8550   4.471   3.502   0.625 -0.0603  0.5018  0.2552
  573MPD2    C4 8551   4.607   3.483   0.638 -0.7115 -0.3240 -0.0996
  573MPD2    C5 8552   4.661   3.459   0.767  1.1428 -0.0760 -0.2606
  573MPD2     H 8553   4.289   3.533   0.722  0.1877  1.0738 -1.4482
  573MPD2    H1 8554   4.671   3.479   0.551 -2.3440  0.3418 -1.3289
  573MPD2    H2 8555   4.616   3.436   0.979 -0.5031  0.1386  0.5189
  573MPD2    H3 8556   0.028   3.447   0.785  0.6884  0.2449  2.7748
  573MPD2     N 8557   4.422   3.524   0.491  0.9090 -0.0905 -0.2341
  573MPD2    H5 8558   4.484   3.527   0.411 -0.1119  0.0927 -1.0251
  573MPD2    N1 8559   4.358   3.491   0.985 -0.3634 -0.2593  0.2063
  573MPD2    H7 8560   4.400   3.475   1.076  2.9567  1.4702 -1.0195
  574TMC3    C1 8561   4.273   3.583   0.313 -0.1894 -0.0349  0.0578
  574TMC3    C2 8562   4.145   3.562   0.256 -0.3974  0.5537 -0.0156
  574TMC3    C3 8563   4.121   3.616   0.133  0.1092  0.2933  0.0825
  574TMC3    C4 8564   4.370   3.645   0.246 -0.2301  0.5693  0.1533
  574TMC3    C5 8565   4.343   3.670   0.113 -0.8198  0.1970  0.8183
  574TMC3    C6 8566   4.218   3.664   0.051 -0.3705  0.8534 -0.1725
  574TMC3     C 8567   4.292   3.534   0.452  0.5925 -0.1037  0.4423
  574TMC3     O 8568   4.195   3.510   0.522  0.0875  0.5876 -0.3292
  574TMC3     H 8569   4.066   3.523   0.319  0.5273  1.8168  1.9386
  574TMC3    H1 8570   4.469   3.665   0.285  0.1748  1.9423 -1.6107
  574TMC3    H2 8571   4.204   3.679  17.700 -3.9167 -0.1488  0.1774
  574TMC3    C7 8572   4.451   3.708   0.014 -0.0085 -0.2667  0.0795
  574TMC3    C8 8573   3.999   3.589   0.071  1.1184  0.0745  0.2228
  574TMC3    O1 8574   4.419   3.761  17.667  0.2956 -0.3464 -0.4023
  574TMC3    O2 8575   3.959   3.475   0.088 -0.0046  0.0169 -0.1095
  575TMC3    C1 8576   1.065   4.489  11.013 -0.0744 -0.2970 -0.1979
  575TMC3    C2 8577   0.999   4.412  11.107 -0.2901  0.4300  0.4425
  575TMC3    C3 8578   0.874   4.362  11.071  0.6032  0.1926 -0.3407
  575TMC3    C4 8579   1.007   4.529  10.893 -0.4420 -0.0424  0.4536
  575TMC3    C5 8580   0.893   4.470  10.854 -0.0704  0.1906 -0.2820
  575TMC3    C6 8581   0.818   4.396  10.942  0.3544  0.1601  0.6460
  575TMC3     C 8582   1.206   4.509  11.023  0.3019 -0.2227 -0.1505
  575TMC3     O 8583   1.253   4.603  10.956 -0.1785 -0.1575  0.2687
  575TMC3     H 8584   1.055   4.388  11.196  0.8621  0.3753 -0.2996
  575TMC3    H1 8585   1.073   4.569  10.817 -2.9747 -1.2723 -2.4061
  575TMC3    H2 8586   0.720   4.363  10.910  1.0327  1.6724 -3.0842
  575TMC3    C7 8587   0.878   4.446  10.715  0.3354 -0.0066 -0.1769
  575TMC3    C8 8588   0.801   4.263  11.143  0.0613  0.0859  0.4645
  575TMC3    O1 8589   0.926   4.534  10.646  0.0823  0.2352 -0.1933
  575TMC3    O2 8590   0.712   4.197  11.085  0.2973 -0.5968 -0.1373
  576MPD2     C 8591   0.809   1.004  13.100 -0.2780  0.0576 -0.1397
  576MPD2    C1 8592   0.788   1.114  13.016  1.2135 -0.3258 -0.0457
  576MPD2    C2 8593   0.722   1.225  13.072  0.0119  0.8319 -0.7248
  576MPD2    C3 8594   0.683   1.226  13.205  0.1220 -0.3603 -0.1108
  576MPD2    C4 8595   0.706   1.118  13.284 -0.6668  0.9845 -0.3165
  576MPD2    C5 8596   0.771   1.010  13.230  0.6957 -0.2978 -0.4220
  576MPD2     H 8597   0.700   1.308  13.006 -0.6300  0.5841 -0.8201
  576MPD2    H1 8598   0.672   1.118  13.387  0.3759 -0.6314  0.0289
  576MPD2    H2 8599   0.867   0.919  13.064  0.0012 -0.5817  1.8189
  576MPD2    H3 8600   0.804   0.925  13.289 -1.5560 -0.3316  0.8229
  576MPD2     N 8601   0.613   1.345  13.242  0.3052 -0.6770  0.4351
  576MPD2    H5 8602   0.612   1.409  13.164 -2.6305  1.5607  2.2857
  576MPD2    N1 8603   0.822   1.125  12.878  0.2532 -0.1043  0.3409
  576MPD2    H7 8604   0.800   1.216  12.838  0.2957  0.3027  1.2552
  577TMC3    C1 8605   0.904   1.058  12.662  0.0720 -0.5596 -0.2161
  577TMC3    C2 8606   0.925   0.955  12.568  0.7505  0.2792  0.8752
  577TMC3    C3 8607   0.907   0.990  12.432 -0.6510 -0.6411  0.6051
  577TMC3    C4 8608   0.881   1.181  12.611 -0.2230 -0.7767 -0.3670
  577TMC3    C5 8609   0.888   1.209  12.482 -0.4641 -0.1907 -0.1658
  577TMC3    C6 8610   0.904   1.112  12.389 -0.0444 -0.2878  0.5152
  577TMC3     C 8611   0.879   1.022  12.805 -0.3102 -0.1690 -0.4371
  577TMC3     O 8612   0.915   0.909  12.850  0.2425 -0.7550  0.0233
  577TMC3     H 8613   0.915   0.850  12.593  1.1488  0.8479  3.3917
  577TMC3    H1 8614   0.874   1.272  12.670  1.2491 -2.1266  1.8226
  577TMC3    H2 8615   0.883   1.134  12.285 -2.1929 -1.1874  0.7481
  577TMC3    C7 8616   0.851   1.352  12.441 -0.0081  0.0805 -0.8989
  577TMC3    C8 8617   0.909   0.883  12.330  0.0564  0.2194 -0.0070
  577TMC3    O1 8618   0.850   1.434  12.528 -0.3204 -0.1194 -0.5975
  577TMC3    O2 8619   0.851   0.779  12.351 -0.0910  0.4630  0.1870
  578MPD2     C 8620   0.460   0.942   1.897 -0.4357  0.5966  0.0737
  578MPD2    C1 8621   0.507   0.823   1.845 -0.2854  0.3090  0.0769
  578MPD2    C2 8622   0.492   0.706   1.929 -0.2040  0.4557  0.1502
  578MPD2    C3 8623   0.420   0.720   2.052 -0.9714  0.6890 -0.5728
  578MPD2    C4 8624   0.382   0.846   2.102  0.0905  0.3655  0.8198
  578MPD2    C5 8625   0.399   0.955   2.017  0.4751  0.1707 -0.2403
  578MPD2     H 8626   0.524   0.606   1.904 -0.6747 -0.0914  1.7349
  578MPD2    H1 8627   0.334   0.861   2.198 -2.3696 -2.9056  0.0873
  578MPD2    H2 8628   0.470   1.028   1.831 -2.1603  1.1119  0.4947
  578MPD2    H3 8629   0.375   1.055   2.052  1.1342  0.3152 -0.2027
  578MPD2     N 8630   0.412   0.599   2.129 -0.4562 -0.5230  0.1811
  578MPD2    H5 8631   0.427   0.514   2.076  0.1536 -0.8078  0.8105
  578MPD2    N1 8632   0.550   0.811   1.712 -0.5602  0.6862 -0.3255
  578MPD2    H7 8633   0.527   0.891   1.653  2.6136  1.2206 -0.8307
  579TMC3    C1 8634   0.466   0.469   2.310  0.7226 -0.0018 -0.1886
  579TMC3    C2 8635   0.586   0.495   2.371 -0.1456  0.4729 -0.0319
  579TMC3    C3 8636   0.695   0.425   2.334  0.0695  0.3406  0.2056
  579TMC3    C4 8637   0.455   0.370   2.217 -0.3968 -0.0677 -0.9569
  579TMC3    C5 8638   0.566   0.309   2.175  0.8252  0.2967 -0.3339
  579TMC3    C6 8639   0.687   0.333   2.232 -0.2755  0.5532 -0.2422
  579TMC3     C 8640   0.405   0.590   2.267  0.4480  0.1028 -0.0277
  579TMC3     O 8641   0.385   0.678   2.348  1.0422 -0.9349 -0.8214
  579TMC3     H 8642   0.605   0.582   2.432  0.2121 -1.3940  2.4929
  579TMC3    H1 8643   0.361   0.333   2.178 -0.8420  1.4323 -1.3180
  579TMC3    H2 8644   0.766   0.263   2.207 -1.1561 -0.2931 -0.6445
  579TMC3    C7 8645   0.563   0.175   2.111  0.3626  0.3322  0.5411
  579TMC3    C8 8646   0.823   0.437   2.408  0.6046 -0.5092 -1.2368
  579TMC3    O1 8647   0.651   0.097   2.144 -0.2859  0.4248 -0.0284
  579TMC3    O2 8648   0.815   0.452   2.531 -0.6665  0.2202  0.2355
  580TMC3    C1 8649   3.219   4.615  12.433  0.2962 -0.0027 -0.0366
  580TMC3    C2 8650   3.164   4.618  12.305 -0.4696 -0.2827  0.7846
  580TMC3    C3 8651   3.196   4.511  12.213 -0.4413  0.1020  0.4796
  580TMC3    C4 8652   3.281   4.505  12.483 -0.1782 -0.1267 -0.4381
  580TMC3    C5 8653   3.294   4.395  12.397 -0.7956 -0.9473 -0.3419
  580TMC3    C6 8654   3.255   4.395  12.265 -0.6711 -0.0569 -0.3102
  580TMC3     C 8655   3.285   4.739  12.460 -0.3430 -0.2789 -0.1489
  580TMC3     O 8656   3.244   0.095  12.396 -0.0067  0.3716 -0.2023
  580TMC3     H 8657   3.105   4.705  12.280  1.1980  0.9350  1.1006
  580TMC3    H1 8658   3.315   4.496  12.585  0.5311 -0.6066 -0.7140
  580TMC3    H2 8659   3.303   4.332  12.192 -3.9146 -0.3309 -2.1905
  580TMC3    C7 8660   3.357   4.275  12.443 -0.3980 -0.1119  0.2446
  580TMC3    C8 8661   3.276   4.569  12.108 -0.2865  0.9311  0.0692
  580TMC3    O1 8662   3.436   4.289  12.536 -0.0496 -0.5042 -0.0741
  580TMC3    O2 8663   3.293   4.501  12.006  0.1868  0.0142 -0.4519
  581MPD2     C 8664   1.513   4.169  14.765 -0.0130 -0.6843  0.7919
  581MPD2    C1 8665   1.475   4.140  14.892  0.2962 -0.0137 -0.5759
  581MPD2    C2 8666   1.353   4.191  14.939  0.1165 -0.1694  0.7846
  581MPD2    C3 8667   1.264   4.253  14.857  0.0559  0.0209  0.5621
  581MPD2    C4 8668   1.310   4.284  14.727  0.1704 -0.4544  0.0776
  581MPD2    C5 8669   1.440   4.247  14.684  0.4829 -0.1871  0.4957
  581MPD2     H 8670   1.316   4.180  15.040 -2.7771 -0.2388 -0.2795
  581MPD2    H1 8671   1.252   4.350  14.663  2.5789  0.8726 -0.7333
  581MPD2    H2 8672   1.607   4.128  14.727 -0.5201  0.2322 -1.4870
  581MPD2    H3 8673   1.471   4.280  14.586  0.0607  1.6389  0.9723
  581MPD2     N 8674   1.149   4.302  14.912  0.0961 -0.4829 -0.2508
  581MPD2    H5 8675   1.127   4.278  15.008  1.1004 -0.9720 -0.1445
  581MPD2    N1 8676   1.561   4.066  14.968  0.1483 -0.2308  0.3790
  581MPD2    H7 8677   1.659   4.058  14.943 -0.5028 -0.4608 -2.0307
  582TMC3    C1 8678   1.624   3.918  15.136 -0.2572  0.5747 -0.1630
  582TMC3    C2 8679   1.740   3.974  15.187 -0.2547  0.4017 -0.4779
  582TMC3    C3 8680   1.808   3.915  15.290 -1.0654  0.4629 -0.2963
  582TMC3    C4 8681   1.574   3.808  15.202  0.7199 -0.0378 -0.1897
  582TMC3    C5 8682   1.644   3.747  15.301  0.1782 -0.5503  0.0755
  582TMC3    C6 8683   1.763   3.807  15.355 -0.3493 -0.0152  0.5165
  582TMC3     C 8684   1.520   4.000  15.084 -0.3050 -0.1935 -0.2173
  582TMC3     O 8685   1.418   4.006  15.149 -0.0967  0.4384 -0.2130
  582TMC3     H 8686   1.771   4.065  15.136  0.1978  0.5570  0.0799
  582TMC3    H1 8687   1.479   3.770  15.167  0.5026 -1.2324  1.7130
  582TMC3    H2 8688   1.802   3.776  15.451 -1.7170 -2.3476  0.3163
  582TMC3    C7 8689   1.556   3.710  15.414  0.1002  0.0969 -0.0949
  582TMC3    C8 8690   1.904   3.993  15.351 -0.7404  0.4337 -0.0821
  582TMC3    O1 8691   1.583   3.622  15.496 -0.5730 -0.0347 -0.0030
  582TMC3    O2 8692   1.862   4.105  15.390 -0.2433 -0.1749  0.4006
  583MPD2     C 8693   1.635   1.061  16.743  0.4154 -0.7196  0.3616
  583MPD2    C1 8694   1.571   1.178  16.711  0.1197  0.0859  0.5429
  583MPD2    C2 8695   1.516   1.262  16.808 -0.7351 -0.0294 -0.4913
  583MPD2    C3 8696   1.520   1.227  16.940  0.6461  0.7510 -0.0610
  583MPD2    C4 8697   1.583   1.110  16.976  0.7385 -0.0210 -0.9669
  583MPD2    C5 8698   1.631   1.023  16.878  0.6248  0.6454 -0.6752
  583MPD2     H 8699   1.469   1.354  16.776 -0.0169  0.4711 -0.1208
  583MPD2    H1 8700   1.571   1.075  17.077  2.6850 -0.4245 -0.8639
  583MPD2    H2 8701   1.669   0.992  16.666  1.2667  0.9415 -0.7432
  583MPD2    H3 8702   1.662   0.923  16.905  0.2831  0.2808 -1.6100
  583MPD2     N 8703   1.456   1.313  17.036 -0.9490 -0.2421  0.0639
  583MPD2    H5 8704   1.406   1.393  17.000 -0.2904  0.2258  0.1911
  583MPD2    N1 8705   1.571   1.230  16.584  0.1976  0.1451  0.7412
  583MPD2    H7 8706   1.518   1.315  16.570  1.3988  0.2087 -3.2328
  584TMC3    C1 8707   1.417   1.417  17.249 -0.1645  0.0902 -0.3252
  584TMC3    C2 8708   1.352   1.523  17.189  0.1294 -0.0375 -0.5175
  584TMC3    C3 8709   1.323   1.635  17.266 -0.2064  0.3752 -0.4183
  584TMC3    C4 8710   1.439   1.409  17.389 -0.2571 -0.1385  0.0583
  584TMC3    C5 8711   1.389   1.520  17.457 -0.5697  1.2341  0.1359
  584TMC3    C6 8712   1.344   1.635  17.403  0.4419  0.1549  0.3284
  584TMC3     C 8713   1.467   1.303  17.176  0.1311 -0.5000 -0.2483
  584TMC3     O 8714   1.550   1.237  17.235 -0.0401 -0.6052  0.1041
  584TMC3     H 8715   1.347   1.540  17.082  0.3005  2.8314 -0.0671
  584TMC3    H1 8716   1.465   1.317  17.440 -1.2405  0.3262  1.4360
  584TMC3    H2 8717   1.316   1.721  17.463  1.8184  0.3167  0.7428
  584TMC3    C7 8718   1.382   1.506  17.605  0.0797 -0.1788 -0.0876
  584TMC3    C8 8719   1.358   1.756  17.197 -0.2440 -0.3434 -0.0150
  584TMC3    O1 8720   1.462   1.426  17.654 -0.5388 -0.3982 -0.5526
  584TMC3    O2 8721   1.324   1.774  17.080 -0.5267 -0.5280  0.0016
  585MPD2     C 8722   1.299   4.709   0.900 -1.4005  0.2791  0.3941
  585MPD2    C1 8723   1.416   0.002   0.828  0.3352  0.2717  0.5513
  585MPD2    C2 8724   1.422   4.693   0.700  0.3958  0.1468  0.6371
  585MPD2    C3 8725   1.329   4.614   0.642  0.2667  0.0390 -0.8844
  585MPD2    C4 8726   1.217   4.578   0.718 -0.0135  0.7938 -0.4538
  585MPD2    C5 8727   1.197   4.641   0.840 -0.4935  0.6071 -0.0754
  585MPD2     H 8728   1.517   4.714   0.652  1.9239 -0.9180  3.1763
  585MPD2    H1 8729   1.138   4.516   0.678  1.9563 -2.1301  0.1214
  585MPD2    H2 8730   1.285   0.010   0.999  0.8146  1.4441  0.2366
  585MPD2    H3 8731   1.109   4.624   0.901 -1.2976 -1.8060 -1.8599
  585MPD2     N 8732   1.339   4.568   0.511  0.0805  0.2969  0.0925
  585MPD2    H5 8733   1.258   4.523   0.470 -0.5648  1.3746  0.1793
  585MPD2    N1 8734   1.516   0.075   0.890 -0.0277 -0.5347  0.4693
  585MPD2    H7 8735   1.506   0.121   0.980  1.3149 -1.9372  1.3344
  586TMC3    C1 8736   1.431   4.547   0.290  0.0788 -0.1140  0.5946
  586TMC3    C2 8737   1.538   4.576   0.205  0.0167  0.8520  0.3804
  586TMC3    C3 8738   1.506   4.602   0.070  0.1201 -0.0640 -0.1709
  586TMC3    C4 8739   1.303   4.528   0.238 -0.2402 -0.4448 -0.0950
  586TMC3    C5 8740   1.294   4.531   0.104 -0.0145  0.4157 -0.6408
  586TMC3    C6 8741   1.387   4.576   0.016 -0.5990  0.2497 -0.3944
  586TMC3     C 8742   1.451   4.578   0.433  0.6337  0.1223 -0.1130
  586TMC3     O 8743   1.568   4.591   0.466  0.3968  0.0838  0.3548
  586TMC3     H 8744   1.634   4.599   0.251 -0.0615  1.3309  0.3026
  586TMC3    H1 8745   1.207   4.538   0.288  0.0116  2.2059 -0.1526
  586TMC3    H2 8746   1.378   4.542  17.669  0.3465 -0.8487 -0.1138
  586TMC3    C7 8747   1.158   4.532   0.056 -0.5182 -0.4137 -0.3416
  586TMC3    C8 8748   1.616   4.577  17.744  0.2200 -0.4508 -0.2130
  586TMC3    O1 8749   1.083   4.444   0.096  0.2005 -0.1383  0.8189
  586TMC3    O2 8750   1.698   4.498   0.032 -0.3559 -0.2867  0.4179
  587TMC3    C1 8751   3.335   4.190  16.882 -0.0954  0.1932  0.1030
  587TMC3    C2 8752   3.362   4.318  16.915 -0.2384 -0.1917 -0.0158
  587TMC3    C3 8753   3.452   4.348  17.015  0.0777  0.4282 -0.2682
  587TMC3    C4 8754   3.392   4.091  16.961  0.4871  0.0012  0.4629
  587TMC3    C5 8755   3.480   4.113  17.063  0.0984  0.2154  0.1110
  587TMC3    C6 8756   3.510   4.251  17.095  0.4775  0.0032  0.1677
  587TMC3     C 8757   3.220   4.166  16.806  0.9050  0.0828 -0.3820
  587TMC3     O 8758   3.194   4.259  16.734 -0.3446  0.2012  0.6525
  587TMC3     H 8759   3.301   4.398  16.875 -2.0413 -0.5891  1.9029
  587TMC3    H1 8760   3.378   3.987  16.931  1.7032 -0.1041  0.2906
  587TMC3    H2 8761   3.583   4.282  17.168  0.4736 -0.7142  0.4772
  587TMC3    C7 8762   3.554   4.009  17.135  0.4724 -0.4242  0.5138
  587TMC3    C8 8763   3.441   4.476  17.085  0.4988 -0.1762  0.8572
  587TMC3    O1 8764   3.666   4.034  17.175 -0.2191 -0.0055  0.2207
  587TMC3    O2 8765   3.493   4.478  17.195 -0.4686 -0.2987  0.1850
  588TMC3    C1 8766   0.224   2.157  10.167  0.5439  0.7701 -0.6571
  588TMC3    C2 8767   0.174   2.036  10.154 -0.4491 -0.6153  0.3908
  588TMC3    C3 8768   0.264   1.934  10.142 -0.0103 -0.0787  0.8845
  588TMC3    C4 8769   0.359   2.179  10.161  1.1498 -0.7371 -0.5773
  588TMC3    C5 8770   0.450   2.080  10.162  0.3997  0.3701 -0.2422
  588TMC3    C6 8771   0.397   1.951  10.143  0.2299  0.6783  0.1737
  588TMC3     C 8772   0.123   2.263  10.145 -0.0984 -0.4003 -0.4161
  588TMC3     O 8773   0.026   2.249  10.075  0.5625  0.3408 -0.1418
  588TMC3     H 8774   0.068   2.017  10.149 -0.6496  0.8200 -0.7536
  588TMC3    H1 8775   0.394   2.281  10.155  1.1408 -0.6638  0.6389
  588TMC3    H2 8776   0.465   1.872  10.114 -1.4823 -0.1451 -1.5106
  588TMC3    C7 8777   0.590   2.115  10.158  0.5145 -0.1439  0.6273
  588TMC3    C8 8778   0.208   1.800  10.153 -0.1716  0.1866 -0.1009
  588TMC3    O1 8779   0.679   2.044  10.106  0.3234 -0.6725  0.1618
  588TMC3    O2 8780   0.085   1.791  10.145  0.3810  0.0808  0.3420
  589TMC3    C1 8781   0.430   3.700   1.915  0.7027  0.2587  0.3579
  589TMC3    C2 8782   0.553   3.722   1.976 -0.1853 -0.9490  0.2411
  589TMC3    C3 8783   0.666   3.670   1.919  0.4005 -0.9125 -0.1020
  589TMC3    C4 8784   0.418   3.612   1.812 -0.6694  0.1622  0.4475
  589TMC3    C5 8785   0.533   3.557   1.757  0.0077 -0.5104 -0.0857
  589TMC3    C6 8786   0.657   3.589   1.809  0.4791 -0.7140  0.0177
  589TMC3     C 8787   0.316   3.785   1.940 -0.1509 -0.4256  0.0918
  589TMC3     O 8788   0.215   3.775   1.875 -0.0698 -0.6118 -0.3636
  589TMC3     H 8789   0.551   3.760   2.077 -1.7149  0.7699 -0.4354
  589TMC3    H1 8790   0.324   3.597   1.759  0.7247 -4.5285 -0.7604
  589TMC3    H2 8791   0.742   3.524   1.791  0.8132 -0.3670  0.3279
  589TMC3    C7 8792   0.518   3.440   1.665 -0.2373 -0.2005  0.4824
  589TMC3    C8 8793   0.789   3.686   1.992  0.5445  0.3092 -0.3673
  589TMC3    O1 8794   0.404   3.400   1.647 -0.2548 -0.4233 -0.5400
  589TMC3    O2 8795   0.778   3.767   2.085  0.3735 -0.0512  0.8539
  590MPD2     C 8796   4.240   1.777  16.822 -0.4013 -0.1019 -0.0745
  590MPD2    C1 8797   4.173   1.867  16.743  0.2828  0.0209 -0.2504
  590MPD2    C2 8798   4.247   1.975  16.701  0.6648  0.2162 -0.3004
  590MPD2    C3 8799   4.377   1.996  16.736 -1.2085  0.2529  0.5134
  590MPD2    C4 8800   4.436   1.910  16.832  0.0135 -0.3554 -0.3206
  590MPD2    C5 8801   4.366   1.799  16.872  0.3770  0.0013  0.1545
  590MPD2     H 8802   4.192   2.046  16.641 -1.9804 -1.4841  0.1026
  590MPD2    H1 8803   4.535   1.931  16.872  0.6002 -0.1031 -1.9001
  590MPD2    H2 8804   4.184   1.689  16.852 -0.2211 -0.1765  0.0425
  590MPD2    H3 8805   4.412   1.731  16.943 -0.3977  1.5742  2.1395
  590MPD2     N 8806   4.435   2.122  16.707  0.7234 -0.6203 -0.5453
  590MPD2    H5 8807   4.376   2.178  16.647  1.6456 -0.3647 -1.2212
  590MPD2    N1 8808   4.036   1.848  16.712  0.3752  0.1352 -0.4141
  590MPD2    H7 8809   3.988   1.776  16.765 -1.3636  0.9280 -0.8910
  591TMC3    C1 8810   4.607   2.283  16.679 -0.2176 -0.7883  0.2263
  591TMC3    C2 8811   0.001   2.296  16.633  0.5971  0.3650 -0.3101
  591TMC3    C3 8812   0.029   2.394  16.544 -0.0334  0.7099 -0.9026
  591TMC3    C4 8813   4.507   2.376  16.655 -0.0017 -0.2433 -0.2442
  591TMC3    C5 8814   4.539   2.474  16.567 -0.6754 -0.1964  0.5238
  591TMC3    C6 8815   4.665   2.477  16.502 -0.0772  0.0985 -0.0235
  591TMC3     C 8816   4.572   2.145  16.721  0.2139 -0.9189 -0.7173
  591TMC3     O 8817   4.662   2.065  16.755  0.6104  0.1668  0.3104
  591TMC3     H 8818   0.074   2.224  16.667 -0.7252 -0.1497  1.4721
  591TMC3    H1 8819   4.404   2.362  16.687 -0.0833  0.0217 -0.3871
  591TMC3    H2 8820   4.691   2.567  16.447 -1.7205  0.2823 -0.4897
  591TMC3    C7 8821   4.434   2.573  16.542 -0.0736 -0.5851  0.2009
  591TMC3    C8 8822   0.105   2.332  16.440  0.2662 -0.0843 -0.0918
  591TMC3    O1 8823   4.329   2.549  16.590  0.2376  0.3254  0.1057
  591TMC3    O2 8824   0.166   2.228  16.465 -0.1753  0.1665  0.3084
  592MPD2     C 8825   4.251   4.499  11.590 -0.6823  0.0503  0.4026
  592MPD2    C1 8826   4.262   4.473  11.725 -0.3398 -0.3665  0.1587
  592MPD2    C2 8827   4.188   4.373  11.785  1.0592 -0.3447  0.1921
  592MPD2    C3 8828   4.090   4.312  11.718 -0.0973  0.2300  0.3865
  592MPD2    C4 8829   4.069   4.334  11.584 -0.4848  0.2430  0.0176
  592MPD2    C5 8830   4.163   4.421  11.521  0.1426 -0.2000 -0.6316
  592MPD2     H 8831   4.211   4.331  11.882 -3.2109 -2.5138  0.2534
  592MPD2    H1 8832   3.995   4.292  11.516 -2.3727  1.7457  1.1495
  592MPD2    H2 8833   4.307   4.573  11.535 -0.8417 -1.0966 -1.2997
  592MPD2    H3 8834   4.157   4.434  11.414  2.1148  1.9262 -0.4776
  592MPD2     N 8835   4.004   4.221  11.790  0.5136 -0.3840  0.6456
  592MPD2    H5 8836   4.026   4.208  11.888 -0.3565 -2.1895  0.6130
  592MPD2    N1 8837   4.342   4.557  11.803 -0.7083  0.4761  0.5061
  592MPD2    H7 8838   4.397   4.627  11.755  2.0442 -1.4447  0.8514
  593TMC3    C1 8839   4.425   4.659  11.999  0.2554  0.8845 -0.1564
  593TMC3    C2 8840   4.379   4.722  12.112  0.3100  0.1316 -0.5649
  593TMC3    C3 8841   4.465   0.068  12.169  0.0297 -0.1164 -0.0285
  593TMC3    C4 8842   4.544   4.686  11.944  0.0830  0.8627  0.0666
  593TMC3    C5 8843   4.617   0.047  12.000  0.1812  0.4367 -0.6272
  593TMC3    C6 8844   4.592   0.087  12.128  0.6021 -0.5830  0.1406
  593TMC3     C 8845   4.328   4.566  11.937  0.2071  0.2363 -0.0177
  593TMC3     O 8846   4.248   4.511  12.016 -0.5294  0.5620  0.1408
  593TMC3     H 8847   4.280   4.697  12.150  0.0474 -1.4094 -2.3298
  593TMC3    H1 8848   4.589   4.646  11.854  0.5892  1.6010 -0.0055
  593TMC3    H2 8849   4.655   0.158  12.179  1.6612 -1.2147 -0.2959
  593TMC3    C7 8850   4.721   0.119  11.929 -0.0315 -0.1903  0.1640
  593TMC3    C8 8851   4.405   0.184  12.236  0.6144  0.2179  0.1723
  593TMC3    O1 8852   0.065   0.179  12.000 -0.4639 -0.1222  0.5995
  593TMC3    O2 8853   4.290   0.216  12.197 -0.2245 -0.3477 -0.5391
  594MPD2     C 8854   3.040   2.804  14.355  0.6883 -0.1426  0.0684
  594MPD2    C1 8855   3.043   2.886  14.459 -0.0602 -0.0048  0.6104
  594MPD2    C2 8856   3.123   2.998  14.467  0.0363  0.9895 -0.3633
  594MPD2    C3 8857   3.220   3.028  14.376 -0.3547  0.0058 -0.3797
  594MPD2    C4 8858   3.227   2.929  14.274  0.2136  0.0099 -0.0309
  594MPD2    C5 8859   3.146   2.820  14.267 -0.0750 -0.7602  0.0621
  594MPD2     H 8860   3.128   3.057  14.558  0.2941  0.9434 -0.3477
  594MPD2    H1 8861   3.303   2.934  14.197 -0.5379 -0.3990 -0.8093
  594MPD2    H2 8862   2.989   2.708  14.358  0.5570 -0.0835 -0.3061
  594MPD2    H3 8863   3.163   2.755  14.182  0.7279 -1.5827  0.8596
  594MPD2     N 8864   3.301   3.138  14.383  0.0071 -0.1068  0.0979
  594MPD2    H5 8865   3.301   3.194  14.468 -0.1167 -0.4596  0.3315
  594MPD2    N1 8866   2.955   2.856  14.561  0.0299 -0.1504  0.7271
  594MPD2    H7 8867   2.900   2.772  14.545  1.5026 -1.1401  0.8368
  595TMC3    C1 8868   3.669   3.415  14.302 -0.2828 -0.2380 -0.0904
  595TMC3    C2 8869   3.597   3.304  14.256  0.1551  0.1388  0.1374
  595TMC3    C3 8870   3.477   3.286  14.319  0.1081  0.2827  0.4882
  595TMC3    C4 8871   3.630   3.494  14.407 -0.6379  0.3934  0.0676
  595TMC3    C5 8872   3.498   3.484  14.440 -0.7271  0.7547  0.0520
  595TMC3    C6 8873   3.420   3.378  14.400 -0.2328  0.0279 -0.4507
  595TMC3     C 8874   3.816   3.415  14.289  0.8484 -0.2113 -0.1772
  595TMC3     O 8875   3.873   3.476  14.376  0.4803  0.3570 -0.0710
  595TMC3     H 8876   3.632   3.233  14.183  2.1916  0.0678  1.1753
  595TMC3    H1 8877   3.682   3.584  14.438  1.2367 -1.0093  1.0028
  595TMC3    H2 8878   3.314   3.377  14.424 -0.4477  0.8533 -1.3666
  595TMC3    C7 8879   3.477   3.530  14.570 -0.4713  0.4316  0.1752
  595TMC3    C8 8880   3.384   3.173  14.282 -0.1566 -0.3812 -1.3692
  595TMC3    O1 8881   3.393   3.616  14.597  0.2427 -0.3103  0.5420
  595TMC3    O2 8882   3.397   3.127  14.169 -0.2802  0.4123  0.0568
  596MPD2     C 8883   2.624   1.008  16.582 -0.1373  1.0389 -0.0069
  596MPD2    C1 8884   2.514   1.072  16.531 -0.0673  0.3817 -0.0189
  596MPD2    C2 8885   2.494   1.065  16.395  0.2750  0.5297 -0.1852
  596MPD2    C3 8886   2.573   0.991  16.310  0.2894  0.4945 -0.1178
  596MPD2    C4 8887   2.675   0.925  16.368  0.0139  0.2401 -0.3902
  596MPD2    C5 8888   2.699   0.933  16.501  0.8113 -0.4226  0.2014
  596MPD2     H 8889   2.402   1.111  16.362  0.0257  1.9316  2.4120
  596MPD2    H1 8890   2.741   0.864  16.307 -1.6766 -1.7749 -0.2114
  596MPD2    H2 8891   2.650   1.006  16.687 -1.3891 -0.9365  0.2621
  596MPD2    H3 8892   2.789   0.883  16.534  1.6601  0.1637 -1.2495
  596MPD2     N 8893   2.552   0.995  16.172  0.7667 -0.3015 -0.0032
  596MPD2    H5 8894   2.612   0.939  16.112  0.7346  0.5986 -0.8833
  596MPD2    N1 8895   2.428   1.151  16.608 -0.6531  0.0243  0.1100
  596MPD2    H7 8896   2.383   1.219  16.548 -2.1295 -0.8880  0.1921
  597TMC3    C1 8897   2.377   1.313  16.773  0.2160  0.0759 -0.1141
  597TMC3    C2 8898   2.412   1.411  16.682  0.2162 -0.8350  0.0763
  597TMC3    C3 8899   2.389   1.543  16.724 -0.2589 -0.2479 -0.0481
  597TMC3    C4 8900   2.327   1.338  16.901  0.2292  0.1844 -0.1685
  597TMC3    C5 8901   2.315   1.475  16.934 -0.6688  0.8482 -0.4155
  597TMC3    C6 8902   2.337   1.579  16.847  0.0283  0.3097 -0.0090
  597TMC3     C 8903   2.442   1.181  16.741 -0.1267 -0.2566  0.6855
  597TMC3     O 8904   2.475   1.106  16.827 -0.0994 -0.2778  0.7737
  597TMC3     H 8905   2.463   1.386  16.589 -1.0044 -1.0108 -0.5426
  597TMC3    H1 8906   2.315   1.260  16.975  0.2301  1.3537  1.0627
  597TMC3    H2 8907   2.321   1.682  16.877  1.7730  0.8460 -0.9385
  597TMC3    C7 8908   2.226   1.506  17.042 -0.9180  0.3822 -0.1826
  597TMC3    C8 8909   2.440   1.644  16.635  0.0166  0.0246 -0.4857
  597TMC3    O1 8910   2.248   1.451  17.151 -0.4715 -0.3990  0.0427
  597TMC3    O2 8911   2.462   1.605  16.521  0.0839  0.7209  0.0845
  598TMC3    C1 8912   0.852   2.581  15.574  0.6255  0.2063  0.5496
  598TMC3    C2 8913   0.745   2.513  15.620 -0.7711 -0.2698  0.2760
  598TMC3    C3 8914   0.620   2.568  15.604  0.3073  0.4140  0.2504
  598TMC3    C4 8915   0.847   2.704  15.514 -0.7228 -0.7480 -0.2986
  598TMC3    C5 8916   0.724   2.766  15.523  0.6744 -0.5477 -0.6735
  598TMC3    C6 8917   0.609   2.697  15.562  0.5327  0.1837  0.1020
  598TMC3     C 8918   0.977   2.552  15.624 -0.3873  0.5810  0.0706
  598TMC3     O 8919   1.076   2.594  15.571  0.1466  0.0872 -0.0731
  598TMC3     H 8920   0.761   2.406  15.630 -0.4984 -0.2216  0.3773
  598TMC3    H1 8921   0.942   2.751  15.492 -0.1377 -0.8902  1.8463
  598TMC3    H2 8922   0.513   2.747  15.550  0.6647  0.4800  0.2806
  598TMC3    C7 8923   0.708   2.891  15.455  0.0863 -0.4537 -0.3505
  598TMC3    C8 8924   0.509   2.478  15.569  0.2922 -0.1862  0.0293
  598TMC3    O1 8925   0.605   2.905  15.392 -0.0861  0.0393  0.3412
  598TMC3    O2 8926   0.418   2.536  15.509  0.3690 -0.3184  0.4825
  599MPD2     C 8927   1.039   0.103  16.106  0.3203 -0.8899  0.6550
  599MPD2    C1 8928   0.981   4.718  16.124 -0.2707  0.4235 -0.2292
  599MPD2    C2 8929   0.869   4.704  16.204  0.5620  0.0547  0.0135
  599MPD2    C3 8930   0.805   0.076  16.245  0.8110 -0.2344 -0.1137
  599MPD2    C4 8931   0.857   0.200  16.215 -0.4395  0.1067 -0.1622
  599MPD2    C5 8932   0.977   0.215  16.151  0.2467 -0.0517 -0.0389
  599MPD2     H 8933   0.832   4.606  16.233  0.8102 -0.4151 -1.2556
  599MPD2    H1 8934   0.799   0.289  16.238 -0.3116 -0.0341  0.6947
  599MPD2    H2 8935   1.133   0.111  16.053 -1.0770 -1.6583 -1.8931
  599MPD2    H3 8936   1.021   0.312  16.130 -2.2903  1.2180  0.4461
  599MPD2     N 8937   0.689   0.074  16.335 -0.9115  0.2754  0.2637
  599MPD2    H5 8938   0.660   0.165  16.371  1.5200  1.5093 -0.8665
  599MPD2    N1 8939   1.061   4.606  16.087  0.2562 -0.5431 -0.3214
  599MPD2    H7 8940   1.150   4.640  16.052  0.1994  0.3802  0.4127
  600TMC3    C1 8941   0.546   4.728  16.504 -0.7602 -0.2416 -0.1296
  600TMC3    C2 8942   0.537   4.616  16.592 -1.1058 -0.6303 -0.0376
  600TMC3    C3 8943   0.530   4.651  16.721 -0.1773 -0.2767 -0.1939
  600TMC3    C4 8944   0.528   0.114  16.554  0.0579  0.2188 -0.4125
  600TMC3    C5 8945   0.519   0.129  16.691  1.1343  0.1127  0.5340
  600TMC3    C6 8946   0.534   0.032  16.778 -0.7757  0.3474  0.8066
  600TMC3     C 8947   0.626   4.704  16.386  0.0125 -0.0166 -0.1410
  600TMC3     O 8948   0.640   4.585  16.370  0.2619 -0.2577 -0.6903
  600TMC3     H 8949   0.559   4.515  16.559 -1.1547 -0.3347 -0.9708
  600TMC3    H1 8950   0.512   0.199  16.488  1.0253  0.3054 -0.5379
  600TMC3    H2 8951   0.501   0.050  16.880 -0.8535 -2.4687  1.2734
  600TMC3    C7 8952   0.517   0.265  16.754 -0.4862 -0.2531  0.1373
  600TMC3    C8 8953   0.482   4.541  16.803 -0.3316 -0.1639  0.3631
  600TMC3    O1 8954   0.548   0.281  16.873 -0.4009 -0.5625 -0.4124
  600TMC3    O2 8955   0.526   4.540  16.918 -0.4143 -0.1507 -0.5797
  601MPD2     C 8956   2.917   2.934   0.651  0.0176  0.0083  0.0400
  601MPD2    C1 8957   2.798   2.911   0.583 -0.2159  0.7472 -0.4788
  601MPD2    C2 8958   2.735   2.789   0.597 -0.5032 -0.3667 -0.2430
  601MPD2    C3 8959   2.781   2.698   0.683  0.7134 -0.3197  0.3783
  601MPD2    C4 8960   2.901   2.721   0.749  0.2972  0.4620  0.2099
  601MPD2    C5 8961   2.969   2.838   0.726  0.4083 -0.1566 -0.0143
  601MPD2     H 8962   2.634   2.781   0.559 -0.7078  0.8669  0.0229
  601MPD2    H1 8963   2.948   2.638   0.801  0.1825  1.0203  1.2086
  601MPD2    H2 8964   2.958   3.034   0.662 -0.7357  0.4061 -0.7492
  601MPD2    H3 8965   3.057   2.858   0.786 -0.2270  0.1318  0.8249
  601MPD2     N 8966   2.712   2.572   0.702  0.0390 -0.4192  0.7881
  601MPD2    H5 8967   2.742   2.521   0.784  0.0866 -0.9634  0.4305
  601MPD2    N1 8968   2.727   3.009   0.519 -0.0718 -0.6031  0.4038
  601MPD2    H7 8969   2.635   2.980   0.486  1.0429 -1.4356 -1.9883
  602TMC3    C1 8970   2.669   3.216   0.401 -0.4681 -0.3858 -0.0920
  602TMC3    C2 8971   2.725   3.321   0.322 -0.7750 -0.4267 -0.4354
  602TMC3    C3 8972   2.629   3.372   0.237 -0.2069 -0.2938  0.5490
  602TMC3    C4 8973   2.541   3.182   0.417 -0.3281 -0.7360 -0.1536
  602TMC3    C5 8974   2.454   3.249   0.336  0.1280  0.4441  0.0859
  602TMC3    C6 8975   2.495   3.339   0.242 -0.0573 -0.1338 -0.1446
  602TMC3     C 8976   2.766   3.134   0.479 -0.2536 -0.8018 -0.5951
  602TMC3     O 8977   2.870   3.195   0.498  0.5178  0.6640 -0.0213
  602TMC3     H 8978   2.830   3.339   0.300 -0.5174 -1.7333 -0.2469
  602TMC3    H1 8979   2.507   3.119   0.499 -1.0949  1.5205  1.2630
  602TMC3    H2 8980   2.428   3.413   0.200 -1.2218 -0.3413  1.3355
  602TMC3    C7 8981   2.329   3.182   0.298  0.6407 -0.5642  0.6263
  602TMC3    C8 8982   2.670   3.466   0.129 -0.4356 -0.0818  0.3794
  602TMC3    O1 8983   2.268   3.132   0.390 -0.0295 -0.1955  0.0048
  602TMC3    O2 8984   2.770   3.536   0.149  0.0291 -0.3146 -0.5250
  603TMC3    C1 8985   0.404   4.243  11.433  0.6904  0.1075 -0.1552
  603TMC3    C2 8986   0.359   4.284  11.555  0.0149 -0.4075  0.7178
  603TMC3    C3 8987   0.420   4.393  11.612  0.1814  0.2189 -0.7450
  603TMC3    C4 8988   0.503   4.305  11.364 -0.1703 -0.5102  0.2876
  603TMC3    C5 8989   0.548   4.423  11.415 -0.3935 -0.2687 -0.1312
  603TMC3    C6 8990   0.514   4.463  11.545 -0.9084 -0.2110  0.4403
  603TMC3     C 8991   0.332   4.141  11.367  0.9444 -0.7163 -0.6329
  603TMC3     O 8992   0.356   4.139  11.247  0.7047  0.3238  0.4472
  603TMC3     H 8993   0.270   4.242  11.602 -0.5261  1.0497  1.0179
  603TMC3    H1 8994   0.548   4.265  11.273 -1.6497  0.9105 -1.0569
  603TMC3    H2 8995   0.532   4.565  11.575  0.5002 -1.0695  2.4423
  603TMC3    C7 8996   0.606   4.523  11.323  0.1244 -0.0725 -0.5266
  603TMC3    C8 8997   0.458   4.355  11.748 -0.2368 -0.3937 -0.2607
  603TMC3    O1 8998   0.663   4.614  11.382  0.9843 -0.1368 -0.0627
  603TMC3    O2 8999   0.421   4.243  11.772 -0.3389 -0.3198 -0.1338
  604MPD2     C 9000   1.603   2.274  16.360 -0.3226  0.2180  0.6231
  604MPD2    C1 9001   1.504   2.198  16.310  0.3381 -0.5822 -0.4510
  604MPD2    C2 9002   1.508   2.167  16.172 -0.4672  0.1516 -0.3163
  604MPD2    C3 9003   1.606   2.228  16.091 -0.4239  0.6849  0.4352
  604MPD2    C4 9004   1.707   2.301  16.148 -0.2505 -0.4268 -0.1755
  604MPD2    C5 9005   1.705   2.321  16.282  0.5723 -0.4473  0.0876
  604MPD2     H 9006   1.438   2.094  16.132  0.1618 -0.8097  0.3450
  604MPD2    H1 9007   1.770   2.367  16.090  0.9350 -1.4774 -0.0645
  604MPD2    H2 9008   1.609   2.290  16.467  0.3777 -0.5585  0.6980
  604MPD2    H3 9009   1.780   2.381  16.333  1.7515 -3.0144  1.3502
  604MPD2     N 9010   1.606   2.201  15.954 -0.2889  0.0095 -0.2204
  604MPD2    H5 9011   1.523   2.149  15.927 -1.6122  1.0779  1.8153
  604MPD2    N1 9012   1.408   2.152  16.398 -0.5571  0.4963 -0.5058
  604MPD2    H7 9013   1.418   2.192  16.491 -0.4793 -2.2858  0.6918
  605TMC3    C1 9014   1.202   2.102  16.481  0.0225  0.4796 -0.2926
  605TMC3    C2 9015   1.284   2.123  16.592  0.3735 -0.2185 -0.4625
  605TMC3    C3 9016   1.252   2.214  16.685 -0.0209 -1.0727  0.7703
  605TMC3    C4 9017   1.091   2.175  16.455 -0.2345 -0.2663  0.2845
  605TMC3    C5 9018   1.068   2.278  16.543  0.0855  0.0937 -0.1474
  605TMC3    C6 9019   1.151   2.299  16.651 -0.1308 -0.0287 -0.4437
  605TMC3     C 9020   1.291   2.084  16.371  0.0335  0.1931  0.4733
  605TMC3     O 9021   1.246   2.069  16.258  0.0261  0.1250  0.0090
  605TMC3     H 9022   1.353   2.044  16.620  0.4890 -0.1788 -0.6369
  605TMC3    H1 9023   1.035   2.149  16.366  2.7817 -2.5777 -0.9273
  605TMC3    H2 9024   1.151   2.402  16.684 -1.1788 -0.2964  0.4093
  605TMC3    C7 9025   0.970   2.385  16.513  0.4622 -0.7850  0.5017
  605TMC3    C8 9026   1.372   2.274  16.722  0.4280  0.2659 -0.5983
  605TMC3    O1 9027   0.928   2.459  16.603  0.0301  0.0652 -0.6059
  605TMC3    O2 9028   1.474   2.249  16.654  0.6238 -0.3729 -0.1792
  606TMC3    C1 9029   3.014   0.967   0.265  0.5670  0.8272 -0.3936
  606TMC3    C2 9030   3.139   0.973   0.324  0.0873  0.7858  0.3889
  606TMC3    C3 9031   3.187   0.862   0.391  0.0255 -0.5196 -0.0396
  606TMC3    C4 9032   2.932   0.860   0.280  0.7208 -0.8880 -0.5384
  606TMC3    C5 9033   2.975   0.754   0.356  0.0814 -0.2044 -0.1273
  606TMC3    C6 9034   3.099   0.757   0.411 -0.4651 -0.5478  0.3407
  606TMC3     C 9035   2.981   1.055   0.159  0.2635 -0.6183 -0.6421
  606TMC3     O 9036   3.053   1.154   0.151  0.1304  0.0158 -0.1910
  606TMC3     H 9037   3.203   1.059   0.310  0.1739  1.0535  2.3670
  606TMC3    H1 9038   2.832   0.864   0.237  0.1677 -1.9130  0.6360
  606TMC3    H2 9039   3.131   0.675   0.473  1.7133  0.2075  0.2150
  606TMC3    C7 9040   2.899   0.628   0.371 -0.2156 -0.4522  0.9757
  606TMC3    C8 9041   3.314   0.870   0.448  0.2032  0.1473  0.3904
  606TMC3    O1 9042   2.919   0.545   0.461 -0.1263  0.0459  0.1394
  606TMC3    O2 9043   3.405   0.919   0.380  0.0581 -0.0138  0.2554
  607MPD2     C 9044   4.327   4.117  12.058  0.1690  0.4142 -0.1439
  607MPD2    C1 9045   4.383   4.193  12.162  0.7624 -0.2852  0.1726
  607MPD2    C2 9046   4.345   4.153  12.290 -0.1903  0.0190  0.3976
  607MPD2    C3 9047   4.260   4.043  12.313 -0.4693 -0.4993  0.0269
  607MPD2    C4 9048   4.205   3.969  12.204  0.0074 -1.3220  0.3167
  607MPD2    C5 9049   4.239   4.017  12.079 -0.2152 -0.1331  0.0067
  607MPD2     H 9050   4.389   4.208  12.373  0.0461  0.9527 -0.3507
  607MPD2    H1 9051   4.139   3.884  12.216 -0.7070 -0.9478 -0.8674
  607MPD2    H2 9052   4.346   4.135  11.953 -1.1835 -0.4240 -0.5216
  607MPD2    H3 9053   4.190   3.982  11.989  1.9591 -1.6636 -0.6009
  607MPD2     N 9054   4.239   4.008  12.449 -0.6024 -0.4457 -0.4180
  607MPD2    H5 9055   4.285   4.075  12.510  0.0217 -1.7501  0.5208
  607MPD2    N1 9056   4.483   4.291  12.150 -0.0437  0.5979  0.3804
  607MPD2    H7 9057   4.515   4.329  12.239  1.3648  0.4977 -0.0821
  608TMC3    C1 9058   4.662   4.408  12.069  0.0291  0.5766 -0.3046
  608TMC3    C2 9059   4.682   4.443  12.198 -0.0742 -0.5396 -0.2673
  608TMC3    C3 9060   0.070   4.490  12.232 -0.0339 -0.3297 -0.3745
  608TMC3    C4 9061   0.024   4.413  11.976 -0.2748 -0.5357 -0.1857
  608TMC3    C5 9062   0.139   4.479  12.008  0.0279 -0.2169 -0.4686
  608TMC3    C6 9063   0.162   4.524  12.138  0.7760  0.1560 -0.3802
  608TMC3     C 9064   4.548   4.323  12.036 -0.4510 -0.2235 -0.5156
  608TMC3     O 9065   4.519   4.297  11.921  0.0020  0.8335 -0.3686
  608TMC3     H 9066   4.607   4.437  12.276 -0.9736  0.3258 -1.0626
  608TMC3    H1 9067   0.012   4.360  11.882 -2.4118  1.7277 -1.1742
  608TMC3    H2 9068   0.262   4.554  12.168  0.1323  2.5455 -0.6226
  608TMC3    C7 9069   0.188   4.556  11.901  0.3203  0.7959  0.8033
  608TMC3    C8 9070   0.112   4.492  12.371 -0.5935 -0.1568  0.6445
  608TMC3    O1 9071   0.139   4.539  11.790 -0.0527 -0.6581  0.0590
  608TMC3    O2 9072   0.208   4.554  12.406  0.2261 -0.4077 -0.0363
  609TMC3    C1 9073   2.882   3.176   9.122  0.6051  0.4621  0.9165
  609TMC3    C2 9074   2.873   3.298   9.066 -1.0423 -0.6108  0.8282
  609TMC3    C3 9075   2.988   3.352   9.024 -0.5313  0.7786 -1.0930
  609TMC3    C4 9076   3.000   3.107   9.125 -0.8140  0.0354 -0.3573
  609TMC3    C5 9077   3.118   3.161   9.077 -0.2346  0.5991 -0.7098
  609TMC3    C6 9078   3.109   3.284   9.021 -0.3826 -0.1165  0.2247
  609TMC3     C 9079   2.785   3.122   9.209  0.4582 -0.0222  0.2376
  609TMC3     O 9080   2.815   3.023   9.271  0.9600  0.2618 -0.1526
  609TMC3     H 9081   2.783   3.355   9.086 -0.3366 -0.1942  2.8204
  609TMC3    H1 9082   2.998   3.006   9.164 -1.5895 -0.8963 -2.8315
  609TMC3    H2 9083   3.196   3.339   8.986 -1.2499  0.0047 -1.7387
  609TMC3    C7 9084   3.246   3.107   9.108  0.3722 -0.3281 -0.1469
  609TMC3    C8 9085   2.987   3.467   8.942  0.0068  0.5908  1.4430
  609TMC3    O1 9086   3.341   3.178   9.077 -0.8443 -0.9266 -0.0665
  609TMC3    O2 9087   3.094   3.529   8.923 -0.0918  0.1501 -0.4931
  610TMC3    C1 9088   0.190   4.049  13.025 -0.6182  0.0254 -0.1408
  610TMC3    C2 9089   0.194   4.108  12.903 -0.1837  0.6828 -0.4299
  610TMC3    C3 9090   0.187   4.018  12.799 -0.0579  0.3762  0.5526
  610TMC3    C4 9091   0.196   3.914  13.044  0.0751 -0.6405  0.1355
  610TMC3    C5 9092   0.199   3.829  12.935 -0.2692 -1.0157 -0.3798
  610TMC3    C6 9093   0.185   3.882  12.805 -0.8453  0.1995  0.3046
  610TMC3     C 9094   0.130   4.136  13.126 -0.9368 -0.3163  0.4440
  610TMC3     O 9095   0.118   4.258  13.111  0.1937  0.1669  0.7729
  610TMC3     H 9096   0.224   4.212  12.894 -0.7363  0.9589  0.9066
  610TMC3    H1 9097   0.221   3.872  13.141 -1.2758  0.0398  0.7752
  610TMC3    H2 9098   0.193   3.824  12.713  0.9950 -3.8165  2.9740
  610TMC3    C7 9099   0.276   3.709  12.948 -0.1052 -0.1723 -0.1136
  610TMC3    C8 9100   0.203   4.080  12.665 -0.9116  0.2883  0.1362
  610TMC3    O1 9101   0.326   3.682  13.060  0.4963 -0.0909 -0.0230
  610TMC3    O2 9102   0.292   4.162  12.655  0.5189 -0.2720  0.5586
  611MPD2     C 9103   0.170   3.985  10.372 -0.0249  0.2636  0.3627
  611MPD2    C1 9104   0.066   4.076  10.351 -0.0389 -0.5877 -0.7980
  611MPD2    C2 9105   0.079   4.207  10.381 -0.3255  0.3306 -0.2083
  611MPD2    C3 9106   0.190   4.250  10.459 -0.7758  0.5624  0.3772
  611MPD2    C4 9107   0.282   4.155  10.491  0.9624  0.5859 -0.7897
  611MPD2    C5 9108   0.279   4.027  10.444  0.4711 -0.0031  0.1989
  611MPD2     H 9109   0.001   4.276  10.350 -0.7524  0.0203  0.1751
  611MPD2    H1 9110   0.371   4.185  10.544  1.5242 -2.2243 -0.1091
  611MPD2    H2 9111   0.160   3.879  10.354 -2.2533  0.4468  0.5264
  611MPD2    H3 9112   0.361   3.959  10.463  1.0749  1.0895  1.4760
  611MPD2     N 9113   0.217   4.379  10.494  0.4065  0.1533 -0.1222
  611MPD2    H5 9114   0.271   4.391  10.578 -0.7684  1.1886  0.5009
  611MPD2    N1 9115   4.680   4.036  10.292 -0.0152  0.1231  0.2735
  611MPD2    H7 9116   4.610   4.109  10.300  0.2290  0.2767  1.0744
  612TMC3    C1 9117   0.184   4.615  10.492  0.1198 -0.0496  0.1445
  612TMC3    C2 9118   0.315   4.633  10.528 -0.4608  0.7796 -0.3820
  612TMC3    C3 9119   0.360   0.021  10.549 -0.2896  0.6586  0.0694
  612TMC3    C4 9120   0.119   4.727  10.436  0.5546  0.4817  0.5021
  612TMC3    C5 9121   0.175   0.114  10.437  0.2274  0.5059  0.1410
  612TMC3    C6 9122   0.301   0.132  10.497 -0.2298  0.0434  0.1048
  612TMC3     C 9123   0.144   4.483  10.446 -0.0368  1.1329 -0.8464
  612TMC3     O 9124   0.058   4.489  10.354 -0.0547  0.6649  0.3382
  612TMC3     H 9125   0.371   4.552  10.574  0.1562  2.3630  1.6676
  612TMC3    H1 9126   0.024   4.719  10.385  0.5465 -4.3154  1.2929
  612TMC3    H2 9127   0.348   0.228  10.511  0.5309 -0.2636 -0.3647
  612TMC3    C7 9128   0.097   0.219  10.374 -0.4821 -0.0430 -0.6401
  612TMC3    C8 9129   0.470   0.038  10.641 -0.0787  0.0394  0.4214
  612TMC3    O1 9130   0.019   0.194  10.282  0.5428  0.0864  0.6902
  612TMC3    O2 9131   0.517   0.151  10.636 -0.8517 -0.1600  0.1077
  613MPD2     C 9132   3.210   1.451  16.524  0.2451 -0.0172 -0.2622
  613MPD2    C1 9133   3.307   1.417  16.427 -0.2723  0.5022  0.1412
  613MPD2    C2 9134   3.357   1.289  16.438  1.2136 -0.2718  1.0624
  613MPD2    C3 9135   3.326   1.206  16.541  0.8776  0.8690 -0.2726
  613MPD2    C4 9136   3.253   1.252  16.645  0.1151 -1.0419  0.4189
  613MPD2    C5 9137   3.190   1.373  16.639 -0.4576 -0.0421  1.0369
  613MPD2     H 9138   3.414   1.247  16.356 -1.3763  0.2301 -0.9662
  613MPD2    H1 9139   3.225   1.195  16.732 -3.7307  0.8340  0.4238
  613MPD2    H2 9140   3.166   1.549  16.514  0.6459  0.0412 -1.4557
  613MPD2    H3 9141   3.112   1.409  16.705  0.3356  0.5502  1.6389
  613MPD2     N 9142   3.380   1.074  16.530  0.0408  0.2895  0.1409
  613MPD2    H5 9143   3.442   1.058  16.451  1.0464 -2.2950  1.4676
  613MPD2    N1 9144   3.347   1.507  16.325 -0.4611 -0.5298 -0.0581
  613MPD2    H7 9145   3.414   1.469  16.259  0.2515  1.2252 -0.3579
  614TMC3    C1 9146   3.352   1.677  16.175 -0.5494  0.5115 -0.5828
  614TMC3    C2 9147   3.465   1.608  16.150  0.0709 -0.5377  0.2909
  614TMC3    C3 9148   3.475   1.544  16.030 -0.1850  0.0288  0.3369
  614TMC3    C4 9149   3.257   1.679  16.078 -0.6308 -0.8115 -0.0308
  614TMC3    C5 9150   3.273   1.618  15.960 -0.7667  0.1490 -0.1967
  614TMC3    C6 9151   3.384   1.546  15.926 -0.3308  0.2502  0.0858
  614TMC3     C 9152   3.299   1.636  16.300  1.0164  0.0583 -0.4258
  614TMC3     O 9153   3.227   1.711  16.366  0.1600  0.2093  0.2567
  614TMC3     H 9154   3.549   1.624  16.217 -0.0079  0.3924  0.1649
  614TMC3    H1 9155   3.161   1.724  16.099 -0.7323 -0.4041 -1.3530
  614TMC3    H2 9156   3.410   1.503  15.830 -0.7193 -0.5878  0.3572
  614TMC3    C7 9157   3.163   1.634  15.862  0.9193  0.3130  0.2639
  614TMC3    C8 9158   3.548   1.419  16.050  0.1954 -0.5785 -0.9724
  614TMC3    O1 9159   3.077   1.720  15.884  0.1594  0.5864 -0.2671
  614TMC3    O2 9160   3.570   1.399  16.174 -0.4211  0.0294 -0.2796
  615MPD2     C 9161   3.476   2.587  16.299  0.4232 -0.5118 -0.1209
  615MPD2    C1 9162   3.362   2.666  16.285 -0.2339 -0.1868 -0.1582
  615MPD2    C2 9163   3.269   2.638  16.188 -0.0791  0.8816  0.0034
  615MPD2    C3 9164   3.287   2.529  16.102  0.3799  0.2256 -0.1743
  615MPD2    C4 9165   3.400   2.456  16.112  0.9504 -0.1040 -0.2231
  615MPD2    C5 9166   3.497   2.485  16.211 -0.2437  0.0414 -0.8882
  615MPD2     H 9167   3.195   2.712  16.165  0.3466  0.9799 -1.0473
  615MPD2    H1 9168   3.419   2.378  16.039  2.7689  1.3701 -1.3055
  615MPD2    H2 9169   3.549   2.609  16.376  0.0152  0.5718 -0.0455
  615MPD2    H3 9170   3.585   2.422  16.213 -1.0427 -1.0990 -1.6343
  615MPD2     N 9171   3.211   2.502  15.987 -0.1521 -0.3005 -0.1619
  615MPD2    H5 9172   3.245   2.426  15.929 -0.2621 -0.5888  0.1591
  615MPD2    N1 9173   3.335   2.779  16.361  0.4167 -0.2058 -0.2238
  615MPD2    H7 9174   3.260   2.843  16.336  0.4613 -0.3262 -0.6673
  616TMC3    C1 9175   3.332   2.917  16.557  0.3562  0.4123  0.0468
  616TMC3    C2 9176   3.416   2.971  16.653  0.2487 -0.7353  0.3017
  616TMC3    C3 9177   3.371   3.079  16.720 -0.0564  0.6204  0.3473
  616TMC3    C4 9178   3.208   2.958  16.533  0.1076  0.0755  0.1483
  616TMC3    C5 9179   3.160   3.061  16.613 -0.1515 -0.5357 -0.6025
  616TMC3    C6 9180   3.240   3.117  16.713  0.3369 -0.0830 -0.3467
  616TMC3     C 9181   3.395   2.809  16.476 -0.2697  0.2688  0.2878
  616TMC3     O 9182   3.481   2.747  16.533 -0.1130 -0.0129 -0.2192
  616TMC3     H 9183   3.516   2.931  16.670  0.4621 -0.3005  0.0718
  616TMC3    H1 9184   3.145   2.917  16.455  1.1096 -0.0003 -0.6295
  616TMC3    H2 9185   3.206   3.191  16.785  4.4677  1.1018  0.3786
  616TMC3    C7 9186   3.033   3.125  16.571 -0.1706  0.6243  0.0475
  616TMC3    C8 9187   3.446   3.117  16.830 -0.0982  0.2090 -0.0938
  616TMC3    O1 9188   2.972   3.060  16.490 -0.0876  0.2867 -0.3399
  616TMC3    O2 9189   3.390   3.162  16.926 -0.5840 -0.1080 -0.1460
  617MPD2     C 9190   0.858   1.187  13.988  0.0522  0.0600 -0.5559
  617MPD2    C1 9191   0.948   1.091  14.033  0.4889  0.1530 -0.5078
  617MPD2    C2 9192   0.903   0.991  14.116  0.1297 -0.4027  0.2529
  617MPD2    C3 9193   0.765   0.988  14.146 -0.6603 -0.2689  0.1564
  617MPD2    C4 9194   0.686   1.078  14.087 -0.4140  0.1683 -0.5088
  617MPD2    C5 9195   0.728   1.174  14.003 -0.3097 -0.0992  0.0937
  617MPD2     H 9196   0.971   0.912  14.145 -2.9021 -2.0152  2.9657
  617MPD2    H1 9197   0.584   1.093  14.120 -0.7173  0.5028 -1.6161
  617MPD2    H2 9198   0.890   1.262  13.916  1.2562  0.7254  0.6691
  617MPD2    H3 9199   0.662   1.253  13.969  0.3859  0.9454  1.1780
  617MPD2     N 9200   0.693   0.892  14.217 -0.1993  0.0238 -0.0981
  617MPD2    H5 9201   0.592   0.899  14.210 -0.0265 -0.3232 -2.9813
  617MPD2    N1 9202   1.084   1.085  13.988 -0.4766  0.0931 -0.1756
  617MPD2    H7 9203   1.096   1.091  13.887 -0.7928 -0.7569 -0.2621
  618TMC3    C1 9204   1.307   1.025  13.994 -0.1453 -0.2435 -0.1552
  618TMC3    C2 9205   1.404   0.970  14.067 -1.1796  0.0854 -0.1103
  618TMC3    C3 9206   1.527   0.960  14.010 -0.5060 -0.2466  0.0975
  618TMC3    C4 9207   1.330   1.074  13.868  0.2609  0.3199  0.1706
  618TMC3    C5 9208   1.462   1.078  13.825 -0.1016 -0.5664  0.1484
  618TMC3    C6 9209   1.564   1.022  13.895 -0.4019 -0.5057 -0.5531
  618TMC3     C 9210   1.183   1.041  14.066 -0.7104  0.2971 -0.0224
  618TMC3     O 9211   1.175   1.006  14.185 -0.8978 -0.0537  0.3320
  618TMC3     H 9212   1.383   0.900  14.148  2.0564  0.7919  1.3349
  618TMC3    H1 9213   1.261   1.118  13.798  0.9198  1.1318  0.0311
  618TMC3    H2 9214   1.669   1.030  13.868  0.2910 -2.5268  1.4825
  618TMC3    C7 9215   1.490   1.167  13.714  0.6305  0.2913  0.2967
  618TMC3    C8 9216   1.613   0.865  14.079  0.5732 -0.4250  0.2736
  618TMC3    O1 9217   1.419   1.269  13.696 -0.0745  0.6275  0.4618
  618TMC3    O2 9218   1.593   0.855  14.199 -0.0173 -0.6991 -0.2237
  619MPD2     C 9219   2.452   2.269  13.981 -0.2241 -0.0013 -0.7394
  619MPD2    C1 9220   2.359   2.364  13.939 -0.2987  0.4705 -0.7289
  619MPD2    C2 9221   2.225   2.358  13.962 -0.2110  0.3913  0.0115
  619MPD2    C3 9222   2.183   2.251  14.042 -0.2791  0.1581 -0.1156
  619MPD2    C4 9223   2.268   2.157  14.080  0.6257  0.6556 -0.2717
  619MPD2    C5 9224   2.398   2.167  14.053 -0.2611 -0.3884 -0.2452
  619MPD2     H 9225   2.161   2.442  13.938  0.0736  0.3154 -1.0304
  619MPD2    H1 9226   2.236   2.065  14.127 -0.0580  1.5358  0.9845
  619MPD2    H2 9227   2.556   2.278  13.953  0.1538 -0.7545  0.4368
  619MPD2    H3 9228   2.457   2.082  14.088 -0.6240 -1.0883 -1.3379
  619MPD2     N 9229   2.048   2.220  14.080 -0.1491  0.6996 -0.5886
  619MPD2    H5 9230   2.029   2.145  14.145  2.1120 -0.7400 -1.5894
  619MPD2    N1 9231   2.403   2.475  13.859 -0.9676  0.0842 -0.2053
  619MPD2    H7 9232   2.324   2.537  13.847 -0.4807  0.8883  0.7756
  620TMC3    C1 9233   2.530   2.652  13.771 -0.4516  0.3535 -0.0843
  620TMC3    C2 9234   2.450   2.664  13.662 -0.1338 -0.4902  0.0929
  620TMC3    C3 9235   2.439   2.791  13.615  0.4536  0.0809  0.2153
  620TMC3    C4 9236   2.610   2.742  13.832  0.2620 -0.0277  0.1294
  620TMC3    C5 9237   2.605   2.867  13.776 -0.4764  0.0477  0.6193
  620TMC3    C6 9238   2.513   2.891  13.674 -0.6299 -0.4691 -0.3772
  620TMC3     C 9239   2.528   2.523  13.832 -0.3250  0.7628  0.3779
  620TMC3     O 9240   2.634   2.471  13.864  0.4790  0.2954 -0.0540
  620TMC3     H 9241   2.404   2.576  13.619 -0.2661 -0.4531  0.1563
  620TMC3    H1 9242   2.673   2.711  13.914 -0.9845 -0.2011  1.0100
  620TMC3    H2 9243   2.498   2.993  13.641  0.8418 -0.4672 -1.0817
  620TMC3    C7 9244   2.635   2.984  13.854 -0.4596  1.0256  0.1757
  620TMC3    C8 9245   2.300   2.848  13.588  0.6805 -0.1144 -0.1980
  620TMC3    O1 9246   2.635   3.091  13.788 -0.6015 -0.3285  0.3854
  620TMC3    O2 9247   2.275   2.949  13.651  0.4744  0.0089  0.4440
  621MPD2     C 9248   2.817   2.293  10.200 -0.8294 -0.2580 -1.1782
  621MPD2    C1 9249   2.863   2.337  10.077  0.3766  0.4424  0.0657
  621MPD2    C2 9250   2.850   2.472  10.045  0.2002 -0.1461 -0.2655
  621MPD2    C3 9251   2.805   2.565  10.139 -0.0701 -0.0132 -0.6396
  621MPD2    C4 9252   2.764   2.520  10.256  0.4151 -0.1169  0.3519
  621MPD2    C5 9253   2.765   2.382  10.291  0.1186  0.2928  0.3180
  621MPD2     H 9254   2.876   2.499   9.943 -0.8689 -1.3651 -0.8646
  621MPD2    H1 9255   2.715   2.588  10.326 -0.4157 -1.2218  0.8530
  621MPD2    H2 9256   2.810   2.189  10.232 -1.0727 -0.7717 -2.9187
  621MPD2    H3 9257   2.730   2.341  10.385  0.4622 -1.8803 -0.4991
  621MPD2     N 9258   2.779   2.700  10.103  0.2091 -0.8328  0.0339
  621MPD2    H5 9259   2.801   2.722  10.006  0.4053  0.2560  0.3248
  621MPD2    N1 9260   2.903   2.248   9.976 -0.0982 -0.4119  0.1243
  621MPD2    H7 9261   2.929   2.291   9.888  0.8781  0.2442  0.7320
  622TMC3    C1 9262   2.915   2.045   9.853 -0.0890  0.1834  0.8799
  622TMC3    C2 9263   2.968   1.922   9.871  0.4329 -0.0213  0.2995
  622TMC3    C3 9264   2.938   1.817   9.791  0.2262 -0.6702 -0.5077
  622TMC3    C4 9265   2.813   2.061   9.764  0.2610  0.3797  0.5509
  622TMC3    C5 9266   2.807   1.962   9.671  0.8420  0.6278  0.1060
  622TMC3    C6 9267   2.874   1.844   9.681 -0.2108  0.1569  0.3836
  622TMC3     C 9268   2.887   2.110   9.980  0.9289 -0.2022  0.2239
  622TMC3     O 9269   2.858   2.030  10.071 -0.0189  0.2780  0.0168
  622TMC3     H 9270   3.021   1.909   9.965  0.7831  1.4268  0.3066
  622TMC3    H1 9271   2.754   2.152   9.766 -0.3385  0.0093 -0.1227
  622TMC3    H2 9272   2.872   1.766   9.607 -1.3300  1.4751 -0.9599
  622TMC3    C7 9273   2.699   1.973   9.573  0.7181  0.0791  0.2379
  622TMC3    C8 9274   2.895   1.705   9.859  0.0939 -0.6907  0.7626
  622TMC3    O1 9275   2.703   1.882   9.490 -0.7574  0.0764  0.2970
  622TMC3    O2 9276   2.889   1.604   9.791 -0.5385  0.4801 -0.2607
  623MPD2     C 9277   1.782   2.720  15.981 -0.0568 -0.2185  0.4051
  623MPD2    C1 9278   1.699   2.700  16.098 -0.0836 -0.5831  0.5122
  623MPD2    C2 9279   1.761   2.683  16.219 -0.3719  0.5052  0.4772
  623MPD2    C3 9280   1.901   2.691  16.234 -0.1127  0.3966 -0.3162
  623MPD2    C4 9281   1.975   2.711  16.120  0.3129 -0.1472  0.1023
  623MPD2    C5 9282   1.911   2.721  15.991  1.0140 -0.6914 -0.7824
  623MPD2     H 9283   1.699   2.676  16.308  0.2305 -0.8167  0.7914
  623MPD2    H1 9284   2.082   2.725  16.120  0.4240 -0.8946 -2.5739
  623MPD2    H2 9285   1.743   2.745  15.883 -2.6376 -0.0289  1.4868
  623MPD2    H3 9286   1.974   2.736  15.904  2.6925 -1.7280  0.2627
  623MPD2     N 9287   1.953   2.689  16.364 -0.3088  0.7154 -0.1973
  623MPD2    H5 9288   1.891   2.685  16.445  0.1739  0.3875  0.1621
  623MPD2    N1 9289   1.554   2.701  16.100  0.0599  0.5593 -0.0418
  623MPD2    H7 9290   1.498   2.709  16.183  0.1930 -1.2028  0.2181
  624TMC3    C1 9291   2.170   2.716  16.735 -0.4411 -0.2875  0.0034
  624TMC3    C2 9292   2.067   2.643  16.794  0.2401 -0.4401 -0.0610
  624TMC3    C3 9293   1.984   2.567  16.709  0.1499 -0.2789 -0.1767
  624TMC3    C4 9294   2.200   2.705  16.593 -1.1118 -0.3828  0.2800
  624TMC3    C5 9295   2.114   2.626  16.516  0.8614 -0.0742 -0.4485
  624TMC3    C6 9296   2.009   2.554  16.576 -0.2954 -0.5896 -0.5916
  624TMC3     C 9297   2.279   2.746  16.826  0.1797 -0.6519  0.1729
  624TMC3     O 9298   2.295   2.676  16.923 -0.2249  0.4126  0.1447
  624TMC3     H 9299   2.061   2.659  16.901  0.4606  0.3731 -0.1728
  624TMC3    H1 9300   2.265   2.768  16.533 -1.7339  0.3388  0.3574
  624TMC3    H2 9301   1.954   2.489  16.509  1.1771 -1.9851 -0.4561
  624TMC3    C7 9302   2.091   2.692  16.387 -0.2981 -0.3879  0.5870
  624TMC3    C8 9303   1.860   2.508  16.748  0.3142  0.3133  0.8780
  624TMC3    O1 9304   2.181   2.747  16.329  0.1799 -0.0202 -0.1359
  624TMC3    O2 9305   1.821   2.418  16.679  0.1287 -0.6324 -0.1125
  625MPD2     C 9306   2.915   4.153   0.815 -0.1921  0.0026 -0.2462
  625MPD2    C1 9307   2.871   4.276   0.844  0.4014 -0.4791  0.1047
  625MPD2    C2 9308   2.948   4.356   0.924  0.4395  0.0181  0.3855
  625MPD2    C3 9309   3.061   4.300   0.979  1.0938  0.3387  0.0605
  625MPD2    C4 9310   3.098   4.170   0.962 -0.2294  0.8983  0.4491
  625MPD2    C5 9311   3.032   4.099   0.873 -0.0388 -0.0004 -0.8373
  625MPD2     H 9312   2.929   4.460   0.948 -0.0096  0.6395 -2.5630
  625MPD2    H1 9313   3.190   4.138   1.010 -1.3208  0.3090  2.1592
  625MPD2    H2 9314   2.871   4.095   0.735 -1.9941  1.2109 -0.1212
  625MPD2    H3 9315   3.062   3.996   0.857 -0.6449 -0.2709 -0.2067
  625MPD2     N 9316   3.131   4.389   1.068 -0.3518 -0.0923 -0.0200
  625MPD2    H5 9317   3.089   4.479   1.088  0.2806  0.3392 -0.6374
  625MPD2    N1 9318   2.772   4.346   0.775  0.6830  0.6631 -0.3638
  625MPD2    H7 9319   2.753   4.442   0.799 -0.0833  0.1368  1.1307
  626TMC3    C1 9320   2.575   4.362   0.649 -1.0434 -0.8099  1.1214
  626TMC3    C2 9321   2.505   4.315   0.538  0.6511  0.1872  0.3328
  626TMC3    C3 9322   2.382   4.375   0.519 -0.2507  0.6456 -0.8758
  626TMC3    C4 9323   2.516   4.444   0.739  0.1281 -0.9059  0.0496
  626TMC3    C5 9324   2.383   4.486   0.722  0.5666  0.0215  0.1675
  626TMC3    C6 9325   2.323   4.469   0.603 -1.1678 -0.5435 -0.2063
  626TMC3     C 9326   2.687   4.287   0.679  0.1637 -0.4384 -0.0213
  626TMC3     O 9327   2.705   4.178   0.627  0.2972 -0.2690  0.4432
  626TMC3     H 9328   2.546   4.258   0.455 -1.2708  0.1303 -0.5590
  626TMC3    H1 9329   2.554   4.455   0.840  0.9430  2.5077 -0.6201
  626TMC3    H2 9330   2.223   4.507   0.584 -1.4233 -1.1449 -0.0700
  626TMC3    C7 9331   2.325   4.567   0.826 -0.7078 -0.0881  0.0273
  626TMC3    C8 9332   2.321   4.355   0.389 -0.4840  0.1779  0.1566
  626TMC3    O1 9333   2.399   4.612   0.913  0.2535 -0.0879  0.1658
  626TMC3    O2 9334   2.275   4.454   0.332 -0.6460  0.5831  0.2694
  627MPD2     C 9335   0.327   4.361  14.629  0.4467  0.4396  0.1496
  627MPD2    C1 9336   0.442   4.281  14.643 -0.2514  0.0172  0.2825
  627MPD2    C2 9337   0.441   4.154  14.589 -0.3085 -0.4976 -0.0385
  627MPD2    C3 9338   0.335   4.110  14.512  0.0433  0.3732  0.0248
  627MPD2    C4 9339   0.221   4.190  14.498  0.2174  1.1841 -0.0034
  627MPD2    C5 9340   0.222   4.316  14.557 -1.1884 -0.0174  0.0498
  627MPD2     H 9341   0.530   4.093  14.605  0.3380  0.3455 -0.4319
  627MPD2    H1 9342   0.128   4.162  14.450  0.3558  1.0487 -0.1897
  627MPD2    H2 9343   0.316   4.455  14.681  2.2614  1.6557 -1.6588
  627MPD2    H3 9344   0.130   4.372  14.542 -1.2556  0.0344  0.6575
  627MPD2     N 9345   0.348   3.974  14.466 -0.2881  0.1881 -0.3839
  627MPD2    H5 9346   0.435   3.921  14.473 -0.5696 -0.4408 -1.7055
  627MPD2    N1 9347   0.558   4.322  14.718 -0.4705 -0.8973  0.4619
  627MPD2    H7 9348   0.636   4.259  14.730 -0.7502 -0.7623  2.8635
  628TMC3    C1 9349   0.704   4.460  14.846 -0.0270 -0.8214  0.3983
  628TMC3    C2 9350   0.807   4.373  14.819  0.6553 -0.0132 -0.0784
  628TMC3    C3 9351   0.914   4.371  14.900 -0.5727  0.4324  0.9911
  628TMC3    C4 9352   0.719   4.565  14.931 -0.7981  0.7054  0.4226
  628TMC3    C5 9353   0.840   4.572  14.997  0.2034  0.3490  0.0941
  628TMC3    C6 9354   0.932   4.470  14.988 -0.6943 -0.3121 -0.7381
  628TMC3     C 9355   0.576   4.443  14.784 -0.0310 -0.3503  0.7760
  628TMC3     O 9356   0.491   4.528  14.806  0.2275 -0.0191 -0.2605
  628TMC3     H 9357   0.801   4.304  14.735  2.5868  0.6028 -0.7155
  628TMC3    H1 9358   0.645   4.643  14.944 -1.1102  0.3381  0.8606
  628TMC3    H2 9359   1.030   4.485  15.030 -1.5845  0.7037  0.9531
  628TMC3    C7 9360   0.908   4.706  14.994  0.0328 -0.0571 -0.0915
  628TMC3    C8 9361   1.035   4.344  14.830  0.9000 -0.2578 -0.5234
  628TMC3    O1 9362   1.029   4.704  14.980 -0.6852  0.5066 -0.5579
  628TMC3    O2 9363   1.018   4.359  14.710 -0.1360 -0.1329 -0.1268
  629MPD2     C 9364   3.892   3.126  17.111  0.2316 -0.3119  0.2521
  629MPD2    C1 9365   3.923   3.110  16.975 -0.5048  0.6946  0.1992
  629MPD2    C2 9366   3.815   3.109  16.881 -0.0678  0.1304  0.7959
  629MPD2    C3 9367   3.684   3.124  16.918  0.6212  0.0871  0.5441
  629MPD2    C4 9368   3.657   3.149  17.054 -0.0732  0.2726 -0.5752
  629MPD2    C5 9369   3.760   3.146  17.140  0.2938  0.4453  0.8600
  629MPD2     H 9370   3.840   3.090  16.777  2.0274 -1.9512  1.6779
  629MPD2    H1 9371   3.557   3.150  17.096 -0.0210 -2.0407 -0.4018
  629MPD2    H2 9372   3.969   3.131  17.188 -0.3733  0.6283  0.7931
  629MPD2    H3 9373   3.736   3.164  17.244 -1.5127 -0.7917  0.6702
  629MPD2     N 9374   3.587   3.106  16.820  0.0397  0.3438  0.0246
  629MPD2    H5 9375   3.633   3.092  16.731  1.4322  2.0804  0.4732
  629MPD2    N1 9376   4.049   3.119  16.936  0.6736  1.6412  0.1544
  629MPD2    H7 9377   4.110   3.114  17.017  1.4488  2.3323 -0.3866
  630TMC3    C1 9378   4.226   3.119  16.773 -0.3212  0.7076  0.0614
  630TMC3    C2 9379   4.274   3.186  16.663  0.0059 -0.6454 -0.3009
  630TMC3    C3 9380   4.401   3.159  16.622 -0.1400  0.3866 -0.2640
  630TMC3    C4 9381   4.286   3.019  16.838  0.0192  0.0888 -0.3944
  630TMC3    C5 9382   4.417   3.001  16.804  0.0627  0.9894  0.1615
  630TMC3    C6 9383   4.471   3.067  16.693 -0.5259 -0.6161  0.0240
  630TMC3     C 9384   4.087   3.153  16.805 -0.0314  0.0101 -0.7678
  630TMC3     O 9385   4.026   3.185  16.707 -0.1785 -0.1945 -0.1695
  630TMC3     H 9386   4.214   3.269  16.627  1.7588  0.6275 -0.3079
  630TMC3    H1 9387   4.241   2.974  16.926 -1.0028 -2.0532 -2.0268
  630TMC3    H2 9388   4.571   3.043  16.658 -1.2721 -0.5595 -2.1371
  630TMC3    C7 9389   4.516   2.992  16.913  0.1032 -0.4231 -0.6062
  630TMC3    C8 9390   4.484   3.275  16.612 -0.3039  0.4296 -0.2289
  630TMC3    O1 9391   4.488   2.916  17.003 -0.4501  0.3845  0.8234
  630TMC3    O2 9392   4.570   3.275  16.699  0.3747  0.1761  0.3237
  631MPD2     C 9393   2.242   2.773  15.771  0.0556 -0.0827  0.0470
  631MPD2    C1 9394   2.332   2.856  15.701 -0.3130  0.2936  0.5269
  631MPD2    C2 9395   2.462   2.820  15.688  0.1230 -0.0529 -0.5327
  631MPD2    C3 9396   2.507   2.689  15.727  0.5050  0.8083  0.2436
  631MPD2    C4 9397   2.411   2.614  15.798  0.0992  0.0611 -0.2698
  631MPD2    C5 9398   2.284   2.652  15.814  0.1248 -0.1298 -0.2619
  631MPD2     H 9399   2.529   2.892  15.642 -0.0794 -0.5265 -1.5706
  631MPD2    H1 9400   2.422   2.512  15.832 -1.7856  0.5648  1.9054
  631MPD2    H2 9401   2.140   2.806  15.789  0.0494 -0.6414  1.0228
  631MPD2    H3 9402   2.213   2.584  15.859 -0.8610  0.9467 -0.1860
  631MPD2     N 9403   2.641   2.646  15.702  0.0633 -0.3552  0.9413
  631MPD2    H5 9404   2.704   2.705  15.649  0.6472 -1.3244  0.5573
  631MPD2    N1 9405   2.290   2.987  15.679  0.3979  0.1001 -0.4531
  631MPD2    H7 9406   2.195   3.014  15.705  0.5286  1.0133 -0.9264
  632TMC3    C1 9407   2.304   3.213  15.614  0.4431 -0.1615 -0.1312
  632TMC3    C2 9408   2.211   3.247  15.701  0.4675  0.2813 -0.4833
  632TMC3    C3 9409   2.146   3.364  15.683  0.9050 -0.0709  0.5434
  632TMC3    C4 9410   2.336   3.298  15.512  0.5720  0.1724  0.5662
  632TMC3    C5 9411   2.264   3.409  15.489 -0.0861  0.0154 -0.2950
  632TMC3    C6 9412   2.163   3.452  15.575  0.1024 -0.4570  0.5199
  632TMC3     C 9413   2.365   3.083  15.615  0.4214  0.0821  0.4341
  632TMC3     O 9414   2.454   3.073  15.531 -0.1621  0.1687  0.2762
  632TMC3     H 9415   2.193   3.182  15.785 -0.3439 -0.7547 -1.4474
  632TMC3    H1 9416   2.417   3.278  15.443  0.6270  0.7284  0.4710
  632TMC3    H2 9417   2.118   3.549  15.558 -1.0025 -0.8971  0.9828
  632TMC3    C7 9418   2.302   3.509  15.393 -0.3634  0.1770  0.1139
  632TMC3    C8 9419   2.063   3.415  15.786 -0.5719 -0.0490 -0.1933
  632TMC3    O1 9420   2.214   3.531  15.312 -0.0692 -0.1827  0.9833
  632TMC3    O2 9421   2.067   3.357  15.895  0.0935 -0.1607 -0.0052
  633MPD2     C 9422   2.088   1.149  17.375 -0.0469 -0.0589  0.6207
  633MPD2    C1 9423   2.083   1.054  17.268  1.0551  0.4879 -0.1465
  633MPD2    C2 9424   2.113   0.927  17.312  0.2849 -0.4850  0.5125
  633MPD2    C3 9425   2.166   0.889  17.436 -0.1313 -0.4177 -0.8122
  633MPD2    C4 9426   2.167   0.986  17.534 -0.0770 -0.1102 -0.0078
  633MPD2    C5 9427   2.130   1.113  17.500  0.1673 -0.3711  0.6753
  633MPD2     H 9428   2.109   0.856  17.230  1.3106  1.7841 -1.5191
  633MPD2    H1 9429   2.195   0.959  17.635 -0.2361 -0.3851 -0.0378
  633MPD2    H2 9430   2.051   1.250  17.362  2.4742  0.8722  0.8207
  633MPD2    H3 9431   2.127   1.192  17.574  0.8953  0.8315 -0.5685
  633MPD2     N 9432   2.198   0.753  17.469 -0.6269  0.2336 -0.4005
  633MPD2    H5 9433   2.207   0.726  17.566  3.0596 -1.1292 -1.1017
  633MPD2    N1 9434   2.054   1.080  17.138  0.4307  0.1453 -0.1118
  633MPD2    H7 9435   2.085   1.018  17.064 -0.0882  1.8751 -1.7908
  634TMC3    C1 9436   1.978   1.215  16.959 -0.4528 -0.2067 -0.0457
  634TMC3    C2 9437   2.015   1.112  16.878  0.0792 -0.1596  0.2429
  634TMC3    C3 9438   2.009   1.129  16.741  0.0878  0.1316 -0.4557
  634TMC3    C4 9439   1.925   1.331  16.905  0.2727 -0.4709 -0.2654
  634TMC3    C5 9440   1.924   1.347  16.770 -0.2996  0.3342  0.2944
  634TMC3    C6 9441   1.969   1.249  16.680 -0.0891  0.1469  0.3023
  634TMC3     C 9442   1.990   1.203  17.101 -0.6789 -0.2279 -0.3240
  634TMC3     O 9443   1.918   1.281  17.167  0.0159  0.0988  0.6748
  634TMC3     H 9444   2.024   1.008  16.908 -1.6512  0.1815  1.9295
  634TMC3    H1 9445   1.895   1.415  16.966  1.0995 -2.2327  2.5703
  634TMC3    H2 9446   1.961   1.261  16.573 -0.8462  2.9984  0.6881
  634TMC3    C7 9447   1.864   1.464  16.707  0.2981  0.3517 -0.1335
  634TMC3    C8 9448   2.052   1.014  16.659 -0.2050 -0.7147 -0.7481
  634TMC3    O1 9449   1.876   1.463  16.585  0.0707  0.0981 -0.8050
  634TMC3    O2 9450   2.119   0.928  16.715 -0.5816  0.4319 -0.2538
  635TMC3    C1 9451   1.546   2.118   0.456  0.0125  0.0599 -0.4901
  635TMC3    C2 9452   1.498   2.088   0.330 -0.5326  0.0793  0.1990
  635TMC3    C3 9453   1.367   2.043   0.326 -0.6213 -0.5951  0.0546
  635TMC3    C4 9454   1.477   2.088   0.570  0.6995 -0.1661  0.2533
  635TMC3    C5 9455   1.354   2.032   0.549  0.5378  0.1334 -0.0374
  635TMC3    C6 9456   1.295   2.008   0.432 -0.1556 -0.3104 -0.7527
  635TMC3     C 9457   1.685   2.145   0.479 -0.1749  0.2533  0.1369
  635TMC3     O 9458   1.716   2.166   0.593  0.1720 -0.2014 -0.0323
  635TMC3     H 9459   1.550   2.118   0.240  0.0419  1.1141  0.8783
  635TMC3    H1 9460   1.521   2.094   0.669  0.0860 -0.8624  0.5667
  635TMC3    H2 9461   1.195   1.968   0.424 -0.6105  0.5935  0.4603
  635TMC3    C7 9462   1.288   1.969   0.665  0.4041  0.6800 -0.5958
  635TMC3    C8 9463   1.288   2.038   0.199 -0.1186 -0.9535 -0.0311
  635TMC3    O1 9464   1.196   1.897   0.632 -0.0382 -0.3734 -0.2792
  635TMC3    O2 9465   1.168   2.018   0.209  0.2329  0.3414  0.2430
  636MPD2     C 9466   3.104   1.246  16.091  0.6274  0.1099 -0.5410
  636MPD2    C1 9467   3.070   1.242  16.222 -0.8325  0.0491 -0.2480
  636MPD2    C2 9468   3.075   1.125  16.286  0.4754  0.4995  0.7085
  636MPD2    C3 9469   3.109   1.002  16.229 -0.3333 -0.1081 -0.3883
  636MPD2    C4 9470   3.145   1.010  16.097  0.0997  0.4715 -0.9379
  636MPD2    C5 9471   3.146   1.132  16.029  0.5601 -0.0958  0.5741
  636MPD2     H 9472   3.047   1.128  16.390 -1.6560 -1.6698  0.1980
  636MPD2    H1 9473   3.176   0.922  16.042  0.1430 -0.2011  0.1496
  636MPD2    H2 9474   3.095   1.336  16.031 -2.5747  0.2421  0.1027
  636MPD2    H3 9475   3.175   1.136  15.925 -2.5869  1.9668 -0.2499
  636MPD2     N 9476   3.130   0.885  16.317  0.0345  0.9524 -0.2515
  636MPD2    H5 9477   3.123   0.900  16.417 -0.1902 -1.6393  0.1241
  636MPD2    N1 9478   3.013   1.352  16.292  0.1614 -0.0638  0.1659
  636MPD2    H7 9479   3.004   1.338  16.392  0.6508 -0.4150  0.1609
  637TMC3    C1 9480   3.308   0.750  16.355  0.6751  0.8890 -0.2860
  637TMC3    C2 9481   3.298   0.786  16.483  0.0509 -0.1957  0.4749
  637TMC3    C3 9482   3.407   0.851  16.537 -0.1548 -0.3768 -0.0269
  637TMC3    C4 9483   3.423   0.775  16.284  0.0888  0.1644 -0.2219
  637TMC3    C5 9484   3.529   0.832  16.341  0.0917 -0.1794 -0.8830
  637TMC3    C6 9485   3.528   0.869  16.477 -1.0080 -0.2908  0.9104
  637TMC3     C 9486   3.188   0.769  16.277 -0.0266  0.2421  0.5018
  637TMC3     O 9487   3.194   0.722  16.163 -0.1904 -0.0461  0.4004
  637TMC3     H 9488   3.206   0.768  16.537 -1.0361  2.9735 -0.3377
  637TMC3    H1 9489   3.417   0.766  16.176 -1.0697 -0.2918 -0.1250
  637TMC3    H2 9490   3.614   0.921  16.518 -0.9856 -0.0501  0.5581
  637TMC3    C7 9491   3.583   0.939  16.264 -0.3514  0.7845 -0.0092
  637TMC3    C8 9492   3.362   0.970  16.612 -0.2202 -0.3502  0.0137
  637TMC3    O1 9493   3.563   1.048  16.316 -0.3816 -0.0503  0.0657
  637TMC3    O2 9494   3.290   0.957  16.713 -0.1959 -0.1684 -0.3022
  638MPD2     C 9495   3.284   0.226  15.096  0.7306  0.1275  0.0514
  638MPD2    C1 9496   3.259   0.114  15.023 -1.0473  0.3061  0.2045
  638MPD2    C2 9497   3.210   0.006  15.097 -0.0746 -0.1232 -0.2074
  638MPD2    C3 9498   3.182   0.020  15.226  0.3278  0.0697 -0.5800
  638MPD2    C4 9499   3.203   0.144  15.293  0.6071  0.4491 -0.0078
  638MPD2    C5 9500   3.249   0.247  15.226  0.6668 -0.4390 -0.5229
  638MPD2     H 9501   3.193   4.644  15.061  2.3782  0.0027 -1.7238
  638MPD2    H1 9502   3.179   0.154  15.398  1.4726 -2.0729  0.4298
  638MPD2    H2 9503   3.330   0.309  15.043  0.5286 -0.4549 -1.0312
  638MPD2    H3 9504   3.268   0.337  15.284 -2.6731  0.6372 -1.1302
  638MPD2     N 9505   3.144   4.643  15.293 -0.1798  0.0151  0.2612
  638MPD2    H5 9506   3.123   4.556  15.244 -0.4363 -0.4325  1.1643
  638MPD2    N1 9507   3.300   0.113  14.884  1.2469  0.4280 -0.6731
  638MPD2    H7 9508   3.326   0.200  14.839 -0.3557  1.2999  0.0636
  639TMC3    C1 9509   3.067   4.516  15.471  0.2724  0.1550 -0.3028
  639TMC3    C2 9510   2.983   4.454  15.379 -0.3372 -0.2316 -0.1533
  639TMC3    C3 9511   2.906   4.351  15.422 -0.2632 -0.7437 -0.4602
  639TMC3    C4 9512   3.088   4.466  15.601 -0.1493 -0.2817 -0.1511
  639TMC3    C5 9513   3.018   4.351  15.627  0.2246  0.0599  0.7563
  639TMC3    C6 9514   2.930   4.292  15.541  0.8023 -0.4319  0.1908
  639TMC3     C 9515   3.146   4.627  15.428  0.5321  0.2598 -0.0602
  639TMC3     O 9516   3.195   4.686  15.520 -0.0729  0.1344  0.6859
  639TMC3     H 9517   2.959   4.492  15.281  1.2753  0.2476 -0.3559
  639TMC3    H1 9518   3.141   4.524  15.675 -1.1155 -0.4830  0.7028
  639TMC3    H2 9519   2.882   4.203  15.581  0.0835 -0.0612  0.1529
  639TMC3    C7 9520   3.067   4.261  15.730  0.2040 -0.0848  0.0884
  639TMC3    C8 9521   2.850   4.268  15.314  0.1755  0.2705  0.6842
  639TMC3    O1 9522   2.998   4.175  15.774 -0.1449 -0.0742 -0.1120
  639TMC3    O2 9523   2.916   4.261  15.206 -0.0540  0.0848 -0.4160
  640MPD2     C 9524   3.144   4.317  10.245 -0.7233 -0.1819 -0.3488
  640MPD2    C1 9525   3.069   4.205  10.267 -0.3032 -0.2552 -0.3285
  640MPD2    C2 9526   2.979   4.195  10.378 -0.6780  0.2983 -0.0207
  640MPD2    C3 9527   2.974   4.316  10.453 -0.1048 -0.1753 -0.7095
  640MPD2    C4 9528   3.042   4.430  10.419  0.8453  0.4882  0.6470
  640MPD2    C5 9529   3.137   4.426  10.320 -0.3097 -0.1852 -0.5171
  640MPD2     H 9530   2.929   4.101  10.401 -0.3525 -0.4181 -2.2033
  640MPD2    H1 9531   3.037   4.526  10.468  1.4119  0.5253  0.6277
  640MPD2    H2 9532   3.212   4.316  10.160 -0.5505  0.2276 -0.2129
  640MPD2    H3 9533   3.205   4.506  10.291 -0.4984 -0.8370 -2.7324
  640MPD2     N 9534   2.881   4.319  10.560 -0.1066 -0.4669  0.1046
  640MPD2    H5 9535   2.869   4.404  10.615 -0.8522 -0.1671 -0.5246
  640MPD2    N1 9536   3.083   4.108  10.169  0.1812 -1.0152  0.0399
  640MPD2    H7 9537   3.158   4.133  10.104  1.3868 -0.7866  1.5074
  641TMC3    C1 9538   3.043   3.919  10.042 -0.4613 -0.2527  0.6703
  641TMC3    C2 9539   3.174   3.910  10.017  0.2881 -0.1996 -0.5429
  641TMC3    C3 9540   3.209   3.826   9.914 -0.9336  0.0212  0.6039
  641TMC3    C4 9541   2.952   3.847   9.979  0.3782 -0.0481 -0.2607
  641TMC3    C5 9542   2.994   3.763   9.886 -0.9895  0.4041  0.2511
  641TMC3    C6 9543   3.121   3.756   9.833  0.1772 -0.1186  0.2883
  641TMC3     C 9544   3.006   3.997  10.148  0.0451 -0.1695  0.4638
  641TMC3     O 9545   2.902   3.967  10.206  0.1517 -0.0031 -0.1608
  641TMC3     H 9546   3.249   3.961  10.077 -0.7816 -0.8623  1.3599
  641TMC3    H1 9547   2.850   3.866  10.011  0.3445  1.0279 -1.0097
  641TMC3    H2 9548   3.145   3.689   9.751 -2.7218 -0.8186  0.0090
  641TMC3    C7 9549   2.896   3.679   9.820 -0.2803 -0.1168 -0.2511
  641TMC3    C8 9550   3.347   3.788   9.882  0.3516  0.9825 -0.1574
  641TMC3    O1 9551   2.933   3.620   9.716 -0.2038  0.3912  0.2136
  641TMC3    O2 9552   3.361   3.753   9.767  0.4053  0.0506 -0.3974
  642TMC3    C1 9553   4.370   4.519  12.803  0.0188  0.0994  0.0936
  642TMC3    C2 9554   4.475   4.568  12.729 -0.6526 -0.6788  0.1214
  642TMC3    C3 9555   4.481   4.567  12.594  0.6796  0.1175  0.1970
  642TMC3    C4 9556   4.271   4.450  12.734 -0.5058 -0.8345  0.5218
  642TMC3    C5 9557   4.276   4.442  12.600  0.4389 -0.4204  0.5016
  642TMC3    C6 9558   4.383   4.497  12.527 -0.1308 -0.1120 -0.1471
  642TMC3     C 9559   4.344   4.586  12.928 -0.9323  0.0346  0.6459
  642TMC3     O 9560   4.439   4.622  13.001 -0.1376 -0.1649 -0.5761
  642TMC3     H 9561   4.551   4.622  12.785 -0.1564  0.7937 -1.9640
  642TMC3    H1 9562   4.200   4.394  12.795 -1.9220  2.3047  1.7268
  642TMC3    H2 9563   4.378   4.499  12.419 -0.4720  0.1092 -0.1279
  642TMC3    C7 9564   4.181   4.362  12.525 -0.3177  0.2224  0.4904
  642TMC3    C8 9565   4.563   4.657  12.516 -0.1217  0.5074  0.0481
  642TMC3    O1 9566   4.189   4.364  12.401 -0.3056 -0.4621 -0.0299
  642TMC3    O2 9567   4.557   4.631  12.395  0.2910 -0.3584 -0.2353
  643TMC3    C1 9568   4.273   3.944   0.944  0.3457  0.5196 -0.3326
  643TMC3    C2 9569   4.176   4.039   0.921 -0.9199 -0.0320 -0.2225
  643TMC3    C3 9570   4.137   4.068   0.791 -0.1608 -0.3120  0.3465
  643TMC3    C4 9571   4.329   3.870   0.843  0.8008  0.0805 -0.6124
  643TMC3    C5 9572   4.289   3.900   0.718  0.9710 -0.1323  0.0178
  643TMC3    C6 9573   4.197   4.000   0.688 -0.3210  0.0905  0.2385
  643TMC3     C 9574   4.286   3.892   1.080 -0.6077  0.7590 -0.7411
  643TMC3     O 9575   4.189   3.903   1.153 -0.6943 -0.5263 -0.2423
  643TMC3     H 9576   4.129   4.089   1.005 -2.7731 -1.3079 -0.4906
  643TMC3    H1 9577   4.393   3.785   0.868 -1.1721 -0.9502  0.9092
  643TMC3    H2 9578   4.181   4.026   0.584 -0.1482 -1.5852 -0.2091
  643TMC3    C7 9579   4.357   3.840   0.607 -0.1801  0.0960  0.3003
  643TMC3    C8 9580   4.077   4.199   0.757  0.7173  0.1963 -0.3837
  643TMC3    O1 9581   4.299   3.836   0.501  0.3167  0.2029 -0.3236
  643TMC3    O2 9582   3.958   4.209   0.783 -0.2372  0.7862 -0.4962
  644MPD2     C 9583   2.691   3.946   9.674 -0.1998  0.2880  0.4580
  644MPD2    C1 9584   2.738   4.027   9.777 -0.1381 -0.1612 -0.4018
  644MPD2    C2 9585   2.675   4.029   9.901  0.1089 -0.0813 -0.5784
  644MPD2    C3 9586   2.567   3.940   9.924  0.1777 -0.0822  0.4790
  644MPD2    C4 9587   2.524   3.857   9.826  0.3366 -0.4846 -0.0227
  644MPD2    C5 9588   2.589   3.859   9.703  0.2333 -0.5154  0.1036
  644MPD2     H 9589   2.710   4.101   9.974 -0.0685 -0.9844  0.3941
  644MPD2    H1 9590   2.455   3.775   9.843  1.5748 -2.1783 -3.1477
  644MPD2    H2 9591   2.727   3.943   9.571  1.0105 -1.3764  0.9369
  644MPD2    H3 9592   2.556   3.786   9.630  1.7554  0.3682 -1.4589
  644MPD2     N 9593   2.512   3.930  10.058 -0.0597  0.2703  0.3449
  644MPD2    H5 9594   2.558   3.985  10.130  0.7696  0.0070  0.0191
  644MPD2    N1 9595   2.852   4.102   9.743  0.9152 -0.6608  0.5167
  644MPD2    H7 9596   2.889   4.089   9.649 -3.6278  0.1328 -1.3642
  645TMC3    C1 9597   2.343   3.877  10.221 -0.7352 -0.3661  0.1956
  645TMC3    C2 9598   2.422   3.930  10.320 -0.1271  0.3218 -0.2206
  645TMC3    C3 9599   2.372   3.930  10.444 -0.3055  0.3899  0.2297
  645TMC3    C4 9600   2.230   3.798  10.244 -0.1837  0.0955 -0.1539
  645TMC3    C5 9601   2.189   3.792  10.375 -0.2916  1.1102  0.2170
  645TMC3    C6 9602   2.266   3.845  10.477 -0.2759 -0.1897  0.1205
  645TMC3     C 9603   2.386   3.872  10.079  0.0545 -0.5309  0.4405
  645TMC3     O 9604   2.306   3.817  10.003  0.0003 -0.3707 -0.6726
  645TMC3     H 9605   2.497   4.006  10.302  0.8133 -1.1748 -2.5741
  645TMC3    H1 9606   2.172   3.764  10.159  0.5992 -0.7894 -0.3391
  645TMC3    H2 9607   2.215   3.861  10.571  2.9788  3.1789  1.2738
  645TMC3    C7 9608   2.066   3.721  10.399 -0.1760  0.5995  0.3980
  645TMC3    C8 9609   2.404   4.032  10.540  0.0815  0.0546  0.1556
  645TMC3    O1 9610   2.005   3.682  10.300  0.1621 -0.1298 -1.1843
  645TMC3    O2 9611   2.419   4.149  10.506  0.0610  0.4604  0.3705
  646MPD2     C 9612   3.168   3.407  14.733  0.9242  0.2060 -0.5914
  646MPD2    C1 9613   3.137   3.477  14.842  0.6456 -1.0389  0.6078
  646MPD2    C2 9614   3.076   3.599  14.834  1.1609 -0.0037  0.5453
  646MPD2    C3 9615   3.030   3.645  14.710 -0.3888 -0.3392 -0.0585
  646MPD2    C4 9616   3.055   3.566  14.600  0.0163 -0.0628 -0.0780
  646MPD2    C5 9617   3.124   3.449  14.614  0.3536 -0.3463  0.1515
  646MPD2     H 9618   3.051   3.655  14.923 -1.2618 -0.9422  0.4568
  646MPD2    H1 9619   3.023   3.586  14.499 -2.0886 -1.0123  0.3714
  646MPD2    H2 9620   3.222   3.312  14.731  1.0269  0.2854 -1.7600
  646MPD2    H3 9621   3.143   3.396  14.522  2.8379  0.2309  0.3109
  646MPD2     N 9622   2.943   3.757  14.692  0.7198  0.7017 -0.1360
  646MPD2    H5 9623   2.902   3.800  14.774  2.4488  0.7952  0.6729
  646MPD2    N1 9624   3.198   3.428  14.960 -0.1761 -0.0329  0.1222
  646MPD2    H7 9625   3.264   3.351  14.953  1.0941  1.0367  0.0875
  647TMC3    C1 9626   3.267   3.426  15.190  0.2660  0.4213  0.3716
  647TMC3    C2 9627   3.226   3.394  15.311 -0.7236 -0.9770  0.0154
  647TMC3    C3 9628   3.302   3.325  15.406 -0.8555  0.3694 -0.0529
  647TMC3    C4 9629   3.399   3.385  15.159  0.2082 -0.2126  0.4337
  647TMC3    C5 9630   3.475   3.325  15.254  0.3568 -0.4666  0.3230
  647TMC3    C6 9631   3.433   3.295  15.381 -0.2579  0.4284  0.3008
  647TMC3     C 9632   3.178   3.478  15.087 -0.2377  0.2205 -0.1315
  647TMC3     O 9633   3.087   3.551  15.123  0.3704  0.5221  0.5048
  647TMC3     H 9634   3.131   3.435  15.343  0.3885  0.8873  0.9159
  647TMC3    H1 9635   3.443   3.407  15.062 -1.0432  1.1551  0.1777
  647TMC3    H2 9636   3.499   3.253  15.456 -2.8389 -0.3037  2.1633
  647TMC3    C7 9637   3.613   3.281  15.226 -0.4971 -0.2706 -0.3966
  647TMC3    C8 9638   3.237   3.243  15.499 -0.4098 -0.7669  0.4335
  647TMC3    O1 9639   3.693   3.283  15.316  0.1365  0.1012 -0.2472
  647TMC3    O2 9640   3.129   3.272  15.541 -0.4135  0.8342 -0.1919
  648TMC3    C1 9641   2.462   1.081  15.965  0.5789  0.2773  0.1447
  648TMC3    C2 9642   2.474   0.964  15.915  0.0954  0.4316 -0.0329
  648TMC3    C3 9643   2.428   0.953  15.785 -1.1430  0.0371 -0.0092
  648TMC3    C4 9644   2.419   1.190  15.899  0.8332 -1.0361  0.3964
  648TMC3    C5 9645   2.383   1.171  15.767  0.4398 -0.5917 -0.3074
  648TMC3    C6 9646   2.381   1.048  15.709 -0.3776  0.2683 -0.6584
  648TMC3     C 9647   2.468   1.091  16.113 -0.7611 -0.1942 -0.2031
  648TMC3     O 9648   2.411   1.189  16.160  0.6169 -0.0204  0.1723
  648TMC3     H 9649   2.477   0.876  15.979  3.2705  0.2522 -0.4010
  648TMC3    H1 9650   2.425   1.290  15.941 -0.1293 -1.7114  2.1430
  648TMC3    H2 9651   2.331   1.034  15.614 -0.1884 -1.9040 -0.4485
  648TMC3    C7 9652   2.311   1.274  15.697  0.3476  0.2192 -0.7971
  648TMC3    C8 9653   2.413   0.826  15.738 -0.6356  0.1873 -0.2917
  648TMC3    O1 9654   2.330   1.275  15.578  0.3238 -0.8234  0.1872
  648TMC3    O2 9655   2.329   0.806  15.657 -0.2650  0.5777 -0.2659
  649TMC3    C1 9656   1.100   2.647  12.929  0.0492  0.1141  0.5333
  649TMC3    C2 9657   1.206   2.732  12.927  0.0838 -0.8358  0.0501
  649TMC3    C3 9658   1.283   2.753  13.040  0.4188  0.3382 -0.0099
  649TMC3    C4 9659   1.072   2.580  13.048 -0.0510 -1.2830  0.0662
  649TMC3    C5 9660   1.159   2.597  13.162 -0.4516  0.0928 -0.2586
  649TMC3    C6 9661   1.263   2.690  13.159  0.0793 -0.6894 -0.3121
  649TMC3     C 9662   0.975   2.658  12.855  0.0946 -1.6898 -0.0623
  649TMC3     O 9663   0.871   2.648  12.922 -0.5396 -0.0065 -0.2370
  649TMC3     H 9664   1.221   2.788  12.835  1.7159  0.8960  1.3654
  649TMC3    H1 9665   0.988   2.510  13.047 -1.4091  0.3499 -0.0911
  649TMC3    H2 9666   1.334   2.703  13.240 -1.7150  2.3089  0.7437
  649TMC3    C7 9667   1.168   2.489  13.257 -0.0332 -0.2962  0.2233
  649TMC3    C8 9668   1.407   2.835  13.031  0.6220  0.2706  0.1364
  649TMC3    O1 9669   1.082   2.400  13.250 -0.1419  0.3584 -0.1910
  649TMC3    O2 9670   1.492   2.821  13.115  0.0871  0.0969  0.0584
  650TMC3    C1 9671   3.795   3.843  12.918 -0.0988 -0.1197  0.6247
  650TMC3    C2 9672   3.746   3.971  12.949  0.5480  0.3410  0.3660
  650TMC3    C3 9673   3.614   3.987  12.963  0.0084  0.9244 -0.0502
  650TMC3    C4 9674   3.707   3.750  12.863 -0.1198 -0.5885  0.0992
  650TMC3    C5 9675   3.573   3.771  12.879  0.7403 -0.3518 -1.0635
  650TMC3    C6 9676   3.528   3.884  12.941  0.0489 -0.1338 -0.6656
  650TMC3     C 9677   3.937   3.811  12.919 -0.5031 -0.3310 -0.2312
  650TMC3     O 9678   4.013   3.900  12.895  0.4853  0.4727  0.6322
  650TMC3     H 9679   3.809   4.057  12.968  0.1751  0.2256  2.1196
  650TMC3    H1 9680   3.732   3.651  12.829 -1.0865 -0.3959 -1.1642
  650TMC3    H2 9681   3.422   3.881  12.965  0.7822 -1.8388  2.4495
  650TMC3    C7 9682   3.502   3.736  12.762  0.2598 -0.4593  0.3083
  650TMC3    C8 9683   3.566   4.115  12.922 -0.4961 -0.1698 -0.0655
  650TMC3    O1 9684   3.538   3.631  12.709  0.1938 -0.3285  0.4548
  650TMC3    O2 9685   3.643   4.206  12.926  0.3608 -0.7168  0.1224
  651MPD2     C 9686   2.751   1.561  11.218  0.5816 -0.1888 -0.4906
  651MPD2    C1 9687   2.697   1.680  11.183  0.3989 -0.2912  0.8326
  651MPD2    C2 9688   2.770   1.762  11.105  0.6185 -0.4993  1.0799
  651MPD2    C3 9689   2.888   1.726  11.050  0.1752  0.1851 -0.5176
  651MPD2    C4 9690   2.933   1.600  11.080 -1.1682  0.1128  0.0979
  651MPD2    C5 9691   2.865   1.518  11.165  0.6623  0.1620 -0.3608
  651MPD2     H 9692   2.736   1.861  11.078 -0.2742 -1.2316 -0.4777
  651MPD2    H1 9693   3.027   1.567  11.036 -0.3165  1.0980  1.1751
  651MPD2    H2 9694   2.703   1.496  11.290 -1.7071 -0.2918 -2.1373
  651MPD2    H3 9695   2.908   1.423  11.195  0.7858 -0.0634 -1.2476
  651MPD2     N 9696   2.944   1.805  10.949  0.7708 -0.1050  0.4769
  651MPD2    H5 9697   2.904   1.897  10.943  3.0602  0.9705  1.5630
  651MPD2    N1 9698   2.575   1.731  11.231  0.1358  0.7331  0.3185
  651MPD2    H7 9699   2.545   1.819  11.190 -0.4686 -0.1484 -1.1318
  652TMC3    C1 9700   3.275   1.979  10.665 -0.3457  0.4327 -0.3977
  652TMC3    C2 9701   3.217   1.864  10.725  0.5416  0.0543 -0.5021
  652TMC3    C3 9702   3.091   1.872  10.780 -0.3394  0.6080  0.9158
  652TMC3    C4 9703   3.199   2.100  10.656  0.0980  0.3052 -0.5459
  652TMC3    C5 9704   3.079   2.101  10.723  0.4013  0.0524 -0.6183
  652TMC3    C6 9705   3.022   1.989  10.785  0.3614 -0.0291  0.0417
  652TMC3     C 9706   3.416   1.984  10.696  0.0946  0.3320  0.1982
  652TMC3     O 9707   3.456   1.906  10.780  0.4525 -0.1023  0.0912
  652TMC3     H 9708   3.280   1.780  10.752 -2.0201 -1.6407  0.2338
  652TMC3    H1 9709   3.254   2.192  10.642  1.3618 -0.1455  1.4859
  652TMC3    H2 9710   2.924   1.996  10.830  0.7589 -0.1589  0.9165
  652TMC3    C7 9711   3.022   2.217  10.766 -0.4454  0.5946 -0.4003
  652TMC3    C8 9712   3.045   1.769  10.862  0.3270  0.3632  0.0061
  652TMC3    O1 9713   2.984   2.215  10.884  0.4473  0.1393  0.0685
  652TMC3    O2 9714   3.099   1.658  10.854  0.1122 -0.0804 -0.2288
  653MPD2     C 9715   1.925   0.963   0.057  0.3943 -0.0948 -0.2532
  653MPD2    C1 9716   1.844   1.026  17.718 -0.1314  0.0142 -0.2580
  653MPD2    C2 9717   1.808   0.956  17.609  0.0230  0.0672 -0.0841
  653MPD2    C3 9718   1.847   0.828  17.585  0.0511  0.0644 -0.2099
  653MPD2    C4 9719   1.913   0.766  17.683 -0.0930  0.0077 -0.2782
  653MPD2    C5 9720   1.955   0.835   0.034 -0.1402 -0.3560  0.7683
  653MPD2     H 9721   1.763   1.007  17.524  2.0925  1.0088 -0.6054
  653MPD2    H1 9722   1.947   0.663  17.677  1.4220  0.4942 -0.1383
  653MPD2    H2 9723   1.956   1.013   0.148  1.3314 -1.3345  0.0977
  653MPD2    H3 9724   2.006   0.778   0.111 -1.4015 -0.2674  1.6659
  653MPD2     N 9725   1.803   0.759  17.469  0.1232 -0.5290  0.3906
  653MPD2    H5 9726   1.770   0.817  17.392 -3.5180 -2.1386  0.7190
  653MPD2    N1 9727   1.818   1.165  17.715  0.6496 -0.0693 -0.0185
  653MPD2    H7 9728   1.763   1.199  17.637 -1.8156  1.5533  2.4303
  654TMC3    C1 9729   1.737   0.581  17.329 -0.7506 -0.1771 -0.2102
  654TMC3    C2 9730   1.645   0.662  17.278  0.2448 -0.1031 -0.3885
  654TMC3    C3 9731   1.579   0.615  17.171 -0.1975 -0.2767  0.1320
  654TMC3    C4 9732   1.766   0.460  17.282  0.5374 -0.0052 -0.2006
  654TMC3    C5 9733   1.694   0.413  17.178  0.1525  0.3572  0.0938
  654TMC3    C6 9734   1.592   0.490  17.125 -0.3377  0.6111  0.3404
  654TMC3     C 9735   1.791   0.623  17.458  0.8133 -0.0411  0.2245
  654TMC3     O 9736   1.808   0.537  17.540  0.2041 -0.1687 -0.1565
  654TMC3     H 9737   1.620   0.761  17.316 -2.3789 -0.7440 -0.4192
  654TMC3    H1 9738   1.849   0.400  17.318  1.8888  1.9197 -0.1471
  654TMC3    H2 9739   1.538   0.462  17.035 -1.2548  0.2876  0.9911
  654TMC3    C7 9740   1.747   0.320  17.081  0.6581  0.6925 -0.1393
  654TMC3    C8 9741   1.492   0.707  17.105  0.0660  0.2215  0.1184
  654TMC3    O1 9742   1.724   0.350  16.964 -0.0227 -0.2454 -0.4591
  654TMC3    O2 9743   1.435   0.788  17.173  0.1135 -0.2516  0.6075
  655MPD2     C 9744   2.916   1.217  15.681 -0.5891  0.0831  0.4024
  655MPD2    C1 9745   2.827   1.303  15.611 -0.0402  0.6881  0.0825
  655MPD2    C2 9746   2.789   1.277  15.480  0.2389  0.0814 -0.3665
  655MPD2    C3 9747   2.854   1.174  15.405 -0.1216 -1.2822  0.3012
  655MPD2    C4 9748   2.933   1.085  15.477  0.3529  0.7971  0.7354
  655MPD2    C5 9749   2.963   1.111  15.608  0.3540  0.7765 -0.1423
  655MPD2     H 9750   2.714   1.341  15.436  0.0978 -0.7643 -1.3582
  655MPD2    H1 9751   2.974   1.000  15.423  0.1800 -0.3869  2.4674
  655MPD2    H2 9752   2.967   1.247  15.772 -0.2387  0.6647  0.0142
  655MPD2    H3 9753   3.043   1.051  15.650 -1.4579 -1.7215 -0.2621
  655MPD2     N 9754   2.823   1.141  15.270  0.6778 -0.4637  0.7957
  655MPD2    H5 9755   2.879   1.067  15.228  0.4271 -0.3240  0.2172
  655MPD2    N1 9756   2.774   1.418  15.663  0.3965  0.2688 -0.5667
  655MPD2    H7 9757   2.712   1.470  15.602  1.3423  0.7816 -1.0853
  656TMC3    C1 9758   2.680   1.557  15.820  0.4124  0.0494  0.1527
  656TMC3    C2 9759   2.594   1.557  15.932 -0.1384 -0.0526  0.0014
  656TMC3    C3 9760   2.479   1.632  15.936  0.1343 -0.5933  0.1309
  656TMC3    C4 9761   2.652   1.647  15.724 -0.9810  0.6542  0.0525
  656TMC3    C5 9762   2.542   1.725  15.731 -1.0597 -0.5774  0.2657
  656TMC3    C6 9763   2.452   1.716  15.833  0.5385 -0.5732  0.3470
  656TMC3     C 9764   2.772   1.451  15.798 -0.3533  0.5190  0.3490
  656TMC3     O 9765   2.808   1.389  15.898 -0.2872  0.1090 -0.5457
  656TMC3     H 9766   2.601   1.475  16.002  2.1025 -0.3873 -0.6226
  656TMC3    H1 9767   2.709   1.657  15.632  0.1483  4.3018  1.1652
  656TMC3    H2 9768   2.355   1.763  15.841 -0.4082 -2.5626  0.7370
  656TMC3    C7 9769   2.507   1.802  15.608 -0.5913 -0.1234  0.4619
  656TMC3    C8 9770   2.374   1.596  16.030 -0.3028  0.5096  0.0535
  656TMC3    O1 9771   2.591   1.819  15.516 -0.0947 -0.2227 -0.2514
  656TMC3    O2 9772   2.344   1.480  16.045  0.2786 -0.8079 -0.9596
  657TMC3    C1 9773   1.640   0.733  15.208  0.3829 -0.4398  0.1300
  657TMC3    C2 9774   1.691   0.759  15.334  0.5811 -0.7598  0.2003
  657TMC3    C3 9775   1.694   0.887  15.375 -0.3376  0.4961 -0.0291
  657TMC3    C4 9776   1.582   0.836  15.138  0.8182  0.8081  0.4060
  657TMC3    C5 9777   1.576   0.963  15.193 -0.3103  0.2681 -0.1602
  657TMC3    C6 9778   1.636   0.994  15.312 -0.1908  0.1915  0.1356
  657TMC3     C 9779   1.652   0.596  15.153  1.2570  0.3679  0.9682
  657TMC3     O 9780   1.559   0.560  15.085  0.3169  0.6757  0.4762
  657TMC3     H 9781   1.729   0.674  15.389  0.2950  0.1414  1.8148
  657TMC3    H1 9782   1.562   0.828  15.031 -0.1935  1.2051  0.5662
  657TMC3    H2 9783   1.633   1.094  15.354  0.6500  0.4360 -0.3879
  657TMC3    C7 9784   1.547   1.079  15.107  0.3492  0.3558  0.1056
  657TMC3    C8 9785   1.760   0.923  15.491  0.5340  0.8841 -0.4465
  657TMC3    O1 9786   1.608   1.184  15.130  0.4409 -0.6626  0.0892
  657TMC3    O2 9787   1.779   1.041  15.505 -0.0224 -0.3035  0.3094
  658MPD2     C 9788   3.035   0.948  14.558 -0.1411 -0.5802 -0.2622
  658MPD2    C1 9789   2.903   0.985  14.558 -0.6976  0.0657 -0.5387
  658MPD2    C2 9790   2.841   1.024  14.445  0.1326  0.1626  0.2104
  658MPD2    C3 9791   2.912   1.043  14.330  0.0284  0.4078 -0.6716
  658MPD2    C4 9792   3.040   0.996  14.317  0.1943  0.0464  0.1357
  658MPD2    C5 9793   3.103   0.960  14.435  0.4796  0.7422 -0.9480
  658MPD2     H 9794   2.741   1.061  14.463  0.0479 -0.6036  1.3049
  658MPD2    H1 9795   3.097   1.009  14.225 -0.8650  0.1099 -0.5076
  658MPD2    H2 9796   3.095   0.939  14.648  1.0446  1.1599 -0.8761
  658MPD2    H3 9797   3.211   0.967  14.441  0.2217  2.4532  1.3941
  658MPD2     N 9798   2.831   1.091  14.226 -0.1017  0.0979 -0.2548
  658MPD2    H5 9799   2.732   1.110  14.238 -0.7467 -2.2301 -2.0061
  658MPD2    N1 9800   2.822   0.981  14.674 -0.0030 -0.3830 -0.4009
  658MPD2    H7 9801   2.724   1.006  14.665  0.6877  3.0540  1.7245
  659TMC3    C1 9802   2.755   0.986  14.888 -0.9843 -0.4801 -0.7881
  659TMC3    C2 9803   2.785   1.065  14.995 -0.7699  1.0786 -0.4132
  659TMC3    C3 9804   2.689   1.117  15.072  0.2950 -0.0918 -0.3547
  659TMC3    C4 9805   2.624   0.960  14.849 -0.4524 -0.2867 -0.1115
  659TMC3    C5 9806   2.527   1.013  14.939 -0.2758 -0.1220 -0.2818
  659TMC3    C6 9807   2.557   1.096  15.046 -0.3029 -0.4663 -0.9876
  659TMC3     C 9808   2.868   0.953  14.799 -0.0793  0.7588  0.1697
  659TMC3     O 9809   2.982   0.946  14.840 -0.1567 -0.2404  0.0378
  659TMC3     H 9810   2.883   1.107  15.010 -0.1104 -0.2763 -0.9557
  659TMC3    H1 9811   2.592   0.892  14.771 -2.0052  0.8560 -0.4640
  659TMC3    H2 9812   2.483   1.151  15.103 -0.8701  0.5082 -2.6814
  659TMC3    C7 9813   2.398   0.951  14.952  0.4079  0.5892  1.2365
  659TMC3    C8 9814   2.718   1.193  15.193 -0.2919 -0.1782  0.6595
  659TMC3    O1 9815   2.313   1.022  14.999 -0.1044 -0.0009 -0.0278
  659TMC3    O2 9816   2.630   1.269  15.230  0.2330  0.0092  0.5508
  660MPD2     C 9817   0.806   0.593  12.635  0.0957  0.4791 -0.1464
  660MPD2    C1 9818   0.670   0.561  12.641 -0.3090  0.2982 -0.3359
  660MPD2    C2 9819   0.629   0.482  12.747  0.1126 -0.1806  0.2162
  660MPD2    C3 9820   0.715   0.444  12.843  0.0306  0.1435  0.4367
  660MPD2    C4 9821   0.843   0.485  12.835 -0.4845  0.3290  0.1256
  660MPD2    C5 9822   0.886   0.558  12.730 -0.5935  0.7867 -0.0571
  660MPD2     H 9823   0.526   0.449  12.742 -0.4504  1.8045 -1.7691
  660MPD2    H1 9824   0.910   0.452  12.913  0.4856  3.2821  0.5401
  660MPD2    H2 9825   0.846   0.651  12.553 -1.2204  1.5497 -0.0295
  660MPD2    H3 9826   0.990   0.590  12.729 -0.5111  0.4821 -0.8843
  660MPD2     N 9827   0.678   0.364  12.958 -0.4201  0.5452  0.0124
  660MPD2    H5 9828   0.750   0.345  13.027 -0.1750 -0.5783 -0.5446
  660MPD2    N1 9829   0.588   0.608  12.534 -0.1054 -0.4111 -0.1043
  660MPD2    H7 9830   0.637   0.649  12.455 -2.8210  0.9308 -1.0739
  661TMC3    C1 9831   0.390   0.667  12.409 -0.1620 -0.1127 -0.0790
  661TMC3    C2 9832   0.474   0.710  12.306 -0.2928  0.0884 -0.3914
  661TMC3    C3 9833   0.420   0.794  12.208 -0.6128 -0.1501  0.0639
  661TMC3    C4 9834   0.254   0.700  12.405 -0.0612  0.0585  0.5818
  661TMC3    C5 9835   0.207   0.788  12.312  1.0108  0.5305 -0.4345
  661TMC3    C6 9836   0.287   0.836  12.220 -0.1645 -0.6084  0.8703
  661TMC3     C 9837   0.449   0.608  12.526  0.5992  0.4564  0.0888
  661TMC3     O 9838   0.368   0.579  12.612  0.2085 -0.0532 -0.7048
  661TMC3     H 9839   0.574   0.672  12.292  0.1536  1.1077  0.0557
  661TMC3    H1 9840   0.186   0.656  12.477 -2.3587  1.1959 -0.8866
  661TMC3    H2 9841   0.246   0.905  12.147 -0.7184  0.3228  2.0705
  661TMC3    C7 9842   0.066   0.774  12.282  0.7742  0.1621 -0.0580
  661TMC3    C8 9843   0.492   0.827  12.089 -0.1712 -0.0047  0.5977
  661TMC3    O1 9844   0.014   0.856  12.209 -0.0637  0.0954  0.4135
  661TMC3    O2 9845   0.446   0.923  12.029 -0.3738  0.8825  0.5482
  662MPD2     C 9846   1.701   4.358  17.293 -0.3775 -0.2812 -0.0013
  662MPD2    C1 9847   1.692   4.302  17.420  0.7003 -0.5548 -0.4471
  662MPD2    C2 9848   1.658   4.383  17.522  0.0711 -0.0406 -0.3443
  662MPD2    C3 9849   1.643   4.519  17.507 -0.3073  0.3646 -0.0420
  662MPD2    C4 9850   1.636   4.568  17.378 -0.0419 -0.1368  0.0685
  662MPD2    C5 9851   1.667   4.487  17.273 -0.3258  0.0638  0.1340
  662MPD2     H 9852   1.640   4.337  17.619  1.5634  0.5322  0.2003
  662MPD2    H1 9853   1.611   4.673  17.362 -2.8334 -0.9322 -0.8098
  662MPD2    H2 9854   1.748   4.300  17.214 -0.5029 -1.4189  0.7633
  662MPD2    H3 9855   1.672   4.518  17.169 -0.7095 -1.8441 -0.4611
  662MPD2     N 9856   1.600   4.604  17.607 -0.4805  0.2598 -0.0805
  662MPD2    H5 9857   1.542   4.682  17.582  0.0013 -0.2195 -2.6885
  662MPD2    N1 9858   1.722   4.166  17.457 -0.2860 -0.1659 -0.1086
  662MPD2    H7 9859   1.729   4.143  17.556  0.2653 -0.8020 -0.2982
  663TMC3    C1 9860   1.692   3.951  17.438  0.1776  0.6447  0.5420
  663TMC3    C2 9861   1.638   3.953  17.558 -0.4888 -0.6854  0.8542
  663TMC3    C3 9862   1.539   3.870  17.594  0.5128  0.5012 -0.0383
  663TMC3    C4 9863   1.640   3.867  17.347 -0.7582 -0.0868 -0.2789
  663TMC3    C5 9864   1.542   3.779  17.383  0.0538  0.1621 -0.3570
  663TMC3    C6 9865   1.505   3.768  17.514  0.3606  0.0439 -0.3297
  663TMC3     C 9866   1.727   4.070  17.367  0.3458  0.3387 -0.3822
  663TMC3     O 9867   1.703   4.072  17.249  0.2627  0.3321 -0.3694
  663TMC3     H 9868   1.682   4.008  17.641  0.6311  0.7817 -0.7197
  663TMC3    H1 9869   1.677   3.856  17.246  0.0602 -0.2333  0.0431
  663TMC3    H2 9870   1.412   3.722  17.548 -0.3695  0.7608 -1.3500
  663TMC3    C7 9871   1.444   3.742  17.277  0.1824  0.4273 -0.1616
  663TMC3    C8 9872   1.587   3.808  17.708  0.1162 -0.0139 -0.3660
  663TMC3    O1 9873   1.454   3.795  17.171 -0.4577  0.2040 -0.2155
  663TMC3    O2 9874   1.699   3.767  17.696 -0.0768 -0.8758 -0.7056
  664MPD2     C 9875   4.511   2.844   0.107  1.2199  0.4274 -0.1052
  664MPD2    C1 9876   4.626   2.821   0.172  0.4305 -0.5583 -0.4291
  664MPD2    C2 9877   4.623   2.851   0.308 -0.0121 -0.6373  0.0612
  664MPD2    C3 9878   4.511   2.895   0.374  0.0800 -1.8680 -0.1583
  664MPD2    C4 9879   4.391   2.908   0.304 -0.9798  0.5772 -0.7677
  664MPD2    C5 9880   4.393   2.877   0.172  0.1403 -0.7872 -0.1768
  664MPD2     H 9881   4.711   2.838   0.369 -0.8009 -4.3483  0.4038
  664MPD2    H1 9882   4.294   2.935   0.345 -0.5826  1.4235 -0.4093
  664MPD2    H2 9883   4.499   2.839  17.755  1.3467 -0.8524 -0.0667
  664MPD2    H3 9884   4.298   2.873   0.119  0.6805 -1.2367 -1.1210
  664MPD2     N 9885   4.520   2.928   0.506  0.1135 -0.2015  0.2622
  664MPD2    H5 9886   4.610   2.926   0.553 -0.4087 -2.2292  1.1671
  664MPD2    N1 9887   0.008   2.805   0.107  0.3175  0.2679 -0.5716
  664MPD2    H7 9888   0.094   2.806   0.162  0.4989 -0.9572 -0.8438
  665TMC3    C1 9889   4.451   3.012   0.717 -0.8901 -0.8566 -0.0814
  665TMC3    C2 9890   4.347   3.027   0.802 -0.5657 -0.5566 -0.0099
  665TMC3    C3 9891   4.375   3.077   0.924  0.0680  0.2585 -0.3957
  665TMC3    C4 9892   4.568   3.071   0.742 -0.7621  0.5908 -0.0068
  665TMC3    C5 9893   4.593   3.135   0.855 -0.0787 -0.1067 -0.0930
  665TMC3    C6 9894   4.497   3.128   0.954  0.2718  0.3503  0.5345
  665TMC3     C 9895   4.410   2.961   0.588  0.7091 -0.5970  0.6866
  665TMC3     O 9896   4.290   2.945   0.568  0.5854  0.5157 -0.2955
  665TMC3     H 9897   4.251   2.979   0.789  0.2625 -1.9632 -1.0905
  665TMC3    H1 9898   4.644   3.081   0.665  0.7564 -0.6285  1.3339
  665TMC3    H2 9899   4.494   3.180   1.049 -1.9989 -1.8911  1.6906
  665TMC3    C7 9900   4.729   3.134   0.901 -0.0408 -0.9517 -0.3346
  665TMC3    C8 9901   4.266   3.115   1.005 -0.0097 -0.0426 -0.0103
  665TMC3    O1 9902   0.082   3.166   0.829  0.4587  0.2896 -0.3227
  665TMC3    O2 9903   4.280   3.111   1.125 -0.3673  0.3249 -0.1574
  666TMC3    C1 9904   2.708   2.929  10.114  0.1905 -0.2439 -0.1975
  666TMC3    C2 9905   2.726   2.941   9.983  0.3132 -0.5872  0.7411
  666TMC3    C3 9906   2.748   3.061   9.931  0.1022  0.9130  0.4497
  666TMC3    C4 9907   2.696   3.034  10.196  0.2604 -0.3538  0.9510
  666TMC3    C5 9908   2.711   3.158  10.141 -0.2701  0.3911  0.9827
  666TMC3    C6 9909   2.739   3.173  10.006  0.2507 -1.0175 -0.0319
  666TMC3     C 9910   2.733   2.804  10.188  0.0838  0.6264  0.2511
  666TMC3     O 9911   2.709   2.803  10.307  0.1259  0.4312  0.2814
  666TMC3     H 9912   2.721   2.853   9.919 -0.4270  1.3218 -1.8226
  666TMC3    H1 9913   2.697   3.026  10.304 -0.7286 -0.6517  0.9412
  666TMC3    H2 9914   2.758   3.270   9.961 -2.9891 -0.3549  0.0044
  666TMC3    C7 9915   2.743   3.264  10.231  0.1207 -0.5418  0.6208
  666TMC3    C8 9916   2.779   3.061   9.789  1.4857  0.8581  0.1565
  666TMC3    O1 9917   2.718   3.253  10.351  0.2177 -0.4983  0.2557
  666TMC3    O2 9918   2.700   2.996   9.720 -0.5984  0.4341 -0.4655
  667MPD2     C 9919   4.719   2.912  14.955  0.1897  0.1272  0.2002
  667MPD2    C1 9920   0.026   2.844  15.064 -0.5049 -0.1960  0.5620
  667MPD2    C2 9921   4.703   2.725  15.102 -0.7717  0.0319  0.2348
  667MPD2    C3 9922   4.591   2.669  15.039 -0.2584  0.3785  0.2502
  667MPD2    C4 9923   4.565   2.730  14.917 -0.0727  0.3500 -0.2336
  667MPD2    C5 9924   4.634   2.841  14.876 -0.6463 -0.2897 -1.0341
  667MPD2     H 9925   0.002   2.680  15.193  0.7010  2.1929  0.6624
  667MPD2    H1 9926   4.474   2.702  14.867  0.3040 -2.5909  0.7403
  667MPD2    H2 9927   0.021   3.006  14.921  0.7905 -0.8248 -1.7382
  667MPD2    H3 9928   4.604   2.889  14.784 -2.1744  0.9336  0.1132
  667MPD2     N 9929   4.500   2.580  15.089 -0.1333 -0.5496  0.1144
  667MPD2    H5 9930   4.424   2.544  15.031  0.0620 -0.3469 -0.2697
  667MPD2    N1 9931   0.119   2.890  15.158 -0.0888 -0.2535 -0.0473
  667MPD2    H7 9932   0.136   2.826  15.235 -0.5036 -0.3521 -0.0392
  668TMC3    C1 9933   0.253   3.029  15.283  0.6205  0.3077 -0.8205
  668TMC3    C2 9934   0.332   3.138  15.290  0.1745 -0.3421 -0.0537
  668TMC3    C3 9935   0.390   3.168  15.412 -0.4023 -0.1528 -0.3377
  668TMC3    C4 9936   0.214   2.958  15.407 -0.4676 -0.3950 -0.9722
  668TMC3    C5 9937   0.275   2.989  15.525 -1.0592 -0.5890  0.8133
  668TMC3    C6 9938   0.358   3.098  15.528 -0.4485  0.2098  0.4445
  668TMC3     C 9939   0.182   3.011  15.162 -0.2993 -0.1477  0.2215
  668TMC3     O 9940   0.187   3.101  15.078  0.2927 -0.0155 -0.0481
  668TMC3     H 9941   0.343   3.200  15.202 -1.0553  1.2242  0.8939
  668TMC3    H1 9942   0.139   2.881  15.401 -0.5139 -0.4930  1.0388
  668TMC3    H2 9943   0.404   3.118  15.624 -2.4155 -3.1114  2.0572
  668TMC3    C7 9944   0.235   2.927  15.648  0.0150  1.6623  0.6140
  668TMC3    C8 9945   0.466   3.290  15.434  0.1517 -0.1229 -0.1177
  668TMC3    O1 9946   0.272   2.979  15.754 -0.0686 -0.2231  0.3982
  668TMC3    O2 9947   0.450   3.353  15.534  0.3619  0.0359  0.5494
  669TMC3    C1 9948   2.731   2.726  14.889  0.3148 -0.0665  0.4288
  669TMC3    C2 9949   2.600   2.768  14.869  0.0223 -0.4580 -0.4280
  669TMC3    C3 9950   2.588   2.868  14.777 -0.2127  0.1472 -0.1496
  669TMC3    C4 9951   2.840   2.773  14.826 -0.1560  0.2995 -0.6569
  669TMC3    C5 9952   2.823   2.881  14.748  0.9258  0.2946 -0.4942
  669TMC3    C6 9953   2.694   2.933  14.717 -0.1591 -0.4803  0.2171
  669TMC3     C 9954   2.745   2.628  14.999 -0.0003 -0.4659  0.3506
  669TMC3     O 9955   2.645   2.596  15.053  0.1232 -0.6451  0.0729
  669TMC3     H 9956   2.515   2.720  14.917 -1.3485  0.3193 -2.0473
  669TMC3    H1 9957   2.935   2.722  14.828 -0.6652 -0.6036  1.7643
  669TMC3    H2 9958   2.690   3.023  14.657 -2.5802  0.0355  1.1337
  669TMC3    C7 9959   2.927   2.938  14.670 -0.2650 -0.2603  0.0772
  669TMC3    C8 9960   2.459   2.915  14.747 -0.6277 -0.0721 -0.1333
  669TMC3    O1 9961   2.944   3.058  14.689  0.0223  0.1292 -0.2653
  669TMC3    O2 9962   2.360   2.838  14.762 -0.1335 -0.3375 -0.1040
  670MPD2     C 9963   0.882   0.531  13.933  0.5524 -0.1465 -0.3100
  670MPD2    C1 9964   0.988   0.451  13.962  0.5381  0.3902 -0.1692
  670MPD2    C2 9965   0.997   0.391  14.086  0.2611  0.2798  0.0640
  670MPD2    C3 9966   0.902   0.413  14.182 -0.2569  0.2969  0.2099
  670MPD2    C4 9967   0.792   0.493  14.151  0.4839  0.2337 -0.1634
  670MPD2    C5 9968   0.790   0.556  14.029 -0.4238 -0.1167 -1.1474
  670MPD2     H 9969   1.073   0.318  14.110 -1.9406 -1.2324  2.4410
  670MPD2    H1 9970   0.703   0.515  14.209  1.3386 -1.0993  1.6809
  670MPD2    H2 9971   0.888   0.588  13.840 -0.6428  0.3560 -0.0786
  670MPD2    H3 9972   0.717   0.630  13.997  0.5678  1.9330  1.3715
  670MPD2     N 9973   0.932   0.352  14.304  0.1495  0.0947 -0.4830
  670MPD2    H5 9974   1.026   0.316  14.319 -0.4069  0.2183  3.3834
  670MPD2    N1 9975   1.094   0.440  13.868  0.2026 -0.1799 -0.4611
  670MPD2    H7 9976   1.183   0.403  13.899  0.1448  0.5092  0.4957
  671TMC3    C1 9977   0.873   0.195  14.479  0.6726  0.0266  0.2072
  671TMC3    C2 9978   1.001   0.194  14.521  0.2904 -0.5648  0.0805
  671TMC3    C3 9979   1.049   0.087  14.602  0.3198  0.1094  0.1702
  671TMC3    C4 9980   0.785   0.099  14.514 -0.5281  0.2193 -0.2077
  671TMC3    C5 9981   0.826   4.727  14.594  0.4181  0.6415  0.5417
  671TMC3    C6 9982   0.964   4.718  14.631 -0.4311 -0.0889  0.1413
  671TMC3     C 9983   0.830   0.300  14.379 -0.1831  0.0438  0.0438
  671TMC3     O 9984   0.707   0.303  14.366  0.1496 -0.1040  0.4856
  671TMC3     H 9985   1.052   0.289  14.513  2.0943 -1.6784 -1.7239
  671TMC3    H1 9986   0.688   0.097  14.466 -0.7029  1.8580  0.0741
  671TMC3    H2 9987   0.994   4.639  14.699  0.9954 -1.4152 -2.0353
  671TMC3    C7 9988   0.781   4.596  14.545  0.1542 -0.2086  0.6208
  671TMC3    C8 9989   1.192   0.086  14.630 -0.3659  0.3484 -0.2753
  671TMC3    O1 9990   0.876   4.531  14.507 -0.6400 -0.0102  0.8585
  671TMC3    O2 9991   1.263   0.162  14.563 -0.3808  0.0293 -0.5184
  672MPD2     C 9992   2.406   0.854   0.079  0.0694  0.0703  0.1044
  672MPD2    C1 9993   2.410   0.796   0.205 -0.1070  0.0266 -0.1969
  672MPD2    C2 9994   2.484   0.853   0.305  0.0573 -0.3645 -0.6913
  672MPD2    C3 9995   2.557   0.976   0.283  0.1222  0.9300  0.5816
  672MPD2    C4 9996   2.545   1.034   0.161 -1.0985 -0.5429 -0.7051
  672MPD2    C5 9997   2.484   0.968   0.060 -0.3899 -0.4156  0.5189
  672MPD2     H 9998   2.494   0.805   0.402 -0.7469 -0.2946 -0.5789
  672MPD2    H1 9999   2.599   1.126   0.140  0.7478 -1.6290 -0.7153
  672MPD2    H210000   2.346   0.808   0.000  2.2916 -1.1386 -0.8610
  672MPD2    H310001   2.495   1.008  17.716  5.1691 -1.4588  0.7553
  672MPD2     N10002   2.630   1.034   0.387 -0.6531 -0.3628 -0.5338
  672MPD2    H510003   2.659   1.129   0.365  3.4817 -1.5375  0.0294
  672MPD2    N110004   2.334   0.683   0.239 -0.2152  0.6067 -0.2871
  672MPD2    H710005   2.342   0.656   0.337  0.8577 -1.0874 -0.8357
  673TMC3    C110006   2.153   0.541   0.234 -0.4266 -0.2408 -0.0795
  673TMC3    C210007   2.159   0.409   0.226 -0.5516 -0.0883 -1.2790
  673TMC3    C310008   2.145   0.338   0.340 -0.2051  0.2598  0.2102
  673TMC3    C410009   2.124   0.611   0.343  0.7359  0.1010  0.1686
  673TMC3    C510010   2.120   0.538   0.459  0.1593  0.1096  0.2576
  673TMC3    C610011   2.132   0.403   0.456 -0.4697 -0.6484  0.2147
  673TMC3     C10012   2.242   0.618   0.155  1.1860  0.1031  0.0492
  673TMC3     O10013   2.212   0.635   0.035 -0.5404  0.0184 -0.5514
  673TMC3     H10014   2.199   0.362   0.137 -2.4554 -0.1404 -2.1140
  673TMC3    H110015   2.106   0.718   0.341 -1.7215 -0.3183  0.3859
  673TMC3    H210016   2.115   0.347   0.547  0.0477 -2.7076 -0.9518
  673TMC3    C710017   2.111   0.600   0.589  0.3165 -0.3943 -0.3061
  673TMC3    C810018   2.224   0.214   0.335 -0.2365  0.5480  0.8452
  673TMC3    O110019   2.153   0.531   0.681  0.4338  0.2288 -0.5984
  673TMC3    O210020   2.229   0.163   0.228  0.0359 -0.2931 -0.1017
  674MPD2     C10021   1.849   0.026   0.168  0.0195 -0.4740  0.1080
  674MPD2    C110022   1.879   4.683   0.276  0.4695 -0.1182  0.0806
  674MPD2    C210023   1.890   0.017   0.399 -0.7731 -0.1644  0.2256
  674MPD2    C310024   1.853   0.149   0.417  0.1580  0.1159  0.0494
  674MPD2    C410025   1.817   0.214   0.306  0.0480  0.1974 -0.1055
  674MPD2    C510026   1.816   0.158   0.189 -0.1705  0.4153 -0.2381
  674MPD2     H10027   1.917   4.705   0.491 -0.7185 -1.6054 -0.5944
  674MPD2    H110028   1.803   0.321   0.321 -1.6343 -0.1415  0.6837
  674MPD2    H210029   1.859   4.731   0.066  0.9883  0.2151 -0.0306
  674MPD2    H310030   1.798   0.222   0.103  0.7616 -0.4861 -1.1023
  674MPD2     N10031   1.857   0.204   0.548 -0.7113 -0.4241  0.0694
  674MPD2    H510032   1.894   0.150   0.625 -0.1362 -1.6488 -1.0763
  674MPD2    N110033   1.890   4.545   0.262  0.0490  0.1332  0.3801
  674MPD2    H710034   1.857   4.504   0.175  0.2089 -4.1488  2.3687
  675TMC3    C110035   1.900   4.324   0.322  0.3514  0.1208  0.1600
  675TMC3    C210036   1.794   4.291   0.250 -0.1490  0.2677  0.1969
  675TMC3    C310037   1.761   4.162   0.244  0.0112 -1.1886  0.5759
  675TMC3    C410038   1.992   4.233   0.374  0.1535 -0.1482 -0.2660
  675TMC3    C510039   1.950   4.103   0.357  0.1144  0.5397  0.1379
  675TMC3    C610040   1.842   4.066   0.290  0.5535  0.0056  0.3526
  675TMC3     C10041   1.934   4.459   0.354  0.4419  0.0415  0.3692
  675TMC3     O10042   1.993   4.499   0.452  0.0009 -0.0016  0.4843
  675TMC3     H10043   1.714   4.359   0.222  0.0973 -0.2082 -1.6732
  675TMC3    H110044   2.073   4.259   0.441  1.1415 -0.2308 -1.4180
  675TMC3    H210045   1.808   3.964   0.283  1.2827 -0.2627  0.7567
  675TMC3    C710046   2.031   4.004   0.428 -0.4869  0.3051  0.1866
  675TMC3    C810047   1.620   4.142   0.244 -0.8733  0.4283  0.6311
  675TMC3    O110048   2.111   4.034   0.514  0.1360 -0.0579  0.2325
  675TMC3    O210049   1.553   4.139   0.144  0.0028 -0.6809  0.1044
  676MPD2     C10050   3.747   3.986  11.158  1.3220 -0.3999  0.2856
  676MPD2    C110051   3.705   3.871  11.230 -0.2361  0.2253  0.2459
  676MPD2    C210052   3.745   3.748  11.195  0.2307  0.2332 -0.3618
  676MPD2    C310053   3.800   3.727  11.067  0.1910  0.3423  0.4226
  676MPD2    C410054   3.809   3.838  10.976  0.3596  0.6789  0.9339
  676MPD2    C510055   3.790   3.963  11.028 -0.8086 -0.2148 -0.0840
  676MPD2     H10056   3.723   3.667  11.264  1.1621  0.4194  0.1466
  676MPD2    H110057   3.847   3.821  10.876  3.1031  0.9157  1.9494
  676MPD2    H210058   3.734   4.089  11.187 -0.2528 -0.3101 -0.7381
  676MPD2    H310059   3.817   4.042  10.959  0.6323 -2.4298 -2.0422
  676MPD2     N10060   3.847   3.602  11.024  0.0724  0.3870 -0.0121
  676MPD2    H510061   3.882   3.593  10.929  0.9532 -3.1902  0.6396
  676MPD2    N110062   3.638   3.885  11.358 -0.2370  0.3313 -0.5214
  676MPD2    H710063   3.592   3.800  11.389 -0.6853 -0.3422 -3.0088
  677TMC3    C110064   3.493   4.012  11.507 -0.5130  0.5729  0.2264
  677TMC3    C210065   3.378   3.942  11.473  0.3659 -0.3533  0.1486
  677TMC3    C310066   3.278   3.958  11.559  0.1973  0.1642  0.3945
  677TMC3    C410067   3.508   4.089  11.616  0.0089  0.1529  0.0905
  677TMC3    C510068   3.405   4.106  11.695 -0.8702  0.3548 -0.3889
  677TMC3    C610069   3.285   4.044  11.673 -0.1167 -0.0714  0.3275
  677TMC3     C10070   3.614   4.006  11.421 -0.6010 -0.7757 -0.2503
  677TMC3     O10071   3.672   4.110  11.406  0.2130  0.0232  0.5987
  677TMC3     H10072   3.367   3.875  11.389 -0.5414 -1.2643  0.9843
  677TMC3    H110073   3.608   4.127  11.632  0.0344  0.1305 -0.0126
  677TMC3    H210074   3.204   4.061  11.742  2.5509  2.6429  2.7750
  677TMC3    C710075   3.441   4.136  11.830  0.1006 -0.6175  0.7019
  677TMC3    C810076   3.165   3.873  11.535 -0.6759 -0.4729 -0.0103
  677TMC3    O110077   3.368   4.101  11.921 -0.0606 -0.5395  0.3588
  677TMC3    O210078   3.142   3.842  11.418 -0.0146  0.9766 -0.0553
  678MPD2     C10079   1.304   3.683   1.996  0.4058  0.1160  0.0547
  678MPD2    C110080   1.261   3.605   1.890 -0.3139 -0.0794  0.5935
  678MPD2    C210081   1.128   3.588   1.869  0.6489  0.4057  0.1534
  678MPD2    C310082   1.039   3.653   1.951  0.0098 -0.5304  0.3882
  678MPD2    C410083   1.084   3.731   2.058  0.1443  0.3472 -0.1054
  678MPD2    C510084   1.216   3.743   2.078  0.0378 -0.0919 -0.4290
  678MPD2     H10085   1.091   3.526   1.789 -0.0269  1.0063  0.0062
  678MPD2    H110086   1.009   3.780   2.117 -1.0986 -0.4409 -1.0156
  678MPD2    H210087   1.410   3.691   2.016  0.1311 -0.5607  1.7064
  678MPD2    H310088   1.252   3.803   2.160  1.0077 -0.5970 -0.4780
  678MPD2     N10089   0.899   3.629   1.923 -0.8455 -0.3866  0.0153
  678MPD2    H510090   0.877   3.571   1.842  1.7680 -2.1576  0.5724
  678MPD2    N110091   1.338   3.540   1.791  0.9837  0.2349 -0.3507
  678MPD2    H710092   1.283   3.500   1.716  1.1649  1.0738 -0.9209
  679TMC3    C110093   1.535   3.292   1.521 -0.1703  0.0979  0.4755
  679TMC3    C210094   1.475   3.346   1.628 -0.0064 -0.1702  0.2321
  679TMC3    C310095   1.526   3.465   1.665  0.4258 -0.0686  0.8766
  679TMC3    C410096   1.631   3.361   1.450 -1.3882 -0.5794  0.4382
  679TMC3    C510097   1.668   3.485   1.476  0.0146 -0.4854  0.1953
  679TMC3    C610098   1.620   3.531   1.595 -0.1486  0.3152  1.2106
  679TMC3     C10099   1.509   3.156   1.475  0.2423  0.5576  0.3720
  679TMC3     O10100   1.521   3.146   1.353  0.0598  0.7230  0.1391
  679TMC3     H10101   1.403   3.298   1.694 -0.0587 -1.1704 -0.5636
  679TMC3    H110102   1.688   3.307   1.374 -0.0392  1.8250 -0.2603
  679TMC3    H210103   1.650   3.630   1.628  3.8597  0.2669 -2.3177
  679TMC3    C710104   1.636   3.575   1.364 -0.1554  0.0670 -0.0821
  679TMC3    C810105   1.476   3.536   1.788 -0.4560  0.1236  0.8260
  679TMC3    O110106   1.575   3.514   1.278 -0.5091 -0.4835  0.4505
  679TMC3    O210107   1.551   3.594   1.862 -0.7336 -0.3986  0.2845
  680MPD2     C10108   0.554   2.414  14.080  0.5278  0.0343 -0.4697
  680MPD2    C110109   0.683   2.425  14.032  0.2653  0.4577 -0.6932
  680MPD2    C210110   0.740   2.549  14.034 -0.2330  0.4882 -0.5391
  680MPD2    C310111   0.676   2.660  14.086  0.1208 -0.0802  0.0940
  680MPD2    C410112   0.555   2.644  14.151  0.0826 -0.2442 -0.6870
  680MPD2    C510113   0.498   2.522  14.145 -0.5238 -0.7197 -0.0416
  680MPD2     H10114   0.839   2.546  13.989 -0.5115 -0.0976 -1.1244
  680MPD2    H110115   0.511   2.727  14.205 -0.9700 -0.7576 -0.7667
  680MPD2    H210116   0.494   2.324  14.074  2.4873 -1.2010 -1.5195
  680MPD2    H310117   0.402   2.508  14.194  0.1206  0.8577  1.6506
  680MPD2     N10118   0.741   2.792  14.089  0.9143 -0.0441  0.2899
  680MPD2    H510119   0.717   2.858  14.162  0.4343  0.0595  0.0324
  680MPD2    N110120   0.753   2.311  13.979  0.4340 -0.1383 -0.1600
  680MPD2    H710121   0.848   2.329  13.949  0.0956  0.5141 -0.8531
  681TMC3    C110122   0.802   2.090  13.894 -0.3736 -0.3032  0.2619
  681TMC3    C210123   0.790   1.966  13.940  0.0010 -0.2863 -0.7437
  681TMC3    C310124   0.904   1.887  13.948 -0.0024 -0.4918 -0.9364
  681TMC3    C410125   0.919   2.132  13.835  0.7965 -0.4086  0.1650
  681TMC3    C510126   1.026   2.053  13.835 -0.2608  0.1540 -0.2423
  681TMC3    C610127   1.023   1.925  13.890 -0.0061  0.4348 -0.2888
  681TMC3     C10128   0.706   2.180  13.954 -0.0940 -0.9684 -0.2223
  681TMC3     O10129   0.592   2.127  13.967  0.9581 -0.0157  0.1072
  681TMC3     H10130   0.702   1.931  13.992  1.6770 -0.0794  2.1905
  681TMC3    H110131   0.920   2.226  13.782 -1.6117 -0.5762 -0.1853
  681TMC3    H210132   1.108   1.857  13.885 -1.0098 -0.8367 -0.1697
  681TMC3    C710133   1.158   2.101  13.791 -0.2589  0.0422  0.1300
  681TMC3    C810134   0.901   1.802  14.070  0.0760 -0.3040  0.2754
  681TMC3    O110135   1.260   2.070  13.853 -0.2436  0.5226 -0.1774
  681TMC3    O210136   0.809   1.720  14.070 -0.2630 -0.8284  0.6029
  682MPD2     C10137   3.137   4.264  11.141 -0.0235  0.2801  0.4095
  682MPD2    C110138   3.079   4.150  11.198  0.0408 -0.2024 -0.5711
  682MPD2    C210139   3.035   4.161  11.331  0.6575  0.4289 -0.2708
  682MPD2    C310140   3.036   4.286  11.396  0.4009 -0.5487 -0.3401
  682MPD2    C410141   3.086   4.402  11.325 -0.4312 -0.1022 -0.1543
  682MPD2    C510142   3.138   4.390  11.209 -0.2806  0.1544  0.6907
  682MPD2     H10143   2.996   4.072  11.378 -0.0687  0.5598 -0.6131
  682MPD2    H110144   3.069   4.498  11.373  0.5793  0.4049 -0.8237
  682MPD2    H210145   3.178   4.252  11.042 -0.9050  0.5868  0.0123
  682MPD2    H310146   3.175   4.478  11.157 -1.1473  0.3128  0.3333
  682MPD2     N10147   2.976   4.299  11.523  0.6685  0.0630 -0.2054
  682MPD2    H510148   2.966   4.396  11.554 -1.5030 -0.2053 -0.0508
  682MPD2    N110149   3.054   4.035  11.130 -0.0381  0.1017 -0.5648
  682MPD2    H710150   3.015   3.962  11.189  2.1940 -1.4279 -0.9732
  683TMC3    C110151   2.776   4.449  11.834  0.5715  0.3630 -0.2759
  683TMC3    C210152   2.658   4.392  11.866  0.0863 -0.1710  0.0945
  683TMC3    C310153   2.628   4.276  11.806 -0.2180 -0.0453  0.6843
  683TMC3    C410154   2.862   4.382  11.753 -0.3383  0.0959  0.3774
  683TMC3    C510155   2.830   4.263  11.702  0.8056 -0.1179  0.6802
  683TMC3    C610156   2.714   4.201  11.732 -0.2749  0.2211  0.8147
  683TMC3     C10157   2.810   4.568  11.919 -0.9900 -0.2674  0.5783
  683TMC3     O10158   2.727   4.613  11.997 -0.2414 -0.5040  0.1936
  683TMC3     H10159   2.596   4.445  11.938 -0.9952 -1.6975  0.2893
  683TMC3    H110160   2.963   4.420  11.739 -0.0641 -0.6971  0.2010
  683TMC3    H210161   2.680   4.113  11.679  1.0902 -0.0555  0.3864
  683TMC3    C710162   2.920   4.209  11.602 -0.8491  0.0895 -1.1890
  683TMC3    C810163   2.490   4.246  11.821  0.7076  0.2529  0.0726
  683TMC3    O110164   2.901   4.090  11.582 -0.2405  0.1693  0.2031
  683TMC3    O210165   2.422   4.334  11.872  0.2098 -0.3444 -0.1108
  684MPD2     C10166   1.259   2.693  16.627 -0.1497  0.2985  0.1212
  684MPD2    C110167   1.196   2.768  16.528  1.0232  0.5722  0.3378
  684MPD2    C210168   1.178   2.901  16.553 -0.1538  0.1613  0.7044
  684MPD2    C310169   1.201   2.961  16.673  0.1513 -0.7447 -0.8654
  684MPD2    C410170   1.258   2.883  16.772  0.4472 -0.2407 -0.5175
  684MPD2    C510171   1.287   2.754  16.744  0.9584 -0.0886 -0.3024
  684MPD2     H10172   1.134   2.961  16.474  2.5992 -0.5260 -1.3670
  684MPD2    H110173   1.282   2.922  16.870 -0.5948 -0.1533 -0.2973
  684MPD2    H210174   1.283   2.588  16.613 -0.9704  0.0192  0.8293
  684MPD2    H310175   1.344   2.691  16.812 -0.1941 -0.0352  0.7317
  684MPD2     N10176   1.159   3.085  16.715 -0.2916 -0.2094 -0.1145
  684MPD2    H510177   1.192   3.116  16.806  1.5735 -0.9968 -0.5316
  684MPD2    N110178   1.158   2.722  16.397  0.2178 -0.5608 -0.6731
  684MPD2    H710179   1.122   2.799  16.341 -2.1232  0.1792  1.9123
  685TMC3    C110180   1.196   2.632  16.200  0.0856  1.0082 -0.0926
  685TMC3    C210181   1.104   2.714  16.153  0.2438 -0.6197  0.1392
  685TMC3    C310182   1.131   2.771  16.035 -0.5629 -0.4799 -0.0825
  685TMC3    C410183   1.317   2.608  16.145  0.5271 -0.2241 -0.8817
  685TMC3    C510184   1.337   2.683  16.025 -0.0358 -0.2174  0.3807
  685TMC3    C610185   1.244   2.748  15.959 -0.9317 -0.3490 -0.2034
  685TMC3     C10186   1.207   2.611  16.341 -0.2443 -0.7629  0.1380
  685TMC3     O10187   1.283   2.522  16.381 -0.3573 -0.4082  0.2875
  685TMC3     H10188   1.008   2.723  16.202  1.5771 -0.8451  2.7789
  685TMC3    H110189   1.377   2.531  16.190 -0.4847 -0.4620  0.0564
  685TMC3    H210190   1.269   2.782  15.860 -0.2532  1.8903  0.7331
  685TMC3    C710191   1.475   2.686  15.987 -0.3928  1.0188 -0.4093
  685TMC3    C810192   1.024   2.824  15.953  0.6021  0.2920 -0.1675
  685TMC3    O110193   1.506   2.683  15.869 -0.2189  0.2193 -0.1336
  685TMC3    O210194   1.038   2.831  15.829  0.3647 -0.0293  0.8601
  686MPD2     C10195   2.789   3.036  15.547 -0.9660  0.3476  0.2606
  686MPD2    C110196   2.847   2.962  15.646 -0.7931 -0.4759 -0.1965
  686MPD2    C210197   2.956   2.882  15.616 -0.3395  0.0551  0.5643
  686MPD2    C310198   2.975   2.847  15.486 -0.5296  0.2300  0.5353
  686MPD2    C410199   2.923   2.925  15.383  0.9524 -0.3150  0.9999
  686MPD2    C510200   2.836   3.026  15.416  0.0314  0.0514 -0.0091
  686MPD2     H10201   3.015   2.834  15.694 -0.9046  0.8578  1.4813
  686MPD2    H110202   2.946   2.907  15.278 -0.2298  0.9541  0.5159
  686MPD2    H210203   2.708   3.105  15.566 -2.8667 -0.7061 -3.9322
  686MPD2    H310204   2.800   3.088  15.335 -1.6552 -1.1940 -0.2163
  686MPD2     N10205   3.057   2.740  15.437  0.4147 -0.6468  0.2637
  686MPD2    H510206   3.099   2.759  15.347 -0.5652  1.5370  0.2864
  686MPD2    N110207   2.782   2.967  15.766 -0.4799  0.0047  0.0694
  686MPD2    H710208   2.700   3.027  15.763  0.4817  1.4956  3.1906
  687TMC3    C110209   3.035   2.587  15.627 -0.0266 -0.1859  0.6818
  687TMC3    C210210   2.897   2.577  15.621  0.8751 -1.1584 -0.0506
  687TMC3    C310211   2.832   2.537  15.737 -0.1625  0.5297  0.9595
  687TMC3    C410212   3.106   2.561  15.738  0.2658  0.6604 -0.2452
  687TMC3    C510213   3.034   2.509  15.844 -0.2051  0.1917 -0.4020
  687TMC3    C610214   2.901   2.499  15.841 -0.5680 -0.4768  0.0513
  687TMC3     C10215   3.114   2.644  15.519  0.0460  0.1337 -0.1851
  687TMC3     O10216   3.219   2.583  15.496  0.1805  0.2168 -0.0505
  687TMC3     H10217   2.836   2.600  15.534 -1.6297 -1.5264  1.5970
  687TMC3    H110218   3.208   2.598  15.745  0.0205  1.0426  1.4280
  687TMC3    H210219   2.853   2.474  15.935  1.5093 -0.0219  1.2378
  687TMC3    C710220   3.081   2.543  15.975  0.1088  0.1603 -0.5390
  687TMC3    C810221   2.691   2.525  15.744  0.4938 -0.0415  0.4825
  687TMC3    O110222   3.014   2.591  16.064  0.1418 -0.1543 -0.2103
  687TMC3    O210223   2.646   2.446  15.826 -0.3578  0.5203  0.3677
  688MPD2     C10224   1.811   1.729  17.233 -0.7099 -0.4701 -0.2780
  688MPD2    C110225   1.904   1.648  17.296  0.6394 -0.4173  0.1097
  688MPD2    C210226   2.016   1.609  17.223  0.1600  0.3069 -0.6011
  688MPD2    C310227   2.033   1.648  17.087 -0.1863  0.0392 -0.0319
  688MPD2    C410228   1.943   1.739  17.035  0.3804 -0.3943 -0.4083
  688MPD2    C510229   1.836   1.784  17.107  0.1332 -0.5788 -0.0166
  688MPD2     H10230   2.092   1.547  17.270 -1.0332 -1.4056 -0.9214
  688MPD2    H110231   1.954   1.771  16.932  0.3818  0.1018 -0.2554
  688MPD2    H210232   1.722   1.761  17.285 -0.8573  0.2006 -0.9395
  688MPD2    H310233   1.763   1.850  17.061  0.0547 -1.0335 -0.5410
  688MPD2     N10234   2.133   1.595  17.003 -0.1841  0.3477 -0.3204
  688MPD2    H510235   2.127   1.608  16.902 -0.2397 -1.0273 -0.5047
  688MPD2    N110236   1.880   1.606  17.429 -0.0943 -0.8139 -0.9922
  688MPD2    H710237   1.951   1.545  17.468  0.6130  1.1109  0.7355
  689TMC3    C110238   1.762   1.571  17.640 -0.0931 -0.5449 -0.3237
  689TMC3    C210239   1.714   1.645  17.749 -0.0957  0.0875  0.6826
  689TMC3    C310240   1.694   1.588   0.110  0.1863  0.5835  0.2046
  689TMC3    C410241   1.804   1.442  17.648  0.1461 -0.8630 -0.0955
  689TMC3    C510242   1.779   1.387   0.020  0.5252 -0.0104  0.2439
  689TMC3    C610243   1.722   1.455   0.127 -0.4794  0.2949  0.2433
  689TMC3     C10244   1.765   1.638  17.511 -0.0511 -0.6990 -0.3492
  689TMC3     O10245   1.678   1.726  17.499 -0.3280  0.4281  0.3533
  689TMC3     H10246   1.682   1.748  17.739 -2.4775 -0.5563  1.7240
  689TMC3    H110247   1.854   1.392  17.566 -1.3482 -2.0279 -0.3073
  689TMC3    H210248   1.704   1.407   0.223  0.5848 -0.0868  0.2545
  689TMC3    C710249   1.830   1.257   0.062  0.6964 -0.8645  0.1902
  689TMC3    C810250   1.674   1.674   0.224  0.8005  0.1014  0.3616
  689TMC3    O110251   1.861   1.243   0.181  0.1741  0.3999  0.1068
  689TMC3    O210252   1.706   1.791   0.213 -0.1892  0.1996  0.0296
  690MPD2     C10253   3.361   3.496  15.691 -0.4195 -0.6137  0.4159
  690MPD2    C110254   3.465   3.447  15.762 -0.4716  0.3098 -0.2492
  690MPD2    C210255   3.597   3.465  15.712  0.1536 -0.4127 -0.8911
  690MPD2    C310256   3.614   3.558  15.610  0.8516  0.7174  0.4658
  690MPD2    C410257   3.511   3.616  15.556 -0.3365  0.3588  0.8402
  690MPD2    C510258   3.381   3.583  15.586  0.2543  0.2563  0.6252
  690MPD2     H10259   3.681   3.410  15.753 -1.3402 -2.6556 -0.8287
  690MPD2    H110260   3.522   3.700  15.488 -3.0481 -0.8141 -1.0438
  690MPD2    H210261   3.260   3.472  15.723 -2.1303  3.2715 -2.0483
  690MPD2    H310262   3.296   3.624  15.533  1.1519  1.3761  0.0474
  690MPD2     N10263   3.741   3.610  15.570  0.2235 -0.1188 -0.1992
  690MPD2    H510264   3.741   3.686  15.502 -0.9582  0.4512  0.4315
  690MPD2    N110265   3.451   3.371  15.885  0.3126  0.1318  0.2232
  690MPD2    H710266   3.538   3.335  15.921  0.1923  0.8298  1.2128
  691TMC3    C110267   3.345   3.282  16.080 -0.4362  0.2741 -0.3803
  691TMC3    C210268   3.299   3.359  16.186 -0.0330 -0.0196 -0.0392
  691TMC3    C310269   3.334   3.327  16.312 -0.6083 -0.0159 -0.5461
  691TMC3    C410270   3.414   3.170  16.093  0.4650  0.2059  1.0028
  691TMC3    C510271   3.463   3.147  16.224  0.0202 -0.2293 -0.4556
  691TMC3    C610272   3.419   3.225  16.335  0.1217 -0.0661 -0.7514
  691TMC3     C10273   3.329   3.348  15.948 -0.1443  0.4547  0.6324
  691TMC3     O10274   3.217   3.396  15.925  0.0658 -0.0093  0.4244
  691TMC3     H10275   3.262   3.457  16.159 -0.3778 -0.0132  0.4531
  691TMC3    H110276   3.455   3.123  16.004 -0.1912 -1.5544  1.6371
  691TMC3    H210277   3.470   3.210  16.429  1.2224 -0.0995 -1.3606
  691TMC3    C710278   3.561   3.044  16.255  0.4882 -0.2070 -0.4949
  691TMC3    C810279   3.312   3.415  16.425 -0.1006 -0.5474 -0.1768
  691TMC3    O110280   3.593   3.035  16.373 -0.2182 -0.0260 -0.3011
  691TMC3    O210281   3.360   3.386  16.535 -0.0697  0.8214  0.2212
  692TMC3    C110282   1.141   4.383  16.085  0.4185 -0.0504 -0.0009
  692TMC3    C210283   1.271   4.425  16.094 -0.5553  0.7700  0.3707
  692TMC3    C310284   1.379   4.332  16.108 -0.1858  0.1113  1.0002
  692TMC3    C410285   1.116   4.247  16.094 -0.2454  1.0722 -0.2247
  692TMC3    C510286   1.220   4.160  16.099 -0.3765 -0.1616  0.0278
  692TMC3    C610287   1.347   4.199  16.102  0.1611 -0.4280 -0.9383
  692TMC3     C10288   1.034   4.473  16.103  0.4883  0.0072  0.0919
  692TMC3     O10289   0.923   4.421  16.102  0.3164  0.1784  0.0193
  692TMC3     H10290   1.285   4.525  16.133  0.0929  0.0208  2.0535
  692TMC3    H110291   1.010   4.225  16.091 -0.3824  1.7104 -0.0134
  692TMC3    H210292   1.430   4.133  16.125 -0.0248 -0.4781 -0.4312
  692TMC3    C710293   1.194   4.021  16.145  0.3330  0.0505  0.2834
  692TMC3    C810294   1.467   4.361  16.213  0.2859  0.8164  0.3285
  692TMC3    O110295   1.287   3.953  16.195 -0.2289 -0.2914 -0.0728
  692TMC3    O210296   1.499   4.278  16.294  0.5982 -0.6452  0.1462
  693MPD2     C10297   0.307   3.429  11.025 -0.8467 -0.0626  1.0706
  693MPD2    C110298   0.276   3.293  11.017  0.1662 -0.3755  0.7043
  693MPD2    C210299   0.370   3.198  11.027 -0.8292 -0.1993  0.4131
  693MPD2    C310300   0.510   3.226  11.027 -0.2026 -0.7181  1.0559
  693MPD2    C410301   0.542   3.363  11.034  0.5034 -0.4062 -0.2886
  693MPD2    C510302   0.439   3.457  11.028  0.7950  0.1537  0.0321
  693MPD2     H10303   0.339   3.095  11.034 -0.0910 -0.3181  1.9018
  693MPD2    H110304   0.644   3.397  11.047 -0.3881  1.8370  0.8924
  693MPD2    H210305   0.241   3.515  11.022  0.0549  0.6741  2.3907
  693MPD2    H310306   0.461   3.563  11.031 -0.6788  0.4985 -0.9648
  693MPD2     N10307   0.610   3.139  11.054 -0.0946  0.5085 -0.3474
  693MPD2    H510308   0.706   3.170  11.044  0.0263 -0.3434 -1.8072
  693MPD2    N110309   0.144   3.252  11.006  0.0843  0.3632 -0.2671
  693MPD2    H710310   0.113   3.156  11.011  0.6612  0.1018 -1.7804
  694TMC3    C110311   4.664   3.247  11.033  0.8581 -0.2051  0.4758
  694TMC3    C210312   4.641   3.136  10.947  0.1671 -0.2212  0.6136
  694TMC3    C310313   4.570   3.033  11.003  0.1143 -0.6109  1.2103
  694TMC3    C410314   4.617   3.256  11.162  0.7175 -0.5148  0.6448
  694TMC3    C510315   4.539   3.153  11.201 -0.7116  0.3790  0.0822
  694TMC3    C610316   4.518   3.038  11.131  0.1358 -0.1624  0.6796
  694TMC3     C10317   0.033   3.335  11.005  0.4946  0.2047 -0.0961
  694TMC3     O10318   0.030   3.455  11.024 -0.4860  0.3904  0.6707
  694TMC3     H10319   4.684   3.137  10.848 -0.5122  1.0122  0.3313
  694TMC3    H110320   4.628   3.334  11.237 -0.8537 -0.3608  0.7230
  694TMC3    H210321   4.451   2.960  11.166 -0.0231  0.5144  1.8767
  694TMC3    C710322   4.533   3.131  11.343  0.5551 -0.2941  0.6373
  694TMC3    C810323   4.508   2.931  10.918  0.1914  0.0658  0.6187
  694TMC3    O110324   4.557   3.227  11.415 -0.0343 -0.0834 -0.3318
  694TMC3    O210325   4.461   2.837  10.977  0.0158 -0.0238 -0.5388
  695MPD2     C10326   1.642   0.153  13.856  0.6446  0.6546 -0.0791
  695MPD2    C110327   1.589   0.075  13.950 -0.7425  0.5743  0.0205
  695MPD2    C210328   1.459   0.033  13.943  0.0838  0.1684 -0.1826
  695MPD2    C310329   1.375   0.066  13.836 -1.0818 -0.5558  0.0298
  695MPD2    C410330   1.433   0.145  13.735  0.0772 -0.1494  0.1651
  695MPD2    C510331   1.557   0.200  13.760  0.6273  0.0978 -0.0222
  695MPD2     H10332   1.423   4.703  14.018  0.3791 -0.9223 -1.0388
  695MPD2    H110333   1.375   0.194  13.657 -0.1293 -0.3508  0.1934
  695MPD2    H210334   1.742   0.196  13.858  0.7500  0.4513 -0.9089
  695MPD2    H310335   1.596   0.279  13.696  0.0919 -1.6512 -2.5233
  695MPD2     N10336   1.245   0.029  13.841 -0.1215  0.7181 -0.3388
  695MPD2    H510337   1.221   4.706  13.917 -0.4651  0.4342 -0.6746
  695MPD2    N110338   1.674   0.038  14.061  0.1444  0.2775 -0.0238
  695MPD2    H710339   1.633   4.729  14.140  0.6897 -1.8852 -1.0633
  696TMC3    C110340   1.015   0.038  13.775 -0.3235 -0.8974 -0.6132
  696TMC3    C210341   0.990   4.689  13.884 -0.4189  0.3224 -0.0903
  696TMC3    C310342   0.859   4.683  13.915  0.0350  0.4639 -0.3138
  696TMC3    C410343   0.920   0.110  13.719  0.1425 -0.9778 -0.5741
  696TMC3    C510344   0.801   0.115  13.776 -0.2383  0.2346  0.0641
  696TMC3    C610345   0.764   0.021  13.868  0.1640  0.8727 -0.1808
  696TMC3     C10346   1.153   0.067  13.743  0.0560 -0.3874  0.0730
  696TMC3     O10347   1.171   0.116  13.632 -0.3888  0.2809  0.3198
  696TMC3     H10348   1.059   4.620  13.931 -0.8926  0.1715  0.3857
  696TMC3    H110349   0.944   0.183  13.642 -0.8018  0.1482  0.1890
  696TMC3    H210350   0.660   0.008  13.892  0.6087  0.4031  1.4922
  696TMC3    C710351   0.711   0.219  13.747  0.0466  0.2492  0.8314
  696TMC3    C810352   0.833   4.612  14.037 -0.3028  0.2845  0.2893
  696TMC3    O110353   0.709   0.258  13.633 -0.1967 -0.9397  0.1373
  696TMC3    O210354   0.924   4.607  14.121 -0.2094 -0.3223  0.3565
  697MPD2     C10355   0.760   1.307  15.805 -0.0600  0.2467 -0.2051
  697MPD2    C110356   0.697   1.246  15.698 -0.3389  0.3016  0.1341
  697MPD2    C210357   0.645   1.331  15.598 -0.4863  0.7549  0.4325
  697MPD2    C310358   0.653   1.472  15.610 -0.4675 -0.5690  0.0039
  697MPD2    C410359   0.717   1.528  15.716  1.2007  0.0024  0.0204
  697MPD2    C510360   0.769   1.442  15.810  0.5016  0.1157 -0.4164
  697MPD2     H10361   0.588   1.285  15.518  0.7295  0.8114 -0.4598
  697MPD2    H110362   0.739   1.632  15.738  0.2855 -0.1564  1.6919
  697MPD2    H210363   0.806   1.243  15.879  2.6458  0.4017 -1.7433
  697MPD2    H310364   0.831   1.475  15.893  0.3241  1.4505 -0.8206
  697MPD2     N10365   0.606   1.551  15.502 -0.7419 -0.4664  0.1923
  697MPD2    H510366   0.566   1.493  15.430 -2.0752 -0.7520  1.1498
  697MPD2    N110367   0.682   1.108  15.685  0.3334 -0.7210  0.0995
  697MPD2    H710368   0.659   1.077  15.591 -2.0219  1.2710  0.0058
  698TMC3    C110369   0.551   1.742  15.375  0.1663  0.3465  0.4523
  698TMC3    C210370   0.595   1.869  15.340  0.0176  0.7277  0.2116
  698TMC3    C310371   0.539   1.918  15.223  0.5872 -0.0030 -0.4005
  698TMC3    C410372   0.466   1.665  15.305 -0.1757 -0.6436 -0.2017
  698TMC3    C510373   0.411   1.721  15.191  0.8057  0.6328 -0.3649
  698TMC3    C610374   0.446   1.851  15.151  0.0742 -0.5694 -0.5740
  698TMC3     C10375   0.607   1.688  15.498  0.2415 -0.4856  0.5240
  698TMC3     O10376   0.656   1.764  15.578  0.0888  0.0848  0.1565
  698TMC3     H10377   0.660   1.922  15.408  0.3336  0.7613 -0.1232
  698TMC3    H110378   0.426   1.574  15.348  2.9528 -0.7169  2.5728
  698TMC3    H210379   0.409   1.889  15.057 -1.6338  0.4052  0.4914
  698TMC3    C710380   0.303   1.661  15.126 -0.0673  0.1339  0.0274
  698TMC3    C810381   0.511   2.060  15.209  0.1455 -0.8873 -0.6820
  698TMC3    O110382   0.213   1.740  15.099 -0.8048 -0.3549 -0.1403
  698TMC3    O210383   0.408   2.094  15.153 -0.2205 -0.0326  0.9366
  699TMC3    C110384   0.534   0.267  13.132  0.4344 -0.4055  0.3290
  699TMC3    C210385   0.636   0.200  13.191  0.2594  0.2979  0.5275
  699TMC3    C310386   0.620   0.160  13.319  0.6267  0.3057  0.6876
  699TMC3    C410387   0.421   0.302  13.204  0.2227  1.1004  0.5266
  699TMC3    C510388   0.414   0.257  13.333  1.2286 -0.5184  0.0102
  699TMC3    C610389   0.517   0.194  13.399 -0.1351  0.8146  0.3438
  699TMC3     C10390   0.551   0.330  13.000  0.0251 -0.1151 -0.8161
  699TMC3     O10391   0.449   0.349  12.934  0.1459  0.3304 -0.0045
  699TMC3     H10392   0.725   0.173  13.136 -2.0186 -0.6210 -2.6985
  699TMC3    H110393   0.342   0.359  13.155  0.2204  0.6866  0.0489
  699TMC3    H210394   0.513   0.162  13.502  2.1861  0.9473  0.4832
  699TMC3    C710395   0.290   0.256  13.398  0.6846 -0.9885  0.2524
  699TMC3    C810396   0.671   0.027  13.365 -0.5234 -0.1891 -0.2375
  699TMC3    O110397   0.287   0.231  13.517 -0.2589 -0.0995  0.3066
  699TMC3    O210398   0.590   4.706  13.432 -0.0336 -0.1113 -0.1520
  700TMC3    C110399   0.051   1.808  17.339  0.1441  0.0628  0.3233
  700TMC3    C210400   0.123   1.711  17.277  0.5270  0.6245 -0.1086
  700TMC3    C310401   0.234   1.678  17.340 -0.0928 -0.2367 -0.0711
  700TMC3    C410402   0.083   1.861  17.461 -0.4483  1.1153  0.5396
  700TMC3    C510403   0.206   1.834  17.509  0.2666 -0.1788 -1.0354
  700TMC3    C610404   0.282   1.734  17.457 -0.0142  0.1994 -0.1324
  700TMC3     C10405   4.687   1.875  17.260 -0.2444  0.3984 -0.2003
  700TMC3     O10406   4.608   1.805  17.202  0.3001  0.0615 -0.2137
  700TMC3     H10407   0.086   1.672  17.182 -3.2796 -0.5384  1.8279
  700TMC3    H110408   0.020   1.938  17.502  1.2576  2.8701 -0.1003
  700TMC3    H210409   0.381   1.707  17.490  0.8325  3.6714  0.1339
  700TMC3    C710410   0.243   1.902  17.629  0.5819  0.2378 -0.0815
  700TMC3    C810411   0.318   1.571  17.283 -0.0088  0.1622 -0.5042
  700TMC3    O110412   0.363   1.914  17.647  0.0443  0.0926  0.2222
  700TMC3    O210413   0.292   1.537  17.167  0.6164  0.1296  0.0684
  701TMC3    C110414   0.104   0.502  15.926  0.2406  0.0982 -0.5777
  701TMC3    C210415   0.152   0.478  15.799 -0.6077 -0.2096  0.3243
  701TMC3    C310416   0.219   0.587  15.746  0.0911  0.2335  0.2684
  701TMC3    C410417   0.140   0.609  16.000  0.3491  0.6075 -0.0974
  701TMC3    C510418   0.213   0.712  15.942  0.4577  0.1700 -0.6635
  701TMC3    C610419   0.251   0.701  15.806  0.6014 -0.5378  0.0388
  701TMC3     C10420   0.005   0.413  15.972 -0.3023 -0.6001  0.6536
  701TMC3     O10421   0.013   0.300  15.932 -0.0568  0.2871 -0.2235
  701TMC3     H10422   0.120   0.390  15.744 -0.7050 -0.0801  0.1735
  701TMC3    H110423   0.109   0.620  16.103 -2.1748  2.2052 -1.0041
  701TMC3    H210424   0.291   0.783  15.748 -0.0249  0.1721  0.6010
  701TMC3    C710425   0.219   0.846  16.001  0.1517  0.4424 -0.3180
  701TMC3    C810426   0.237   0.585  15.601 -0.0065  0.4142 -0.1970
  701TMC3    O110427   0.206   0.941  15.923  0.3743 -0.2483  0.9791
  701TMC3    O210428   0.323   0.663  15.559  0.1625 -0.0696 -0.0986
  702MPD2     C10429   4.155   3.195  10.478  0.5795 -0.0800  1.0225
  702MPD2    C110430   4.134   3.301  10.564  0.2626  0.3012  0.1283
  702MPD2    C210431   4.195   3.421  10.536 -0.0498  0.1168  0.5481
  702MPD2    C310432   4.278   3.441  10.429  0.3363 -0.2173 -0.5423
  702MPD2    C410433   4.312   3.333  10.349 -0.5424  0.4452 -0.0014
  702MPD2    C510434   4.252   3.209  10.378 -0.6583  0.4089 -0.1621
  702MPD2     H10435   4.178   3.501  10.607  0.6347  0.8533 -0.1111
  702MPD2    H110436   4.372   3.345  10.260  1.3605  1.8207  1.4403
  702MPD2    H210437   4.100   3.103  10.491  2.8394 -1.3285  1.7545
  702MPD2    H310438   4.264   3.126  10.310  2.6443 -0.7584  1.8970
  702MPD2     N10439   4.336   3.565  10.390  0.4568  0.2473 -0.2843
  702MPD2    H510440   4.382   3.574  10.300 -0.4877  0.4347 -0.7508
  702MPD2    N110441   4.062   3.289  10.690 -1.2126 -0.1778  0.4397
  702MPD2    H710442   4.074   3.366  10.754 -2.2448  0.6399 -0.3417
  703TMC3    C110443   4.348   3.796  10.378 -0.1501  0.3899 -0.9200
  703TMC3    C210444   4.286   3.914  10.383  0.4278  0.0996  0.6890
  703TMC3    C310445   4.328   4.019  10.297  0.3603  0.1587  0.2760
  703TMC3    C410446   4.469   3.779  10.302  0.2421  0.2309  0.4720
  703TMC3    C510447   4.504   3.891  10.228 -0.4655 -0.4184 -0.5075
  703TMC3    C610448   4.432   4.006  10.218 -0.6863 -0.2596  0.0261
  703TMC3     C10449   4.294   3.680  10.450  0.4151 -0.4124 -0.0608
  703TMC3     O10450   4.222   3.701  10.546 -0.2819 -0.0658  0.0967
  703TMC3     H10451   4.207   3.917  10.457 -1.1026  1.9696 -1.0178
  703TMC3    H110452   4.519   3.683  10.297 -0.7577 -0.2023 -1.1677
  703TMC3    H210453   4.466   4.087  10.154  1.4415 -0.1929  1.2218
  703TMC3    C710454   4.648   3.909  10.247 -0.5267 -0.1551 -0.8088
  703TMC3    C810455   4.253   4.145  10.282  1.2072  0.3954 -0.0612
  703TMC3    O110456   4.721   3.809  10.252 -0.3584 -0.4038 -0.4918
  703TMC3    O210457   4.325   4.238  10.252 -0.0071  0.2875 -0.0201
  704TMC3    C110458   1.114   1.683  13.118  0.4303 -0.0589  0.5374
  704TMC3    C210459   1.198   1.796  13.128 -0.1969  0.2578 -0.6435
  704TMC3    C310460   1.311   1.768  13.188 -0.4175 -0.3518 -1.1517
  704TMC3    C410461   1.135   1.555  13.168  0.2623 -0.2805  0.1222
  704TMC3    C510462   1.248   1.536  13.241 -0.0868  0.1224 -0.3275
  704TMC3    C610463   1.342   1.641  13.246  0.1157 -0.4141 -0.2550
  704TMC3     C10464   0.988   1.695  13.044  0.0417  0.2930  0.7405
  704TMC3     O10465   0.896   1.622  13.073 -0.3289 -0.4118 -0.0515
  704TMC3     H10466   1.177   1.890  13.078 -1.2846 -0.9168 -2.4048
  704TMC3    H110467   1.064   1.480  13.134  1.3706 -0.1898 -2.3931
  704TMC3    H210468   1.427   1.626  13.311  0.1013 -2.7715 -0.7438
  704TMC3    C710469   1.297   1.405  13.234 -0.2007  0.0060 -0.1453
  704TMC3    C810470   1.432   1.828  13.134  0.1281 -0.4917 -0.7233
  704TMC3    O110471   1.419   1.403  13.224  0.0730 -0.2614  0.8121
  704TMC3    O210472   1.413   1.913  13.049  0.0310  0.1777 -0.3015
  705MPD2     C10473   1.768   4.115  16.728 -0.3403  0.2387  0.6273
  705MPD2    C110474   1.683   4.138  16.623 -0.2745 -0.1996  0.3061
  705MPD2    C210475   1.551   4.160  16.641 -0.3228  0.2138 -0.5413
  705MPD2    C310476   1.502   4.172  16.770 -0.3485 -0.1090 -0.0599
  705MPD2    C410477   1.596   4.158  16.881 -0.1075  0.2692  0.8468
  705MPD2    C510478   1.728   4.131  16.856 -0.5295 -0.3712  0.1009
  705MPD2     H10479   1.484   4.165  16.556 -0.9250 -0.6280 -0.1230
  705MPD2    H110480   1.559   4.167  16.982 -1.6458  0.9587  0.2244
  705MPD2    H210481   1.871   4.085  16.709 -0.2487  1.1178 -0.2498
  705MPD2    H310482   1.806   4.136  16.931  0.0339  1.3918 -0.6029
  705MPD2     N10483   1.369   4.209  16.800 -0.4426  0.2398 -0.1169
  705MPD2    H510484   1.350   4.245  16.893  0.4753  2.9237 -0.9765
  705MPD2    N110485   1.729   4.140  16.485  0.2204 -0.0462 -0.2952
  705MPD2    H710486   1.665   4.176  16.415 -0.9774 -2.2851 -0.3653
  706TMC3    C110487   1.964   4.093  16.080  0.6009 -0.3775 -0.1603
  706TMC3    C210488   1.922   4.207  16.031 -0.5004 -0.2621 -0.1128
  706TMC3    C310489   1.878   4.299  16.125 -0.4022  0.7134  1.3627
  706TMC3    C410490   1.948   4.060  16.214 -0.3655 -0.3278  0.3399
  706TMC3    C510491   1.871   4.140  16.298  0.4705  0.3347 -0.4069
  706TMC3    C610492   1.833   4.264  16.253 -0.2809 -1.1490 -0.1444
  706TMC3     C10493   2.043   4.013  15.996  0.5967 -0.4315 -0.1520
  706TMC3     O10494   2.112   3.929  16.053 -0.6297 -0.3861  0.4537
  706TMC3     H10495   1.955   4.251  15.937  1.5451 -0.5966  0.4572
  706TMC3    H110496   1.995   3.972  16.255 -1.3325 -0.7776  0.4775
  706TMC3    H210497   1.789   4.337  16.319 -1.2461 -1.4742 -0.4320
  706TMC3    C710498   1.855   4.099  16.437  0.0072  0.0657 -0.4923
  706TMC3    C810499   1.856   4.430  16.088  0.5716  0.3240 -0.2778
  706TMC3    O110500   1.915   3.999  16.485 -0.5472  0.3330  0.3053
  706TMC3    O210501   1.820   4.450  15.972 -0.4464  0.0878  0.0530
  707TMC3    C110502   3.256   3.970   1.292  0.3060 -0.6226 -0.1177
  707TMC3    C210503   3.180   3.860   1.328 -0.5003  0.6193  0.9931
  707TMC3    C310504   3.059   3.872   1.387  0.3739  0.1746  0.2538
  707TMC3    C410505   3.211   4.096   1.319  0.2586  0.6947 -0.6756
  707TMC3    C510506   3.090   4.107   1.370  0.7651  0.0065  0.0984
  707TMC3    C610507   3.007   4.001   1.401 -0.2046 -0.2542 -0.5035
  707TMC3     C10508   3.396   3.938   1.254 -0.0662  0.2731 -0.0751
  707TMC3     O10509   3.427   3.822   1.273  0.2879  0.2134 -0.3705
  707TMC3     H10510   3.209   3.760   1.299 -1.0479  1.6588 -3.1264
  707TMC3    H110511   3.266   4.188   1.297 -0.5638  1.0974 -1.0324
  707TMC3    H210512   2.914   4.010   1.457 -1.1106  2.5508 -2.4555
  707TMC3    C710513   3.038   4.239   1.382 -0.1462 -1.0710  0.5141
  707TMC3    C810514   3.027   3.769   1.483 -0.5496  0.0227 -0.3536
  707TMC3    O110515   3.121   4.327   1.401 -0.4477 -0.0204  0.1445
  707TMC3    O210516   2.910   3.728   1.477 -0.6004 -0.5111 -0.6690
  708MPD2     C10517   4.609   2.178  14.072 -0.0198  0.2492 -0.1484
  708MPD2    C110518   4.534   2.287  14.047  0.5078  0.1927 -0.2356
  708MPD2    C210519   4.397   2.272  14.065  0.6461  0.1600 -0.9477
  708MPD2    C310520   4.346   2.151  14.111  0.6509  0.1623  0.2672
  708MPD2    C410521   4.424   2.042  14.154  0.4292  0.0155 -0.0127
  708MPD2    C510522   4.560   2.053  14.118 -0.2330  0.8710  0.4022
  708MPD2     H10523   4.333   2.358  14.048 -0.1329 -0.1620  0.3642
  708MPD2    H110524   4.387   1.956  14.208 -1.9868  0.8427 -0.3619
  708MPD2    H210525   4.717   2.188  14.071 -0.0606  0.6737 -0.4908
  708MPD2    H310526   4.626   1.973  14.151 -0.7854  0.9774  1.7387
  708MPD2     N10527   4.207   2.146  14.129 -0.4002 -0.3262  0.2373
  708MPD2    H510528   4.172   2.061  14.174 -2.6103  0.1971 -0.4964
  708MPD2    N110529   4.580   2.415  14.014 -0.2142 -0.3843  0.4422
  708MPD2    H710530   4.518   2.493  14.029 -0.8955 -0.3632 -2.4098
  709TMC3    C110531   4.694   2.568  13.901 -0.3395  0.2127 -0.0274
  709TMC3    C210532   4.728   2.564  13.767 -0.2464 -0.4313  0.0445
  709TMC3    C310533   4.645   2.631  13.677  0.0580 -0.3480  0.0968
  709TMC3    C410534   4.602   2.658  13.943 -0.7672  0.2887 -0.7201
  709TMC3    C510535   4.512   2.715  13.856  0.1169 -0.2354  0.3525
  709TMC3    C610536   4.539   2.706  13.721  0.1550 -0.1378  0.0610
  709TMC3     C10537   4.703   2.445  13.969 -0.3282 -0.2995  0.2030
  709TMC3     O10538   0.060   2.370  13.942 -0.1326  0.3482 -0.0913
  709TMC3     H10539   0.053   2.488  13.724 -0.1843 -0.8283  0.8344
  709TMC3    H110540   4.579   2.651  14.048  1.5821  0.5432 -0.1852
  709TMC3    H210541   4.469   2.738  13.644  0.1183 -1.8669 -0.6093
  709TMC3    C710542   4.380   2.687  13.905  0.0316 -0.2969  0.2769
  709TMC3    C810543   4.623   2.557  13.553  0.5248 -0.5230  0.5390
  709TMC3    O110544   4.367   2.597  13.989 -0.4324  0.2415 -0.5621
  709TMC3    O210545   4.670   2.441  13.549 -0.3486 -0.2924  0.5693
  710TMC3    C110546   1.035   3.941   0.759 -1.1272  0.4120  0.4804
  710TMC3    C210547   1.086   3.877   0.651  0.0531 -0.5670  0.1213
  710TMC3    C310548   1.216   3.822   0.661  0.2899  0.4556 -0.3849
  710TMC3    C410549   1.112   3.963   0.873 -0.5593 -0.4138 -0.0845
  710TMC3    C510550   1.234   3.906   0.877  0.5435  0.0646  0.3328
  710TMC3    C610551   1.287   3.834   0.776  0.5863 -0.2943 -0.4595
  710TMC3     C10552   0.919   4.029   0.738 -0.2325  0.2319 -0.0648
  710TMC3     O10553   0.889   4.047   0.623 -0.0341  0.5048  0.4746
  710TMC3     H10554   1.038   3.881   0.554  1.8664 -3.8292 -0.9109
  710TMC3    H110555   1.081   4.023   0.958  2.3325  0.4273  0.4001
  710TMC3    H210556   1.380   3.780   0.788 -0.1415 -1.6222 -0.8361
  710TMC3    C710557   1.334   3.960   0.965 -1.0632 -0.1700  0.0630
  710TMC3    C810558   1.274   3.792   0.527 -0.3667  0.1055 -0.1447
  710TMC3    O110559   1.309   4.065   1.018  0.4945 -0.6680  0.0681
  710TMC3    O210560   1.200   3.774   0.438 -0.1379 -0.0987  0.2909
  711TMC3    C110561   0.310   0.261  15.346 -0.1998 -1.5386 -0.5341
  711TMC3    C210562   0.355   0.289  15.469 -1.0230  0.0509  0.4190
  711TMC3    C310563   0.481   0.326  15.486  0.4307 -0.2297 -0.0100
  711TMC3    C410564   0.394   0.252  15.235  0.5155  0.4356 -0.2911
  711TMC3    C510565   0.526   0.287  15.258  0.3596  0.5249 -0.2422
  711TMC3    C610566   0.568   0.341  15.378  0.1154  0.0009 -0.0244
  711TMC3     C10567   0.239   0.136  15.347  0.3807  0.3634 -0.0428
  711TMC3     O10568   0.175   0.116  15.245  0.6928 -0.2932 -0.1118
  711TMC3     H10569   0.288   0.285  15.554  0.1537  0.0010  1.3343
  711TMC3    H110570   0.364   0.212  15.138 -0.2002  3.3927 -1.2642
  711TMC3    H210571   0.668   0.380  15.388 -0.6338  2.0467 -0.4273
  711TMC3    C710572   0.623   0.183  15.232  0.2241  0.1767 -0.3088
  711TMC3    C810573   0.534   0.253  15.594 -0.4902 -0.2252 -0.1980
  711TMC3    O110574   0.739   0.204  15.256  0.4102  0.1764 -0.1582
  711TMC3    O210575   0.460   0.176  15.651  0.2261 -0.4250  0.1016
  712MPD2     C10576   1.702   1.484  14.155 -0.3764 -0.1506  0.4095
  712MPD2    C110577   1.581   1.550  14.161 -0.4644 -0.0736  0.4509
  712MPD2    C210578   1.590   1.684  14.187 -0.3164  0.0422 -0.8353
  712MPD2    C310579   1.706   1.758  14.202 -0.0504  0.4623  0.0859
  712MPD2    C410580   1.824   1.686  14.194 -0.1814  0.0311  0.7780
  712MPD2    C510581   1.821   1.552  14.167  0.1964  0.0236 -0.3792
  712MPD2     H10582   1.493   1.731  14.183 -0.4923 -0.1197  1.6470
  712MPD2    H110583   1.921   1.734  14.203 -0.0116 -0.3576  1.0386
  712MPD2    H210584   1.716   1.377  14.141  0.4651  0.1463 -1.0775
  712MPD2    H310585   1.915   1.498  14.157 -0.6206 -1.6519  0.9287
  712MPD2     N10586   1.709   1.898  14.205 -0.7730  0.3295  0.3667
  712MPD2    H510587   1.794   1.953  14.213 -0.2912 -0.1648 -1.3397
  712MPD2    N110588   1.453   1.497  14.135 -0.1099  0.7381 -0.0671
  712MPD2    H710589   1.372   1.557  14.143 -1.2542 -0.7875 -0.3690
  713TMC3    C110590   1.647   2.114  14.173 -0.0233 -0.2477  0.2282
  713TMC3    C210591   1.780   2.133  14.143  0.1594 -0.6072  0.5495
  713TMC3    C310592   1.808   2.261  14.102  0.2905 -0.0971 -0.5649
  713TMC3    C410593   1.553   2.208  14.183  0.0695  0.4875  0.5024
  713TMC3    C510594   1.586   2.329  14.130  0.2429 -0.3290  0.8976
  713TMC3    C610595   1.710   2.355  14.079 -0.5709  0.2984  0.1156
  713TMC3     C10596   1.602   1.976  14.189  0.4863 -0.2254 -0.8983
  713TMC3     O10597   1.481   1.955  14.191 -0.2746 -0.0780 -0.2067
  713TMC3     H10598   1.851   2.051  14.139  0.1374 -0.5655 -0.5827
  713TMC3    H110599   1.450   2.189  14.210 -0.3599  2.7930  0.4558
  713TMC3    H210600   1.744   2.452  14.047 -1.4335  0.1819 -1.1702
  713TMC3    C710601   1.481   2.418  14.096 -0.2187  0.3704 -0.2968
  713TMC3    C810602   1.938   2.294  14.047 -0.2386 -0.5418 -0.5057
  713TMC3    O110603   1.376   2.369  14.066 -0.4725 -0.1215 -0.4844
  713TMC3    O210604   1.941   2.378  13.963  0.4037  0.4873  0.7376
  714MPD2     C10605   4.621   0.265   1.798  0.4393 -0.1381 -0.4343
  714MPD2    C110606   4.576   0.138   1.772 -0.2474  0.2348  0.9095
  714MPD2    C210607   4.512   0.114   1.653 -0.3147  0.1143 -0.0662
  714MPD2    C310608   4.477   0.210   1.558  0.0548 -0.1001 -0.5663
  714MPD2    C410609   4.513   0.335   1.594 -0.2307  0.3962  0.1265
  714MPD2    C510610   4.590   0.364   1.708 -0.0032  0.2475  0.3525
  714MPD2     H10611   4.491   0.010   1.630 -0.4698  0.1764 -0.2063
  714MPD2    H110612   4.497   0.422   1.532 -1.2317 -0.6753 -1.1205
  714MPD2    H210613   4.674   0.294   1.888  1.2477  0.2284 -1.0274
  714MPD2    H310614   4.604   0.469   1.730  0.9054  0.4331 -1.1473
  714MPD2     N10615   4.406   0.173   1.437 -0.1507 -0.3885  0.5522
  714MPD2    H510616   4.379   0.076   1.433  0.3598 -0.4246 -2.1345
  714MPD2    N110617   4.631   0.038   1.855 -0.4487  0.2642  0.4419
  714MPD2    H710618   4.686   0.067   1.934 -2.2961 -1.0504  2.2137
  715TMC3    C110619   0.004   4.566   1.897 -0.5082  0.1100 -0.1066
  715TMC3    C210620   0.010   4.432   1.868 -0.7195  0.0803 -0.2946
  715TMC3    C310621   0.105   4.360   1.935 -0.0247  0.0996 -0.6378
  715TMC3    C410622   0.092   4.622   1.992 -0.3295  0.1275  0.2070
  715TMC3    C510623   0.175   4.545   2.065  0.3854 -0.2175 -0.4128
  715TMC3    C610624   0.192   4.412   2.031 -0.1541 -0.8545 -0.0595
  715TMC3     C10625   4.633   4.643   1.828 -0.3789 -0.5898  0.3767
  715TMC3     O10626   4.569   4.588   1.743 -0.0505  0.0886 -0.1436
  715TMC3     H10627   4.685   4.386   1.794  0.8012 -2.0128 -0.3364
  715TMC3    H110628   0.096   4.728   2.012  0.9710  0.1649 -0.2303
  715TMC3    H210629   0.243   4.348   2.101  3.3345 -0.4565 -2.2276
  715TMC3    C710630   0.271   4.593   2.169 -0.3038  0.7619  0.6750
  715TMC3    C810631   0.159   4.253   1.849  0.1558  0.4361  0.5306
  715TMC3    O110632   0.370   4.524   2.200 -0.1740 -0.3638 -0.3586
  715TMC3    O210633   0.104   4.231   1.742  0.0662 -0.1010  1.1809
  716MPD2     C10634   3.598   3.677  10.122 -0.4150  0.0792 -0.1128
  716MPD2    C110635   3.533   3.684  10.002  0.3685 -0.7045  0.0727
  716MPD2    C210636   3.586   3.604   9.897  0.2485 -0.7798  0.2323
  716MPD2    C310637   3.708   3.535   9.906 -0.2247  0.2889  0.7251
  716MPD2    C410638   3.770   3.536  10.022 -0.0174  0.3402  0.2917
  716MPD2    C510639   3.714   3.603  10.128 -0.0268  0.0258  0.5611
  716MPD2     H10640   3.536   3.612   9.801  0.2610  0.7106  0.3384
  716MPD2    H110641   3.862   3.483  10.045 -0.6972 -1.8843 -2.0580
  716MPD2    H210642   3.557   3.720  10.213  2.0578  0.8463  0.6465
  716MPD2    H310643   3.767   3.587  10.221 -0.6901 -1.5759  0.6705
  716MPD2     N10644   3.752   3.452   9.803 -0.1217 -0.1636  1.0335
  716MPD2    H510645   3.688   3.445   9.724 -0.8120 -0.0335  1.5831
  716MPD2    N110646   3.415   3.755   9.994  0.0897  0.1742 -0.2858
  716MPD2    H710647   3.387   3.798  10.082  0.0377 -2.5888  1.0246
  717TMC3    C110648   3.886   3.293   9.692 -0.5893  0.1994  0.0020
  717TMC3    C210649   3.784   3.274   9.599  0.3376  0.7006  0.4433
  717TMC3    C310650   3.788   3.171   9.516 -0.6157  0.8556  0.0354
  717TMC3    C410651   4.000   3.223   9.684  0.3248  0.1977 -0.7175
  717TMC3    C510652   4.011   3.130   9.579 -0.4703 -0.0526  0.0970
  717TMC3    C610653   3.906   3.105   9.495 -0.1195 -0.2023 -0.0794
  717TMC3     C10654   3.873   3.387   9.797  0.0118 -0.1071  0.2396
  717TMC3     O10655   3.973   3.394   9.869  0.2484  0.1445 -0.0513
  717TMC3     H10656   3.696   3.338   9.592  0.4372  0.6410 -1.1634
  717TMC3    H110657   4.082   3.239   9.753 -2.3835 -0.6327  2.6657
  717TMC3    H210658   3.905   3.032   9.415  1.4545 -0.1561 -0.1339
  717TMC3    C710659   4.137   3.053   9.571 -0.3376 -0.0847 -0.8342
  717TMC3    C810660   3.675   3.133   9.428 -0.7079  0.7088  0.2066
  717TMC3    O110661   4.213   3.059   9.668  0.4769  0.0843 -0.1755
  717TMC3    O210662   3.596   3.223   9.402  0.1652  0.4058 -0.3897
  718MPD2     C10663   3.574   2.035  13.138  0.6841 -0.1507 -0.1716
  718MPD2    C110664   3.514   2.021  13.019  0.0827  0.6988  0.8678
  718MPD2    C210665   3.379   1.989  13.022 -0.0640  0.4444 -0.0555
  718MPD2    C310666   3.308   1.971  13.136  0.4243 -0.8998  0.5372
  718MPD2    C410667   3.373   2.014  13.256  0.3286  0.0121 -0.4277
  718MPD2    C510668   3.505   2.036  13.254 -0.2734  0.8050 -0.2169
  718MPD2     H10669   3.314   1.998  12.936  0.3910  0.0586 -0.4375
  718MPD2    H110670   3.335   2.013  13.357  2.0139 -1.2010  0.1983
  718MPD2    H210671   3.680   2.057  13.144  0.6543  0.0500 -0.3647
  718MPD2    H310672   3.556   2.065  13.345  0.0245 -0.2267 -0.0585
  718MPD2     N10673   3.173   1.937  13.116 -0.1118 -0.5997 -0.7064
  718MPD2    H510674   3.148   1.906  13.023  1.9431 -1.1665 -1.0706
  718MPD2    N110675   3.583   2.048  12.898 -0.0467  0.1829  0.2250
  718MPD2    H710676   3.684   2.058  12.904  0.0376 -0.4400 -0.1595
  719TMC3    C110677   3.616   2.078  12.661  0.5689  0.3836 -0.9400
  719TMC3    C210678   3.540   2.088  12.553  0.2266  0.6698  0.3483
  719TMC3    C310679   3.534   2.203  12.480 -0.4074 -0.3648  0.3021
  719TMC3    C410680   3.703   2.175  12.700 -0.2115 -0.3449 -0.2888
  719TMC3    C510681   3.709   2.289  12.618 -0.8950 -0.0992  0.2698
  719TMC3    C610682   3.623   2.303  12.511  0.1454  1.0704 -0.3613
  719TMC3     C10683   3.527   2.035  12.772  0.1681 -0.3778 -0.1804
  719TMC3     O10684   3.414   2.000  12.737 -0.0789  0.0021 -0.4066
  719TMC3     H10685   3.483   2.006  12.512  0.4524  0.3950  0.5826
  719TMC3    H110686   3.782   2.167  12.774 -1.3998 -2.2185  0.7694
  719TMC3    H210687   3.621   2.398  12.459 -0.6262  0.7235 -0.9555
  719TMC3    C710688   3.833   2.369  12.618  0.4761 -0.1920 -0.1989
  719TMC3    C810689   3.395   2.245  12.455  0.0385 -0.0043 -0.3620
  719TMC3    O110690   3.932   2.317  12.668 -0.0525 -0.3422  0.6188
  719TMC3    O210691   3.376   2.331  12.373  1.0100  0.6554  0.4307
  720MPD2     C10692   1.811   3.718  14.320 -0.2846 -0.2820  0.5038
  720MPD2    C110693   1.899   3.743  14.215  0.7305 -0.8844 -0.5677
  720MPD2    C210694   2.040   3.741  14.243  0.4470 -0.2076 -0.4728
  720MPD2    C310695   2.086   3.700  14.370  0.0797  0.3216 -0.4329
  720MPD2    C410696   1.989   3.674  14.464  1.1554  0.4989  0.1010
  720MPD2    C510697   1.858   3.686  14.444 -1.3399  0.6800 -0.2588
  720MPD2     H10698   2.116   3.780  14.176 -1.2755  1.8840 -1.2038
  720MPD2    H110699   2.002   3.634  14.564  0.9300  2.8901  1.0866
  720MPD2    H210700   1.703   3.716  14.312 -0.3693  1.0531  1.3467
  720MPD2    H310701   1.792   3.672  14.528 -1.5176  0.1228 -0.4917
  720MPD2     N10702   2.227   3.702  14.396  1.1021  0.2894 -0.1923
  720MPD2    H510703   2.284   3.679  14.315  0.3506 -0.0581 -0.6266
  720MPD2    N110704   1.860   3.792  14.087 -0.7712 -0.4452 -0.4649
  720MPD2    H710705   1.944   3.804  14.033  0.5507 -2.5355  1.1036
  721TMC3    C110706   2.414   3.666  14.542 -0.1305 -0.8497  0.6674
  721TMC3    C210707   2.445   3.636  14.673  0.2268 -0.1285 -0.2349
  721TMC3    C310708   2.559   3.571  14.696  0.0675  0.6109 -0.4528
  721TMC3    C410709   2.487   3.630  14.436 -0.0884  0.0705 -0.2318
  721TMC3    C510710   2.605   3.573  14.468  0.3327  0.0411  0.5262
  721TMC3    C610711   2.646   3.532  14.597  0.7181 -0.5484  0.1242
  721TMC3     C10712   2.276   3.720  14.523  0.3530  0.2201 -0.4992
  721TMC3     O10713   2.229   3.781  14.617 -0.0589  0.2739 -0.1249
  721TMC3     H10714   2.390   3.679  14.756  1.9209  0.1211  0.7589
  721TMC3    H110715   2.474   3.664  14.334 -1.1306  2.6845  0.7856
  721TMC3    H210716   2.737   3.477  14.620  1.2507 -0.6150 -2.1358
  721TMC3    C710717   2.708   3.561  14.368 -0.2403  0.0851  0.6048
  721TMC3    C810718   2.618   3.573  14.834  0.4984 -0.4338  0.1969
  721TMC3    O110719   2.711   3.626  14.265 -0.2352 -0.1077 -0.7556
  721TMC3    O210720   2.741   3.568  14.840 -0.0086 -0.3554  0.0231
  722MPD2     C10721   0.567   2.341  13.672  0.4347  0.0915 -0.1236
  722MPD2    C110722   0.602   2.386  13.544 -0.0424 -0.2909 -0.0186
  722MPD2    C210723   0.514   2.374  13.445 -0.2066  0.2406  0.5420
  722MPD2    C310724   0.390   2.312  13.462  0.3164  0.2802 -0.5464
  722MPD2    C410725   0.357   2.261  13.582  0.1271  0.0554  0.5421
  722MPD2    C510726   0.443   2.281  13.687  0.4406  0.2422  0.5498
  722MPD2     H10727   0.542   2.413  13.348 -0.1351 -1.0501  0.0364
  722MPD2    H110728   0.263   2.212  13.604  1.0866 -1.5750  1.0589
  722MPD2    H210729   0.630   2.353  13.759 -0.8970  0.5429  0.7825
  722MPD2    H310730   0.416   2.239  13.783 -2.1359  0.7558  0.0491
  722MPD2     N10731   0.302   2.302  13.361 -0.3195  0.5430 -0.4563
  722MPD2    H510732   0.349   2.338  13.279  0.5315 -0.8948 -0.5985
  722MPD2    N110733   0.727   2.442  13.514  0.3881 -0.2678 -0.4720
  722MPD2    H710734   0.741   2.488  13.425  1.4152 -0.9103 -0.6387
  723TMC3    C110735   0.157   2.220  13.205 -0.4929  0.4411 -0.0330
  723TMC3    C210736   0.087   2.110  13.156  0.4672  0.5943 -0.8491
  723TMC3    C310737   0.036   2.123  13.025 -0.2367  0.0654  0.4345
  723TMC3    C410738   0.174   2.337  13.137  0.2495 -0.3728  0.1637
  723TMC3    C510739   0.117   2.343  13.011  0.3361 -0.5406 -0.3040
  723TMC3    C610740   0.042   2.243  12.961  0.7512  0.2865  0.4300
  723TMC3     C10741   0.191   2.224  13.347  0.1322  0.4678 -0.4116
  723TMC3     O10742   0.143   2.137  13.423  1.0406  0.0694 -0.2815
  723TMC3     H10743   0.082   2.023  13.220 -0.5055  0.5565 -0.9842
  723TMC3    H110744   0.224   2.422  13.181 -1.4688  1.2113 -0.9857
  723TMC3    H210745   4.733   2.253  12.864 -0.1849 -0.2860  0.8353
  723TMC3    C710746   0.092   2.473  12.953  0.3635 -0.3719  1.0862
  723TMC3    C810747   4.671   2.033  12.976  0.3436  0.6182 -1.1712
  723TMC3    O110748   0.079   2.475  12.831  0.1342  0.7727  0.7780
  723TMC3    O210749   4.582   2.080  12.909  0.0809 -0.0846 -0.1670
  724TMC3    C110750   0.578   0.483  10.256 -0.1741  0.0085  0.9550
  724TMC3    C210751   0.467   0.553  10.217  0.0743  0.3483  0.1677
  724TMC3    C310752   0.468   0.684  10.213 -0.6410  0.4479  0.1546
  724TMC3    C410753   0.681   0.551  10.301 -0.1491 -0.0428  0.0210
  724TMC3    C510754   0.684   0.688  10.300  0.2548  0.7090 -0.1900
  724TMC3    C610755   0.577   0.756  10.249  0.4178  0.0714 -0.0748
  724TMC3     C10756   0.576   0.342  10.270  0.2605  0.6801 -0.8235
  724TMC3     O10757   0.671   0.293  10.324 -0.0219 -0.0406  0.2652
  724TMC3     H10758   0.369   0.508  10.225  0.1371  0.6917  2.8992
  724TMC3    H110759   0.767   0.489  10.325 -0.0212  0.6294  1.2838
  724TMC3    H210760   0.567   0.862  10.267 -0.9095 -0.3245  1.5565
  724TMC3    C710761   0.772   0.766  10.373 -0.5335 -0.0882 -0.4426
  724TMC3    C810762   0.376   0.735  10.117 -0.3102  0.5375  0.5231
  724TMC3    O110763   0.777   0.889  10.343  0.1276  0.2409  0.2609
  724TMC3    O210764   0.301   0.649  10.075  0.2822  0.4303  0.5076
  725TMC3    C110765   2.241   4.256  12.566  0.1632  0.3400 -0.0808
  725TMC3    C210766   2.157   4.366  12.568 -1.0006 -0.8397  0.4845
  725TMC3    C310767   2.035   4.356  12.631 -1.0010  0.0707 -0.3704
  725TMC3    C410768   2.199   4.136  12.612  0.1870  0.4335 -0.3770
  725TMC3    C510769   2.079   4.122  12.673 -0.2209  0.0778 -0.1034
  725TMC3    C610770   1.994   4.234  12.681 -0.0640  0.0318  0.4693
  725TMC3     C10771   2.374   4.283  12.611  0.3022 -0.2917 -0.3173
  725TMC3     O10772   2.415   4.206  12.697 -0.2391  0.4243 -0.2258
  725TMC3     H10773   2.184   4.460  12.522 -0.9765 -0.9462  0.2809
  725TMC3    H110774   2.263   4.050  12.602 -1.1052 -0.5192 -0.5326
  725TMC3    H210775   1.895   4.223  12.722 -0.2503 -0.8727 -0.2175
  725TMC3    C710776   2.065   4.010  12.762 -0.4607 -0.0987  0.0617
  725TMC3    C810777   1.934   4.454  12.619  0.0280  0.7268 -0.9870
  725TMC3    O110778   2.132   3.913  12.730  0.1903 -0.0250  0.1171
  725TMC3    O210779   1.822   4.410  12.627  0.2853  0.0401  0.2934
  726MPD2     C10780   0.227   1.091  11.125 -0.1165  0.2560 -0.4749
  726MPD2    C110781   0.112   1.113  11.049 -0.1021  0.3284  1.0498
  726MPD2    C210782   4.731   1.053  11.082  0.1387 -1.2027 -0.4239
  726MPD2    C310783   4.722   0.985  11.199  0.4124 -0.0621  0.2543
  726MPD2    C410784   0.091   0.964  11.274 -0.1602 -0.4620  0.5412
  726MPD2    C510785   0.211   1.014  11.237 -0.5555 -0.0518 -0.2613
  726MPD2     H10786   4.642   1.059  11.020  0.8762  1.3148 -1.2473
  726MPD2    H110787   0.086   0.911  11.369  5.1690  1.3352  1.8213
  726MPD2    H210788   0.323   1.138  11.109 -0.2759  0.4009 -1.0075
  726MPD2    H310789   0.288   0.997  11.312 -0.5957  1.9981  0.2479
  726MPD2     N10790   4.602   0.921  11.245  0.3252 -0.8911 -0.3114
  726MPD2    H510791   4.599   0.857  11.324 -2.4532  1.4094  1.4599
  726MPD2    N110792   0.121   1.174  10.923  0.2857 -0.6028  0.2553
  726MPD2    H710793   0.034   1.207  10.882  0.4576  1.2355  1.3802
  727TMC3    C110794   0.213   1.259  10.723 -1.0356  0.0886  0.4138
  727TMC3    C210795   0.308   1.341  10.679 -0.2663 -0.5962 -0.0265
  727TMC3    C310796   0.277   1.411  10.569 -0.2408 -0.4132  0.4231
  727TMC3    C410797   0.088   1.245  10.676  0.0999 -0.2994  0.0318
  727TMC3    C510798   0.067   1.310  10.557 -0.2605  0.1971  0.1532
  727TMC3    C610799   0.155   1.403  10.510  0.0325  0.4795  0.1840
  727TMC3     C10800   0.239   1.196  10.853  0.4716 -0.1427  1.2878
  727TMC3     O10801   0.360   1.171  10.872  0.5389  0.0259 -0.4956
  727TMC3     H10802   0.406   1.352  10.725  0.2004 -0.4080 -1.0556
  727TMC3    H110803   0.011   1.176  10.709  0.3433 -1.1837 -1.2293
  727TMC3    H210804   0.126   1.458  10.421 -0.1398  1.5515  0.9009
  727TMC3    C710805   4.665   1.339  10.522  0.2580  0.6217 -0.7196
  727TMC3    C810806   0.353   1.537  10.554 -0.4011  0.0791  0.5773
  727TMC3    O110807   4.649   1.448  10.478 -0.1252 -0.1111 -0.7797
  727TMC3    O210808   0.475   1.519  10.539 -0.0824  0.2999  0.2809
  728TMC3    C110809   3.976   3.628  15.557 -0.0496 -0.3397 -0.2448
  728TMC3    C210810   4.089   3.603  15.626 -0.1645  0.0983  0.2308
  728TMC3    C310811   4.213   3.638  15.573 -0.3283  0.2015  0.0912
  728TMC3    C410812   3.984   3.670  15.432  0.4011 -0.0273 -0.1489
  728TMC3    C510813   4.107   3.704  15.379  0.0895 -0.4291 -0.0147
  728TMC3    C610814   4.221   3.674  15.440  0.4392 -0.4186  0.2008
  728TMC3     C10815   3.864   3.568  15.622  0.1864  0.1591  0.4940
  728TMC3     O10816   3.884   3.467  15.687 -0.3755 -0.1120  0.6002
  728TMC3     H10817   4.066   3.597  15.731 -0.4841  1.2323  0.2213
  728TMC3    H110818   3.895   3.683  15.371 -0.7775 -1.0160  1.3337
  728TMC3    H210819   4.316   3.672  15.387  0.2610  2.1654 -0.1932
  728TMC3    C710820   4.103   3.738  15.236  0.5127  0.6143 -0.0049
  728TMC3    C810821   4.333   3.637  15.649 -0.2914  0.4051 -0.4200
  728TMC3    O110822   4.001   3.710  15.169 -0.1042 -0.5426 -0.9995
  728TMC3    O210823   4.429   3.686  15.590  0.5207  0.1021  0.7074
  729MPD2     C10824   2.317   0.125  16.804 -0.4503  0.0803 -0.2337
  729MPD2    C110825   2.351   0.258  16.821  0.0009  0.5943 -0.2475
  729MPD2    C210826   2.334   0.309  16.949  0.3463  0.0186 -0.1891
  729MPD2    C310827   2.296   0.226  17.049  0.1104  0.2419 -0.0277
  729MPD2    C410828   2.259   0.097  17.026  0.8178 -0.8646 -0.6636
  729MPD2    C510829   2.278   0.046  16.900 -0.1101 -0.3232  0.2712
  729MPD2     H10830   2.342   0.416  16.959 -0.9618  0.1628 -0.7833
  729MPD2    H110831   2.210   0.033  17.100 -1.7000  1.4417 -0.3363
  729MPD2    H210832   2.330   0.086  16.703 -0.1055 -0.5383  0.0434
  729MPD2    H310833   2.252   4.683  16.877 -2.9368  0.4166  0.2589
  729MPD2     N10834   2.272   0.280  17.171  0.7519 -0.4562  0.1507
  729MPD2    H510835   2.310   0.373  17.185 -3.9705  1.4371  0.2939
  729MPD2    N110836   2.391   0.333  16.706 -0.1030  0.1093 -0.1766
  729MPD2    H710837   2.392   0.280  16.619 -1.3922  0.3323 -0.3259
  730TMC3    C110838   2.202   0.307  17.388  0.0637  0.8565 -0.1399
  730TMC3    C210839   2.280   0.272  17.492 -0.2001 -0.2588 -0.8604
  730TMC3    C310840   2.323   0.372  17.574  0.2230  0.5748 -0.0944
  730TMC3    C410841   2.177   0.434  17.351 -0.2238  0.0582 -0.4357
  730TMC3    C510842   2.218   0.529  17.434  0.0391  0.0289  0.2657
  730TMC3    C610843   2.289   0.501  17.551 -0.1642 -0.1495 -0.2410
  730TMC3     C10844   2.224   0.216  17.282  0.3019  0.4810 -0.5989
  730TMC3     O10845   2.202   0.099  17.308  0.1547 -0.3234  0.1713
  730TMC3     H10846   2.313   0.170  17.509  2.3893  0.9070  1.1272
  730TMC3    H110847   2.134   0.470  17.259 -1.4689  0.3519  0.2659
  730TMC3    H210848   2.319   0.586  17.611 -0.6297 -0.6736  0.7481
  730TMC3    C710849   2.229   0.662  17.381  0.0754  0.4195  0.2002
  730TMC3    C810850   2.386   0.329  17.699  0.5324 -0.3299 -0.2587
  730TMC3    O110851   2.239   0.667  17.259  0.6904  0.8969  0.4393
  730TMC3    O210852   2.394   0.211  17.730 -0.2948  0.5737 -0.2693
  731MPD2     C10853   1.727   3.645  12.843 -0.6908 -0.0043  0.7167
  731MPD2    C110854   1.834   3.564  12.825 -0.2992 -0.0464 -0.5461
  731MPD2    C210855   1.890   3.506  12.937  0.0355 -0.0064 -0.2927
  731MPD2    C310856   1.829   3.515  13.054 -0.2811  0.2985  0.2745
  731MPD2    C410857   1.704   3.579  13.069  0.5648  0.8687  0.4594
  731MPD2    C510858   1.667   3.655  12.960  0.0592  0.4067 -0.1213
  731MPD2     H10859   1.980   3.449  12.916  0.1306 -0.5653  1.5922
  731MPD2    H110860   1.647   3.581  13.162 -0.1177  0.2840  0.0496
  731MPD2    H210861   1.696   3.709  12.761 -1.2008 -3.3024 -1.6765
  731MPD2    H310862   1.580   3.719  12.969  0.2036  0.4280  1.1752
  731MPD2     N10863   1.878   3.425  13.155 -0.1330  0.0554  0.1090
  731MPD2    H510864   1.954   3.363  13.129 -0.4882 -0.8733  1.2826
  731MPD2    N110865   1.905   3.568  12.701 -0.0264 -0.2037 -0.8487
  731MPD2    H710866   2.006   3.556  12.696 -0.0430  0.2363 -2.2746
  732TMC3    C110867   1.923   3.601  12.465  0.2954  0.3256 -0.9009
  732TMC3    C210868   1.856   3.574  12.347 -0.0239 -0.5791 -0.5202
  732TMC3    C310869   1.892   3.642  12.237  0.1022  0.2900 -0.0839
  732TMC3    C410870   2.013   3.701  12.480 -0.1964 -0.1242 -0.4730
  732TMC3    C510871   2.051   3.764  12.366  0.0705 -0.6660 -0.1047
  732TMC3    C610872   1.988   3.737  12.248 -0.0752 -0.5554  0.1250
  732TMC3     C10873   1.836   3.567  12.581 -0.2371  0.6799 -0.1518
  732TMC3     O10874   1.715   3.553  12.557  0.6138  0.3640 -0.2209
  732TMC3     H10875   1.802   3.480  12.350  0.4684 -0.8883 -1.3019
  732TMC3    H110876   2.034   3.744  12.576 -1.3123 -1.6852  0.4761
  732TMC3    H210877   2.020   3.796  12.163  0.2241  0.2166  0.7776
  732TMC3    C710878   2.188   3.806  12.376  0.1308  0.3714 -0.2374
  732TMC3    C810879   1.848   3.607  12.101 -0.5363 -0.0487  0.5031
  732TMC3    O110880   2.228   3.866  12.277  0.2380  0.0319 -0.2361
  732TMC3    O210881   1.917   3.656  12.014 -0.1611 -0.0979 -0.2957
  733TMC3    C110882   2.713   1.888  13.142  0.0708 -0.2111  0.1375
  733TMC3    C210883   2.834   1.881  13.211 -0.1359  0.5052  0.1160
  733TMC3    C310884   2.946   1.937  13.144 -0.2607 -0.0356  0.2280
  733TMC3    C410885   2.699   1.944  13.016  0.3708 -0.3204  0.1107
  733TMC3    C510886   2.813   1.987  12.958  0.2322 -0.3780 -0.2966
  733TMC3    C610887   2.938   1.994  13.023  0.2529  0.2277  0.5340
  733TMC3     C10888   2.586   1.857  13.200  0.1030  0.4517 -0.1936
  733TMC3     O10889   2.478   1.889  13.150  0.8431  0.3406  0.7735
  733TMC3     H10890   2.836   1.850  13.314  1.6436  1.2348  0.3024
  733TMC3    H110891   2.603   1.945  12.966  0.7876  0.3441 -0.6751
  733TMC3    H210892   3.019   2.055  12.987  0.3684 -0.9812 -1.2386
  733TMC3    C710893   2.806   2.072  12.837  0.0463  0.1913 -0.2535
  733TMC3    C810894   3.069   1.941  13.214 -0.0509  0.7741 -0.1047
  733TMC3    O110895   2.704   2.125  12.795 -0.1926  0.0647  0.1000
  733TMC3    O210896   3.085   1.955  13.338  0.1481  0.5246 -0.0234
  734MPD2     C10897   4.708   4.345  12.851  0.1136 -0.1883 -0.9030
  734MPD2    C110898   4.640   4.267  12.762 -0.4718 -0.1473  0.0496
  734MPD2    C210899   4.672   4.294  12.626 -0.5203  0.3105  0.1515
  734MPD2    C310900   0.016   4.388  12.584 -0.6773  0.4765 -0.6757
  734MPD2    C410901   0.076   4.473  12.674 -0.0919  0.2857 -0.2499
  734MPD2    C510902   0.061   4.440  12.806  0.2646 -0.2183 -0.1369
  734MPD2     H10903   4.615   4.237  12.554 -0.3851 -0.5082  0.6888
  734MPD2    H110904   0.148   4.543  12.635  1.0626  0.4467  2.1735
  734MPD2    H210905   4.699   4.338  12.959  1.8865  3.0278 -0.5428
  734MPD2    H310906   0.115   4.500  12.878  0.8571  0.8278 -1.4543
  734MPD2     N10907   0.032   4.407  12.441 -0.0282  0.3331  0.2055
  734MPD2    H510908   4.719   4.341  12.385 -0.3406  0.2612  0.5850
  734MPD2    N110909   4.556   4.158  12.793 -0.4929 -0.0432  0.3541
  734MPD2    H710910   4.550   4.133  12.891  1.1064 -2.1691 -0.1070
  735TMC3    C110911   4.394   3.987  12.765  0.2243  0.4435 -0.7823
  735TMC3    C210912   4.277   3.973  12.695  0.2654  0.0165 -0.0774
  735TMC3    C310913   4.265   3.861  12.619 -0.4922  0.1182  0.8537
  735TMC3    C410914   4.489   3.891  12.772  0.0295  0.2838 -0.6790
  735TMC3    C510915   4.476   3.777  12.688  0.0440 -0.8475 -0.2809
  735TMC3    C610916   4.355   3.756  12.619  0.0425  0.6942 -0.7173
  735TMC3     C10917   4.455   4.106  12.714  0.3780 -0.0867 -0.5484
  735TMC3     O10918   4.398   4.162  12.618  0.4480 -0.0906  0.4776
  735TMC3     H10919   4.209   4.056  12.679 -0.2807  0.2685  3.5965
  735TMC3    H110920   4.584   3.907  12.821 -0.0004 -2.0835  0.1734
  735TMC3    H210921   4.341   3.675  12.548  1.7738  2.7871 -3.4321
  735TMC3    C710922   4.600   3.728  12.625 -0.5880  0.9176  0.1083
  735TMC3    C810923   4.209   3.877  12.490  1.3338 -0.3472  0.3100
  735TMC3    O110924   4.700   3.786  12.667 -0.2825 -0.0174  0.0798
  735TMC3    O210925   4.163   3.780  12.430 -0.0496 -0.0247  0.5669
  736MPD2     C10926   4.677   3.421  12.443 -0.2935 -0.0149 -0.2460
  736MPD2    C110927   4.692   3.547  12.492 -0.4110  0.5730 -0.1696
  736MPD2    C210928   0.073   3.616  12.468 -0.3756  0.4438 -0.3971
  736MPD2    C310929   0.175   3.551  12.395 -0.4427 -0.4391  0.3722
  736MPD2    C410930   0.159   3.418  12.357 -0.2417  0.9058  0.4602
  736MPD2    C510931   0.037   3.352  12.378 -0.4955 -0.7638  0.1336
  736MPD2     H10932   0.089   3.720  12.497 -1.1498  0.7671 -1.1238
  736MPD2    H110933   0.231   3.360  12.301 -0.1472  0.3953  1.1110
  736MPD2    H210934   4.583   3.367  12.453  0.7485 -1.4192  1.8047
  736MPD2    H310935   0.014   3.253  12.340 -0.4509 -1.5323  2.1166
  736MPD2     N10936   0.298   3.619  12.360 -0.3055 -0.2672 -0.0918
  736MPD2    H510937   0.357   3.575  12.289  1.4857  3.6561 -1.0490
  736MPD2    N110938   4.589   3.605  12.565 -0.3965  0.1178 -0.2024
  736MPD2    H710939   4.504   3.553  12.585 -0.7890  0.5312 -0.8140
  737TMC3    C110940   0.451   3.804  12.332  0.3257 -0.2767  0.1686
  737TMC3    C210941   0.505   3.910  12.391 -0.0539 -0.3672 -0.4374
  737TMC3    C310942   0.607   3.970  12.333  1.2963  0.2659  0.4033
  737TMC3    C410943   0.507   3.746  12.219 -0.0910  0.5831 -0.1217
  737TMC3    C510944   0.617   3.815  12.164 -0.0162 -0.3666  0.0536
  737TMC3    C610945   0.657   3.926  12.221  0.0549  0.7860  0.5742
  737TMC3     C10946   0.352   3.728  12.411  0.3063 -0.2555  0.3282
  737TMC3     O10947   0.319   3.785  12.513 -0.6934 -0.1321  0.6461
  737TMC3     H10948   0.456   3.968  12.469 -3.3719 -1.1865 -1.9261
  737TMC3    H110949   0.465   3.661  12.166  2.8512 -0.3607 -0.9673
  737TMC3    H210950   0.744   3.973  12.176 -0.1532  0.2159 -0.4009
  737TMC3    C710951   0.706   3.757  12.060 -0.6683 -0.5588  0.4485
  737TMC3    C810952   0.595   4.113  12.339 -0.4837 -0.0468  0.5310
  737TMC3    O110953   0.822   3.799  12.050  0.1659  0.2797 -0.1303
  737TMC3    O210954   0.640   4.172  12.440  0.5540 -0.0128  0.1317
  738MPD2     C10955   0.512   2.361  15.232  0.1733  0.1844 -0.2531
  738MPD2    C110956   0.616   2.280  15.243 -0.1067  0.3798  0.1343
  738MPD2    C210957   0.744   2.335  15.252  0.2193 -0.4901  0.8659
  738MPD2    C310958   0.770   2.471  15.222 -0.2134 -0.2026 -0.4948
  738MPD2    C410959   0.656   2.546  15.201 -0.9574 -0.3579 -0.2213
  738MPD2    C510960   0.528   2.492  15.213  0.0837 -0.0140 -0.3248
  738MPD2     H10961   0.831   2.270  15.261 -1.3326 -2.1327  3.8820
  738MPD2    H110962   0.663   2.652  15.176 -0.4561  0.0559  1.6455
  738MPD2    H210963   0.413   2.317  15.222 -0.2844  0.5451  2.6718
  738MPD2    H310964   0.439   2.548  15.186 -0.1088 -0.7254 -1.1614
  738MPD2     N10965   0.901   2.530  15.197  0.0705  0.0996  1.0592
  738MPD2    H510966   0.904   2.630  15.181 -2.3109  0.0192  0.1272
  738MPD2    N110967   0.614   2.140  15.250 -0.0979 -0.4428 -0.1718
  738MPD2    H710968   0.702   2.091  15.264 -0.0887 -0.5224 -0.5207
  739TMC3    C110969   1.145   2.550  15.165 -0.0768 -0.1396 -0.2967
  739TMC3    C210970   1.128   2.594  15.039 -0.5869  0.2338  0.1318
  739TMC3    C310971   1.248   2.624  14.970  0.0566  0.1063  0.2342
  739TMC3    C410972   1.259   2.524  15.228 -0.3451 -0.0235  0.5856
  739TMC3    C510973   1.371   2.552  15.158  0.5281 -0.0717  0.2179
  739TMC3    C610974   1.363   2.594  15.029 -0.3563  0.0254 -0.4754
  739TMC3     C10975   1.029   2.472  15.211 -0.7025 -0.0814 -0.7124
  739TMC3     O10976   1.054   2.361  15.244  0.1583  0.5343 -0.2093
  739TMC3     H10977   1.034   2.622  14.994  1.2315  0.8709 -3.3331
  739TMC3    H110978   1.243   2.482  15.327 -0.2319  0.9123  0.9985
  739TMC3    H210979   1.456   2.601  14.974 -0.6222  1.5382 -0.7212
  739TMC3    C710980   1.505   2.533  15.217 -0.6968  0.2587  0.4116
  739TMC3    C810981   1.228   2.708  14.859  0.0875  0.1213 -0.5323
  739TMC3    O110982   1.602   2.514  15.144 -0.0150  0.0930  0.3047
  739TMC3    O210983   1.123   2.699  14.799 -0.2822 -0.9087 -0.3722
  740TMC3    C110984   1.481   3.875  14.561  0.0660 -0.1504 -0.0795
  740TMC3    C210985   1.555   3.839  14.671 -0.1332 -0.1741 -0.8049
  740TMC3    C310986   1.690   3.877  14.665  0.5121 -1.1860  0.0798
  740TMC3    C410987   1.536   3.960  14.460  0.9188 -0.6173 -0.3874
  740TMC3    C510988   1.668   3.999  14.473  0.1599 -0.5514 -0.1529
  740TMC3    C610989   1.745   3.970  14.582  0.7487 -0.9864 -0.0792
  740TMC3     C10990   1.346   3.905  14.596  1.0412 -0.3042 -0.2789
  740TMC3     O10991   1.283   3.950  14.496  0.0652  0.3745 -0.1269
  740TMC3     H10992   1.514   3.762  14.735 -1.0724  1.5896  0.7067
  740TMC3    H110993   1.479   3.962  14.367  2.6165 -2.1425 -1.4564
  740TMC3    H210994   1.852   3.989  14.590  0.6948 -1.0819  0.8255
  740TMC3    C710995   1.735   4.074  14.367  0.4343  0.0059 -1.0161
  740TMC3    C810996   1.776   3.837  14.775  0.1864  0.4756 -0.0974
  740TMC3    O110997   1.858   4.074  14.375 -0.7143 -0.3812 -0.2084
  740TMC3    O210998   1.861   3.916  14.818  0.1427  0.8234 -0.3419
  741TMC3    C110999   0.856   3.032  14.730  0.2451 -0.2812 -0.1020
  741TMC3    C211000   0.747   2.952  14.700  0.4512  0.0331  0.5053
  741TMC3    C311001   0.710   2.853  14.791  0.2470 -0.6440 -1.3331
  741TMC3    C411002   0.936   3.009  14.837 -0.7635 -0.2463 -0.5402
  741TMC3    C511003   0.892   2.917  14.927  0.1693  0.3133  0.1578
  741TMC3    C611004   0.779   2.841  14.911 -0.0653  0.2844 -0.0781
  741TMC3     C11005   0.913   3.140  14.639  0.0938  0.0230 -0.3028
  741TMC3     O11006   1.000   3.205  14.690  0.0716  0.1690  0.0331
  741TMC3     H11007   0.683   2.986  14.619  0.2950 -2.6222 -0.4826
  741TMC3    H111008   1.027   3.065  14.854 -0.4586 -0.9590  0.2113
  741TMC3    H211009   0.749   2.764  14.982  0.6937 -1.7980 -2.0133
  741TMC3    C711010   0.964   2.883  15.050  0.0872  0.4788 -0.5400
  741TMC3    C811011   0.570   2.815  14.788 -0.4052  0.2098 -0.6275
  741TMC3    O111012   0.923   2.793  15.122  0.0504  0.5959 -0.1858
  741TMC3    O211013   0.502   2.872  14.707  0.2792  0.2711  0.0452
  742TMC3    C111014   1.132   1.651  15.507 -0.5949  0.1272 -1.0974
  742TMC3    C211015   1.012   1.598  15.458  0.5912  0.0877 -0.4600
  742TMC3    C311016   1.009   1.544  15.332  0.4553 -0.2886  0.1652
  742TMC3    C411017   1.246   1.625  15.439  0.4130 -0.0158  0.3502
  742TMC3    C511018   1.239   1.574  15.315  0.1342  0.2977  0.3765
  742TMC3    C611019   1.127   1.530  15.254 -0.2264  0.4382  0.4611
  742TMC3     C11020   1.137   1.656  15.649 -0.2785 -0.7137 -0.1427
  742TMC3     O11021   1.035   1.645  15.716 -0.1964 -0.3704  0.6243
  742TMC3     H11022   0.920   1.623  15.511 -0.0936  0.9845 -2.0761
  742TMC3    H111023   1.344   1.632  15.486 -1.3094  1.6168  3.6531
  742TMC3    H211024   1.128   1.479  15.159  3.2797  1.5933 -0.0886
  742TMC3    C711025   1.359   1.542  15.245 -0.2441 -0.2705 -0.8520
  742TMC3    C811026   0.882   1.542  15.266 -0.6786 -0.2797  0.2960
  742TMC3    O111027   1.366   1.438  15.182  0.2793 -0.1768  0.2394
  742TMC3    O211028   0.820   1.437  15.253 -0.2324  0.8555  0.1692
  743MPD2     C11029   3.829   3.298   2.180  0.2171 -0.5709  0.3575
  743MPD2    C111030   3.895   3.241   2.069  0.0704 -0.1444  0.0072
  743MPD2    C211031   4.001   3.155   2.101  0.6284 -0.0983  0.3130
  743MPD2    C311032   4.047   3.136   2.226  0.3425  0.1849  0.5903
  743MPD2    C411033   3.976   3.188   2.336  0.5871  0.2465 -0.0183
  743MPD2    C511034   3.864   3.261   2.309  0.2684  0.4668  0.7635
  743MPD2     H11035   4.053   3.097   2.025 -1.2265 -2.8113  1.1312
  743MPD2    H111036   4.004   3.162   2.437 -0.7098  1.4577  0.6599
  743MPD2    H211037   3.737   3.352   2.161  0.0882 -0.8236  0.2595
  743MPD2    H311038   3.808   3.298   2.394  0.2386  1.8484  0.1458
  743MPD2     N11039   4.168   3.064   2.240 -0.3920  0.1782 -0.0162
  743MPD2    H511040   4.221   3.036   2.158 -1.0396  0.3536 -0.4914
  743MPD2    N111041   3.837   3.247   1.941 -0.3109 -0.3443 -0.4754
  743MPD2    H711042   3.756   3.308   1.937 -1.7106 -2.1798 -0.4940
  744TMC3    C111043   3.782   3.175   1.725  0.0435 -0.1391 -0.8333
  744TMC3    C211044   3.678   3.263   1.731 -0.1468 -0.6229 -0.2185
  744TMC3    C311045   3.648   3.339   1.621  0.0711  0.4788  0.4776
  744TMC3    C411046   3.841   3.152   1.602 -0.6083 -0.8796 -0.0581
  744TMC3    C511047   3.800   3.221   1.495  0.0676 -0.5968  0.5555
  744TMC3    C611048   3.701   3.316   1.503 -0.2814 -0.3180  0.3515
  744TMC3     C11049   3.870   3.166   1.837 -0.7095 -0.6813 -0.1901
  744TMC3     O11050   3.952   3.076   1.828 -0.3671 -0.0804  0.3999
  744TMC3     H11051   3.636   3.287   1.829 -2.6673  0.1347 -1.4792
  744TMC3    H111052   3.938   3.106   1.594  0.5877  1.5921  0.2709
  744TMC3    H211053   3.674   3.374   1.417 -0.1159 -0.4765  0.1928
  744TMC3    C711054   3.871   3.185   1.372  0.4472  0.2840 -0.0858
  744TMC3    C811055   3.542   3.440   1.624 -0.2469 -1.1988 -0.3180
  744TMC3    O111056   3.967   3.111   1.372 -0.1840  0.2222 -0.9828
  744TMC3    O211057   3.553   3.541   1.555 -0.2867  0.0418  0.0818
  745TMC3    C111058   1.301   1.383  14.025  0.3048  0.1776 -0.5611
  745TMC3    C211059   1.206   1.372  14.121  0.0906  0.2134  0.1890
  745TMC3    C311060   1.083   1.428  14.089  0.0659  0.3906  0.5474
  745TMC3    C411061   1.284   1.454  13.908  0.3216 -0.7681 -0.3124
  745TMC3    C511062   1.163   1.519  13.879  0.0166  0.6795 -0.2847
  745TMC3    C611063   1.064   1.498  13.971  0.5520 -0.8990  0.3472
  745TMC3     C11064   1.440   1.382  14.065 -0.0141 -0.2626 -0.2263
  745TMC3     O11065   1.525   1.340  13.986  0.3983  0.5638  0.5778
  745TMC3     H11066   1.214   1.317  14.214 -0.5099  0.0879  0.1675
  745TMC3    H111067   1.365   1.448  13.837  1.9174  4.1469  1.1132
  745TMC3    H211068   0.973   1.556  13.968 -0.3848 -2.4017 -0.6069
  745TMC3    C711069   1.141   1.594  13.756 -0.2423 -0.5168  0.8643
  745TMC3    C811070   1.008   1.471  14.201 -0.1445 -0.0131  0.5557
  745TMC3    O111071   1.022   1.616  13.732  0.0958 -0.5452  0.0024
  745TMC3    O211072   0.889   1.490  14.191  0.3463 -0.4285  0.2608
  746TMC3    C111073   3.839   3.351  11.026 -0.2721  0.0305  0.1122
  746TMC3    C211074   3.891   3.333  10.901  0.3389  0.0312 -0.2892
  746TMC3    C311075   3.920   3.206  10.860 -0.2409 -0.2727  0.8119
  746TMC3    C411076   3.812   3.244  11.104 -0.0321  0.4579 -0.3011
  746TMC3    C511077   3.829   3.119  11.051 -1.2515  0.8143  0.1871
  746TMC3    C611078   3.883   3.099  10.932  0.3138  0.1880  0.7489
  746TMC3     C11079   3.835   3.484  11.098  0.9275 -0.0684 -0.2389
  746TMC3     O11080   3.798   3.480  11.214 -0.1108 -0.2725  0.2712
  746TMC3     H11081   3.903   3.424  10.843 -1.0244  1.6381  1.9594
  746TMC3    H111082   3.750   3.262  11.191 -0.1782  1.1767 -0.5574
  746TMC3    H211083   3.894   2.996  10.898  0.5260  0.7724 -0.9628
  746TMC3    C711084   3.735   3.018  11.095  0.3736 -0.0235 -0.3272
  746TMC3    C811085   3.995   3.180  10.738  0.3553  0.5048  0.5783
  746TMC3    O111086   3.624   3.027  11.044 -0.0254  0.3656 -0.1421
  746TMC3    O211087   3.990   3.063  10.700  0.0742 -0.0384  0.4015
  747TMC3    C111088   1.133   3.985  11.303  0.3326  0.3155 -0.9646
  747TMC3    C211089   1.065   3.868  11.320  0.3384  0.9575  0.7490
  747TMC3    C311090   1.074   3.817  11.447  0.3351 -0.4260 -1.1360
  747TMC3    C411091   1.206   4.043  11.401 -0.1988 -0.0584  0.6820
  747TMC3    C511092   1.240   3.972  11.516  0.3139  0.8525  0.2503
  747TMC3    C611093   1.164   3.866  11.540 -0.5674  0.2187  0.2484
  747TMC3     C11094   1.132   4.057  11.175  0.2717  0.1659 -1.0079
  747TMC3     O11095   1.174   4.172  11.178  0.7074 -0.0857  0.7346
  747TMC3     H11096   0.999   3.830  11.243  1.8631 -2.2165  0.9967
  747TMC3    H111097   1.251   4.140  11.381  1.9550 -1.2296 -0.2220
  747TMC3    H211098   1.173   3.816  11.636  1.3845 -1.2739 -0.7135
  747TMC3    C711099   1.343   4.028  11.606  0.5953 -1.1306 -0.2425
  747TMC3    C811100   0.967   3.717  11.478 -0.3366 -0.0660  0.3964
  747TMC3    O111101   1.376   4.143  11.587  0.4323  0.0533  0.3031
  747TMC3    O211102   0.926   3.649  11.383  0.0627  0.3157 -0.0722
  748MPD2     C11103   3.227   4.275   1.938  0.0215  0.4983  0.7006
  748MPD2    C111104   3.281   4.148   1.947 -0.8902  0.2125 -0.9594
  748MPD2    C211105   3.416   4.126   1.963  0.2411  0.1105 -1.0679
  748MPD2    C311106   3.505   4.235   1.967 -0.0147  0.2133 -0.5484
  748MPD2    C411107   3.457   4.360   1.953  0.1968 -0.9482 -0.3551
  748MPD2    C511108   3.317   4.379   1.932  0.7320 -0.5120 -0.2400
  748MPD2     H11109   3.465   4.029   1.967  0.4941  0.2083 -1.7667
  748MPD2    H111110   3.530   4.440   1.953  1.2233 -1.8949 -2.1621
  748MPD2    H211111   3.121   4.294   1.925 -0.0326  0.4980  1.1260
  748MPD2    H311112   3.277   4.477   1.911  0.8256 -0.8757 -2.0858
  748MPD2     N11113   3.642   4.203   1.966  0.2390  0.7000 -1.4206
  748MPD2    H511114   3.674   4.109   1.986 -1.3415  0.5847  0.5927
  748MPD2    N111115   3.190   4.042   1.953 -0.0008  0.3225  0.0317
  748MPD2    H711116   3.090   4.055   1.941  0.3254  0.6278 -2.3109
  749TMC3    C111117   3.884   4.216   1.956  0.7091  0.7049 -0.1877
  749TMC3    C211118   3.897   4.104   2.027  0.2871 -0.2997 -1.0004
  749TMC3    C311119   4.018   4.034   2.019  0.1303  0.1637 -0.3909
  749TMC3    C411120   3.982   4.255   1.870 -0.2810  0.3952  0.1961
  749TMC3    C511121   4.100   4.193   1.871  0.6638 -0.3356  0.0741
  749TMC3    C611122   4.120   4.081   1.949 -0.2965 -0.6042  0.0944
  749TMC3     C11123   3.746   4.287   1.939  0.0650 -1.0098  0.0302
  749TMC3     O11124   3.747   4.396   1.878  0.0026  0.1309  0.0624
  749TMC3     H11125   3.811   4.060   2.077 -0.4024  0.9064 -1.1052
  749TMC3    H111126   3.968   4.342   1.808 -0.3900  1.7055  2.0513
  749TMC3    H211127   4.217   4.034   1.948 -0.0293 -0.0434 -0.2045
  749TMC3    C711128   4.209   4.249   1.792  0.3521 -0.2862 -0.7052
  749TMC3    C811129   4.021   3.911   2.084  0.4786  0.9937 -0.8327
  749TMC3    O111130   4.220   4.368   1.792 -0.2657  0.2753 -0.1605
  749TMC3    O211131   3.944   3.895   2.179  0.2485 -0.0486  0.2874
  750MPD2     C11132   4.044   0.701  11.955 -0.2388  0.2073  0.9908
  750MPD2    C111133   3.933   0.622  11.960 -0.2862 -0.7394 -0.1555
  750MPD2    C211134   3.919   0.519  11.868 -0.5476  0.3298  0.1376
  750MPD2    C311135   4.013   0.496  11.765  0.0425 -0.2250 -0.3461
  750MPD2    C411136   4.123   0.587  11.761 -0.0364 -0.6052  0.3077
  750MPD2    C511137   4.135   0.685  11.855 -1.0131 -0.4507  0.2926
  750MPD2     H11138   3.827   0.463  11.869 -1.8052  2.3788 -0.8416
  750MPD2    H111139   4.185   0.570  11.674  2.4623  3.4750  1.2730
  750MPD2    H211140   4.060   0.787  12.019 -1.7634  1.0536  0.2099
  750MPD2    H311141   4.220   0.752  11.851 -2.0693  0.8429 -0.1198
  750MPD2     N11142   4.006   0.396  11.672  0.5166 -0.1900  0.1347
  750MPD2    H511143   4.084   0.394  11.607 -0.4142  1.0920 -1.0179
  750MPD2    N111144   3.832   0.640  12.063 -0.2364  0.0040 -0.6040
  750MPD2    H711145   3.758   0.571  12.069 -0.5767  0.5748  1.8398
  751TMC3    C111146   3.938   0.196  11.576 -0.5211 -0.0530  0.4961
  751TMC3    C211147   3.900   0.069  11.603  0.3024 -0.3799  0.1895
  751TMC3    C311148   3.955   4.704  11.527  0.2719  0.2590 -0.1069
  751TMC3    C411149   4.029   0.227  11.482  0.0411 -0.8704 -0.6598
  751TMC3    C511150   4.083   0.127  11.406 -0.3174  0.4384 -0.7593
  751TMC3    C611151   4.051   4.736  11.432 -0.3709  0.1138 -0.0133
  751TMC3     C11152   3.909   0.299  11.669  0.7464  0.4598 -0.1298
  751TMC3     O11153   3.802   0.283  11.729 -0.0556 -0.3223 -0.6902
  751TMC3     H11154   3.818   0.060  11.673  0.9941 -0.6290  0.9643
  751TMC3    H111155   4.041   0.330  11.450  0.2194 -1.4587 -2.4540
  751TMC3    H211156   4.095   4.656  11.373  0.8503 -0.1040  1.1920
  751TMC3    C711157   4.083   0.145  11.264 -0.0833  0.2047  0.2230
  751TMC3    C811158   3.868   4.598  11.477  0.0963 -0.3734  0.7580
  751TMC3    O111159   4.141   0.238  11.214  0.3896 -0.2271 -0.2476
  751TMC3    O211160   3.881   4.576  11.355 -0.1777  0.1918 -0.2710
  752TMC3    C111161   3.442   0.629  17.004  0.6486  0.2505  0.7481
  752TMC3    C211162   3.491   0.552  17.106  0.0228 -0.0333  0.0456
  752TMC3    C311163   3.578   0.614  17.195  0.2745 -0.4287  0.1521
  752TMC3    C411164   3.465   0.767  16.986  0.0395 -0.1033 -0.1834
  752TMC3    C511165   3.542   0.823  17.085  0.8692  0.2893  0.7262
  752TMC3    C611166   3.607   0.752  17.180  0.8299 -0.5143  0.2647
  752TMC3     C11167   3.417   0.551  16.886  0.9019 -0.4002 -0.5465
  752TMC3     O11168   3.489   0.456  16.859 -0.4561  0.0492  0.0745
  752TMC3     H11169   3.455   0.450  17.115  1.6851 -0.4993  1.5243
  752TMC3    H111170   3.434   0.822  16.898  2.6023  1.5363 -0.0780
  752TMC3    H211171   3.659   0.803  17.260  0.9020 -0.2872  0.0726
  752TMC3    C711172   3.524   0.965  17.111  1.0430  0.3332 -0.4804
  752TMC3    C811173   3.595   0.564  17.334 -0.6574  0.6339  0.7698
  752TMC3    O111174   3.579   1.007  17.210  0.0370 -0.3596  0.0110
  752TMC3    O211175   3.641   0.640  17.417  0.2816 -0.1976 -0.0581
  753TMC3    C111176   4.401   1.598  13.279 -1.1543 -0.4479  0.1997
  753TMC3    C211177   4.462   1.549  13.396  0.1153  0.4569  0.0811
  753TMC3    C311178   4.437   1.421  13.429 -0.2446  0.4534  0.2305
  753TMC3    C411179   4.322   1.516  13.201 -0.0381  0.2155 -0.1090
  753TMC3    C511180   4.302   1.385  13.240 -0.2681  0.1812  0.4830
  753TMC3    C611181   4.358   1.338  13.355  0.4595  0.6599  0.7203
  753TMC3     C11182   4.391   1.743  13.263  0.1864 -0.4741  0.4482
  753TMC3     O11183   4.456   1.816  13.338 -0.4672 -0.1815  0.0865
  753TMC3     H11184   4.512   1.616  13.466  1.0080  1.9779 -2.0304
  753TMC3    H111185   4.310   1.541  13.097 -0.6816  0.4867  0.0338
  753TMC3    H211186   4.343   1.233  13.374  0.8174  0.7349  1.3964
  753TMC3    C711187   4.231   1.286  13.159  0.5728 -0.1097  0.1539
  753TMC3    C811188   4.526   1.354  13.520 -0.5052 -0.5368  0.0651
  753TMC3    O111189   4.232   1.172  13.195 -0.4801  0.4215  0.2226
  753TMC3    O211190   4.545   1.239  13.487 -0.1050 -0.4044 -0.5632
  754MPD2     C11191   3.607   4.266  13.310  0.1085  0.4846  0.0612
  754MPD2    C111192   3.563   4.396  13.317 -0.2413  0.4555 -0.1054
  754MPD2    C211193   3.430   4.423  13.273 -0.2136 -0.0901  0.4270
  754MPD2    C311194   3.342   4.315  13.228  0.1042  0.6355 -0.4599
  754MPD2    C411195   3.392   4.188  13.220  0.3194  0.9813 -0.1112
  754MPD2    C511196   3.525   4.167  13.256 -0.2207 -0.1578 -0.2493
  754MPD2     H11197   3.394   4.526  13.271  0.2446  0.0598 -0.2873
  754MPD2    H111198   3.323   4.113  13.183 -0.2795  0.5920  1.7970
  754MPD2    H211199   3.706   4.243  13.348  0.6666  3.2588  0.2462
  754MPD2    H311200   3.562   4.065  13.254  1.3277  0.3497  2.9806
  754MPD2     N11201   3.208   4.336  13.197 -0.2006  0.2111 -0.2723
  754MPD2    H511202   3.155   4.251  13.181 -1.4401  1.1710 -1.2393
  754MPD2    N111203   3.645   4.504  13.371 -0.4451 -0.0462 -0.2735
  754MPD2    H711204   3.746   4.493  13.373 -0.1737  2.6160  0.2928
  755MPD2     C11205   2.568   0.143  13.658 -0.0043  0.5677 -0.2476
  755MPD2    C111206   2.498   0.040  13.599 -0.1094 -0.1097 -0.8219
  755MPD2    C211207   2.570   4.674  13.551  0.1018 -0.3078  0.5630
  755MPD2    C311208   2.703   4.663  13.573 -0.0581  0.1778  0.0770
  755MPD2    C411209   2.779   0.020  13.643 -0.8686 -0.2929 -0.1855
  755MPD2    C511210   2.710   0.134  13.672  0.1940 -0.0500 -0.1599
  755MPD2     H11211   2.516   4.605  13.487  1.2983  1.1934 -2.0824
  755MPD2    H111212   2.888   0.017  13.647 -0.9500 -0.3098  2.1573
  755MPD2    H211213   2.524   0.236  13.692  0.0649  0.3933  0.3169
  755MPD2    H311214   2.753   0.217  13.726 -2.0138  0.2435  1.1272
  755MPD2     N11215   2.777   4.567  13.509 -0.2688 -0.7184  0.3077
  755MPD2    H511216   2.879   4.565  13.515 -0.2556  3.5490  1.2906
  755MPD2    N111217   2.357   0.048  13.569  0.2953  0.2114  0.1332
  755MPD2    H711218   2.320   4.714  13.509 -1.2270 -0.5516  1.9727
  756MPD2     C11219   4.019   0.388  10.135 -0.2215  0.0284 -0.5228
  756MPD2    C111220   3.918   0.328  10.211 -0.1564  0.1187  0.2609
  756MPD2    C211221   3.899   0.193  10.208  0.1259 -0.3528  0.2840
  756MPD2    C311222   3.978   0.121  10.120  0.0973 -0.2584 -0.3402
  756MPD2    C411223   4.069   0.188  10.040  0.0771 -0.1581  0.3004
  756MPD2    C511224   4.086   0.315  10.042  0.1293 -0.3462 -0.2240
  756MPD2     H11225   3.824   0.139  10.265  1.3815 -3.8520 -1.3780
  756MPD2    H111226   4.115   0.142   9.954 -0.7588 -2.6908  1.1938
  756MPD2    H211227   4.025   0.494  10.116  0.5575  0.0287 -0.2845
  756MPD2    H311228   4.153   0.366   9.972 -0.5788  0.7259 -0.1205
  756MPD2     N11229   3.958   4.720  10.104  0.0670  0.6619 -0.6032
  756MPD2    H511230   3.882   4.677  10.156 -0.0549  0.4136 -0.9917
  756MPD2    N111231   3.852   0.408  10.305 -0.1746  0.2295  0.1326
  756MPD2    H711232   3.887   0.502  10.321  0.1480  0.0381  0.5567
  757MPD2     C11233   3.287   4.532   9.613  0.7424 -0.2755  0.2186
  757MPD2    C111234   3.275   4.540   9.749  0.2961  0.2762 -0.6412
  757MPD2    C211235   3.391   4.513   9.822  0.6204 -0.2261  0.2171
  757MPD2    C311236   3.507   4.480   9.761  0.8918  0.1906 -0.3642
  757MPD2    C411237   3.516   4.470   9.627  0.1418 -1.0412 -0.0510
  757MPD2    C511238   3.405   4.491   9.556 -0.5934 -0.2994 -0.1881
  757MPD2     H11239   3.393   4.520   9.930  1.4236 -0.1780  0.1959
  757MPD2    H111240   3.614   4.455   9.582  0.0556 -1.3773 -0.1278
  757MPD2    H211241   3.193   4.534   9.558  0.9502 -3.7178 -0.2981
  757MPD2    H311242   3.409   4.479   9.448  2.2849 -1.2098  0.0184
  757MPD2     N11243   3.618   4.442   9.847  0.0398  0.4394 -0.0867
  757MPD2    H511244   3.616   4.465   9.945 -1.1907  0.3465 -0.0837
  757MPD2    N111245   3.149   4.564   9.804 -0.2070 -0.1097 -0.4227
  757MPD2    H711246   3.070   4.579   9.743  0.1533 -1.7070 -1.2901
  758MPD2     C11247   3.461   4.039  16.393 -0.2313  0.0627 -0.0553
  758MPD2    C111248   3.564   3.970  16.459 -0.3479  0.2852  0.2499
  758MPD2    C211249   3.631   4.028  16.567  0.4462 -0.5410  0.0107
  758MPD2    C311250   3.599   4.161  16.602  0.3743  0.1144  0.1887
  758MPD2    C411251   3.497   4.233  16.535  0.6432  0.5548 -1.0025
  758MPD2    C511252   3.434   4.169  16.427  0.0299 -0.2234  0.1854
  758MPD2     H11253   3.700   3.974  16.631  0.4277  1.4471  1.7216
  758MPD2    H111254   3.483   4.338  16.558  0.5831  0.2415  0.3892
  758MPD2    H211255   3.402   3.996  16.313 -0.3667  0.9108 -0.4113
  758MPD2    H311256   3.357   4.230  16.380 -2.3294 -0.5988  3.5790
  758MPD2     N11257   3.659   4.231  16.710  0.5745 -0.1102  0.4124
  758MPD2    H511258   3.637   4.330  16.711  0.3294 -0.1830  2.3850
  758MPD2    N111259   3.578   3.838  16.425  0.0601  0.2174 -0.5862
  758MPD2    H711260   3.523   3.806  16.346 -0.3514 -0.4198 -0.0479
  759MPD2     C11261   2.380   2.386  10.524  0.8969  0.3469 -0.5264
  759MPD2    C111262   2.370   2.293  10.416  0.5091 -0.5267 -0.0634
  759MPD2    C211263   2.387   2.337  10.287 -0.2312 -0.0623 -0.5201
  759MPD2    C311264   2.396   2.473  10.261  0.3272  0.1870 -0.1486
  759MPD2    C411265   2.390   2.565  10.369  0.0692 -0.5236 -0.2737
  759MPD2    C511266   2.380   2.518  10.500 -0.1633  0.1640 -0.2357
  759MPD2     H11267   2.397   2.268  10.204 -1.1924  0.8059 -1.3559
  759MPD2    H111268   2.404   2.672  10.360 -2.0305 -0.3182 -1.0318
  759MPD2    H211269   2.367   2.347  10.624 -2.8327 -1.5464 -1.7829
  759MPD2    H311270   2.377   2.583  10.586  0.5937 -0.4526  0.2480
  759MPD2     N11271   2.398   2.514  10.124 -0.3175 -0.2732  0.3462
  759MPD2    H511272   2.389   2.439  10.056  0.3943  1.1568 -1.3280
  759MPD2    N111273   2.358   2.153  10.446 -0.3028 -0.4669 -0.1033
  759MPD2    H711274   2.383   2.088  10.372  1.8353  1.1919 -0.8611
  760MPD2     C11275   1.916   1.325  12.189 -0.0322  0.1724  0.9151
  760MPD2    C111276   2.042   1.273  12.204 -0.3792  0.0553 -0.1920
  760MPD2    C211277   2.060   1.136  12.215  0.2494  0.6468  0.2701
  760MPD2    C311278   1.944   1.054  12.213  0.0671  0.6585  1.2103
  760MPD2    C411279   1.815   1.109  12.199 -0.4432 -0.0275  0.1765
  760MPD2    C511280   1.804   1.246  12.182  0.1288  0.1353 -0.9873
  760MPD2     H11281   2.161   1.097  12.220  0.3673  0.8919 -0.1830
  760MPD2    H111282   1.730   1.045  12.176 -0.6922  0.6019 -0.6624
  760MPD2    H211283   1.900   1.432  12.188  1.2450  0.3863  2.5522
  760MPD2    H311284   1.706   1.291  12.172 -0.7461 -1.7211 -0.7144
  760MPD2     N11285   1.954   0.913  12.223 -0.2423  0.1779 -0.5548
  760MPD2    H511286   1.863   0.868  12.214  0.6209 -1.3845 -1.3944
  760MPD2    N111287   2.161   1.359  12.205 -0.5907  0.2349 -0.2301
  760MPD2    H711288   2.252   1.315  12.211  1.2842  4.0444 -1.1087
  761MPD2     C11289   3.418   4.367  11.442  0.2917  1.2116 -0.7538
  761MPD2    C111290   3.524   4.372  11.359 -0.3489  0.6197 -0.4620
  761MPD2    C211291   3.647   4.413  11.409 -0.1858  0.6199 -0.4940
  761MPD2    C311292   3.661   4.473  11.534  0.8499 -0.5608 -0.1478
  761MPD2    C411293   3.554   4.459  11.619 -0.5747  0.1034  0.2628
  761MPD2    C511294   3.432   4.412  11.569 -0.0229  0.0218  0.0081
  761MPD2     H11295   3.733   4.398  11.345  0.4790  1.3682  0.2302
  761MPD2    H111296   3.557   4.505  11.717 -1.5569  0.6288  0.0440
  761MPD2    H211297   3.326   4.330  11.399 -0.1082  0.3072  0.8643
  761MPD2    H311298   3.342   4.429  11.626 -0.8750 -0.0427 -1.3106
  761MPD2     N11299   3.767   4.560  11.569  0.8143  0.6689  0.0465
  761MPD2    H511300   3.767   4.600  11.663 -0.1188  2.4397 -0.7002
  761MPD2    N111301   3.508   4.324  11.229  0.3652 -0.5863 -0.3481
  761MPD2    H711302   3.417   4.283  11.213 -1.0912  0.6918  4.5174
  762MPD2     C11303   3.906   4.476  10.498  0.4522  0.1220 -0.7393
  762MPD2    C111304   3.887   4.350  10.549 -0.0821  0.4877 -0.4724
  762MPD2    C211305   3.960   4.247  10.499  0.2723  0.2521 -0.2564
  762MPD2    C311306   4.059   4.264  10.401  0.3170  0.2832  0.0541
  762MPD2    C411307   4.087   4.390  10.361  0.4369 -0.0812 -0.5234
  762MPD2    C511308   4.007   4.497  10.400 -0.1326 -0.4151  0.1567
  762MPD2     H11309   3.951   4.146  10.538 -0.0447  0.8084  1.1164
  762MPD2    H111310   4.166   4.413  10.291  1.1071 -1.9303 -0.3682
  762MPD2    H211311   3.842   4.562  10.515  2.0718  1.4035 -1.1741
  762MPD2    H311312   4.020   4.595  10.356 -2.6780 -0.0859  0.1241
  762MPD2     N11313   4.136   4.147  10.353  0.5423 -0.1811  0.1057
  762MPD2    H511314   4.098   4.057  10.379 -0.0834  0.0314 -0.0634
  762MPD2    N111315   3.786   4.329  10.642  0.4883 -0.1126 -0.3502
  762MPD2    H711316   3.716   4.402  10.652 -1.7366 -2.3133  0.0506
  763MPD2     C11317   1.080   4.324  16.432  0.3137  0.1600 -0.9463
  763MPD2    C111318   0.967   4.401  16.425  0.4834 -0.4583  0.3908
  763MPD2    C211319   0.971   4.535  16.461 -0.8552 -0.0370  0.3544
  763MPD2    C311320   1.096   4.594  16.480  0.0580  0.2614 -0.7304
  763MPD2    C411321   1.207   4.518  16.460  0.4664  0.3657  0.0136
  763MPD2    C511322   1.200   4.384  16.447  0.2038  0.3902 -0.1865
  763MPD2     H11323   0.881   4.594  16.468  0.0218  1.1098  1.8774
  763MPD2    H111324   1.302   4.571  16.458 -0.1870  1.5626  0.3448
  763MPD2    H211325   1.083   4.218  16.410  1.2707 -0.1797  0.8367
  763MPD2    H311326   1.287   4.323  16.426  0.9872  1.3600  0.2911
  763MPD2     N11327   1.111   4.736  16.483  0.2783 -0.5162  0.0122
  763MPD2    H511328   1.207   0.030  16.477 -0.3484  1.2848  0.0143
  763MPD2    N111329   0.834   4.345  16.398 -0.1274 -0.3700  0.2472
  763MPD2    H711330   0.756   4.409  16.405 -0.4329 -0.8929  1.7572
  764MPD2     C11331   4.242   1.366  17.644 -0.4981  0.2782  0.3317
  764MPD2    C111332   4.160   1.260  17.617 -0.3674  0.0641  0.3365
  764MPD2    C211333   4.159   1.153  17.705  0.0255 -0.2278  0.4544
  764MPD2    C311334   4.225   1.165   0.074  0.9592  0.1972 -1.0866
  764MPD2    C411335   4.306   1.278   0.102  0.2278  0.4447 -0.1533
  764MPD2    C511336   4.315   1.376   0.008  0.4002 -0.4187  0.8179
  764MPD2     H11337   4.116   1.056  17.683  2.4504 -1.0659 -0.6387
  764MPD2    H111338   4.369   1.298   0.188 -1.9284 -0.2023  1.5857
  764MPD2    H211339   4.250   1.437  17.562  1.3693  0.8486  1.0030
  764MPD2    H311340   4.389   1.455   0.010  1.6725 -1.6071  0.5531
  764MPD2     N11341   4.193   1.065   0.170  0.1163 -0.8221  0.0620
  764MPD2    H511342   4.126   0.994   0.140 -0.0293 -0.6036 -0.1309
  764MPD2    N111343   4.078   1.244  17.510 -0.0310 -0.5300  0.2846
  764MPD2    H711344   4.017   1.162  17.509  0.0160 -0.6113  2.6117
  765MPD2     C11345   3.227   3.899  16.550  0.8871  0.4109  0.6961
  765MPD2    C111346   3.139   3.868  16.446 -0.7732 -0.2628 -0.1441
  765MPD2    C211347   3.135   3.734  16.402  0.0618  0.1940  0.1593
  765MPD2    C311348   3.225   3.644  16.454  0.0178 -0.2693  0.5827
  765MPD2    C411349   3.308   3.675  16.560  0.5217 -0.5798  0.4475
  765MPD2    C511350   3.311   3.801  16.600 -0.1855  0.7091  0.1577
  765MPD2     H11351   3.074   3.695  16.321 -1.1438  1.3615  0.5047
  765MPD2    H111352   3.381   3.604  16.598  0.8229 -0.6297 -0.2260
  765MPD2    H211353   3.235   3.999  16.591 -0.5270  0.3302  1.1718
  765MPD2    H311354   3.378   3.826  16.682 -0.5626  1.5562  0.2003
  765MPD2     N11355   3.242   3.526  16.383  0.4148 -0.0475 -0.6074
  765MPD2    H511356   3.193   3.506  16.295 -1.6332  1.3282  0.2147
  765MPD2    N111357   3.053   3.972  16.394 -0.6509 -0.0620  0.2096
  765MPD2    H711358   3.071   4.067  16.427  0.3588 -0.0151 -0.4708
  766MPD2     C11359   2.590   3.986  15.679 -0.3422  1.0958 -0.2507
  766MPD2    C111360   2.721   3.994  15.713  0.6105 -1.7918 -0.0349
  766MPD2    C211361   2.820   3.953  15.628  0.7698 -0.4558  1.0809
  766MPD2    C311362   2.786   3.901  15.503  0.4447 -0.2508 -0.3720
  766MPD2    C411363   2.651   3.876  15.478  0.0144  0.7175 -0.3475
  766MPD2    C511364   2.555   3.917  15.568  0.1961  0.4680 -0.2053
  766MPD2     H11365   2.922   3.974  15.657  1.2855 -1.2323 -0.1532
  766MPD2    H111366   2.625   3.843  15.378  0.3679 -1.1564  0.1720
  766MPD2    H211367   2.515   4.027  15.745 -0.1664 -0.0101  0.6432
  766MPD2    H311368   2.450   3.911  15.542 -0.1247 -1.4564  1.5943
  766MPD2     N11369   2.882   3.865  15.404 -0.0562  0.4354 -0.0485
  766MPD2    H511370   2.850   3.822  15.317 -0.6669 -0.2263  0.5026
  766MPD2    N111371   2.770   4.058  15.835  0.4607 -0.4144  0.6861
  766MPD2    H711372   2.869   4.077  15.832 -0.1653  2.9699  0.6717
  767MPD2     C11373   2.523   4.108  15.315 -0.2878  0.1066 -0.4671
  767MPD2    C111374   2.647   4.141  15.259 -0.2263  0.1794 -0.7490
  767MPD2    C211375   2.676   4.101  15.130 -0.0193  0.1207 -0.0857
  767MPD2    C311376   2.576   4.037  15.058  0.0029 -0.1383 -0.1007
  767MPD2    C411377   2.454   4.000  15.113 -0.3411 -0.5518  0.2566
  767MPD2    C511378   2.430   4.040  15.242 -0.1073  0.0254  0.1875
  767MPD2     H11379   2.767   4.128  15.077  0.2905 -0.4261  0.1673
  767MPD2    H111380   2.389   3.932  15.059  0.8432 -1.4316 -0.0713
  767MPD2    H211381   2.494   4.135  15.416 -0.0142  2.3591 -1.0079
  767MPD2    H311382   2.340   4.014  15.297  0.0764  0.3242  0.6296
  767MPD2     N11383   2.609   3.993  14.926 -0.1262 -0.3556 -0.1463
  767MPD2    H511384   2.707   4.004  14.902 -0.1265 -0.7674 -0.3541
  767MPD2    N111385   2.729   4.222  15.345  0.2311 -0.4174 -0.4044
  767MPD2    H711386   2.688   4.239  15.436 -0.1852 -2.0680 -0.2878
  768MPD2     C11387   3.479   2.721  10.867 -0.1202 -0.2652  0.0026
  768MPD2    C111388   3.471   2.672  10.994  0.6473 -0.3083  0.2835
  768MPD2    C211389   3.596   2.634  11.049  0.1172 -0.5878  0.5979
  768MPD2    C311390   3.719   2.666  10.991  0.1814  0.2927  0.0482
  768MPD2    C411391   3.719   2.727  10.867 -0.5026  0.4638 -0.4550
  768MPD2    C511392   3.601   2.760  10.807 -0.5075 -0.0243  0.0734
  768MPD2     H11393   3.603   2.598  11.151  0.9646 -0.7846  0.4705
  768MPD2    H111394   3.807   2.757  10.811  0.7700 -0.6236  0.9681
  768MPD2    H211395   3.384   2.742  10.821 -0.4979  0.2755  1.0293
  768MPD2    H311396   3.592   2.801  10.706 -1.7166  0.5768  0.4221
  768MPD2     N11397   3.845   2.637  11.040  0.1144 -0.1557 -0.0479
  768MPD2    H511398   3.918   2.685  10.989 -0.0992 -1.2958 -1.4371
  768MPD2    N111399   3.352   2.658  11.066  0.0269  0.4831 -0.7076
  768MPD2    H711400   3.369   2.614  11.156  2.3206 -0.1299 -1.4408
  769MPD2     C11401   0.084   0.484  15.118  0.0148  0.0526  0.3033
  769MPD2    C111402   4.731   0.437  15.205  0.2538  0.1835  0.1720
  769MPD2    C211403   0.007   0.460  15.336  0.0334 -0.1164 -0.1837
  769MPD2    C311404   0.116   0.526  15.394  0.0138 -0.9899 -0.4424
  769MPD2    C411405   0.207   0.578  15.304  0.1947  0.2134  0.3519
  769MPD2    C511406   0.194   0.547  15.169  0.3965  0.3879  0.4956
  769MPD2     H11407   4.668   0.421  15.400  1.7098 -0.8705  1.4111
  769MPD2    H111408   0.293   0.633  15.341  0.3410  1.1016 -1.2819
  769MPD2    H211409   0.087   0.484  15.010 -0.1725 -1.6258  0.3070
  769MPD2    H311410   0.264   0.595  15.102  1.5903 -1.3294  0.4960
  769MPD2     N11411   0.129   0.532  15.531 -0.7574  0.8495  0.4185
  769MPD2    H511412   0.049   0.498  15.583 -0.7822 -0.9753 -0.8252
  769MPD2    N111413   4.623   0.375  15.137 -0.2515  0.2218 -0.3382
  769MPD2    H711414   4.621   0.372  15.035  2.0054  3.9635 -0.4937
  770MPD2     C11415   4.177   4.209  15.199  0.0093  0.4738 -0.3574
  770MPD2    C111416   4.154   4.300  15.301 -0.4996 -0.0698 -0.3549
  770MPD2    C211417   4.200   4.429  15.278  0.5465  0.0591 -0.4836
  770MPD2    C311418   4.261   4.455  15.159 -0.1085  0.1646 -0.2174
  770MPD2    C411419   4.297   4.354  15.065  0.0688  0.0290  0.4207
  770MPD2    C511420   4.245   4.230  15.089  0.1602 -0.7864 -0.4062
  770MPD2     H11421   4.173   4.512  15.342 -0.0951 -1.7654  1.5994
  770MPD2    H111422   4.357   4.377  14.978 -2.6057  3.0967 -0.5828
  770MPD2    H211423   4.137   4.109  15.213  2.3168 -0.5140 -0.6859
  770MPD2    H311424   4.265   4.152  15.017  1.0466 -0.4254 -0.5475
  770MPD2     N11425   4.286   4.590  15.130 -0.1724  0.0826  0.1639
  770MPD2    H511426   4.269   4.651  15.209 -0.6741 -0.1044  0.1979
  770MPD2    N111427   4.087   4.259  15.414  0.0750  0.2104 -0.2747
  770MPD2    H711428   4.041   4.169  15.414 -0.7814  0.6452 -0.9725
  771MPD2     C11429   0.737   3.516  13.790  0.3234 -0.2176  0.2330
  771MPD2    C111430   0.666   3.618  13.739 -0.8282  0.2937 -0.3634
  771MPD2    C211431   0.559   3.579  13.654 -0.0187 -0.5364  0.7425
  771MPD2    C311432   0.514   3.447  13.634 -0.4713 -0.0568  0.1761
  771MPD2    C411433   0.588   3.342  13.695 -0.5560  0.3722 -0.2047
  771MPD2    C511434   0.703   3.388  13.760  0.5433  0.3360 -0.2523
  771MPD2     H11435   0.505   3.660  13.607  0.5784  0.3285  1.5456
  771MPD2    H111436   0.564   3.237  13.682 -0.7167  0.3907 -0.0564
  771MPD2    H211437   0.825   3.535  13.851  0.3171 -0.4238  0.3048
  771MPD2    H311438   0.780   3.320  13.795  0.8890  1.5912  1.3818
  771MPD2     N11439   0.399   3.434  13.552 -0.3783  0.4724  0.0962
  771MPD2    H511440   0.370   3.521  13.509 -1.4387  0.7147  1.2966
  771MPD2    N111441   0.702   3.757  13.742  0.1410  0.4289 -0.1618
  771MPD2    H711442   0.655   3.824  13.683  0.0920 -0.0587 -0.6759
  772MPD2     C11443   0.258   4.227  14.116 -0.2107 -0.2414 -0.2585
  772MPD2    C111444   0.274   4.106  14.050 -0.1927  0.5571 -0.3602
  772MPD2    C211445   0.182   4.002  14.074 -0.8451  0.7711  0.3443
  772MPD2    C311446   0.064   4.023  14.150  0.1737  0.1827  0.5689
  772MPD2    C411447   0.050   4.148  14.206 -0.5628  0.2316 -0.1574
  772MPD2    C511448   0.143   4.244  14.190 -0.0962 -0.1393 -0.3253
  772MPD2     H11449   0.193   3.904  14.030  0.4861  0.5929  1.0700
  772MPD2    H111450   4.697   4.171  14.257 -0.1776  1.1546  0.1247
  772MPD2    H211451   0.324   4.311  14.098 -0.7583  0.9469  3.3184
  772MPD2    H311452   0.114   4.340  14.232  2.5295  0.5057  0.0193
  772MPD2     N11453   4.702   3.926  14.162  0.0713 -0.0768 -0.0621
  772MPD2    H511454   4.621   3.961  14.212 -1.6494 -2.0933 -1.4390
  772MPD2    N111455   0.392   4.077  13.983 -0.0985  0.2252  0.1019
  772MPD2    H711456   0.409   3.978  13.965 -1.5709 -0.2868  1.4793
  773MPD2     C11457   4.653   4.562   0.839 -0.2833  0.5354  0.6446
  773MPD2    C111458   4.709   4.554   0.719 -0.4278 -0.6684 -1.3307
  773MPD2    C211459   0.068   4.459   0.696  0.6282 -0.4688 -0.2255
  773MPD2    C311460   0.111   4.366   0.792  0.1809  0.1520  0.4447
  773MPD2    C411461   0.037   4.368   0.907 -0.3127  0.5946 -0.6222
  773MPD2    C511462   4.686   4.468   0.927  0.4878 -0.1051  0.3041
  773MPD2     H11463   0.124   4.464   0.604 -0.0379  0.2088 -0.5932
  773MPD2    H111464   0.047   4.299   0.990 -0.2459  1.6984  0.2901
  773MPD2    H211465   4.592   4.644   0.877 -1.9245  0.8539 -2.6642
  773MPD2    H311466   4.647   4.483   1.027 -1.0819 -2.8708  0.1256
  773MPD2     N11467   0.205   4.258   0.763  0.2009 -0.0234  0.5935
  773MPD2    H511468   0.247   4.262   0.670  3.0645 -2.9308  1.7672
  773MPD2    N111469   4.670   4.663   0.633  0.2400 -0.4160  0.0192
  773MPD2    H711470   4.602   4.729   0.668  1.7248  2.0193 -1.7060
  774MPD2     C11471   2.999   4.089  13.799  0.0710  0.0206 -0.5831
  774MPD2    C111472   3.141   4.089  13.798  0.2524  0.1808 -0.0995
  774MPD2    C211473   3.207   4.195  13.745  0.0874  0.4450 -0.0964
  774MPD2    C311474   3.141   4.308  13.695  0.3118  0.0204 -0.0703
  774MPD2    C411475   3.005   4.308  13.701  1.2112  0.4198 -0.0870
  774MPD2    C511476   2.931   4.196  13.748 -0.2046  0.0464 -0.6816
  774MPD2     H11477   3.314   4.203  13.754  0.1662  1.6449 -2.0222
  774MPD2    H111478   2.946   4.384  13.649  0.3750  0.0501  0.3179
  774MPD2    H211479   2.947   3.999  13.830 -2.2045  1.8114  0.8263
  774MPD2    H311480   2.824   4.202  13.737 -0.6582 -0.8200  3.1704
  774MPD2     N11481   3.219   4.420  13.663  0.3877 -0.6535 -0.4070
  774MPD2    H511482   3.319   4.401  13.659  0.7242  0.6590  2.3632
  774MPD2    N111483   3.210   3.983  13.870  0.1594 -0.2629 -1.0059
  774MPD2    H711484   3.148   3.914  13.911 -0.8411  1.4323  0.3779
  775MPD2     C11485   0.349   0.191  16.224  1.1897 -0.2098 -0.1267
  775MPD2    C111486   0.327   0.328  16.244 -0.4575 -0.0897 -0.6455
  775MPD2    C211487   0.397   0.419  16.163 -0.1772  0.5149 -1.0596
  775MPD2    C311488   0.503   0.375  16.076 -0.8468  0.1444  0.2817
  775MPD2    C411489   0.538   0.242  16.075 -0.5218 -0.4831  0.7573
  775MPD2    C511490   0.445   0.154  16.133 -0.3465 -0.6859 -0.7001
  775MPD2     H11491   0.364   0.522  16.173  0.7025  0.6654  0.2063
  775MPD2    H111492   0.632   0.211  16.030 -0.4438 -0.3388  0.8205
  775MPD2    H211493   0.287   0.114  16.267  1.4358  0.3364  1.2031
  775MPD2    H311494   0.453   0.046  16.124 -0.1631 -0.9573  2.5809
  775MPD2     N11495   0.569   0.464  15.988  0.2324 -0.0393  0.7817
  775MPD2    H511496   0.657   0.433  15.948 -0.5502  0.8554 -1.6925
  775MPD2    N111497   0.225   0.362  16.339  0.4237 -0.1033  0.1362
  775MPD2    H711498   0.175   0.290  16.390  0.8528  1.7097  3.1214
  776MPD2     C11499   3.053   0.911  12.291 -0.9088 -0.3474 -0.5430
  776MPD2    C111500   3.172   0.965  12.252  0.5766 -0.3838  0.6646
  776MPD2    C211501   3.176   1.096  12.194  0.0402 -0.0236  0.3416
  776MPD2    C311502   3.056   1.163  12.167  0.3346 -0.0889  0.3850
  776MPD2    C411503   2.934   1.105  12.197 -0.7225  0.2934  0.1277
  776MPD2    C511504   2.935   0.977  12.257 -0.6130  0.1684 -0.3138
  776MPD2     H11505   3.272   1.141  12.174  0.6300 -0.2427  2.6792
  776MPD2    H111506   2.846   1.162  12.170 -0.0244  1.3593  0.1239
  776MPD2    H211507   3.044   0.821  12.351  0.2613 -0.9201 -1.2257
  776MPD2    H311508   2.843   0.928  12.284  0.2203 -0.5788  1.1486
  776MPD2     N11509   3.053   1.292  12.114  0.5082  0.5655 -0.1265
  776MPD2    H511510   2.963   1.339  12.106  0.1538 -0.1595 -0.3530
  776MPD2    N111511   3.285   0.888  12.280 -0.0165 -0.0858  0.1869
  776MPD2    H711512   3.272   0.789  12.297  1.6044 -0.5451 -1.2219
  777MPD2     C11513   0.291   3.256   1.304  0.3573 -0.1394 -0.5462
  777MPD2    C111514   0.163   3.255   1.348  0.4157 -0.0381 -0.2591
  777MPD2    C211515   0.060   3.213   1.257  0.2882 -0.1030  0.0590
  777MPD2    C311516   0.093   3.181   1.126  0.2299  0.9484 -0.4648
  777MPD2    C411517   0.222   3.193   1.085  0.7117  0.2126 -0.6354
  777MPD2    C511518   0.321   3.229   1.172 -0.0580 -0.4296  0.4108
  777MPD2     H11519   4.694   3.204   1.282  0.1788 -1.6831 -0.9776
  777MPD2    H111520   0.257   3.187   0.983  0.6825 -1.3974 -0.5548
  777MPD2    H211521   0.375   3.271   1.371  0.5568 -0.7232 -0.6640
  777MPD2    H311522   0.425   3.229   1.142 -0.0102  1.7666  0.5617
  777MPD2     N11523   4.728   3.141   1.041 -0.1266 -0.4611  0.1220
  777MPD2    H511524   4.640   3.122   1.088  0.0714 -3.9698 -0.9973
  777MPD2    N111525   0.139   3.299   1.483 -0.1991 -0.1094 -0.5583
  777MPD2    H711526   0.219   3.324   1.539  0.6993 -0.4329 -1.6931
  778MPD2     C11527   0.568   3.564  15.362 -0.4693  0.0305 -0.4401
  778MPD2    C111528   0.589   3.451  15.283  0.1934  0.3348 -0.1568
  778MPD2    C211529   0.659   3.465  15.167  0.2058 -0.3585 -0.3204
  778MPD2    C311530   0.700   3.589  15.124 -0.0599 -0.0394  0.2702
  778MPD2    C411531   0.676   3.702  15.202 -0.5532 -0.5500 -0.2910
  778MPD2    C511532   0.622   3.684  15.329 -0.1607 -0.3203 -0.0849
  778MPD2     H11533   0.668   3.376  15.107 -0.9077 -1.0237  0.5046
  778MPD2    H111534   0.701   3.800  15.164 -2.1366  0.3172  0.9129
  778MPD2    H211535   0.513   3.560  15.455 -2.1682 -2.3361 -1.5681
  778MPD2    H311536   0.609   3.767  15.398 -0.7816  0.8333 -1.5983
  778MPD2     N11537   0.753   3.595  14.995 -0.7846 -0.2455  0.2677
  778MPD2    H511538   0.783   3.508  14.953 -1.1271 -0.6689  0.9113
  778MPD2    N111539   0.531   3.319  15.318  0.5403  0.1710 -0.2386
  778MPD2    H711540   0.526   3.255  15.240 -0.4904 -1.1091  0.8802
  779MPD2     C11541   4.329   1.985  14.540 -0.1496  0.6330  0.3541
  779MPD2    C111542   4.454   1.986  14.491 -0.1384  0.1183  1.1949
  779MPD2    C211543   4.510   2.114  14.476 -0.1787 -0.6604  0.0030
  779MPD2    C311544   4.433   2.225  14.486  1.0674 -0.3908  0.5556
  779MPD2    C411545   4.294   2.219  14.509  0.2592 -0.3812 -0.2997
  779MPD2    C511546   4.243   2.094  14.538 -0.7663  0.1005 -0.0743
  779MPD2     H11547   4.617   2.117  14.461 -0.0381 -0.2166  1.0773
  779MPD2    H111548   4.227   2.302  14.524  2.9538  2.0388 -1.7214
  779MPD2    H211549   4.295   1.887  14.571  3.4389 -0.0934  1.9621
  779MPD2    H311550   4.139   2.074  14.561 -0.1394 -0.2874  2.3820
  779MPD2     N11551   4.497   2.350  14.471  0.3381 -0.1591  0.4255
  779MPD2    H511552   4.596   2.364  14.456  0.9474 -4.6331  0.4322
  779MPD2    N111553   4.527   1.875  14.478  0.1033 -1.0859 -0.3098
  779MPD2    H711554   4.613   1.902  14.431 -1.1669 -1.5601 -2.8822
  780MPD2     C11555   0.673   2.074   1.431 -0.2486  0.1505  0.6891
  780MPD2    C111556   0.569   2.040   1.346 -0.2453 -0.5163  0.3002
  780MPD2    C211557   0.558   2.081   1.214 -0.4145 -0.3070 -0.1248
  780MPD2    C311558   0.643   2.178   1.166 -0.3443  1.3273 -0.2109
  780MPD2    C411559   0.747   2.215   1.254 -0.9548  0.3826  0.3790
  780MPD2    C511560   0.770   2.160   1.377  0.2724 -0.0338  0.6656
  780MPD2     H11561   0.477   2.047   1.151  1.1408 -0.2262 -2.1735
  780MPD2    H111562   0.822   2.283   1.214  1.1763 -1.5661  1.0495
  780MPD2    H211563   0.683   2.045   1.535 -1.9291 -2.2608  0.1701
  780MPD2    H311564   0.854   2.181   1.441  1.1907  0.9398 -0.8622
  780MPD2     N11565   0.636   2.208   1.028 -0.4456 -0.3963 -0.1536
  780MPD2    H511566   0.564   2.158   0.977 -0.0069 -1.3028  0.1175
  780MPD2    N111567   0.481   1.948   1.402  0.3236  0.3865 -0.3000
  780MPD2    H711568   0.500   1.930   1.500  1.2493  0.5362 -0.4577
  781MPD2     C11569   1.085   4.517  12.209 -0.0533 -0.2535 -0.2959
  781MPD2    C111570   1.186   4.467  12.283  0.0063 -0.4281 -0.8716
  781MPD2    C211571   1.313   4.517  12.263 -0.8046 -0.4057  0.1302
  781MPD2    C311572   1.336   4.618  12.173  0.0970  0.0478  0.7200
  781MPD2    C411573   1.233   4.667  12.101 -1.3103  0.4176 -0.2173
  781MPD2    C511574   1.108   4.616  12.119  0.0169  0.7984 -0.2594
  781MPD2     H11575   1.389   4.460  12.314  0.9924  1.7341 -0.1372
  781MPD2    H111576   1.243   0.007  12.028 -1.0241 -0.4612 -1.1369
  781MPD2    H211577   0.983   4.483  12.221 -0.8353  1.8135 -1.2362
  781MPD2    H311578   1.027   4.661  12.064  0.4386  1.1532 -0.5852
  781MPD2     N11579   1.461   4.658  12.131 -0.1800 -0.2100  0.1398
  781MPD2    H511580   1.464   4.695  12.037 -2.5398  1.5453  0.7439
  781MPD2    N111581   1.162   4.365  12.382  0.3553 -0.2016  0.0985
  781MPD2    H711582   1.237   4.333  12.442 -2.6978 -1.8508  3.0064
  782MPD2     C11583   4.184   0.638  10.494  0.4973 -0.6723  0.1720
  782MPD2    C111584   4.223   0.536  10.576  0.5852 -0.2881  1.0768
  782MPD2    C211585   4.241   0.560  10.711 -0.4741 -0.0508 -0.1538
  782MPD2    C311586   4.202   0.687  10.758 -0.1420 -0.0601  0.2839
  782MPD2    C411587   4.158   0.787  10.671  0.1975  0.2567 -0.4202
  782MPD2    C511588   4.158   0.765  10.538  0.0928  0.1593  0.4990
  782MPD2     H11589   4.285   0.482  10.772  3.4242  1.0790 -1.5341
  782MPD2    H111590   4.113   0.876  10.713  0.0543 -0.0909  0.1752
  782MPD2    H211591   4.193   0.628  10.387  1.5409  2.5155 -0.0419
  782MPD2    H311592   4.113   0.836  10.469 -2.2976 -0.1796  1.7189
  782MPD2     N11593   4.196   0.718  10.893  0.1662 -0.0382  0.0371
  782MPD2    H511594   4.148   0.805  10.913 -2.4446 -1.5086  0.0835
  782MPD2    N111595   4.253   0.413  10.522  0.1462 -0.0142 -0.0471
  782MPD2    H711596   4.230   0.333  10.580 -2.7882  0.1805 -0.9371
  783MPD2     C11597   3.844   4.701  11.046 -0.7538 -0.0241 -0.3855
  783MPD2    C111598   3.957   0.033  11.077 -0.1583 -0.2125  0.0102
  783MPD2    C211599   4.049   0.069  10.982 -0.0543  0.4764  0.1924
  783MPD2    C311600   4.012   0.052  10.848 -0.0496 -0.2146  0.5932
  783MPD2    C411601   3.891   4.733  10.818  0.3271 -0.3445 -0.4101
  783MPD2    C511602   3.807   4.693  10.916  0.7487  0.0442  0.0075
  783MPD2     H11603   4.143   0.115  11.008  0.9414 -0.4554 -1.7859
  783MPD2    H111604   3.858   4.719  10.715 -1.5199  0.8277  0.0202
  783MPD2    H211605   3.783   4.657  11.124 -0.6379  0.6858  0.1106
  783MPD2    H311606   3.721   4.631  10.895 -0.5915  2.5514 -1.8837
  783MPD2     N11607   4.099   0.079  10.743  0.0012  0.0524  0.9775
  783MPD2    H511608   4.193   0.104  10.772 -0.1184  0.3176  1.1332
  783MPD2    N111609   3.986   0.056  11.212 -0.4306 -0.2507  0.0303
  783MPD2    H711610   3.929   4.737  11.273 -1.7963  1.0305 -0.0261
  784MPD2     C11611   2.633   4.696   0.533 -0.3854 -0.0725  0.2880
  784MPD2    C111612   2.580   0.039   0.623 -0.5251  0.0459  0.1586
  784MPD2    C211613   2.465   0.114   0.599 -0.0437  0.1654 -0.5049
  784MPD2    C311614   2.396   0.103   0.483  0.4693  1.1566  0.2482
  784MPD2    C411615   2.448   0.023   0.389  0.3929 -0.7034  0.3951
  784MPD2    C511616   2.567   4.696   0.412 -0.0349  0.7912  0.7305
  784MPD2     H11617   2.428   0.186   0.671  4.1142  0.0334  1.7707
  784MPD2    H111618   2.417   0.011   0.286 -0.6060  0.6738  0.5363
  784MPD2    H211619   2.726   4.642   0.548 -1.0937 -0.6194  2.8353
  784MPD2    H311620   2.610   4.636   0.332 -0.4550  0.4058  0.7921
  784MPD2     N11621   2.298   0.200   0.451 -0.1375 -0.0396  0.1907
  784MPD2    H511622   2.273   0.259   0.530  1.3293 -1.0869  1.4169
  784MPD2    N111623   2.643   0.062   0.742  0.3620 -0.8654  0.3512
  784MPD2    H711624   2.602   0.138   0.794  1.4700  1.2894 -1.9272
  785MPD2     C11625   2.420   4.231  11.427 -1.1254 -0.0501  0.1319
  785MPD2    C111626   2.302   4.293  11.448 -0.0381  0.5724 -0.6958
  785MPD2    C211627   2.190   4.218  11.452 -0.4297 -0.4806  0.3548
  785MPD2    C311628   2.201   4.078  11.471  0.0623 -0.5721  0.0239
  785MPD2    C411629   2.320   4.017  11.483  0.3795  0.0802 -0.2751
  785MPD2    C511630   2.439   4.097  11.451 -0.6156 -1.1655 -0.0859
  785MPD2     H11631   2.094   4.267  11.439 -0.3274 -0.0128  1.3471
  785MPD2    H111632   2.330   3.909  11.490  0.4840  0.1375  0.4178
  785MPD2    H211633   2.511   4.284  11.402  0.5318 -4.8866 -4.0030
  785MPD2    H311634   2.541   4.060  11.449  0.3964  1.6749  0.4191
  785MPD2     N11635   2.077   4.015  11.496 -0.7571 -0.1997 -0.2815
  785MPD2    H511636   1.999   4.079  11.503  0.0642  0.9731 -1.7330
  785MPD2    N111637   2.281   4.432  11.435  0.4133  0.1801 -0.2259
  785MPD2    H711638   2.183   4.456  11.446  0.3110 -0.0842 -0.5424
  786MPD2     C11639   0.638   1.698  14.825 -0.5100  0.0664  0.1773
  786MPD2    C111640   0.647   1.568  14.888 -0.5774 -0.1183  0.0889
  786MPD2    C211641   0.717   1.547  15.006 -0.8262  0.1993 -0.1121
  786MPD2    C311642   0.797   1.647  15.051 -0.4937 -0.2764 -0.4415
  786MPD2    C411643   0.813   1.767  14.979 -0.0295 -0.1383  0.3261
  786MPD2    C511644   0.733   1.784  14.865  0.5714  0.0342  0.4035
  786MPD2     H11645   0.718   1.446  15.047  1.9253 -0.1433 -1.0455
  786MPD2    H111646   0.886   1.841  15.010 -0.2231  0.7682 -1.3241
  786MPD2    H211647   0.582   1.718  14.734 -0.5137 -0.4661  0.0621
  786MPD2    H311648   0.753   1.876  14.812 -0.6733  0.5928  0.9053
  786MPD2     N11649   0.877   1.640  15.170 -0.3699  0.1244  0.4673
  786MPD2    H511650   0.943   1.716  15.182 -0.5179  0.3943 -0.4881
  786MPD2    N111651   0.566   1.454  14.848  0.3924  0.2901  0.2131
  786MPD2    H711652   0.596   1.371  14.898 -1.7610 -0.9793 -0.6149
  787MPD2     C11653   0.872   0.822  14.882  0.8028  0.7092  0.2772
  787MPD2    C111654   0.875   0.907  14.771 -0.1524  0.0491  0.9119
  787MPD2    C211655   0.990   0.912  14.693 -0.1378  0.6227 -0.8273
  787MPD2    C311656   1.103   0.840  14.727  0.5426 -0.2113  0.1368
  787MPD2    C411657   1.107   0.763  14.850  0.5549 -0.5281 -0.4070
  787MPD2    C511658   0.989   0.757  14.924  0.8625 -0.4522  0.2587
  787MPD2     H11659   0.988   0.961  14.597 -2.5291 -1.9948 -2.1207
  787MPD2    H111660   1.198   0.719  14.890 -0.6769 -1.3475  1.4719
  787MPD2    H211661   0.783   0.803  14.942  1.9581  1.7129  2.3161
  787MPD2    H311662   0.986   0.696  15.014  1.2987 -1.4736 -0.4208
  787MPD2     N11663   1.214   0.864  14.648  0.5537  0.1890  0.1848
  787MPD2    H511664   1.204   0.884  14.550  1.7835 -0.0492  0.0067
  787MPD2    N111665   0.763   0.968  14.723 -0.2529  0.9670  0.7062
  787MPD2    H711666   0.765   1.001  14.627  0.1013 -1.4040 -0.0970
  788MPD2     C11667   3.151   0.358   0.998  0.3958 -0.2140 -0.2272
  788MPD2    C111668   3.147   0.239   0.936 -0.7152  0.1649 -0.1742
  788MPD2    C211669   3.090   0.221   0.810 -0.4225  0.1848  0.2617
  788MPD2    C311670   3.021   0.325   0.745 -0.3637  0.3432  0.4517
  788MPD2    C411671   3.008   0.443   0.819  0.0428  0.1916  0.3947
  788MPD2    C511672   3.081   0.463   0.938  0.0830  0.7066  0.0684
  788MPD2     H11673   3.092   0.121   0.769  0.8964  0.4279 -0.2519
  788MPD2    H111674   2.948   0.524   0.778 -1.8064 -2.9148 -2.9713
  788MPD2    H211675   3.204   0.375   1.091 -2.2335 -1.1605  1.4556
  788MPD2    H311676   3.079   0.562   0.983 -0.4804  0.5340  0.4156
  788MPD2     N11677   2.978   0.314   0.605 -0.3087 -0.0315  0.0384
  788MPD2    H511678   2.955   0.399   0.555  0.0516 -0.3668 -0.6953
  788MPD2    N111679   3.210   0.125   0.997  0.3810  0.6791  0.0162
  788MPD2    H711680   3.214   0.045   0.935 -0.4758  0.3437  0.3815
  789MPD2     C11681   3.324   4.728  17.199  0.3052 -0.1189  0.8003
  789MPD2    C111682   3.319   4.695  17.064  0.7437  0.0113 -0.5161
  789MPD2    C211683   3.256   0.040  16.978 -0.5220 -0.8463  0.2007
  789MPD2    C311684   3.199   0.167  17.017 -0.0348  0.4051 -0.2425
  789MPD2    C411685   3.202   0.199  17.152 -0.9793  0.2964 -0.2444
  789MPD2    C511686   3.267   0.112  17.241 -0.0038 -0.0723 -0.0161
  789MPD2     H11687   3.241   4.737  16.880  1.1550 -0.4371 -0.2180
  789MPD2    H111688   3.165   0.292  17.191 -0.9372  0.1785  0.0778
  789MPD2    H211689   3.373   4.656  17.265 -2.1498 -0.2195  2.4938
  789MPD2    H311690   3.257   0.135  17.346 -0.2189 -0.3478  0.0246
  789MPD2     N11691   3.125   0.252  16.933 -0.5420 -0.0629 -0.0437
  789MPD2    H511692   3.071   0.328  16.973 -1.6499 -0.7878 -0.1756
  789MPD2    N111693   3.375   4.575  17.014 -0.2221  0.1554 -0.2655
  789MPD2    H711694   3.362   4.555  16.916 -0.3518 -0.0117 -0.2139
  790MPD2     C11695   4.130   1.622  13.516 -0.2895  0.1533 -0.3585
  790MPD2    C111696   4.143   1.499  13.575 -0.2863  0.1219 -0.6405
  790MPD2    C211697   4.081   1.388  13.517 -0.1746 -0.4096 -0.4828
  790MPD2    C311698   3.998   1.402  13.408  0.0131  0.1235  0.4592
  790MPD2    C411699   3.986   1.528  13.359 -0.6193 -0.2027 -0.1856
  790MPD2    C511700   4.057   1.639  13.402 -0.2698 -0.0470  0.3049
  790MPD2     H11701   4.108   1.293  13.562  1.8553  1.0718  1.4389
  790MPD2    H111702   3.918   1.543  13.276  0.2996 -0.7725 -1.0491
  790MPD2    H211703   4.158   1.717  13.560 -2.7035  1.8994 -2.5730
  790MPD2    H311704   4.044   1.740  13.363  0.2383 -0.3281 -0.5983
  790MPD2     N11705   3.951   1.284  13.348 -0.6045 -0.0593 -0.6004
  790MPD2    H511706   3.989   1.199  13.389  1.8349  1.2018 -0.2578
  790MPD2    N111707   4.223   1.476  13.695  0.0848 -0.0872  0.9402
  790MPD2    H711708   4.252   1.565  13.732  2.7672 -0.2532 -0.7729
  791MPD2     C11709   3.256   1.225  12.982  0.3559  0.4092  0.3521
  791MPD2    C111710   3.326   1.107  12.972 -0.5271 -0.4441  0.1386
  791MPD2    C211711   3.244   0.992  12.964  0.5742  0.3646  0.1082
  791MPD2    C311712   3.111   0.997  12.966 -0.1685 -0.2043 -0.1606
  791MPD2    C411713   3.047   1.118  12.970 -0.0805 -0.1969  0.6392
  791MPD2    C511714   3.116   1.229  12.968  0.1638  0.2253 -0.0853
  791MPD2     H11715   3.290   0.894  12.958  1.6648  0.9936 -1.8930
  791MPD2    H111716   2.941   1.138  12.974  0.2843  1.6604  0.7144
  791MPD2    H211717   3.309   1.319  12.991  0.2849  0.6666 -1.8330
  791MPD2    H311718   3.068   1.326  12.978  2.4540  1.4237 -0.7256
  791MPD2     N11719   3.043   0.868  12.945 -0.1218  0.2269  0.5671
  791MPD2    H511720   3.101   0.785  12.936  0.6077  0.7402  0.5059
  791MPD2    N111721   3.468   1.107  12.979 -0.0467  0.2553  0.3675
  791MPD2    H711722   3.519   1.195  12.976 -0.7941  0.6415 -0.8745
  792MPD2     C11723   3.895   1.481  11.531 -0.5921  0.0763  0.1359
  792MPD2    C111724   3.859   1.516  11.403 -0.7100  0.3807 -0.0203
  792MPD2    C211725   3.746   1.462  11.360 -0.5094 -0.3884 -0.1871
  792MPD2    C311726   3.667   1.378  11.436 -0.5683 -0.6305 -0.3010
  792MPD2    C411727   3.705   1.342  11.564 -0.7649  0.9375 -0.0319
  792MPD2    C511728   3.817   1.407  11.611 -0.1561  0.1581 -0.3833
  792MPD2     H11729   3.709   1.501  11.266 -0.5696  2.1501  0.8926
  792MPD2    H111730   3.639   1.298  11.638 -0.0658 -1.8662 -1.0867
  792MPD2    H211731   3.979   1.530  11.580 -0.6095 -0.7780  1.0069
  792MPD2    H311732   3.839   1.395  11.717 -0.1246  2.0693 -0.1784
  792MPD2     N11733   3.545   1.328  11.389 -0.1706  0.1594 -0.2754
  792MPD2    H511734   3.484   1.302  11.465  2.0725  0.5674  1.6659
  792MPD2    N111735   3.944   1.595  11.322  0.1618 -0.0185 -0.0161
  792MPD2    H711736   4.030   1.633  11.359 -1.1608  0.0047  2.9715
  793MPD2     C11737   3.121   0.794  10.559 -0.6152 -0.2891  0.2557
  793MPD2    C111738   3.235   0.803  10.635 -0.1281 -0.1803  0.3498
  793MPD2    C211739   3.231   0.878  10.752 -0.1853 -0.3127 -1.0209
  793MPD2    C311740   3.124   0.953  10.787 -0.1688  0.0752  0.6073
  793MPD2    C411741   3.010   0.944  10.711 -0.1856 -0.8868  0.2600
  793MPD2    C511742   3.008   0.861  10.601 -0.0520 -0.5205  0.2298
  793MPD2     H11743   3.320   0.871  10.814 -1.8128  3.6409  1.7545
  793MPD2    H111744   2.914   0.988  10.737 -0.9809 -1.8942 -1.0266
  793MPD2    H211745   3.106   0.753  10.460 -2.1162  1.1334 -0.1208
  793MPD2    H311746   2.913   0.853  10.549 -0.0619 -0.1071  0.1842
  793MPD2     N11747   3.127   1.041  10.901  0.0993  0.1208  1.4109
  793MPD2    H511748   3.040   1.085  10.929 -0.3214  0.9984 -1.2856
  793MPD2    N111749   3.357   0.744  10.601 -0.0593  0.1278  0.5044
  793MPD2    H711750   3.429   0.747  10.672 -0.3228 -0.5205  0.8005
  794MPD2     C11751   4.681   0.369  17.616  0.6412 -0.2112 -0.1374
  794MPD2    C111752   4.581   0.276  17.630 -0.0730  0.4073 -0.0304
  794MPD2    C211753   4.498   0.253  17.522 -0.1271 -0.1806 -0.8465
  794MPD2    C311754   4.504   0.331  17.409 -0.4641  0.1243  1.2304
  794MPD2    C411755   4.597   0.435  17.399 -0.9984 -0.2643  0.3383
  794MPD2    C511756   4.691   0.446  17.499 -0.1714 -0.0413  0.0912
  794MPD2     H11757   4.417   0.181  17.533 -0.8652  0.5085 -1.6880
  794MPD2    H111758   4.602   0.495  17.309 -0.9403 -0.2028  0.3818
  794MPD2    H211759   0.013   0.384  17.696  1.7115  0.8366 -1.2800
  794MPD2    H311760   0.028   0.522  17.486 -0.3184 -0.0181 -0.6398
  794MPD2     N11761   4.412   0.315  17.297  0.2265 -0.1821  0.6062
  794MPD2    H511762   4.426   0.384  17.224  1.4914 -0.8840  0.1846
  794MPD2    N111763   4.564   0.193  17.746 -0.2359 -0.4902 -0.1373
  794MPD2    H711764   4.489   0.124  17.748  0.9663 -1.7494  2.4483
  795MPD2     C11765   1.313   2.887  13.953  0.1794  0.7632  0.1748
  795MPD2    C111766   1.283   2.758  13.907 -0.1402  0.3197  0.3011
  795MPD2    C211767   1.329   2.647  13.977 -0.0831  0.4864 -0.5325
  795MPD2    C311768   1.429   2.660  14.077  0.8126  0.1343 -0.2956
  795MPD2    C411769   1.467   2.787  14.110 -0.7848 -0.0710  0.6044
  795MPD2    C511770   1.411   2.896  14.056 -1.4854  0.5699  0.5662
  795MPD2     H11771   1.319   2.552  13.928  0.3635 -1.8232  3.8354
  795MPD2    H111772   1.539   2.817  14.185 -0.3233  0.8785 -0.2240
  795MPD2    H211773   1.274   2.979  13.910 -0.5248  0.5253  0.3036
  795MPD2    H311774   1.452   2.990  14.090  0.2357 -0.1178  0.3986
  795MPD2     N11775   1.511   2.552  14.119 -0.0797  0.7173  0.2261
  795MPD2    H511776   1.594   2.574  14.174 -0.1463 -1.6908  1.2726
  795MPD2    N111777   1.189   2.734  13.802 -0.3237 -0.1420  0.3185
  795MPD2    H711778   1.169   2.636  13.784 -2.9293  0.7814 -1.7233
  796MPD2     C11779   0.839   3.660  16.240 -0.0177 -0.1087 -0.4313
  796MPD2    C111780   0.959   3.684  16.301  0.2755 -0.2246  0.4421
  796MPD2    C211781   1.036   3.789  16.252 -0.4654  0.2340 -0.1820
  796MPD2    C311782   0.993   3.868  16.148  0.7465 -0.3172  0.3897
  796MPD2    C411783   0.874   3.837  16.084  0.1723  0.3322 -0.7133
  796MPD2    C511784   0.805   3.732  16.131  0.2057 -0.2314 -0.4604
  796MPD2     H11785   1.132   3.808  16.299 -2.1000 -0.7462  3.5839
  796MPD2    H111786   0.839   3.890  15.996  0.4899 -0.9696 -1.6151
  796MPD2    H211787   0.773   3.584  16.281  0.8385  0.5537  2.1461
  796MPD2    H311788   0.713   3.693  16.088 -0.5824 -0.1526  1.1346
  796MPD2     N11789   1.069   3.985  16.107 -0.6640  1.1916 -0.2783
  796MPD2    H511790   1.025   4.046  16.039 -1.2771 -0.8143 -1.6623
  796MPD2    N111791   0.996   3.599  16.403  0.1883 -0.3372  0.2138
  796MPD2    H711792   0.925   3.529  16.426  2.2103 -1.5259  2.8381
  797MPD2     C11793   2.076   3.091   0.161 -0.0581 -0.7501  0.6697
  797MPD2    C111794   2.182   3.153   0.102  0.4765 -0.1135 -0.8299
  797MPD2    C211795   2.173   3.169  17.726  0.2924 -0.8230 -0.0295
  797MPD2    C311796   2.065   3.136  17.654 -0.3473  0.2040  1.1929
  797MPD2    C411797   1.955   3.092  17.719  0.2777  0.5549 -0.4530
  797MPD2    C511798   1.960   3.070   0.095  0.5034  0.0376 -0.2052
  797MPD2     H11799   2.256   3.213  17.672 -1.4759 -0.3091 -2.3529
  797MPD2    H111800   1.864   3.071  17.665  0.1814  0.7805 -0.3793
  797MPD2    H211801   2.072   3.067   0.266  0.0679 -0.9350  0.6315
  797MPD2    H311802   1.870   3.036   0.146  1.6507 -0.1659  1.6855
  797MPD2     N11803   2.075   3.158  17.512 -0.1607 -0.0446 -0.0553
  797MPD2    H511804   2.166   3.188  17.480 -1.4753  2.7192 -1.2300
  797MPD2    N111805   2.297   3.201   0.165 -0.3736 -0.1291 -0.9020
  797MPD2    H711806   2.349   3.274   0.118  1.2433 -1.2889 -0.9021
  798MPD2     C11807   2.625   3.560  17.375 -0.6191  0.1088  0.8125
  798MPD2    C111808   2.548   3.446  17.408 -0.7480 -0.6089 -0.1262
  798MPD2    C211809   2.556   3.401  17.539  0.8755 -0.1658  0.0828
  798MPD2    C311810   2.626   3.474  17.638 -0.1669  0.5073  0.0139
  798MPD2    C411811   2.704   3.588  17.604  0.4123  0.0452 -0.1326
  798MPD2    C511812   2.706   3.630  17.470 -0.5959  0.5063  0.4753
  798MPD2     H11813   2.500   3.317  17.578 -0.2839  0.8013  0.4822
  798MPD2    H111814   2.758   3.648  17.676 -1.0210  0.2236  0.7791
  798MPD2    H211815   2.628   3.598  17.274 -0.1954 -1.0336  0.3983
  798MPD2    H311816   2.753   3.724  17.442 -0.1833  0.8622  2.4184
  798MPD2     N11817   2.609   3.423   0.012 -0.3266 -0.4241  0.4794
  798MPD2    H511818   2.566   3.331   0.020 -1.8556  0.3330  0.9914
  798MPD2    N111819   2.462   3.385  17.311 -0.0305  0.0325  0.3975
  798MPD2    H711820   2.448   3.449  17.233  0.5699 -0.8338 -0.4307
  799MPD2     C11821   0.989   0.250  14.975  0.3978 -0.0340  1.0286
  799MPD2    C111822   0.873   0.202  14.922  0.5966 -0.5601 -0.0640
  799MPD2    C211823   0.795   0.283  14.842 -0.5001 -0.7136 -0.0320
  799MPD2    C311824   0.845   0.404  14.796  0.0011  0.7656  0.3971
  799MPD2    C411825   0.972   0.440  14.838 -0.4701  0.1729  0.3166
  799MPD2    C511826   1.045   0.372  14.934  0.4734  0.4201 -0.3111
  799MPD2     H11827   0.702   0.248  14.801 -0.3785  1.1771 -1.9461
  799MPD2    H111828   1.023   0.527  14.797  2.7943 -1.5329  0.7802
  799MPD2    H211829   1.057   0.193  15.037 -0.4099 -0.5994  1.3948
  799MPD2    H311830   1.145   0.404  14.959  0.4815 -1.3111  1.8630
  799MPD2     N11831   0.777   0.489  14.700 -0.3966  0.4067  0.3343
  799MPD2    H511832   0.815   0.581  14.680  1.0644 -0.1147  0.6777
  799MPD2    N111833   0.831   0.069  14.956  0.0195 -0.5414  0.3963
  799MPD2    H711834   0.738   0.048  14.920 -0.3841  0.1558  1.0192
  800MPD2     C11835   1.053   1.775  14.623 -0.4338  0.3364  0.3490
  800MPD2    C111836   1.179   1.730  14.583  0.1915  0.7065 -0.0235
  800MPD2    C211837   1.190   1.636  14.471  0.4941 -0.5431  0.4386
  800MPD2    C311838   1.075   1.599  14.402 -0.2854  0.0842  0.0880
  800MPD2    C411839   0.951   1.648  14.443  0.0212  0.0044 -1.1418
  800MPD2    C511840   0.946   1.720  14.561  0.1148  0.1172 -0.0950
  800MPD2     H11841   1.272   1.567  14.456 -0.2310 -1.3684  0.2610
  800MPD2    H111842   0.858   1.624  14.393 -1.7436  2.3357  1.0138
  800MPD2    H211843   1.031   1.832  14.712 -1.6534 -0.2738  0.4335
  800MPD2    H311844   0.851   1.765  14.586  0.4587  0.3368  0.7860
  800MPD2     N11845   1.095   1.524  14.286 -0.1970 -0.2289 -0.3048
  800MPD2    H511846   1.190   1.518  14.252  0.4591  3.4213  0.8271
  800MPD2    N111847   1.290   1.789  14.637 -0.0609 -0.4579  0.5855
  800MPD2    H711848   1.274   1.863  14.705  0.8987  1.4617 -1.3089
  801MPD2     C11849   1.502   2.491  14.490  0.3137  0.5412 -0.3633
  801MPD2    C111850   1.423   2.381  14.456  0.2030 -0.0662 -0.0958
  801MPD2    C211851   1.287   2.412  14.421  0.4926  0.0177 -0.6080
  801MPD2    C311852   1.249   2.542  14.411 -0.6104  0.5903 -0.2319
  801MPD2    C411853   1.333   2.649  14.437  0.2154 -0.0656  0.3959
  801MPD2    C511854   1.461   2.621  14.467  0.1772  0.0093 -0.5730
  801MPD2     H11855   1.211   2.338  14.401  0.0515  0.2421  0.2405
  801MPD2    H111856   1.297   2.751  14.440  1.1760  0.2299  1.7462
  801MPD2    H211857   1.604   2.469  14.517  0.5180  1.2021 -0.5933
  801MPD2    H311858   1.527   2.705  14.486 -0.7547  0.8959 -1.2555
  801MPD2     N11859   1.115   2.580  14.403  0.5408 -0.0747  0.1291
  801MPD2    H511860   1.098   2.680  14.413 -0.1539 -0.1147 -0.6728
  801MPD2    N111861   1.469   2.250  14.473  0.0222  0.2848 -0.3941
  801MPD2    H711862   1.398   2.181  14.451 -1.1828  1.3405  0.2438
  802MPD2     C11863   0.642   2.872  17.600 -0.9344  0.8316  0.4282
  802MPD2    C111864   0.752   2.818  17.664  0.5040  0.4008  0.1029
  802MPD2    C211865   0.739   2.683  17.695 -0.2723 -0.2374 -0.1066
  802MPD2    C311866   0.642   2.603  17.638  0.8842 -0.3255  0.6392
  802MPD2    C411867   0.543   2.658  17.564  0.1156 -0.6562  0.7616
  802MPD2    C511868   0.540   2.795  17.545  0.2989  0.4264 -0.1793
  802MPD2     H11869   0.818   2.645   0.003 -0.3676  1.5263  1.0567
  802MPD2    H111870   0.466   2.602  17.513  1.3495 -0.9575 -0.8054
  802MPD2    H211871   0.642   2.979  17.579 -1.2396  1.0298  1.4473
  802MPD2    H311872   0.465   2.838  17.479  0.0815  0.6330  0.2072
  802MPD2     N11873   0.663   2.464  17.653 -0.2230 -0.4970 -0.2484
  802MPD2    H511874   0.744   2.443  17.710  0.0821 -0.8797 -0.8147
  802MPD2    N111875   0.851   2.891  17.729 -0.6066  0.7955 -0.0451
  802MPD2    H711876   0.919   2.840   0.030 -1.1984  0.0840  0.0345
  803MPD2     C11877   1.678   1.121  12.482  0.8433  0.1035  0.5377
  803MPD2    C111878   1.713   1.199  12.587 -0.0802  0.2890 -0.6742
  803MPD2    C211879   1.751   1.130  12.702  0.0453 -0.6208 -0.0507
  803MPD2    C311880   1.745   0.993  12.713  0.2670  0.0219 -0.1284
  803MPD2    C411881   1.725   0.921  12.600  0.3212  0.1307 -0.2334
  803MPD2    C511882   1.674   0.983  12.490  0.2216 -0.0968 -0.4236
  803MPD2     H11883   1.783   1.183  12.791  2.0983 -2.7742  0.4947
  803MPD2    H111884   1.725   0.813  12.612 -1.8275  0.4082  2.3360
  803MPD2    H211885   1.651   1.168  12.389  1.3589 -0.1572  0.2565
  803MPD2    H311886   1.644   0.927  12.402 -0.1479 -1.3873  0.5256
  803MPD2     N11887   1.765   0.932  12.842 -0.1390 -0.6274  0.4828
  803MPD2    H511888   1.763   0.999  12.918 -1.2100 -1.4265  1.1600
  803MPD2    N111889   1.728   1.337  12.576 -0.1369  0.4281  0.3700
  803MPD2    H711890   1.757   1.385  12.661  2.0394  1.7536 -1.1034
  804MPD2     C11891   1.491   2.018  17.124  1.3238  0.0913 -0.4854
  804MPD2    C111892   1.517   1.951  17.236  0.1288 -0.9790  0.4976
  804MPD2    C211893   1.611   2.003  17.330  0.3569  0.2202 -0.4227
  804MPD2    C311894   1.680   2.117  17.296  0.2202  0.4215  0.9624
  804MPD2    C411895   1.648   2.183  17.179  0.7998  0.1567 -0.3085
  804MPD2    C511896   1.555   2.134  17.097 -0.0901 -0.1012 -0.0508
  804MPD2     H11897   1.638   1.958  17.426 -0.9280 -0.7051 -0.5013
  804MPD2    H111898   1.693   2.271  17.133  1.9370 -0.4355 -0.3241
  804MPD2    H211899   1.415   1.982  17.055  1.0212 -0.0105 -0.1059
  804MPD2    H311900   1.545   2.170  16.995 -0.3790 -0.2372 -0.0711
  804MPD2     N11901   1.768   2.178  17.387 -0.7212  0.3831 -0.4394
  804MPD2    H511902   1.790   2.121  17.468  2.3073 -1.4689 -2.5838
  804MPD2    N111903   1.454   1.830  17.271 -0.1467 -1.0319  0.6052
  804MPD2    H711904   1.472   1.798  17.366  0.6538  1.4440  1.2832
  805MPD2     C11905   0.727   0.084  15.759  0.0540  0.3713 -0.1289
  805MPD2    C111906   0.757   0.186  15.676  0.0183 -0.7306 -0.1716
  805MPD2    C211907   0.887   0.225  15.662 -0.0902 -0.0089  0.3978
  805MPD2    C311908   0.992   0.156  15.723  0.4680 -0.7139  0.7377
  805MPD2    C411909   0.959   0.051  15.799  0.1948 -0.5292  0.7224
  805MPD2    C511910   0.825   0.012  15.814  0.4354  0.4407  0.1889
  805MPD2     H11911   0.900   0.296  15.582  0.9284 -0.2628  0.3378
  805MPD2    H111912   1.039   4.732  15.843 -0.2132 -1.6552 -0.0187
  805MPD2    H211913   0.627   0.053  15.789 -0.4421  1.7510 -0.3653
  805MPD2    H311914   0.805   4.665  15.875  0.3619 -1.5591 -2.6666
  805MPD2     N11915   1.123   0.211  15.717 -0.3840 -0.1159 -0.5534
  805MPD2    H511916   1.131   0.303  15.674  3.0693  0.4408  1.2226
  805MPD2    N111917   0.663   0.275  15.611  0.0067  0.0527 -0.0623
  805MPD2    H711918   0.702   0.350  15.554  0.5620 -0.0940  0.1223
  806MPD2     C11919   1.206   4.237   0.551 -0.0069 -0.2851 -0.0657
  806MPD2    C111920   1.325   4.232   0.627  0.2797 -0.5360  0.3278
  806MPD2    C211921   1.440   4.192   0.562 -0.1957  0.6100 -0.5727
  806MPD2    C311922   1.448   4.174   0.423 -0.2875 -0.5349 -0.1464
  806MPD2    C411923   1.331   4.186   0.351 -0.8451  0.8109 -0.7833
  806MPD2    C511924   1.210   4.210   0.412  0.1585  0.3058 -0.0012
  806MPD2     H11925   1.529   4.193   0.623  0.5593 -2.8416 -1.6076
  806MPD2    H111926   1.321   4.184   0.243 -0.0516 -0.4766 -0.8270
  806MPD2    H211927   1.111   4.270   0.590 -1.3276 -1.1151 -2.5510
  806MPD2    H311928   1.121   4.221   0.352  0.7841 -0.3346 -1.0666
  806MPD2     N11929   1.583   4.154   0.377  0.0493  0.5497  0.2410
  806MPD2    H511930   1.647   4.131   0.452 -0.4166 -2.7011 -0.3409
  806MPD2    N111931   1.336   4.286   0.763  0.4252  0.4311  1.2688
  806MPD2    H711932   1.246   4.310   0.803 -0.3495  1.0673 -0.8917
  807MPD2     C11933   1.095   4.318   1.486  0.1749  0.4582 -0.6644
  807MPD2    C111934   1.213   4.391   1.499  0.4487  0.1911  0.0591
  807MPD2    C211935   1.272   4.427   1.619 -0.2273  0.0419 -0.2614
  807MPD2    C311936   1.201   4.398   1.737  0.1909 -0.0257 -0.1371
  807MPD2    C411937   1.085   4.325   1.723  0.0083  0.0082 -0.0346
  807MPD2    C511938   1.038   4.285   1.604 -0.2201  0.5729  0.4144
  807MPD2     H11939   1.356   4.495   1.617 -0.9019  0.8901 -0.2013
  807MPD2    H111940   1.028   4.296   1.811  1.0609  1.1790  1.0314
  807MPD2    H211941   1.050   4.290   1.391 -0.2889 -1.7023  0.2090
  807MPD2    H311942   0.948   4.224   1.600  0.3449 -0.3956  2.5477
  807MPD2     N11943   1.245   4.449   1.857 -0.2872 -0.4786  0.1097
  807MPD2    H511944   1.327   4.508   1.864 -0.6034 -0.0325  0.0286
  807MPD2    N111945   1.285   4.442   1.382 -0.1914 -0.8128  0.4708
  807MPD2    H711946   1.358   4.510   1.399 -0.7679  0.1872 -1.0190
  808MPD2     C11947   0.813   2.008   9.561 -0.6194 -0.0430  0.1440
  808MPD2    C111948   0.798   1.921   9.669 -0.0377  0.5807 -0.3765
  808MPD2    C211949   0.897   1.925   9.764  0.3482  0.7232 -0.4355
  808MPD2    C311950   1.014   2.004   9.756  0.2451  0.0907  0.3743
  808MPD2    C411951   1.021   2.092   9.651  0.1766 -0.2213  0.2574
  808MPD2    C511952   0.914   2.100   9.560 -0.3490  0.2976  0.3129
  808MPD2     H11953   0.873   1.882   9.860  2.3803 -0.0256 -0.2603
  808MPD2    H111954   1.091   2.174   9.646  0.1855 -0.2558 -0.1485
  808MPD2    H211955   0.731   2.024   9.492 -0.2387 -0.2716 -0.3609
  808MPD2    H311956   0.906   2.177   9.484 -1.5367 -0.7789 -0.6438
  808MPD2     N11957   1.122   1.991   9.840  0.1366 -0.1861 -0.3779
  808MPD2    H511958   1.204   2.050   9.834 -0.5989  0.7180 -1.6483
  808MPD2    N111959   0.681   1.844   9.673 -0.6057  0.4491 -0.6533
  808MPD2    H711960   0.621   1.850   9.591 -0.3904  2.8768 -0.6483
  809MPD2     C11961   1.841   2.517  10.166  0.1493 -0.2657 -0.2316
  809MPD2    C111962   1.816   2.457  10.047 -0.2716  0.0082  0.6680
  809MPD2    C211963   1.730   2.351  10.045  0.6556  0.2466 -0.0990
  809MPD2    C311964   1.685   2.294  10.163  0.2643 -0.3062  0.0020
  809MPD2    C411965   1.717   2.353  10.282 -0.0531  0.2161 -0.5863
  809MPD2    C511966   1.802   2.461  10.283 -0.0160  0.2771 -0.1620
  809MPD2     H11967   1.704   2.301   9.953 -0.1733  0.2126  0.1488
  809MPD2    H111968   1.677   2.321  10.377 -1.1521  0.7281 -0.8828
  809MPD2    H211969   1.896   2.609  10.182  2.1930 -1.8069  1.4721
  809MPD2    H311970   1.803   2.518  10.376 -0.2352  0.1727 -0.0958
  809MPD2     N11971   1.586   2.197  10.166 -0.1650  0.1578 -0.4806
  809MPD2    H511972   1.560   2.164  10.259 -1.1274  2.5987  0.0967
  809MPD2    N111973   1.873   2.488   9.923 -0.2413 -0.1591  0.5600
  809MPD2    H711974   1.848   2.429   9.844  1.6210 -1.2151  0.7456
  810MPD2     C11975   0.897   1.423  10.977  0.0104  0.2770  0.2840
  810MPD2    C111976   0.908   1.426  10.840 -0.0363  0.1017 -0.5852
  810MPD2    C211977   0.943   1.548  10.786  0.1090  0.2732 -0.0063
  810MPD2    C311978   0.971   1.660  10.865  0.4616 -0.5189  0.9842
  810MPD2    C411979   0.969   1.651  11.001 -0.7173 -0.1812  0.5499
  810MPD2    C511980   0.928   1.529  11.053 -0.5798 -0.2651 -0.1992
  810MPD2     H11981   0.962   1.556  10.680  2.0450 -1.5925  0.2049
  810MPD2    H111982   0.974   1.738  11.065 -1.2260  0.3870 -0.1757
  810MPD2    H211983   0.871   1.333  11.031  1.3246 -0.8700 -1.0115
  810MPD2    H311984   0.914   1.529  11.161 -1.4404 -0.3979 -0.3141
  810MPD2     N11985   1.016   1.779  10.810 -0.6370 -0.3163  0.6868
  810MPD2    H511986   1.015   1.859  10.873 -3.8424 -0.3891  0.7208
  810MPD2    N111987   0.857   1.319  10.766 -0.0952 -0.4390 -0.3406
  810MPD2    H711988   0.836   1.234  10.819  0.9926 -1.0753 -0.9242
  811MPD2     C11989   0.274   1.290  10.191 -0.4495 -0.2556  0.6204
  811MPD2    C111990   0.379   1.354  10.252  0.3122  0.0354 -0.1931
  811MPD2    C211991   0.397   1.491  10.235  0.5172 -0.4313  0.2217
  811MPD2    C311992   0.294   1.572  10.178  0.3887  0.5325 -0.4531
  811MPD2    C411993   0.183   1.507  10.130 -0.0893  0.0039 -0.3866
  811MPD2    C511994   0.172   1.371  10.139  0.1215 -0.0066 -0.2238
  811MPD2     H11995   0.486   1.535  10.278  0.5767  0.8625 -1.2163
  811MPD2    H111996   0.101   1.560  10.081  0.1087 -0.9074 -1.6826
  811MPD2    H211997   0.241   1.187  10.191  1.5018 -0.8769 -0.1089
  811MPD2    H311998   0.088   1.322  10.090 -1.3476  2.5716 -0.3202
  811MPD2     N11999   0.306   1.709  10.181  0.2618 -0.9639  0.6802
  811MPD2    H512000   0.394   1.747  10.215  0.0217 -0.1888  0.4201
  811MPD2    N112001   0.480   1.286  10.332 -0.1466 -0.1749  0.9216
  811MPD2    H712002   0.547   1.344  10.382 -0.0411 -0.7516  1.4611
  812MPD2     C12003   4.082   0.945  12.416 -0.0510  0.0288 -0.0630
  812MPD2    C112004   4.186   1.035  12.418  0.0210 -0.1073 -0.3695
  812MPD2    C212005   4.306   0.995  12.472  0.2899 -0.0740  0.1015
  812MPD2    C312006   4.326   0.871  12.523 -0.0732 -0.2786  0.5308
  812MPD2    C412007   4.224   0.780  12.523 -0.1039  0.1342  0.0859
  812MPD2    C512008   4.107   0.817  12.461 -0.0838  0.6079 -0.0541
  812MPD2     H12009   4.388   1.065  12.462  2.0914 -2.3176 -0.8208
  812MPD2    H112010   4.234   0.682  12.569  0.8821 -0.7541 -2.0571
  812MPD2    H212011   3.988   0.961  12.364 -0.0453  0.8868  0.1969
  812MPD2    H312012   4.029   0.741  12.462  1.7192 -1.2511 -2.0751
  812MPD2     N12013   4.448   0.837  12.575 -0.2737  0.3925  0.2850
  812MPD2    H512014   4.527   0.900  12.568  0.9963 -1.0936  0.9388
  812MPD2    N112015   4.157   1.174  12.374  0.3521  0.4029 -0.8090
  812MPD2    H712016   4.060   1.199  12.355  0.1350 -0.6117 -1.0191
  813MPD2     C12017   3.786   2.435  12.973  0.3242 -0.2035 -0.2520
  813MPD2    C112018   3.766   2.570  12.969 -0.6806 -0.2058 -0.6584
  813MPD2    C212019   3.645   2.627  13.008  0.0684 -0.3443  0.0265
  813MPD2    C312020   3.546   2.552  13.064  0.8093  0.1296 -0.4998
  813MPD2    C412021   3.571   2.415  13.075 -0.2019  0.0619  0.4084
  813MPD2    C512022   3.694   2.362  13.043  0.5502  0.4180  0.2257
  813MPD2     H12023   3.619   2.732  13.002 -0.8222 -0.4475  2.1064
  813MPD2    H112024   3.503   2.345  13.122  0.7333 -0.0141  1.6486
  813MPD2    H212025   3.878   2.386  12.944  0.4819  0.0933 -0.2569
  813MPD2    H312026   3.714   2.256  13.056 -2.2395 -0.2617 -1.0948
  813MPD2     N12027   3.428   2.614  13.111  0.1294 -0.3247  0.0920
  813MPD2    H512028   3.408   2.711  13.091  1.0202 -0.2953 -0.6750
  813MPD2    N112029   3.875   2.651  12.920 -0.1715 -0.3394  0.2413
  813MPD2    H712030   3.951   2.589  12.894 -0.5579 -0.2614 -1.0839
  814MPD2     C12031   3.804   4.020  12.464 -0.3416 -0.3236  0.2624
  814MPD2    C112032   3.883   4.087  12.370 -0.0119 -0.0078  0.0945
  814MPD2    C212033   3.971   4.184  12.411  0.3625 -0.2531 -0.1068
  814MPD2    C312034   3.977   4.211  12.546  0.2911 -0.5947 -0.7040
  814MPD2    C412035   3.890   4.150  12.638  0.8149  0.4491 -0.0597
  814MPD2    C512036   3.804   4.054  12.598 -0.6722  0.3068 -0.6404
  814MPD2     H12037   4.042   4.212  12.334  1.2857 -0.5719  0.6253
  814MPD2    H112038   3.903   4.176  12.742 -3.0284 -0.2793  0.6088
  814MPD2    H212039   3.738   3.937  12.441  0.0430 -0.9388  1.3923
  814MPD2    H312040   3.733   4.010  12.668 -0.1361  0.9692  0.3295
  814MPD2     N12041   4.083   4.297  12.596 -0.0689  0.2389 -0.0398
  814MPD2    H512042   4.078   4.313  12.696 -2.1488 -1.7147  0.1603
  814MPD2    N112043   3.889   4.052  12.235 -0.3803  0.8646  0.5111
  814MPD2    H712044   3.941   4.111  12.171 -0.3248  0.0702 -0.1703
  815MPD2     C12045   0.129   2.969  11.654  0.3122  0.1549  0.3853
  815MPD2    C112046   0.148   2.835  11.651 -0.8605 -0.4669  0.1488
  815MPD2    C212047   0.132   2.751  11.764 -0.0487  0.4781 -0.2636
  815MPD2    C312048   0.089   2.814  11.880  0.1344 -0.0954 -0.5809
  815MPD2    C412049   0.065   2.949  11.880  0.5132 -0.0023  0.3697
  815MPD2    C512050   0.093   3.024  11.772 -0.7114 -0.9402 -0.3268
  815MPD2     H12051   0.145   2.644  11.755 -1.8810  0.0591  2.3404
  815MPD2    H112052   0.033   3.007  11.966  2.0414 -0.1037  1.0028
  815MPD2    H212053   0.156   3.034  11.571  0.9978 -0.0858  0.4189
  815MPD2    H312054   0.079   3.131  11.778  1.0888 -0.7225  0.1584
  815MPD2     N12055   0.057   2.730  11.987  0.0072 -0.4929 -0.2729
  815MPD2    H512056   0.075   2.632  11.972 -0.1858 -0.6680  0.6656
  815MPD2    N112057   0.190   2.789  11.528  0.2919 -0.1064 -0.2050
  815MPD2    H712058   0.204   2.855  11.452 -0.4102 -1.0000 -1.1027
  816MPD2     C12059   0.566   1.366  17.466 -0.1968 -0.0747 -0.7639
  816MPD2    C112060   0.507   1.429  17.350  0.3086 -0.4111  0.3805
  816MPD2    C212061   0.551   1.390  17.222 -0.1227  0.2402 -0.2305
  816MPD2    C312062   0.657   1.299  17.209 -0.4286  0.5412  0.5328
  816MPD2    C412063   0.714   1.247  17.319  0.3324 -0.4298 -0.4400
  816MPD2    C512064   0.663   1.275  17.449  0.5843 -0.6995 -0.3827
  816MPD2     H12065   0.502   1.425  17.132 -1.0564  0.1445  0.2346
  816MPD2    H112066   0.794   1.174  17.323  0.7400 -0.0262 -1.2244
  816MPD2    H212067   0.538   1.383  17.569  0.9017 -1.1810 -0.2777
  816MPD2    H312068   0.710   1.221  17.530 -1.5281 -2.3655 -0.2652
  816MPD2     N12069   0.687   1.251  17.079  0.3441 -0.7829  0.4606
  816MPD2    H512070   0.624   1.277  17.004 -0.5338 -0.5930  1.2681
  816MPD2    N112071   0.398   1.509  17.375 -0.2562  0.0162  0.1055
  816MPD2    H712072   0.387   1.537  17.472 -0.7150  0.8272 -0.1833
  817MPD2     C12073   3.843   4.012  10.101 -0.1581 -0.1561  0.2664
  817MPD2    C112074   3.815   3.943   9.985 -0.4033 -0.2310 -0.4283
  817MPD2    C212075   3.699   3.971   9.917 -0.7130  0.3954  0.0285
  817MPD2    C312076   3.607   4.060   9.967 -0.1775  0.7250  0.2138
  817MPD2    C412077   3.630   4.125  10.085  0.7749  0.0695 -0.3172
  817MPD2    C512078   3.746   4.099  10.149 -0.3285  0.3102  0.6555
  817MPD2     H12079   3.671   3.927   9.822 -1.2626 -0.4686  0.5857
  817MPD2    H112080   3.555   4.187  10.133  2.0497  0.9031  0.6295
  817MPD2    H212081   3.929   3.997  10.164  1.2651  1.5467 -1.2546
  817MPD2    H312082   3.766   4.144  10.245 -2.1560  0.0938  1.1365
  817MPD2     N12083   3.500   4.087   9.883  0.2097  0.7406  0.6739
  817MPD2    H512084   3.518   4.060   9.787  1.2083  1.2575  0.7142
  817MPD2    N112085   3.905   3.847   9.929 -0.0078  0.3555  0.2825
  817MPD2    H712086   3.880   3.811   9.837  0.5950 -0.1979  0.3343
  818MPD2     C12087   3.102   3.608  10.353 -1.0495  0.2306  0.5003
  818MPD2    C112088   2.994   3.563  10.432 -0.3329 -0.6629 -0.1579
  818MPD2    C212089   2.906   3.468  10.376  0.6039  0.2935  0.2629
  818MPD2    C312090   2.917   3.440  10.241  0.4267  0.9997 -0.3953
  818MPD2    C412091   3.017   3.502  10.161 -0.2246 -0.0509  0.3256
  818MPD2    C512092   3.113   3.578  10.219 -1.2692  0.3461 -0.2840
  818MPD2     H12093   2.829   3.422  10.436  0.5788  0.3280  0.2572
  818MPD2    H112094   3.029   3.481  10.056 -1.1226 -2.1561  0.6503
  818MPD2    H212095   3.171   3.681  10.394  1.0048 -1.1257 -0.5731
  818MPD2    H312096   3.199   3.611  10.162  0.1656 -3.0800 -0.1356
  818MPD2     N12097   2.832   3.346  10.171  0.2563 -0.5391  0.0863
  818MPD2    H512098   2.859   3.334  10.074  1.2540  0.0247  0.2961
  818MPD2    N112099   2.975   3.605  10.566  0.1789 -0.2673 -0.3182
  818MPD2    H712100   2.912   3.543  10.616  0.9070 -0.2640  0.5844
  819MPD2     C12101   1.613   0.135  15.514 -0.1729 -0.4313  0.0146
  819MPD2    C112102   1.581   0.033  15.603  0.5913 -0.0367 -0.0542
  819MPD2    C212103   1.669   0.007  15.708  0.3374 -0.1482  1.0810
  819MPD2    C312104   1.790   0.074  15.713 -0.5515  0.3321 -0.5650
  819MPD2    C412105   1.819   0.175  15.629 -0.0016 -0.4717  0.6539
  819MPD2    C512106   1.725   0.217  15.537  0.3637 -0.4902 -0.6868
  819MPD2     H12107   1.652   4.674  15.786  1.0949 -1.0022  0.4540
  819MPD2    H112108   1.916   0.224  15.627 -0.6225  0.6588 -1.5963
  819MPD2    H212109   1.538   0.158  15.439 -0.8346 -0.5648  0.6438
  819MPD2    H312110   1.747   0.307  15.481  1.3307 -0.6533 -0.5782
  819MPD2     N12111   1.876   0.023  15.806 -0.1040 -0.2231 -0.1465
  819MPD2    H512112   1.837   4.687  15.862  2.1326  0.7117  2.6527
  819MPD2    N112113   1.462   4.696  15.582 -0.4725 -0.4130  0.1795
  819MPD2    H712114   1.412   4.712  15.494 -1.4269 -1.0706  0.6003
  820MPD2     C12115   0.523   4.572  15.201  0.0020 -0.1485  0.0365
  820MPD2    C112116   0.609   4.673  15.235 -0.5628  0.7118 -0.4471
  820MPD2    C212117   0.732   4.650  15.289  0.1435 -0.2397 -0.2822
  820MPD2    C312118   0.772   4.518  15.320  0.4243  0.3111  0.1718
  820MPD2    C412119   0.691   4.417  15.282 -0.2516  0.7372  0.0094
  820MPD2    C512120   0.570   4.439  15.219  0.0906 -0.4102 -0.2973
  820MPD2     H12121   0.800   4.731  15.312 -0.5505  0.5484 -0.9982
  820MPD2    H112122   0.717   4.312  15.297 -1.4967  0.2476 -1.2538
  820MPD2    H212123   0.428   4.581  15.150 -0.0882  0.3899  0.3048
  820MPD2    H312124   0.506   4.359  15.184  2.4699 -1.9050 -1.2290
  820MPD2     N12125   0.893   4.479  15.393 -0.2116  1.2540 -0.0764
  820MPD2    H512126   0.900   4.382  15.424  0.7135  1.3855  0.1104
  820MPD2    N112127   0.557   0.063  15.216  0.4961 -0.0385  0.4099
  820MPD2    H712128   0.462   0.068  15.181 -0.0670  0.9798  2.0399
  821MPD2     C12129   1.155   1.799  13.537 -0.0643 -0.1752 -0.3270
  821MPD2    C112130   1.264   1.754  13.611  0.3416  0.2748  0.2570
  821MPD2    C212131   1.387   1.811  13.589  0.7195 -0.0420  0.1161
  821MPD2    C312132   1.401   1.917  13.500  0.2197 -0.7931  0.2603
  821MPD2    C412133   1.289   1.968  13.436  0.5564 -0.4499  0.2180
  821MPD2    C512134   1.168   1.908  13.454  0.0272  0.5298 -0.6863
  821MPD2     H12135   1.471   1.777  13.649  0.6923 -2.5105 -1.2273
  821MPD2    H112136   1.298   2.050  13.365 -0.9985  0.0550  0.6101
  821MPD2    H212137   1.059   1.749  13.538  0.3138 -0.9096 -1.5723
  821MPD2    H312138   1.084   1.957  13.408  1.3959  1.5531 -2.0869
  821MPD2     N12139   1.526   1.982  13.484 -0.4561 -0.0663 -0.4726
  821MPD2    H512140   1.528   2.064  13.425 -1.2433  0.6920  0.5556
  821MPD2    N112141   1.254   1.654  13.702  0.2137 -0.5735 -0.0895
  821MPD2    H712142   1.346   1.632  13.739 -0.2641 -2.8452 -0.2291
  822MPD2     C12143   2.146   1.513  15.608 -0.2095 -0.2710  0.3616
  822MPD2    C112144   2.157   1.477  15.742 -0.1586 -0.2746 -0.4460
  822MPD2    C212145   2.105   1.548  15.844 -0.4925 -0.1258 -0.2004
  822MPD2    C312146   2.039   1.670  15.823 -0.2741  0.4900  0.0678
  822MPD2    C412147   2.024   1.711  15.689  0.2355  0.4524  0.7759
  822MPD2    C512148   2.076   1.630  15.585 -0.4804  0.3747 -0.0369
  822MPD2     H12149   2.108   1.509  15.945  1.6872 -0.2149 -0.3066
  822MPD2    H112150   1.985   1.809  15.663 -1.5708  0.1785  2.4960
  822MPD2    H212151   2.184   1.457  15.524 -0.6922 -1.7946  1.1658
  822MPD2    H312152   2.054   1.670  15.487  2.3903  1.5556 -0.2052
  822MPD2     N12153   2.002   1.752  15.932  0.0029 -0.3207 -0.5201
  822MPD2    H512154   2.004   1.704  16.022  0.5242 -2.1969 -1.5284
  822MPD2    N112155   2.248   1.367  15.777  0.8951 -0.4277 -0.2748
  822MPD2    H712156   2.249   1.360  15.878  1.5585  0.1093 -0.2468
  823MPD2     C12157   1.578   1.901  16.688  0.1381 -0.7889  0.1032
  823MPD2    C112158   1.646   1.833  16.587 -0.0670  0.3266 -0.4723
  823MPD2    C212159   1.716   1.714  16.616 -0.8849 -0.0176 -0.5293
  823MPD2    C312160   1.702   1.651  16.736  0.1049  0.3603 -0.1791
  823MPD2    C412161   1.607   1.707  16.821 -0.0501  0.4722 -0.7436
  823MPD2    C512162   1.551   1.830  16.801  0.6317  0.0095 -0.1825
  823MPD2     H12163   1.775   1.667  16.538  0.6197 -0.1002  0.6586
  823MPD2    H112164   1.590   1.654  16.914  1.8900 -0.8010 -1.1125
  823MPD2    H212165   1.533   1.998  16.671 -1.8903 -1.4086  1.9744
  823MPD2    H312166   1.486   1.878  16.873  0.5171  1.2113 -1.0831
  823MPD2     N12167   1.769   1.539  16.777 -0.1998  0.0019 -0.2323
  823MPD2    H512168   1.743   1.507  16.870  2.4275 -0.5652  0.2922
  823MPD2    N112169   1.652   1.889  16.455  0.1190  0.6491 -0.1006
  823MPD2    H712170   1.647   1.990  16.457 -0.3098  0.6815 -2.1925
  824MPD2     C12171   2.446   0.544  15.663 -0.0146  0.0860  0.1359
  824MPD2    C112172   2.546   0.624  15.713  0.6759 -0.3705 -0.0478
  824MPD2    C212173   2.671   0.573  15.724  0.2602 -0.2316  0.0003
  824MPD2    C312174   2.705   0.443  15.683 -0.3722  0.9100  0.0571
  824MPD2    C412175   2.605   0.367  15.634 -0.1439  0.1147  0.3865
  824MPD2    C512176   2.479   0.416  15.623  0.0286  0.3680  0.2241
  824MPD2     H12177   2.753   0.634  15.761 -1.1387  1.0189  1.0746
  824MPD2    H112178   2.632   0.264  15.615 -1.3708 -0.6824  2.9610
  824MPD2    H212179   2.344   0.581  15.658 -0.0099  0.4346  2.4915
  824MPD2    H312180   2.396   0.364  15.576  1.4091 -0.1167 -1.7019
  824MPD2     N12181   2.833   0.403  15.702  0.3434 -0.4197 -0.1711
  824MPD2    H512182   2.896   0.475  15.736 -0.7305 -0.6460  2.2629
  824MPD2    N112183   2.531   0.756  15.764 -0.4847 -0.0372 -0.6474
  824MPD2    H712184   2.608   0.799  15.815 -2.3124  1.9240  0.4734
  825MPD2     C12185   3.536   0.518  15.280 -0.0499  0.0764 -0.6378
  825MPD2    C112186   3.427   0.578  15.336  0.2625  0.2069 -0.9435
  825MPD2    C212187   3.392   0.697  15.286 -0.2726  0.7673  0.1197
  825MPD2    C312188   3.443   0.754  15.174  0.5382 -0.3044  0.0060
  825MPD2    C412189   3.545   0.686  15.110 -0.2916  0.7068  0.1015
  825MPD2    C512190   3.595   0.568  15.168  0.0100  0.6921  0.0575
  825MPD2     H12191   3.308   0.744  15.334  2.2268  1.7554  3.5207
  825MPD2    H112192   3.615   0.733  15.042  0.6210 -0.1891  0.4126
  825MPD2    H212193   3.588   0.435  15.326 -0.6718  0.8928  1.5359
  825MPD2    H312194   3.677   0.518  15.118 -1.3221  0.1029 -1.5265
  825MPD2     N12195   3.406   0.887  15.128  0.5196 -0.5471 -0.6698
  825MPD2    H512196   3.439   0.927  15.041  0.4044 -0.5046 -0.6938
  825MPD2    N112197   3.371   0.504  15.443  0.1564  0.1019 -0.4610
  825MPD2    H712198   3.418   0.417  15.468 -1.7860 -0.7094  0.3716
  826MPD2     C12199   2.425   0.595  13.655  0.0092 -0.6484  0.2850
  826MPD2    C112200   2.457   0.728  13.686  0.0555  0.2054  0.0851
  826MPD2    C212201   2.355   0.813  13.730 -0.8129 -0.1274  0.3624
  826MPD2    C312202   2.226   0.767  13.750 -0.4518 -0.1756  0.3224
  826MPD2    C412203   2.197   0.633  13.728 -0.3205  0.8050 -1.3155
  826MPD2    C512204   2.297   0.554  13.680 -0.8626  0.3669  0.4700
  826MPD2     H12205   2.378   0.917  13.752 -1.1628  0.2234 -0.9104
  826MPD2    H112206   2.095   0.597  13.737 -0.4947  1.5570 -0.3727
  826MPD2    H212207   2.494   0.515  13.632  0.7318 -0.3618  1.4325
  826MPD2    H312208   2.277   0.451  13.653 -0.3418  0.4006 -0.0400
  826MPD2     N12209   2.122   0.856  13.779 -0.2526 -0.3977  0.4958
  826MPD2    H512210   2.029   0.821  13.802 -0.8980  1.2958  0.4491
  826MPD2    N112211   2.584   0.768  13.659 -0.1796 -0.1487  0.5509
  826MPD2    H712212   2.647   0.694  13.629  0.8003  0.6796  0.5656
  827MPD2     C12213   3.451   2.433  10.685  0.4550 -0.7797  0.2000
  827MPD2    C112214   3.557   2.409  10.611  0.4629  0.4599  0.7278
  827MPD2    C212215   3.533   2.392  10.473  0.4230 -0.5709  0.0385
  827MPD2    C312216   3.420   2.430  10.415 -0.9995  0.3259  0.7949
  827MPD2    C412217   3.321   2.478  10.494  0.4013 -0.3284 -0.7280
  827MPD2    C512218   3.335   2.479  10.626 -0.2653  0.4670  0.2577
  827MPD2     H12219   3.610   2.346  10.413 -1.8036 -2.7010 -1.1649
  827MPD2    H112220   3.224   2.503  10.450  0.6128  0.7143 -0.6143
  827MPD2    H212221   3.470   2.428  10.792  0.6323  1.2803  0.2631
  827MPD2    H312222   3.255   2.517  10.689  0.6093  4.1013 -0.8389
  827MPD2     N12223   3.415   2.414  10.276  0.1981  0.3283  0.7939
  827MPD2    H512224   3.496   2.376  10.229 -1.2698 -2.5414  0.5673
  827MPD2    N112225   3.686   2.398  10.664 -0.3862  0.1329  0.0794
  827MPD2    H712226   3.695   2.389  10.765  3.4413 -0.5242 -0.3157
  828MPD2     C12227   1.683   2.225  12.970 -0.8379 -0.4661  0.7267
  828MPD2    C112228   1.599   2.223  12.861  0.1753 -0.1497  0.0821
  828MPD2    C212229   1.663   2.180  12.742  0.3563  0.7487 -0.1729
  828MPD2    C312230   1.799   2.171  12.724  1.1115  0.2479 -0.4077
  828MPD2    C412231   1.879   2.193  12.835 -0.1990  0.1826 -0.7113
  828MPD2    C512232   1.823   2.226  12.956  0.1835  0.8576 -0.3563
  828MPD2     H12233   1.590   2.163  12.663 -0.4613  1.1604  0.4996
  828MPD2    H112234   1.988   2.194  12.832 -0.2456  1.6926 -1.9746
  828MPD2    H212235   1.643   2.243  13.069 -0.8478 -0.8041  0.7871
  828MPD2    H312236   1.888   2.245  13.041  0.4239  0.1976 -0.3892
  828MPD2     N12237   1.857   2.130  12.602 -0.3762  0.1884  0.0305
  828MPD2    H512238   1.957   2.112  12.604 -0.3181  0.0844 -3.7108
  828MPD2    N112239   1.455   2.216  12.864  0.1607 -0.0166  0.6275
  828MPD2    H712240   1.407   2.196  12.776 -0.2815  0.1307  0.8355
  829MPD2     C12241   0.987   2.435  12.197 -0.0538  0.2089 -0.1051
  829MPD2    C112242   0.882   2.441  12.283  0.1055 -0.4825 -0.1757
  829MPD2    C212243   0.909   2.404  12.413 -0.2961 -0.3285 -0.1714
  829MPD2    C312244   1.037   2.373  12.453  0.2962 -0.1854  0.2149
  829MPD2    C412245   1.144   2.370  12.366  0.8836  0.3600 -0.1201
  829MPD2    C512246   1.114   2.400  12.238 -0.0415 -0.0577  0.1006
  829MPD2     H12247   0.829   2.413  12.485 -0.2339 -0.7669 -0.0457
  829MPD2    H112248   1.245   2.340  12.391  0.0799 -1.9925  0.3036
  829MPD2    H212249   0.975   2.450  12.090 -3.7565  1.0482  0.4374
  829MPD2    H312250   1.196   2.405  12.166  1.4563  0.4506  1.8449
  829MPD2     N12251   1.073   2.324  12.581 -0.0923 -0.8592 -0.4468
  829MPD2    H512252   1.167   2.290  12.595 -0.1578 -0.3164  1.3551
  829MPD2    N112253   0.762   2.486  12.227  0.0865 -0.7689 -0.0851
  829MPD2    H712254   0.770   2.520  12.131  0.1554 -1.6380 -0.3835
  830MPD2     C12255   2.642   4.550  15.861 -0.8788  0.1173 -0.1361
  830MPD2    C112256   2.512   4.575  15.817  1.1999 -0.4472 -1.1126
  830MPD2    C212257   2.494   4.643  15.696  0.2641 -0.7822 -0.6004
  830MPD2    C312258   2.601   4.673  15.617  0.8457 -0.0772  0.2476
  830MPD2    C412259   2.725   4.636  15.659 -0.4057 -0.4138  0.5748
  830MPD2    C512260   2.742   4.577  15.779 -0.4027 -0.1781 -0.4526
  830MPD2     H12261   2.396   4.677  15.665  1.7007  2.9461 -1.0125
  830MPD2    H112262   2.817   4.672  15.614  0.3821 -1.3978  1.4075
  830MPD2    H212263   2.660   4.490  15.950  0.2775  1.5393  0.5810
  830MPD2    H312264   2.841   4.548  15.813 -0.6301 -1.2345 -0.7022
  830MPD2     N12265   2.593   4.735  15.493  0.4493 -0.2819 -0.1223
  830MPD2    H512266   2.678   0.024  15.444 -0.5318  0.0349 -1.6406
  830MPD2    N112267   2.391   4.524  15.882  0.5326  0.3014  0.3311
  830MPD2    H712268   2.396   4.484  15.975  1.2649  0.2124  0.2563
  831MPD2     C12269   2.237   1.801  16.307  0.2701  0.5127  0.5787
  831MPD2    C112270   2.233   1.704  16.211 -0.3509  0.5554  0.8612
  831MPD2    C212271   2.132   1.610  16.222  0.0450  0.3165  0.7285
  831MPD2    C312272   2.040   1.613  16.321  0.4467  0.0999  0.1300
  831MPD2    C412273   2.055   1.705  16.418  0.0419 -0.1397 -0.2400
  831MPD2    C512274   2.146   1.802  16.405  0.2365 -0.2461 -0.1201
  831MPD2     H12275   2.121   1.533  16.147  0.9822  0.5310  0.3751
  831MPD2    H112276   1.983   1.717  16.499 -1.7305 -2.0895 -1.5454
  831MPD2    H212277   2.303   1.886  16.303  1.9536 -0.8271  0.1822
  831MPD2    H312278   2.150   1.882  16.478 -0.7782  1.4893 -2.0024
  831MPD2     N12279   1.923   1.530  16.307  0.4103 -0.2345  0.5569
  831MPD2    H512280   1.878   1.510  16.396 -0.5980  1.4506  0.4219
  831MPD2    N112281   2.330   1.712  16.100  0.4331 -0.0330 -0.5447
  831MPD2    H712282   2.390   1.791  16.079 -0.9550  1.1248 -0.1987
  832MPD2     C12283   0.726   2.463  17.312  0.8305 -0.2965  0.2324
  832MPD2    C112284   0.727   2.598  17.276 -0.0543  0.0436  0.0480
  832MPD2    C212285   0.631   2.642  17.193 -0.2206  0.8876 -0.1768
  832MPD2    C312286   0.518   2.564  17.164  0.3323  0.0551  0.0973
  832MPD2    C412287   0.522   2.431  17.191 -0.4721 -0.2312  0.8898
  832MPD2    C512288   0.626   2.382  17.263 -1.0100  0.5415 -0.1514
  832MPD2     H12289   0.631   2.750  17.176 -1.6598  0.7178 -1.2550
  832MPD2    H112290   0.459   2.354  17.147  0.5191  0.4640 -1.7516
  832MPD2    H212291   0.797   2.430  17.387  0.4555 -0.2967  0.5873
  832MPD2    H312292   0.634   2.276  17.280  2.4808  0.6032 -1.2732
  832MPD2     N12293   0.398   2.613  17.098 -0.4216 -0.2514  0.7176
  832MPD2    H512294   0.320   2.548  17.094 -1.1453  0.7414 -0.8553
  832MPD2    N112295   0.836   2.674  17.322  0.0455 -0.2014  0.0210
  832MPD2    H712296   0.917   2.618  17.345  0.8185  0.3042 -1.4375
  833MPD2     C12297   2.426   0.049  12.979 -0.6002 -0.1754 -0.9520
  833MPD2    C112298   2.381   0.153  12.899 -0.7434 -0.1990 -0.5200
  833MPD2    C212299   2.467   0.205  12.805 -0.1869  0.5487 -0.1708
  833MPD2    C312300   2.599   0.169  12.789 -0.6714 -0.6234 -0.4405
  833MPD2    C412301   2.641   0.066  12.869  0.3258  0.9105 -0.1793
  833MPD2    C512302   2.555   0.004  12.964 -0.1793 -0.3417 -0.1913
  833MPD2     H12303   2.424   0.283  12.743  0.2229  0.0076 -1.1256
  833MPD2    H112304   2.742   0.027  12.869  0.3480  0.9801  2.1471
  833MPD2    H212305   2.372   0.021  13.068  2.1028  0.9009  1.0445
  833MPD2    H312306   2.609   4.670  13.023  0.3570  1.1355  1.1599
  833MPD2     N12307   2.690   0.228  12.696 -0.0936 -0.1412  0.2508
  833MPD2    H512308   2.782   0.187  12.687 -0.6882 -1.6265  0.9359
  833MPD2    N112309   2.247   0.197  12.905 -0.2265 -0.1633  0.7054
  833MPD2    H712310   2.214   0.257  12.831  2.4893  0.8974  0.3392
  834MPD2     C12311   3.108   0.047  11.912  0.0889 -0.0284 -0.6155
  834MPD2    C112312   2.985   4.736  11.959 -0.0171 -0.0940  1.4093
  834MPD2    C212313   2.924   0.065  12.062  0.0267  0.7579  0.3454
  834MPD2    C312314   2.987   0.178  12.120  0.1956 -0.0850 -0.0843
  834MPD2    C412315   3.112   0.214  12.068  0.3254 -0.4891  1.4077
  834MPD2    C512316   3.174   0.154  11.963 -0.1321 -0.4677  0.5544
  834MPD2     H12317   2.827   0.030  12.095 -0.6392  0.6649 -1.7073
  834MPD2    H112318   3.170   0.296  12.109  0.1224  1.6750 -2.5696
  834MPD2    H212319   3.166   4.730  11.839  2.2410  0.0008  1.0607
  834MPD2    H312320   3.274   0.186  11.935 -0.6764  1.0730  0.3605
  834MPD2     N12321   2.925   0.238  12.235  0.6229  0.5892 -0.0198
  834MPD2    H512322   2.856   0.183  12.286  1.3414  0.7008  1.0717
  834MPD2    N112323   2.929   4.631  11.888  0.4921  0.0744 -0.0777
  834MPD2    H712324   2.991   4.593  11.818 -1.2820  0.1236 -1.6705
  835MPD2     C12325   2.772   2.593  11.319  0.0368 -0.5525  0.3874
  835MPD2    C112326   2.661   2.627  11.388 -0.8204  0.6856 -0.0177
  835MPD2    C212327   2.627   2.561  11.506  0.3420  0.4179 -0.1819
  835MPD2    C312328   2.707   2.454  11.558  0.4863 -0.3061 -0.1433
  835MPD2    C412329   2.826   2.431  11.498  0.5740 -0.3064  0.0663
  835MPD2    C512330   2.854   2.501  11.380 -0.0388  0.5803  0.0591
  835MPD2     H12331   2.542   2.599  11.560 -1.4312 -2.4955 -0.9602
  835MPD2    H112332   2.898   2.358  11.533  0.7509 -0.0610  0.2094
  835MPD2    H212333   2.814   2.643  11.233  0.3666 -2.6096 -0.6546
  835MPD2    H312334   2.952   2.489  11.335 -0.6883 -0.1405 -1.1776
  835MPD2     N12335   2.660   2.367  11.656  0.7165 -0.0845  0.6006
  835MPD2    H512336   2.726   2.302  11.696  0.6925  0.0750  0.8987
  835MPD2    N112337   2.584   2.735  11.336 -0.1563 -0.0065 -0.3044
  835MPD2    H712338   2.589   2.775  11.243 -0.9821  2.0184  0.5400
  836MPD2     C12339   1.909   2.400  11.905 -0.9294  0.2295 -0.8712
  836MPD2    C112340   1.998   2.394  12.014 -0.4846 -0.2128  0.0055
  836MPD2    C212341   1.950   2.434  12.140  0.3603 -0.1613 -0.0331
  836MPD2    C312342   1.821   2.464  12.156  0.0859 -0.2352 -0.0145
  836MPD2    C412343   1.736   2.470  12.052  1.1609  0.5658 -0.0122
  836MPD2    C512344   1.778   2.430  11.931 -0.4343  0.2154  0.1782
  836MPD2     H12345   2.014   2.423  12.227 -0.5758 -0.1467  0.6540
  836MPD2    H112346   1.629   2.482  12.066  1.0685 -1.4761  0.9801
  836MPD2    H212347   1.939   2.366  11.807  1.2377  0.3017 -0.2408
  836MPD2    H312348   1.710   2.420  11.847  0.8002  1.5738 -1.0030
  836MPD2     N12349   1.760   2.484  12.278  0.8324  0.2533 -0.0815
  836MPD2    H512350   1.663   2.515  12.280  1.5034  2.4549 -2.0813
  836MPD2    N112351   2.132   2.365  11.985 -0.5916 -0.1938  0.2911
  836MPD2    H712352   2.149   2.342  11.887  0.2090  0.4988  0.2746
  837MPD2     C12353   0.813   2.301  10.123 -0.6044  0.1737 -0.6814
  837MPD2    C112354   0.703   2.332  10.204 -0.0986 -0.2739  0.2186
  837MPD2    C212355   0.678   2.465  10.230 -0.4288  0.3650  0.5300
  837MPD2    C312356   0.775   2.560  10.210  0.2911  0.2125  0.2831
  837MPD2    C412357   0.895   2.525  10.154 -0.1566 -0.3512  0.5121
  837MPD2    C512358   0.912   2.396  10.111 -0.4357  0.4754 -0.0691
  837MPD2     H12359   0.585   2.499  10.273 -1.9595 -2.4525 -0.5771
  837MPD2    H112360   0.965   2.601  10.121  0.3447 -0.7623  0.6251
  837MPD2    H212361   0.838   2.199  10.095 -0.6169 -0.2152  0.6832
  837MPD2    H312362   1.009   2.375  10.069 -0.2986  2.0040 -0.5201
  837MPD2     N12363   0.739   2.690  10.251  0.4883  0.7452  0.0686
  837MPD2    H512364   0.648   2.698  10.295  0.2974 -1.3565  0.0698
  837MPD2    N112365   0.593   2.239  10.217  0.3860 -0.2945  0.4644
  837MPD2    H712366   0.507   2.256  10.267  1.2584 -0.0772  1.8870
  838MPD2     C12367   3.684   0.130  11.970 -0.0449 -0.0882 -0.7726
  838MPD2    C112368   3.644   0.151  12.101  0.5327  0.0344  0.9686
  838MPD2    C212369   3.525   0.105  12.154 -0.1972  0.1230  0.0536
  838MPD2    C312370   3.450   0.009  12.079 -0.1491  0.3417 -0.5355
  838MPD2    C412371   3.494   4.714  11.954  0.3020 -0.5024  0.5321
  838MPD2    C512372   3.602   0.040  11.898  0.3972 -0.3048 -0.8920
  838MPD2     H12373   3.501   0.129  12.257 -0.1957 -2.0133  0.5544
  838MPD2    H112374   3.449   4.639  11.890 -0.5210 -0.1847  0.7463
  838MPD2    H212375   3.769   0.181  11.926 -1.3088  2.6422 -0.0636
  838MPD2    H312376   3.644   0.012  11.803 -0.6917 -1.8518 -0.9311
  838MPD2     N12377   3.344   4.683  12.148  0.4675  0.4819 -0.1223
  838MPD2    H512378   3.320   4.727  12.236 -0.7006 -2.9600  1.2597
  838MPD2    N112379   3.721   0.228  12.188  0.2853 -0.1123  0.0088
  838MPD2    H712380   3.675   0.259  12.273  0.1792  0.9225 -0.4308
  839MPD2     C12381   3.569   4.224  12.086  0.0675 -0.4076  0.4608
  839MPD2    C112382   3.596   4.276  11.960 -0.0137 -0.3319  0.4173
  839MPD2    C212383   3.697   4.376  11.948  0.1246 -0.4288  0.1068
  839MPD2    C312384   3.746   4.426  12.070 -0.4386  0.7335  0.0131
  839MPD2    C412385   3.706   4.374  12.189  0.2290 -0.4192  0.4085
  839MPD2    C512386   3.625   4.266  12.203 -0.0482  0.0097  0.2517
  839MPD2     H12387   3.746   4.402  11.856 -0.1296  0.7691  0.3090
  839MPD2    H112388   3.754   4.406  12.281  0.7843  1.0577 -0.3885
  839MPD2    H212389   3.497   4.145  12.104  1.8181 -2.2960 -0.8655
  839MPD2    H312390   3.597   4.219  12.297  1.4935  0.2842  0.8463
  839MPD2     N12391   3.833   4.535  12.069 -0.3130  0.1818  0.7954
  839MPD2    H512392   3.864   4.561  12.162 -0.6421  0.0932  0.9303
  839MPD2    N112393   3.546   4.226  11.838 -0.0522  0.3159 -0.0509
  839MPD2    H712394   3.587   4.253  11.750 -0.8891 -0.2448 -0.6141
  840MPD2     C12395   4.299   2.777  10.464  0.2792 -0.1704  0.8528
  840MPD2    C112396   4.308   2.719  10.586 -0.3199  0.2053 -0.3960
  840MPD2    C212397   4.370   2.778  10.698 -0.3095 -0.7288  0.4320
  840MPD2    C312398   4.423   2.902  10.689 -0.5451 -0.0801 -0.6475
  840MPD2    C412399   4.416   2.965  10.562  0.1220  0.0370 -0.1328
  840MPD2    C512400   4.357   2.899  10.457  0.8332 -0.1275 -0.2484
  840MPD2     H12401   4.372   2.729  10.794  1.9497 -1.3369  0.0694
  840MPD2    H112402   4.449   3.067  10.544 -1.2461 -0.0880 -3.3584
  840MPD2    H212403   4.265   2.726  10.375 -0.1691  3.8171 -1.2342
  840MPD2    H312404   4.362   2.951  10.362  2.0828 -0.3509 -0.3121
  840MPD2     N12405   4.488   2.972  10.789 -0.2299  0.0401 -0.0138
  840MPD2    H512406   4.509   3.068  10.763  1.8233 -0.7380 -1.2222
  840MPD2    N112407   4.261   2.586  10.590  0.1375  0.2605 -0.0050
  840MPD2    H712408   4.234   2.544  10.502  0.5281 -0.0574  0.0278
  841MPD2     C12409   3.544   2.413  15.285  0.4365 -0.3700  0.6450
  841MPD2    C112410   3.602   2.293  15.319 -0.1176 -0.3499  0.0090
  841MPD2    C212411   3.741   2.291  15.334 -0.0352  0.0030 -0.6513
  841MPD2    C312412   3.817   2.404  15.326  0.5022 -1.0060  0.0377
  841MPD2    C412413   3.749   2.526  15.303 -0.5146 -1.1074  0.0243
  841MPD2    C512414   3.619   2.522  15.275 -1.0703  0.5942  1.1758
  841MPD2     H12415   3.785   2.193  15.347 -2.5758 -0.9306  0.8444
  841MPD2    H112416   3.802   2.621  15.303 -0.7942 -0.9487 -0.7616
  841MPD2    H212417   3.438   2.417  15.263  0.2930 -0.3968  1.3409
  841MPD2    H312418   3.587   2.615  15.230  1.5826  1.2141  0.5468
  841MPD2     N12419   3.958   2.391  15.336 -0.2942 -0.0357  0.3540
  841MPD2    H512420   3.995   2.298  15.353 -0.8353 -0.3895 -0.4170
  841MPD2    N112421   3.539   2.175  15.333 -0.1063 -0.5238  0.6989
  841MPD2    H712422   3.589   2.101  15.381  0.4738 -0.4979  0.1282
  842MPD2     C12423   0.075   3.219  16.916  0.4375  0.1236  0.0526
  842MPD2    C112424   4.737   3.112  16.969  0.4695 -0.6402  0.3134
  842MPD2    C212425   0.039   3.038  17.076 -0.2258 -0.3615  0.0795
  842MPD2    C312426   0.165   3.066  17.123 -0.4926  0.0972 -0.6702
  842MPD2    C412427   0.248   3.154  17.061  0.5829  0.7324  0.7254
  842MPD2    C512428   0.205   3.230  16.955 -0.2172 -0.5387 -0.4941
  842MPD2     H12429   4.734   2.941  17.094  0.6200 -0.8240 -0.3385
  842MPD2    H112430   0.349   3.168  17.098  0.6207 -3.0030  2.0063
  842MPD2    H212431   0.051   3.263  16.820 -0.7705  3.4910  1.9089
  842MPD2    H312432   0.276   3.287  16.897 -0.0860 -1.7847 -1.5761
  842MPD2     N12433   0.214   3.007  17.240 -0.3169  0.1417 -0.2658
  842MPD2    H512434   0.311   3.033  17.259 -1.7698  3.2908  2.9163
  842MPD2    N112435   4.614   3.092  16.900  0.1189  0.5786  0.2792
  842MPD2    H712436   4.597   3.162  16.829 -1.2756 -1.1033 -1.0297
  843MPD2     C12437   1.994   3.649  17.373 -0.2114 -0.3130  0.4376
  843MPD2    C112438   2.028   3.625  17.507 -0.1405  0.4361  0.4574
  843MPD2    C212439   2.151   3.664  17.555  0.4771  0.0044 -0.5601
  843MPD2    C312440   2.245   3.731  17.477  0.3733  0.1123 -0.1803
  843MPD2    C412441   2.216   3.743  17.344  0.8280  0.2042 -0.3871
  843MPD2    C512442   2.094   3.713  17.296  0.0096 -0.7590  0.0707
  843MPD2     H12443   2.162   3.646  17.661 -0.9689 -0.1599 -0.4424
  843MPD2    H112444   2.283   3.804  17.283  1.5007 -0.3564 -0.2101
  843MPD2    H212445   1.905   3.613  17.323 -0.5830  2.2169 -0.7316
  843MPD2    H312446   2.068   3.742  17.194  0.8156  0.3191  0.1688
  843MPD2     N12447   2.369   3.776  17.525 -0.7793 -0.2929 -0.8165
  843MPD2    H512448   2.432   3.829  17.467  0.1938 -0.0811  0.4330
  843MPD2    N112449   1.926   3.554  17.575  0.2198  0.2676  0.0419
  843MPD2    H712450   1.838   3.544  17.527  0.0872  1.9648 -0.0965
  844MPD2     C12451   0.610   2.108  16.816  0.6112 -0.2374  0.0509
  844MPD2    C112452   0.606   2.201  16.711  0.3297 -0.0693  0.1267
  844MPD2    C212453   0.638   2.330  16.731  0.2183  0.3295  0.4500
  844MPD2    C312454   0.689   2.367  16.851 -0.0426 -1.4696  0.7275
  844MPD2    C412455   0.694   2.278  16.955 -0.6338  0.4610  0.4850
  844MPD2    C512456   0.656   2.152  16.933  0.2151  0.3260 -0.1059
  844MPD2     H12457   0.626   2.397  16.647  0.2510 -2.1028 -1.4845
  844MPD2    H112458   0.737   2.297  17.053 -0.6137 -0.4631  0.6530
  844MPD2    H212459   0.579   2.005  16.813 -0.9269  0.3281 -3.6523
  844MPD2    H312460   0.645   2.089  17.020  1.2620 -2.1145 -1.7443
  844MPD2     N12461   0.754   2.489  16.871 -0.7416 -0.1588  0.5225
  844MPD2    H512462   0.807   2.489  16.957 -1.7027  0.6495  1.1169
  844MPD2    N112463   0.567   2.169  16.578  0.1316 -0.2784  0.3891
  844MPD2    H712464   0.573   2.244  16.510  0.6335  0.6116  1.3987
  845MPD2     C12465   0.759   3.478  16.927 -0.0778  0.0245  0.0657
  845MPD2    C112466   0.772   3.407  17.042 -0.2731  0.8812 -0.2752
  845MPD2    C212467   0.778   3.264  17.035  0.4745  0.0497 -0.5892
  845MPD2    C312468   0.763   3.200  16.913 -0.7313  0.4364 -0.5694
  845MPD2    C412469   0.739   3.277  16.799 -0.3270  0.0426  0.0492
  845MPD2    C512470   0.747   3.417  16.807 -0.3703  0.3121  0.1063
  845MPD2     H12471   0.799   3.202  17.122 -2.2958  0.1959  0.1782
  845MPD2    H112472   0.718   3.236  16.701  1.2251 -0.0165 -0.2575
  845MPD2    H212473   0.762   3.587  16.923 -1.1205  0.0231 -0.7593
  845MPD2    H312474   0.725   3.471  16.715  1.2447  2.1104  0.7694
  845MPD2     N12475   0.798   3.060  16.896 -0.3665  0.4362  0.9096
  845MPD2    H512476   0.774   3.008  16.812  0.2032  0.1563  0.9166
  845MPD2    N112477   0.781   3.471  17.161 -0.9257  0.2201 -0.1754
  845MPD2    H712478   0.786   3.572  17.161  1.2738  0.1028  0.8977
  846MPD2     C12479   1.770   4.170  13.859 -0.5375  0.5370 -0.2457
  846MPD2    C112480   1.637   4.192  13.903 -0.6343 -0.6613  0.0523
  846MPD2    C212481   1.610   4.184  14.040 -0.0318 -0.1029 -0.3412
  846MPD2    C312482   1.701   4.151  14.132 -0.5373  0.3967  0.3551
  846MPD2    C412483   1.829   4.131  14.086  0.3830  0.4311 -0.6412
  846MPD2    C512484   1.863   4.145  13.950  0.1031 -0.4843 -0.1752
  846MPD2     H12485   1.507   4.200  14.068 -0.5866 -2.2664 -1.1693
  846MPD2    H112486   1.909   4.103  14.154 -1.0347  0.8974  1.1955
  846MPD2    H212487   1.796   4.196  13.757 -2.1370  1.6449 -0.3546
  846MPD2    H312488   1.966   4.123  13.921 -0.0986 -0.4473 -0.9204
  846MPD2     N12489   1.654   4.119  14.265 -0.0951  0.1104 -0.2358
  846MPD2    H512490   1.553   4.107  14.277 -0.3795  1.6495 -1.0874
  846MPD2    N112491   1.539   4.247  13.814  0.2899 -0.2194 -0.5603
  846MPD2    H712492   1.460   4.300  13.848 -0.8943 -0.9426 -2.1577
  847MPD2     C12493   2.379   0.101  14.353  0.3789 -0.5579  0.4810
  847MPD2    C112494   2.503   0.135  14.384 -0.4993  0.3762  0.2651
  847MPD2    C212495   2.593   0.038  14.430  0.0553 -0.1032  0.3162
  847MPD2    C312496   2.550   4.648  14.447  0.4025  0.0421 -1.3057
  847MPD2    C412497   2.415   4.615  14.423  0.1615  0.1096 -0.4482
  847MPD2    C512498   2.333   4.714  14.386 -0.5500  0.2677 -0.6516
  847MPD2     H12499   2.694   0.070  14.450  0.3470  0.9109 -2.7990
  847MPD2    H112500   2.378   4.514  14.434 -1.7403  1.0604  1.7822
  847MPD2    H212501   2.303   0.172  14.323  1.2920  0.4970  0.6421
  847MPD2    H312502   2.228   4.695  14.363 -0.7772 -0.0300  0.6333
  847MPD2     N12503   2.644   4.555  14.505 -0.0012 -0.3686 -0.2701
  847MPD2    H512504   2.734   4.595  14.529 -1.6772  3.4870 -0.4441
  847MPD2    N112505   2.555   0.264  14.377 -0.1805  0.4707  0.2126
  847MPD2    H712506   2.654   0.273  14.401 -0.1544  1.3231 -0.2302
  848MPD2     C12507   0.036   3.005  16.475 -0.1059 -0.3999  0.6260
  848MPD2    C112508   0.107   3.021  16.590 -0.0661  0.9639 -0.2872
  848MPD2    C212509   0.191   3.131  16.593 -0.2175 -0.3489  0.0557
  848MPD2    C312510   0.178   3.239  16.504  0.6161  0.2518  0.1072
  848MPD2    C412511   0.087   3.226  16.404 -0.1778 -0.7637  0.3845
  848MPD2    C512512   0.030   3.103  16.381  0.4548  0.5614 -1.2891
  848MPD2     H12513   0.261   3.124  16.676  0.2196  2.2858 -0.0897
  848MPD2    H112514   0.093   3.305  16.330  1.0324  1.4035  2.7718
  848MPD2    H212515   4.719   2.916  16.449 -2.7786  1.5977 -0.4416
  848MPD2    H312516   4.723   3.084  16.285 -2.2698 -0.1305  0.1996
  848MPD2     N12517   0.236   3.368  16.526 -0.1416 -0.3042 -0.4493
  848MPD2    H512518   0.205   3.446  16.468 -0.6814 -0.4891 -0.4064
  848MPD2    N112519   0.116   2.929  16.695 -0.1357  0.7630 -0.0474
  848MPD2    H712520   0.178   2.955  16.770 -0.7505  0.8574  0.4280
  849MPD2     C12521   4.066   2.849  13.825 -0.5952 -0.3935 -0.3493
  849MPD2    C112522   4.149   2.750  13.863  0.5949  0.4950 -0.1207
  849MPD2    C212523   4.099   2.640  13.928 -0.4985 -0.5012 -1.0033
  849MPD2    C312524   3.964   2.638  13.964  0.7127  0.1156 -0.0916
  849MPD2    C412525   3.880   2.748  13.955  0.0619  0.5317  0.3549
  849MPD2    C512526   3.934   2.851  13.875  0.0248  0.6771  0.6723
  849MPD2     H12527   4.155   2.548  13.937 -2.3382 -1.5286 -0.1424
  849MPD2    H112528   3.778   2.744  13.991 -0.4237 -2.6167 -1.3967
  849MPD2    H212529   4.099   2.934  13.766  0.2014 -1.1578 -0.9910
  849MPD2    H312530   3.866   2.932  13.851 -0.3725  0.4086  0.8989
  849MPD2     N12531   3.915   2.516  14.008 -0.4525 -0.4078  0.4754
  849MPD2    H512532   3.974   2.434  14.005  0.1586 -0.0320  2.0061
  849MPD2    N112533   4.289   2.773  13.851  0.6669  0.5892 -0.6057
  849MPD2    H712534   4.318   2.846  13.788 -0.8222  0.1480 -1.7947
  850MPD2     C12535   2.040   0.599  14.874 -0.0484 -0.0916  0.1033
  850MPD2    C112536   2.030   0.738  14.891 -0.0563  0.0724  0.2316
  850MPD2    C212537   2.145   0.812  14.904  0.2923 -0.6055 -0.2742
  850MPD2    C312538   2.275   0.753  14.894 -0.9628  0.7318  0.0078
  850MPD2    C412539   2.283   0.615  14.872  0.0388 -0.1158  0.0623
  850MPD2    C512540   2.166   0.541  14.869 -0.5967  0.0790  0.0665
  850MPD2     H12541   2.134   0.919  14.918 -3.1105 -0.7493 -1.7973
  850MPD2    H112542   2.378   0.563  14.867 -1.2898 -2.6497  0.7237
  850MPD2    H212543   1.952   0.536  14.874 -0.4454  0.4371 -2.6562
  850MPD2    H312544   2.179   0.434  14.857  0.4738  0.0596  1.4363
  850MPD2     N12545   2.393   0.824  14.907 -0.1022  0.1171  0.5750
  850MPD2    H512546   2.476   0.780  14.868  0.9498  3.1863 -0.6580
  850MPD2    N112547   1.903   0.794  14.890  0.2670  0.7737  0.3250
  850MPD2    H712548   1.833   0.730  14.855 -0.2798  1.5240  0.0521
  851MPD2     C12549   2.479   0.961  15.368 -0.1550  0.0033 -0.4280
  851MPD2    C112550   2.375   0.889  15.320 -0.1137  0.9911  0.7695
  851MPD2    C212551   2.391   0.757  15.274  0.2773  0.3598  1.0871
  851MPD2    C312552   2.506   0.692  15.301  0.2443 -0.2889 -0.2049
  851MPD2    C412553   2.610   0.759  15.369 -0.2072 -0.3476  0.0947
  851MPD2    C512554   2.596   0.895  15.398  0.1369 -0.4438  0.3364
  851MPD2     H12555   2.308   0.714  15.218  0.8824 -2.2676  2.2274
  851MPD2    H112556   2.696   0.702  15.400 -1.0275 -0.1981  2.6587
  851MPD2    H212557   2.477   1.066  15.395  0.9798 -0.4044  1.2087
  851MPD2    H312558   2.688   0.944  15.425 -0.5069  0.1433  1.4459
  851MPD2     N12559   2.500   0.554  15.271  0.0558 -0.8119 -0.1882
  851MPD2    H512560   2.416   0.512  15.234  0.6500 -0.6548 -1.6975
  851MPD2    N112561   2.251   0.953  15.307 -0.0978  0.2733 -0.3823
  851MPD2    H712562   2.246   1.054  15.308 -0.4018  0.2439  1.7898
  852MPD2     C12563   1.478   3.953  10.931 -0.7473  0.1943  1.1989
  852MPD2    C112564   1.605   3.931  10.971  0.2400  0.1176  0.4923
  852MPD2    C212565   1.704   3.938  10.879 -0.0103  0.1196 -0.1412
  852MPD2    C312566   1.682   3.978  10.748  0.4356  0.8401  0.1397
  852MPD2    C412567   1.552   3.999  10.706 -0.7365 -0.9055  0.1836
  852MPD2    C512568   1.447   3.980  10.796  0.2694  0.2805 -0.4080
  852MPD2     H12569   1.805   3.929  10.915  0.3441  0.4578 -1.0428
  852MPD2    H112570   1.526   4.020  10.603  1.6620 -1.8726 -0.6196
  852MPD2    H212571   1.396   3.951  11.002 -2.3996  0.5707 -0.6938
  852MPD2    H312572   1.343   3.981  10.767  0.3612  0.7868 -0.7129
  852MPD2     N12573   1.794   4.015  10.672 -0.1566  0.2886 -0.0147
  852MPD2    H512574   1.881   4.015  10.725  0.8731 -0.6209 -1.6684
  852MPD2    N112575   1.630   3.903  11.105  0.4069 -0.7546 -0.1211
  852MPD2    H712576   1.551   3.914  11.168  0.3040 -0.1187 -0.3533
  853MPD2     C12577   3.525   3.382  12.394  0.5346  1.1306 -0.5585
  853MPD2    C112578   3.414   3.398  12.315 -0.4240  0.1606 -0.3610
  853MPD2    C212579   3.436   3.403  12.177 -0.3990 -0.9807 -0.1047
  853MPD2    C312580   3.560   3.398  12.119  0.0575 -0.2493 -0.1509
  853MPD2    C412581   3.666   3.386  12.201 -0.0796 -0.2245 -0.4300
  853MPD2    C512582   3.648   3.373  12.333  0.6952 -0.4041  0.4771
  853MPD2     H12583   3.348   3.405  12.114 -0.8981 -1.9576  0.5623
  853MPD2    H112584   3.768   3.394  12.164 -0.1123 -0.0176 -0.4720
  853MPD2    H212585   3.536   3.376  12.501 -0.8715  0.1169 -0.4706
  853MPD2    H312586   3.739   3.360  12.389  1.1426 -1.1223 -0.4043
  853MPD2     N12587   3.587   3.405  11.982 -0.0678  0.1223  0.1378
  853MPD2    H512588   3.684   3.412  11.955 -0.0887  1.6150  0.4344
  853MPD2    N112589   3.292   3.407  12.376  0.6630 -0.0962  0.1550
  853MPD2    H712590   3.300   3.406  12.477 -1.5436 -0.7486  0.3373
  854MPD2     C12591   0.312   3.453  12.694 -0.1735 -0.0618  0.9858
  854MPD2    C112592   0.346   3.527  12.807  0.0649  0.3584  0.2425
  854MPD2    C212593   0.459   3.491  12.878 -0.0866 -0.7994 -0.1007
  854MPD2    C312594   0.543   3.393  12.820 -0.5314 -0.1333 -0.1025
  854MPD2    C412595   0.503   3.328  12.705  0.4151 -0.0211  0.0698
  854MPD2    C512596   0.394   3.360  12.634  0.0207 -0.8645 -0.5197
  854MPD2     H12597   0.489   3.541  12.969  1.8428 -0.8241 -0.7203
  854MPD2    H112598   0.565   3.248  12.665  0.9729  0.3284  0.2377
  854MPD2    H212599   0.228   3.474  12.629 -0.4484  0.7322  1.5919
  854MPD2    H312600   0.371   3.314  12.539  0.3410  0.3568 -1.1839
  854MPD2     N12601   0.665   3.359  12.879 -0.3867 -0.3940  0.0529
  854MPD2    H512602   0.704   3.277  12.833 -1.4154 -0.0083 -1.5171
  854MPD2    N112603   0.254   3.622  12.849  0.1414 -0.1245  0.3429
  854MPD2    H712604   0.179   3.645  12.785  0.2450 -2.4062 -0.6142
  855MPD2     C12605   1.096   3.439  13.781 -0.5734 -0.1060  0.4698
  855MPD2    C112606   1.099   3.310  13.737  0.8301 -0.0214  0.0436
  855MPD2    C212607   1.084   3.286  13.601 -0.4077 -0.1627 -0.1045
  855MPD2    C312608   1.059   3.388  13.506  0.1881  1.1955 -0.2313
  855MPD2    C412609   1.059   3.514  13.551 -0.2421  0.0466 -0.4762
  855MPD2    C512610   1.068   3.538  13.684 -0.2531 -0.0916 -0.0783
  855MPD2     H12611   1.094   3.182  13.575  0.8264 -0.4726  1.5755
  855MPD2    H112612   1.055   3.598  13.482  0.2722  0.6785  0.2680
  855MPD2    H212613   1.118   3.481  13.879  1.8125 -0.0007 -0.1193
  855MPD2    H312614   1.059   3.641  13.714 -0.8913  0.0552 -0.8025
  855MPD2     N12615   1.035   3.375  13.369 -0.4193 -0.2117  0.0876
  855MPD2    H512616   1.006   3.458  13.319  1.2590  0.2966 -0.0622
  855MPD2    N112617   1.100   3.209  13.832 -0.1695 -0.1726  0.4653
  855MPD2    H712618   1.090   3.114  13.798 -0.1773  0.6355 -1.8117
  856MPD2     C12619   2.924   3.900  14.146 -0.0506  0.1984  0.3755
  856MPD2    C112620   2.972   4.015  14.189  0.9099 -0.7033 -1.6726
  856MPD2    C212621   2.905   4.136  14.158 -0.4349 -0.2416 -0.5206
  856MPD2    C312622   2.796   4.134  14.079 -0.4103  0.3960  0.5621
  856MPD2    C412623   2.751   4.006  14.030 -0.1243  0.3593  0.2785
  856MPD2    C512624   2.813   3.896  14.072  0.1084  0.3341 -0.1095
  856MPD2     H12625   2.943   4.226  14.205 -1.3902 -0.0409 -0.1478
  856MPD2    H112626   2.664   4.000  13.967  0.0876  0.3079 -0.0098
  856MPD2    H212627   2.976   3.806  14.167 -0.9040 -0.6180 -1.1605
  856MPD2    H312628   2.781   3.803  14.026 -0.7219 -0.0487  1.2273
  856MPD2     N12629   2.708   4.242  14.055 -0.9080  0.3673 -0.1577
  856MPD2    H512630   2.637   4.217  13.987 -0.3754 -0.6116 -0.3614
  856MPD2    N112631   3.090   4.029  14.262  0.7200  0.5504  0.6089
  856MPD2    H712632   3.118   4.124  14.283  2.2917  0.4602 -1.0371
  857MPD2     C12633   4.520   1.534  12.934  0.6138  0.2830 -1.0168
  857MPD2    C112634   4.620   1.542  13.033 -0.9139 -0.0187 -0.8680
  857MPD2    C212635   4.680   1.668  13.057 -0.2534 -0.0511 -0.1537
  857MPD2    C312636   4.632   1.778  12.990 -0.1190 -0.3540 -0.2159
  857MPD2    C412637   4.529   1.775  12.897 -0.7887 -0.3006  1.1309
  857MPD2    C512638   4.475   1.647  12.873 -0.0427 -0.3551  0.2867
  857MPD2     H12639   0.026   1.692  13.119  1.4721 -1.8127 -1.8464
  857MPD2    H112640   4.492   1.860  12.842  0.6504 -0.1779  0.3304
  857MPD2    H212641   4.484   1.436  12.905  1.7688 -0.3761 -0.2078
  857MPD2    H312642   4.390   1.636  12.807 -1.8839 -0.9370  2.7625
  857MPD2     N12643   4.698   1.900  13.013  0.6468 -0.5302  0.1043
  857MPD2    H512644   0.044   1.892  13.068  1.2826 -1.0651 -0.9774
  857MPD2    N112645   4.669   1.423  13.097 -0.1578  0.3059  0.5110
  857MPD2    H712646   4.643   1.337  13.049  1.2197 -0.6154  1.4143
  858MPD2     C12647   0.953   0.669  16.868 -0.3825  0.4960 -0.1565
  858MPD2    C112648   1.045   0.584  16.906  0.0341 -0.7680 -0.9530
  858MPD2    C212649   1.102   0.597  17.035 -0.2845 -0.2456 -0.0061
  858MPD2    C312650   1.055   0.691  17.123  0.1098 -0.4582  0.3008
  858MPD2    C412651   0.953   0.773  17.083  0.1445 -0.7536  0.0548
  858MPD2    C512652   0.909   0.765  16.956 -0.0500 -0.7860 -0.3012
  858MPD2     H12653   1.185   0.530  17.059 -1.2436 -0.9844  1.2707
  858MPD2    H112654   0.915   0.856  17.141  0.1363 -0.6960 -0.0328
  858MPD2    H212655   0.902   0.667  16.772 -0.8383 -0.9253  0.1169
  858MPD2    H312656   0.832   0.835  16.925  2.2789  0.5632 -3.1478
  858MPD2     N12657   1.108   0.699  17.255  1.1281 -0.2497 -0.1270
  858MPD2    H512658   1.076   0.772  17.318  0.4269 -1.0884  0.4960
  858MPD2    N112659   1.082   0.490  16.807 -0.3947 -0.2699  0.2873
  858MPD2    H712660   1.021   0.496  16.726  1.0698 -0.1714 -0.8104
  859MPD2     C12661   4.048   2.863  15.818 -0.0028  0.6155  0.0303
  859MPD2    C112662   4.134   2.761  15.773  0.2923 -0.8467 -0.0305
  859MPD2    C212663   4.188   2.670  15.862 -0.3207 -0.1377 -0.5970
  859MPD2    C312664   4.160   2.681  15.999  0.7745  0.4987 -0.2924
  859MPD2    C412665   4.081   2.787  16.043 -0.1440  0.1091 -0.7802
  859MPD2    C512666   4.029   2.875  15.953  0.8202 -1.0757  0.3607
  859MPD2     H12667   4.244   2.581  15.835  1.3070  0.6372  0.1833
  859MPD2    H112668   4.067   2.805  16.149 -2.0423  0.2635 -1.0565
  859MPD2    H212669   4.008   2.942  15.756  1.1945  1.6483  0.5705
  859MPD2    H312670   3.987   2.968  15.990 -2.1941 -2.9674  1.7508
  859MPD2     N12671   4.230   2.604  16.099 -0.3226 -0.5004 -0.0879
  859MPD2    H512672   4.199   2.617  16.195  1.3340 -0.5167  0.4585
  859MPD2    N112673   4.173   2.776  15.639 -0.9016  0.4397 -0.4371
  859MPD2    H712674   4.118   2.846  15.589  2.5029  0.1176 -4.6429
  860MPD2     C12675   1.720   3.531  11.850  0.0105 -0.0902 -0.7669
  860MPD2    C112676   1.678   3.489  11.977 -0.8139 -0.3799 -0.3743
  860MPD2    C212677   1.562   3.421  11.985 -0.3700  0.2639 -0.5236
  860MPD2    C312678   1.484   3.394  11.873 -0.0594  1.0493 -0.6047
  860MPD2    C412679   1.528   3.432  11.747 -0.0950  0.1269  0.1779
  860MPD2    C512680   1.650   3.491  11.738  0.0012 -0.0351 -0.1416
  860MPD2     H12681   1.532   3.376  12.079 -0.2431  1.6389  0.1755
  860MPD2    H112682   1.481   3.419  11.650  0.3691 -3.0815  0.4097
  860MPD2    H212683   1.808   3.593  11.842  0.0198  0.0403  0.3179
  860MPD2    H312684   1.685   3.523  11.641  1.0699 -1.5934 -0.2849
  860MPD2     N12685   1.354   3.345  11.892 -0.3192  0.2509  0.6459
  860MPD2    H512686   1.333   3.307  11.983  0.0198  1.0378  1.0573
  860MPD2    N112687   1.744   3.523  12.095 -0.1908 -0.3234  0.3828
  860MPD2    H712688   1.690   3.493  12.175  0.2673 -0.3182  0.6966
  861MPD2     C12689   0.533   1.507  11.113 -0.1997 -1.1070  0.7957
  861MPD2    C112690   0.401   1.487  11.160  0.0713  0.9735  0.2226
  861MPD2    C212691   0.287   1.517  11.080 -0.2469  0.0457  0.7241
  861MPD2    C312692   0.305   1.568  10.951  0.2810 -0.0501  0.3166
  861MPD2    C412693   0.433   1.591  10.908  0.2928 -0.8188  0.6249
  861MPD2    C512694   0.546   1.564  10.986  0.4554  0.5651  0.4027
  861MPD2     H12695   0.185   1.516  11.115  0.0842 -1.2506  1.6549
  861MPD2    H112696   0.462   1.639  10.815 -2.4360  0.1334  0.2616
  861MPD2    H212697   0.624   1.487  11.168 -0.2657 -3.4784  0.0379
  861MPD2    H312698   0.641   1.586  10.940 -0.6211  2.6502 -0.8439
  861MPD2     N12699   0.206   1.607  10.860  0.1592  0.1667 -0.0499
  861MPD2    H512700   0.241   1.664  10.783  0.0968  0.2517 -0.0153
  861MPD2    N112701   0.375   1.449  11.293 -0.3214  0.0173  0.1048
  861MPD2    H712702   0.277   1.435  11.316 -0.0956 -0.5511  0.7396
  862MPD2     C12703   4.080   1.538  10.812  1.2428 -0.3272  0.5279
  862MPD2    C112704   4.200   1.507  10.885 -0.0109  0.3590 -0.2879
  862MPD2    C212705   4.188   1.429  10.997 -0.1153 -0.0766  0.2432
  862MPD2    C312706   4.071   1.360  11.023  0.3241  0.1074  0.3977
  862MPD2    C412707   3.953   1.390  10.953 -0.5520  0.7233 -0.6897
  862MPD2    C512708   3.955   1.486  10.851  0.3688  0.1094  0.2894
  862MPD2     H12709   4.278   1.426  11.057  0.6176 -1.0503 -0.9083
  862MPD2    H112710   3.857   1.344  10.975 -0.2795  0.2113 -0.5787
  862MPD2    H212711   4.091   1.602  10.726 -1.3274 -0.8011 -0.1529
  862MPD2    H312712   3.862   1.504  10.797  0.1264 -1.2593  0.2595
  862MPD2     N12713   4.060   1.268  11.132 -0.5099  0.0073 -0.1237
  862MPD2    H512714   3.971   1.220  11.147 -0.9734  1.7077  2.6108
  862MPD2    N112715   4.325   1.567  10.865 -0.3295 -0.5402 -0.4281
  862MPD2    H712716   4.398   1.540  10.930 -0.2539  0.5326 -0.0595
  863MPD2     C12717   3.981   3.961  17.350 -0.0817  0.2337  0.1144
  863MPD2    C112718   4.021   4.090  17.346  0.2535 -0.1201 -0.1032
  863MPD2    C212719   4.143   4.130  17.393  0.0220  0.0586 -0.2995
  863MPD2    C312720   4.217   4.040  17.462 -0.2822 -0.3488 -0.1939
  863MPD2    C412721   4.176   3.909  17.465  1.1437 -0.2256 -0.9429
  863MPD2    C512722   4.056   3.871  17.417 -0.3239 -0.4879  0.0007
  863MPD2     H12723   4.195   4.221  17.365 -0.3773  0.3325 -0.1355
  863MPD2    H112724   4.241   3.834  17.509  0.7008 -1.0731 -1.7347
  863MPD2    H212725   3.880   3.942  17.314 -0.1461 -1.0461  0.9766
  863MPD2    H312726   4.013   3.771  17.427 -2.5551  0.5772  1.3479
  863MPD2     N12727   4.349   4.064  17.508  0.0811 -0.0482 -0.1927
  863MPD2    H512728   4.390   3.978  17.543  0.3866  0.0619 -0.2724
  863MPD2    N112729   3.942   4.165  17.256 -0.0968  0.3943  0.1471
  863MPD2    H712730   3.866   4.112  17.215  1.9936 -1.9220 -0.7188
  864MPD2     C12731   0.313   0.441   0.043  0.3762  0.2484 -0.5170
  864MPD2    C112732   0.322   0.400  17.669  0.3496 -0.1464  0.0969
  864MPD2    C212733   0.375   0.493  17.579 -0.0409 -0.5125  0.0946
  864MPD2    C312734   0.407   0.620  17.610  0.5662 -0.0926  0.0540
  864MPD2    C412735   0.378   0.661  17.737 -0.1687 -0.4155 -0.1225
  864MPD2    C512736   0.340   0.569   0.074 -0.4104 -0.3672  0.7278
  864MPD2     H12737   0.401   0.456  17.480  1.3652 -1.6369  0.8838
  864MPD2    H112738   0.411   0.755   0.024 -2.4264  0.1720  0.2866
  864MPD2    H212739   0.287   0.380   0.129  0.9639 -1.5241 -1.5875
  864MPD2    H312740   0.341   0.614   0.172  1.4650 -1.4865  1.2304
  864MPD2     N12741   0.460   0.720  17.527 -0.2763 -0.2019  0.0383
  864MPD2    H512742   0.482   0.810  17.569  0.8891 -0.3416 -0.2672
  864MPD2    N112743   0.284   0.269  17.636  0.3054  0.1177 -0.1486
  864MPD2    H712744   0.248   0.212  17.712  1.3476 -0.4523 -0.0822
  865MPD2     C12745   4.592   0.838  17.037 -0.4824  0.0716  0.1735
  865MPD2    C112746   4.680   0.837  16.933  0.5227  0.2051 -0.4485
  865MPD2    C212747   0.065   0.899  16.961  0.0507 -0.2109  0.5457
  865MPD2    C312748   0.087   0.966  17.083  0.7063 -0.2791  0.4257
  865MPD2    C412749   4.727   0.969  17.178  0.1931  0.3425 -0.1735
  865MPD2    C512750   4.609   0.915  17.154 -0.0015  0.0166 -0.4213
  865MPD2     H12751   0.150   0.905  16.894 -1.3764  0.1279 -1.2246
  865MPD2    H112752   4.738   1.028  17.268 -0.9729  1.0070 -0.4586
  865MPD2    H212753   4.497   0.787  17.026 -0.5044  0.0401  0.4962
  865MPD2    H312754   4.529   0.927  17.226  2.0299 -0.2286  1.8852
  865MPD2     N12755   0.217   1.009  17.110 -0.1897  0.3369 -0.4395
  865MPD2    H512756   0.285   1.024  17.037  0.1623 -0.7587 -0.3370
  865MPD2    N112757   4.653   0.761  16.815  0.0111  0.2251  0.6398
  865MPD2    H712758   4.566   0.709  16.807 -1.2385  2.2391  1.0689
  866MPD2     C12759   1.283   2.154  10.855  0.6010  1.0485 -0.0259
  866MPD2    C112760   1.228   2.084  10.962 -0.5300  0.2249  0.7074
  866MPD2    C212761   1.086   2.093  10.981  0.6459  0.5378 -0.2099
  866MPD2    C312762   1.017   2.176  10.903  0.1253 -0.6669  0.2891
  866MPD2    C412763   1.075   2.264  10.810  0.1335  0.5082  0.6423
  866MPD2    C512764   1.207   2.246  10.782 -0.0995  0.1828 -0.7851
  866MPD2     H12765   1.042   2.034  11.060  0.3133 -1.1203 -1.6492
  866MPD2    H112766   1.024   2.333  10.743  0.8262 -0.5133 -0.9502
  866MPD2    H212767   1.389   2.175  10.847  0.1060  2.9096 -1.6686
  866MPD2    H312768   1.251   2.307  10.705  0.2693 -0.1655 -0.8494
  866MPD2     N12769   0.873   2.180  10.895 -0.8783 -0.0360  0.1980
  866MPD2    H512770   0.832   2.259  10.845  0.3280 -0.2224 -1.0835
  866MPD2    N112771   1.321   2.010  11.041  0.7136  0.4130  0.3320
  866MPD2    H712772   1.415   2.003  11.004  0.4240  0.3736 -0.3949
  867MPD2     C12773   3.860   0.619  16.744  0.4422 -0.8200 -0.1019
  867MPD2    C112774   3.941   0.632  16.854 -0.5632  0.3734  0.8371
  867MPD2    C212775   3.925   0.745  16.936  0.0055 -0.0404  0.3527
  867MPD2    C312776   3.857   0.860  16.896  0.3767  0.3082 -0.1978
  867MPD2    C412777   3.779   0.851  16.778  0.1548 -0.1379 -0.2015
  867MPD2    C512778   3.784   0.731  16.708  0.3279 -0.6774  0.0436
  867MPD2     H12779   3.983   0.740  17.028 -1.2394  0.2690  1.1543
  867MPD2    H112780   3.715   0.933  16.748 -0.6907  0.0345  2.0610
  867MPD2    H212781   3.830   0.524  16.701  0.0824 -0.0031 -1.6831
  867MPD2    H312782   3.721   0.722  16.620 -0.0504 -2.7370  0.5091
  867MPD2     N12783   3.846   0.974  16.981  1.0848 -0.2313  0.0891
  867MPD2    H512784   3.792   1.049  16.939  3.1416  0.9005 -0.5205
  867MPD2    N112785   4.021   0.521  16.890 -0.1248  0.4663 -0.3113
  867MPD2    H712786   4.008   0.443  16.826  0.8338  0.9333 -1.0700
  868MPD2     C12787   4.715   0.251  13.221  0.2773 -0.2769 -0.1903
  868MPD2    C112788   0.053   0.240  13.330  0.5061 -0.6776  0.3238
  868MPD2    C212789   4.736   0.228  13.454  1.0512 -0.2794 -0.0924
  868MPD2    C312790   4.595   0.230  13.474 -0.2135  0.1591  0.2700
  868MPD2    C412791   4.513   0.240  13.365 -0.1634  0.7568  0.2795
  868MPD2    C512792   4.578   0.253  13.243  0.1119  0.0007 -0.0519
  868MPD2     H12793   0.059   0.206  13.541  0.8567 -1.6828 -0.2986
  868MPD2    H112794   4.406   0.256  13.371 -0.0852  1.2406  0.4409
  868MPD2    H212795   0.023   0.271  13.125  0.2472 -2.1846 -0.5964
  868MPD2    H312796   4.516   0.265  13.155 -0.1573 -0.4173  0.0772
  868MPD2     N12797   4.549   0.218  13.607  0.4515 -0.1487  0.0703
  868MPD2    H512798   4.620   0.206  13.678 -1.0535 -1.7657  1.2837
  868MPD2    N112799   0.188   0.249  13.307  0.1550  0.4358 -0.4160
  868MPD2    H712800   0.214   0.248  13.209 -1.8160 -2.3004 -0.9082
  869MPD2     C12801   1.016   2.219   0.473  0.5112  1.4956  0.4748
  869MPD2    C112802   1.034   2.199   0.611  0.0529 -0.0493  0.3396
  869MPD2    C212803   1.117   2.276   0.682 -0.1671 -0.3032  0.1587
  869MPD2    C312804   1.189   2.372   0.615  0.5606  0.9589  0.0898
  869MPD2    C412805   1.184   2.382   0.478 -0.0351  0.2793  0.3965
  869MPD2    C512806   1.092   2.309   0.405  0.2213 -0.2633 -0.1281
  869MPD2     H12807   1.136   2.259   0.787 -1.6773 -1.1351  0.3035
  869MPD2    H112808   1.245   2.457   0.429  2.1823 -2.1113 -0.5114
  869MPD2    H212809   0.951   2.155   0.414  0.2333  1.4573  0.8160
  869MPD2    H312810   1.071   2.325   0.300  0.2385 -0.0308 -0.0958
  869MPD2     N12811   1.294   2.456   0.676 -0.1404  0.6077 -0.4909
  869MPD2    H512812   1.355   2.503   0.610 -1.5475  0.8104 -1.6220
  869MPD2    N112813   0.961   2.098   0.675  0.6281 -0.2638 -0.0060
  869MPD2    H712814   0.916   2.041   0.604 -1.4559  0.4026  0.7742
  870MPD2     C12815   1.943   1.787   1.888  0.4558  0.3812 -0.0841
  870MPD2    C112816   1.869   1.688   1.943  0.1782 -0.7941 -0.1272
  870MPD2    C212817   1.758   1.639   1.878  0.5065  0.4956  0.0771
  870MPD2    C312818   1.715   1.705   1.764  0.3963  0.4019  0.8377
  870MPD2    C412819   1.791   1.804   1.708  0.3101 -0.2941 -0.5219
  870MPD2    C512820   1.905   1.851   1.776  0.2664  0.0181  0.0600
  870MPD2     H12821   1.687   1.567   1.918  0.6431  0.6053  0.5260
  870MPD2    H112822   1.755   1.854   1.618  1.4985  1.1774 -0.1841
  870MPD2    H212823   2.036   1.821   1.933 -1.5354  0.7820  3.6728
  870MPD2    H312824   1.972   1.923   1.729  0.0294 -0.0427 -0.3698
  870MPD2     N12825   1.587   1.670   1.719  0.3879 -0.3518  0.1892
  870MPD2    H512826   1.532   1.608   1.778 -0.0328  1.0323  1.2666
  870MPD2    N112827   1.907   1.635   2.065  0.1783  0.0376  0.0517
  870MPD2    H712828   1.982   1.681   2.116  0.0932 -1.1256  1.2314
  871MPD2     C12829   2.004   0.925  16.312 -0.4301 -0.5557 -0.2827
  871MPD2    C112830   2.069   0.931  16.433 -0.0729 -0.3193 -0.2906
  871MPD2    C212831   2.177   0.852  16.452 -0.2383  0.2904 -0.3321
  871MPD2    C312832   2.218   0.765  16.352  0.6812 -0.6967  0.2640
  871MPD2    C412833   2.155   0.757  16.224  0.3170  0.5394 -0.1516
  871MPD2    C512834   2.049   0.845  16.211 -1.1837 -0.3821  0.1920
  871MPD2     H12835   2.226   0.848  16.549 -1.4827  1.1191  0.3355
  871MPD2    H112836   2.172   0.686  16.144  2.8786  1.1671 -0.1631
  871MPD2    H212837   1.923   0.995  16.294 -0.7144 -0.8637 -0.2077
  871MPD2    H312838   2.003   0.859  16.113 -0.6741 -0.2599 -0.0294
  871MPD2     N12839   2.309   0.673  16.385 -0.1033  0.1557 -0.4007
  871MPD2    H512840   2.353   0.675  16.477  0.6869 -0.7250 -0.7544
  871MPD2    N112841   2.031   1.027  16.529 -0.1478  0.0299 -0.1260
  871MPD2    H712842   1.953   1.088  16.508 -0.6532 -0.2851  0.8425
  872MPD2     C12843   3.082   3.306  14.132  0.0381 -0.3116 -0.1431
  872MPD2    C112844   3.059   3.438  14.154 -0.0463 -0.2149 -0.0272
  872MPD2    C212845   2.955   3.484  14.225  0.3495 -0.5576 -0.5297
  872MPD2    C312846   2.877   3.401  14.297 -0.0347  0.4561  0.6616
  872MPD2    C412847   2.906   3.268  14.292 -0.5236  0.7968  0.3888
  872MPD2    C512848   2.996   3.219  14.199 -0.0898 -0.2949 -0.8605
  872MPD2     H12849   2.946   3.592  14.233  1.5232 -0.4229 -0.9887
  872MPD2    H112850   2.855   3.194  14.353  2.4496 -1.6143 -0.0915
  872MPD2    H212851   3.162   3.263  14.074  1.7724  1.3617  1.0054
  872MPD2    H312852   3.015   3.112  14.202  0.1160 -0.2685 -1.2023
  872MPD2     N12853   2.780   3.445  14.385  0.4945 -0.4075  0.1036
  872MPD2    H512854   2.748   3.371  14.446  0.3615 -0.6675 -0.2800
  872MPD2    N112855   3.149   3.544  14.112  0.1596  0.0647 -0.0649
  872MPD2    H712856   3.124   3.632  14.155  0.7146  0.7546 -1.1547
  873MPD2     C12857   0.766   3.305   1.422  0.6503  0.4996 -0.1869
  873MPD2    C112858   0.661   3.307   1.509  0.5638  0.6480 -0.0499
  873MPD2    C212859   0.571   3.198   1.497 -0.1741 -0.9757 -0.5485
  873MPD2    C312860   0.591   3.102   1.399  0.2551  1.3058  0.0564
  873MPD2    C412861   0.692   3.106   1.311  0.4569  0.4143 -0.6825
  873MPD2    C512862   0.785   3.204   1.326  0.4393  0.4909 -0.6930
  873MPD2     H12863   0.484   3.198   1.561 -1.7254 -1.4497 -2.6589
  873MPD2    H112864   0.720   3.025   1.244  0.2418 -1.4282  1.4772
  873MPD2    H212865   0.838   3.386   1.425  0.0870  1.0240 -1.1749
  873MPD2    H312866   0.873   3.193   1.264  0.1745  2.7415 -1.4625
  873MPD2     N12867   0.502   2.997   1.384 -1.1214 -0.4363  0.1979
  873MPD2    H512868   0.521   2.932   1.309  0.5546  1.0133 -0.6449
  873MPD2    N112869   0.637   3.419   1.593 -0.1455 -0.1604 -0.1915
  873MPD2    H712870   0.712   3.482   1.617 -0.8607  0.9389 -0.8627
  874MPD2     C12871   4.454   3.576  16.394 -0.5386  0.6088 -0.0823
  874MPD2    C112872   4.505   3.493  16.492 -0.2400 -0.1844 -0.9072
  874MPD2    C212873   4.616   3.548  16.557 -0.8290 -0.1671  0.0429
  874MPD2    C312874   4.681   3.668  16.525  1.0371  0.0781  0.4077
  874MPD2    C412875   4.635   3.736  16.414 -0.4600 -0.1011 -0.0026
  874MPD2    C512876   4.521   3.687  16.357  0.7051  0.7358  0.7255
  874MPD2     H12877   4.665   3.489  16.633  0.1992  0.8853  0.1983
  874MPD2    H112878   4.671   3.833  16.380 -1.6140  0.3219 -0.0228
  874MPD2    H212879   4.362   3.550  16.343 -1.3892 -2.6585  3.1080
  874MPD2    H312880   4.467   3.749  16.286  0.3498  2.4039  2.4665
  874MPD2     N12881   0.050   3.705  16.603 -0.1844  0.6011  0.3775
  874MPD2    H512882   0.077   3.642  16.678 -1.8956  1.9551  2.1194
  874MPD2    N112883   4.445   3.367  16.516  0.1775  0.4790 -0.5072
  874MPD2    H712884   4.370   3.349  16.449 -0.3302 -1.6340  0.6180
  875MPD2     C12885   0.170   1.258  14.852 -0.1909  0.1420 -0.3281
  875MPD2    C112886   0.139   1.393  14.830 -0.3149 -0.2754  1.4055
  875MPD2    C212887   0.171   1.485  14.928 -0.3988  0.3675 -0.1428
  875MPD2    C312888   0.254   1.440  15.031 -0.8807  0.2999 -0.1377
  875MPD2    C412889   0.292   1.311  15.043  0.4781 -0.3925 -0.2225
  875MPD2    C512890   0.232   1.220  14.961  0.3653 -0.2307  0.7223
  875MPD2     H12891   0.142   1.589  14.919 -1.0058  0.1611 -0.5457
  875MPD2    H112892   0.342   1.272  15.131  0.3388  1.1357  0.5323
  875MPD2    H212893   0.151   1.186  14.773 -0.2043  1.7384 -1.8023
  875MPD2    H312894   0.248   1.116  14.987 -1.2124 -0.6328  0.0745
  875MPD2     N12895   0.322   1.526  15.120  0.0106  0.0406 -0.7309
  875MPD2    H512896   0.389   1.477  15.177 -0.2735 -0.7265 -1.0568
  875MPD2    N112897   0.086   1.447  14.711  0.0048  0.7286  0.0450
  875MPD2    H712898   0.072   1.547  14.705  3.2637  1.3162  2.3415
  876MPD2     C12899   4.228   2.976  16.303 -0.2491  0.2178 -0.4332
  876MPD2    C112900   4.339   2.933  16.230 -0.6668  0.4881 -0.0561
  876MPD2    C212901   4.417   2.834  16.288 -0.5011 -0.2137  0.3159
  876MPD2    C312902   4.382   2.770  16.408 -0.1374  0.1720 -0.0417
  876MPD2    C412903   4.268   2.815  16.477  0.3238 -0.3041 -0.0796
  876MPD2    C512904   4.194   2.920  16.427 -0.2341 -0.4490  0.2413
  876MPD2     H12905   4.500   2.796  16.228 -0.2035 -1.4642  1.5286
  876MPD2    H112906   4.232   2.768  16.568  1.9702  1.1817  1.3321
  876MPD2    H212907   4.179   3.067  16.273  0.5482  0.4625 -0.9906
  876MPD2    H312908   4.100   2.948  16.473  0.5327  1.9535  0.3138
  876MPD2     N12909   4.466   2.671  16.455 -0.2776  0.0849  0.1500
  876MPD2    H512910   4.558   2.669  16.411  0.8558  2.2998  2.4204
  876MPD2    N112911   4.367   2.987  16.103  0.1823 -0.3911  0.4192
  876MPD2    H712912   4.306   3.062  16.072  0.9783 -0.3256 -0.9625
  877MPD2     C12913   4.100   3.300  15.446  0.0369  0.2611  0.2999
  877MPD2    C112914   4.237   3.263  15.431 -0.7373  0.2264 -0.0035
  877MPD2    C212915   4.288   3.259  15.305 -0.4088  0.2903 -0.1672
  877MPD2    C312916   4.209   3.290  15.195 -0.1307  0.2726  0.1964
  877MPD2    C412917   4.081   3.340  15.213  0.3208  0.3811  0.1147
  877MPD2    C512918   4.026   3.342  15.337  0.1440 -0.3840  0.4243
  877MPD2     H12919   4.393   3.237  15.290  0.1168  1.6998  1.5145
  877MPD2    H112920   4.015   3.351  15.127 -0.9536 -1.4116  0.8639
  877MPD2    H212921   4.048   3.306  15.541 -3.6303 -0.2410 -1.6539
  877MPD2    H312922   3.923   3.375  15.343  0.1890 -0.1453 -0.0766
  877MPD2     N12923   4.247   3.265  15.055 -0.5260 -0.4238 -0.0845
  877MPD2    H512924   4.181   3.278  14.979 -1.5097  3.4554  1.3765
  877MPD2    N112925   4.321   3.236  15.543  1.1637 -0.5780  0.4562
  877MPD2    H712926   4.419   3.226  15.520  0.5064 -1.5478 -1.9171
  878MPD2     C12927   4.446   2.485  13.071 -0.3670 -0.5696 -0.1834
  878MPD2    C112928   4.426   2.618  13.106 -0.6552  1.1262 -0.5411
  878MPD2    C212929   4.478   2.659  13.225 -0.0991  0.2947  0.3013
  878MPD2    C312930   4.534   2.575  13.323  0.1985  0.4860 -0.3539
  878MPD2    C412931   4.561   2.447  13.280 -0.5241  0.0644  0.1699
  878MPD2    C512932   4.519   2.406  13.159 -0.2094  0.3933 -0.7425
  878MPD2     H12933   4.467   2.759  13.264 -0.1884  0.3468  0.1436
  878MPD2    H112934   4.615   2.376  13.341  1.4677  0.4484 -1.1502
  878MPD2    H212935   4.423   2.444  12.973  0.1100  0.6441 -0.8155
  878MPD2    H312936   4.548   2.305  13.134 -0.9645 -0.3604  1.4499
  878MPD2     N12937   4.580   2.632  13.453  0.1604 -0.0222 -0.6759
  878MPD2    H512938   4.561   2.731  13.461  2.7889  0.2746  1.6379
  878MPD2    N112939   4.362   2.693  13.014  0.2877 -0.4166 -0.0705
  878MPD2    H712940   4.309   2.648  12.941 -0.9181  1.5379 -0.4150
  879MPD2     C12941   0.026   4.308  17.188  0.0088  0.0916 -0.9575
  879MPD2    C112942   0.079   4.186  17.235 -0.0702 -0.5306  0.3630
  879MPD2    C212943   4.739   4.071  17.230 -0.2242  0.5390  0.4154
  879MPD2    C312944   4.608   4.070  17.183  0.2147  0.0378 -0.2044
  879MPD2    C412945   4.566   4.195  17.132  0.5797 -0.2832  0.4626
  879MPD2    C512946   4.639   4.305  17.140 -0.7532  0.2882  0.1021
  879MPD2     H12947   0.038   3.986  17.286  0.3705 -0.2154 -1.1442
  879MPD2    H112948   4.470   4.209  17.083  1.5292  2.5516 -0.5727
  879MPD2    H212949   0.078   4.401  17.207  0.4192 -0.5916  1.2470
  879MPD2    H312950   4.592   4.390  17.092  1.1567 -0.4365 -3.0621
  879MPD2     N12951   4.519   3.962  17.201 -0.3931  0.1151  0.3318
  879MPD2    H512952   4.422   3.988  17.188 -0.8148 -0.2370  2.7658
  879MPD2    N112953   0.206   4.193  17.299 -0.4650  0.3509  0.2872
  879MPD2    H712954   0.246   4.286  17.314  2.1981 -1.0724  2.0597
  880MPD2     C12955   1.863   0.915   0.899 -0.0054  0.0072  0.1036
  880MPD2    C112956   1.832   0.942   0.772  0.2561 -0.6142  0.0767
  880MPD2    C212957   1.906   0.885   0.671 -0.5190 -0.8287  0.1281
  880MPD2    C312958   1.997   0.788   0.698 -0.1946  0.6260 -0.3896
  880MPD2    C412959   2.028   0.761   0.823  0.6984  0.4243 -0.7956
  880MPD2    C512960   1.957   0.815   0.923 -0.6845  0.5408 -0.5879
  880MPD2     H12961   1.884   0.888   0.565  1.9428  0.8741 -0.3418
  880MPD2    H112962   2.111   0.697   0.852 -0.0917  0.0785  0.7217
  880MPD2    H212963   1.803   0.959   0.978  1.4942  0.4210  1.0300
  880MPD2    H312964   1.994   0.789   1.021 -0.2168  1.7149 -0.4519
  880MPD2     N12965   2.061   0.729   0.586 -0.0178  0.2244 -0.2947
  880MPD2    H512966   2.024   0.763   0.498 -2.3771 -0.8770  0.2956
  880MPD2    N112967   1.716   1.014   0.746  0.3631  0.1917  0.0695
  880MPD2    H712968   1.657   1.043   0.823  1.7218 -1.1921  1.6294
  881MPD2     C12969   1.127   1.660   0.084 -0.1857  0.6631  0.0640
  881MPD2    C112970   1.245   1.583   0.053  0.0067 -0.4323  0.2919
  881MPD2    C212971   1.281   1.479   0.137  0.2984 -0.1762  0.0183
  881MPD2    C312972   1.213   1.456   0.257 -0.1618 -0.2168  0.4520
  881MPD2    C412973   1.102   1.538   0.289  0.6917  0.0762 -0.0316
  881MPD2    C512974   1.062   1.640   0.206  0.3727 -0.2674 -0.2709
  881MPD2     H12975   1.362   1.414   0.107  0.1768 -0.1306 -0.4010
  881MPD2    H112976   1.048   1.520   0.381 -0.8380 -0.5366 -1.0557
  881MPD2    H212977   1.074   1.709   0.003 -0.3111  0.6130  0.1159
  881MPD2    H312978   0.973   1.697   0.229  0.6580  0.5924 -1.3044
  881MPD2     N12979   1.251   1.359   0.351 -0.1146 -0.0877 -0.0106
  881MPD2    H512980   1.184   1.327   0.421 -0.6753 -0.8861 -0.9029
  881MPD2    N112981   1.287   1.581  17.670  0.3042  0.3400 -0.0342
  881MPD2    H712982   1.236   1.647  17.611  0.1630  0.3412  0.0886
  882MPD2     C12983   4.268   3.214  14.164 -0.2870  0.0444  0.0172
  882MPD2    C112984   4.219   3.243  14.294  0.0628  1.0236 -0.6843
  882MPD2    C212985   4.087   3.290  14.298  0.5185  0.0273  0.1216
  882MPD2    C312986   4.004   3.293  14.185  0.2317  0.2563  0.5311
  882MPD2    C412987   4.049   3.245  14.066  0.0003 -0.5084 -0.3170
  882MPD2    C512988   4.178   3.199  14.062  0.2649 -0.2250 -0.5290
  882MPD2     H12989   4.048   3.324  14.393 -0.3911  0.5068 -0.4205
  882MPD2    H112990   3.988   3.242  13.977  2.6557  0.0853 -2.1444
  882MPD2    H212991   4.370   3.188  14.139 -0.3861 -1.9674  1.7120
  882MPD2    H312992   4.219   3.163  13.968  0.7236 -1.5897  0.1845
  882MPD2     N12993   3.873   3.345  14.182  0.1143  0.2639 -0.0123
  882MPD2    H512994   3.819   3.322  14.100  0.1779  1.3605 -0.3569
  882MPD2    N112995   4.314   3.254  14.409 -0.3377  0.1327 -0.0980
  882MPD2    H712996   4.412   3.233  14.389 -0.1851 -0.6648  1.4366
  883MPD2     C12997   1.998   3.112  16.854 -0.5979 -0.1841 -0.1947
  883MPD2    C112998   2.029   3.228  16.792 -0.0301  0.6092  0.0176
  883MPD2    C212999   2.157   3.277  16.816 -0.8408 -0.2282 -0.0881
  883MPD2    C313000   2.251   3.208  16.881 -0.6078  0.3112 -0.1574
  883MPD2    C413001   2.216   3.090  16.941 -0.0762 -0.4695 -0.2749
  883MPD2    C513002   2.091   3.037  16.919 -0.4218  0.1548 -0.1092
  883MPD2     H13003   2.174   3.377  16.776  0.4177 -0.6792 -0.7059
  883MPD2    H113004   2.293   3.030  16.988  0.0739 -0.0968 -0.0458
  883MPD2    H213005   1.907   3.054  16.837 -0.1672 -1.1538  0.7443
  883MPD2    H313006   2.056   2.941  16.953 -1.2160  0.2861 -0.5539
  883MPD2     N13007   2.380   3.270  16.889  0.4413  0.0927  0.0388
  883MPD2    H513008   2.389   3.348  16.825  1.1765  1.2405  1.5433
  883MPD2    N113009   1.942   3.312  16.721  0.2810  0.1119  0.3627
  883MPD2    H713010   1.982   3.398  16.684  1.8447 -1.1433 -0.8705
  884MPD2     C13011   3.449   4.115  16.016  0.2653  0.1459  0.2696
  884MPD2    C113012   3.501   4.193  15.915  0.4482  0.4834  0.7735
  884MPD2    C213013   3.418   4.243  15.818  0.0361 -0.2418  0.1840
  884MPD2    C313014   3.280   4.223  15.830  0.0216  0.1859 -0.1492
  884MPD2    C413015   3.235   4.142  15.937  0.8868 -0.6106  0.7871
  884MPD2    C513016   3.323   4.092  16.030  0.3767  0.6659 -0.1492
  884MPD2     H13017   3.449   4.304  15.733  0.4583 -0.5163  0.1424
  884MPD2    H113018   3.130   4.119  15.951  1.0767 -0.8066  1.9015
  884MPD2    H213019   3.511   4.061  16.086  1.2884 -0.3928 -1.0461
  884MPD2    H313020   3.283   4.022  16.103 -0.5838 -0.5676 -1.8751
  884MPD2     N13021   3.200   4.280  15.736 -0.0012  0.3929 -0.1916
  884MPD2    H513022   3.239   4.354  15.678  1.9966  0.1731  0.9004
  884MPD2    N113023   3.636   4.209  15.914 -0.5941 -0.0358  0.0527
  884MPD2    H713024   3.686   4.154  15.983 -1.7077  0.1170  0.9603
  885MPD2     C13025   2.288   4.043   0.196  0.3394  0.1003  0.2592
  885MPD2    C113026   2.297   4.179   0.213 -0.0739  0.1107 -0.2351
  885MPD2    C213027   2.273   4.253   0.099  0.1796  0.2908  0.1528
  885MPD2    C313028   2.232   4.193  17.738 -0.6587  0.0754  0.3076
  885MPD2    C413029   2.210   4.058  17.731  0.0830  0.8794  0.2385
  885MPD2    C513030   2.235   3.983   0.087 -0.3195  0.0796 -0.3429
  885MPD2     H13031   2.268   4.361   0.098  2.7086  0.3982 -0.2476
  885MPD2    H113032   2.190   4.003  17.639 -0.7941 -1.5254  1.8795
  885MPD2    H213033   2.302   3.979   0.283 -0.4434 -1.1733 -0.5392
  885MPD2    H313034   2.216   3.877   0.097 -1.0537  0.2474  0.0295
  885MPD2     N13035   2.216   4.263  17.613 -0.4024 -0.0913 -0.3215
  885MPD2    H513036   2.271   4.348  17.605  0.2845 -0.6906 -1.9102
  885MPD2    N113037   2.329   4.225   0.343 -0.4326  0.0679  0.3323
  885MPD2    H713038   2.339   4.151   0.412  0.6243 -0.7865 -0.7254
  886MPD2     C13039   3.299   2.836  15.823 -0.3768  0.0083 -0.8556
  886MPD2    C113040   3.371   2.811  15.709  0.1664  0.2775 -0.3119
  886MPD2    C213041   3.359   2.903  15.605  0.0645 -0.0783 -0.3038
  886MPD2    C313042   3.287   3.020  15.619  0.0924 -0.2834  0.3614
  886MPD2    C413043   3.225   3.051  15.735  0.1007  0.3912  0.1985
  886MPD2    C513044   3.228   2.954  15.839 -0.3173 -0.3611 -0.1756
  886MPD2     H13045   3.405   2.880  15.509  1.6238  1.7780  0.0043
  886MPD2    H113046   3.170   3.143  15.748  1.8507  1.6706 -1.5197
  886MPD2    H213047   3.305   2.786  15.919 -1.7006 -0.8480 -1.2144
  886MPD2    H313048   3.176   2.986  15.929 -0.9894 -1.7573 -0.0677
  886MPD2     N13049   3.302   3.115  15.514 -0.3012  0.3324 -0.7954
  886MPD2    H513050   3.373   3.097  15.444 -0.6519  0.3437 -1.1531
  886MPD2    N113051   3.434   2.686  15.701 -0.0334  0.2435 -0.4237
  886MPD2    H713052   3.436   2.617  15.777  1.0264  0.8233  0.0736
  887MPD2     C13053   3.806   2.609  16.121  0.3650 -0.4782  0.4273
  887MPD2    C113054   3.727   2.656  16.018  0.3245  0.2368  0.0530
  887MPD2    C213055   3.656   2.774  16.025  0.2844 -0.6608 -0.1604
  887MPD2    C313056   3.661   2.848  16.141  0.2637  0.5308 -0.0368
  887MPD2    C413057   3.732   2.799  16.246  0.4187 -0.2888  0.8633
  887MPD2    C513058   3.811   2.686  16.230  0.9627  0.2777  0.6390
  887MPD2     H13059   3.605   2.814  15.939 -1.3613  0.1100  1.1688
  887MPD2    H113060   3.741   2.856  16.337 -0.9081 -1.6969  1.8692
  887MPD2    H213061   3.879   2.528  16.119  1.0114  0.1461 -1.1140
  887MPD2    H313062   3.862   2.656  16.321 -1.2123  0.2605  1.8423
  887MPD2     N13063   3.585   2.957  16.147  0.2569 -0.1335  0.3444
  887MPD2    H513064   3.548   2.993  16.059  0.3165  1.6276  1.0261
  887MPD2    N113065   3.734   2.592  15.893  0.2087  0.0384 -0.5396
  887MPD2    H713066   3.697   2.644  15.814 -1.2773 -0.2045 -0.0106
  888MPD2     C13067   0.771   3.084  15.244  0.1437  0.0610 -0.8416
  888MPD2    C113068   0.843   3.076  15.361  0.0277 -0.1465  0.3766
  888MPD2    C213069   0.927   3.180  15.392  0.1885  0.5462  0.1998
  888MPD2    C313070   0.958   3.277  15.297 -0.2865 -0.8231  0.1650
  888MPD2    C413071   0.896   3.274  15.180 -0.3500 -0.5838  0.4175
  888MPD2    C513072   0.805   3.174  15.155  0.3566 -0.2948 -0.1737
  888MPD2     H13073   0.966   3.165  15.492  0.2074 -0.6813  0.0060
  888MPD2    H113074   0.919   3.341  15.098  1.8315  0.2722  1.7552
  888MPD2    H213075   0.704   3.006  15.208 -1.4602 -0.9171  4.2961
  888MPD2    H313076   0.755   3.176  15.059  1.0600  1.4620 -0.5050
  888MPD2     N13077   1.044   3.386  15.332  0.3968 -0.5256  0.4250
  888MPD2    H513078   1.061   3.456  15.260  1.0129 -0.6254  0.4755
  888MPD2    N113079   0.826   2.968  15.451 -0.2541 -0.2031  0.0313
  888MPD2    H713080   0.892   2.950  15.526  0.6319 -1.9346 -1.1610
  889MPD2     C13081   4.713   2.737  12.903  0.2438  0.0277 -0.0061
  889MPD2    C113082   0.057   2.709  13.004 -0.6300  0.0733  0.6205
  889MPD2    C213083   0.074   2.801  13.106  0.0545 -0.0995  0.0611
  889MPD2    C313084   4.737   2.915  13.105 -0.2552 -0.2779 -0.0039
  889MPD2    C413085   4.659   2.948  12.997 -0.4095  0.7541 -0.0743
  889MPD2    C513086   4.646   2.856  12.893 -0.6459 -0.0686  0.4924
  889MPD2     H13087   0.118   2.773  13.201 -0.3550 -1.8443 -0.2676
  889MPD2    H113088   4.599   3.038  12.991  1.1429  1.8149  0.1627
  889MPD2    H213089   4.680   2.658  12.836  2.1061 -1.7072  1.1251
  889MPD2    H313090   4.569   2.858  12.817 -0.2368 -0.6689  0.0612
  889MPD2     N13091   0.031   3.010  13.206 -0.1505  0.4572 -0.7974
  889MPD2    H513092   0.089   2.975  13.282  0.5669  2.1137 -0.5920
  889MPD2    N113093   0.091   2.579  13.043  0.0859 -0.3853 -0.2224
  889MPD2    H713094   0.123   2.564  13.138  0.4856 -0.0890 -0.3081
  890MPD2     C13095   4.339   3.838  14.788 -0.2313 -0.5290  0.5663
  890MPD2    C113096   4.403   3.896  14.892  0.2248  0.3504 -0.1079
  890MPD2    C213097   4.351   3.880  15.014 -0.3173  0.0692  0.1214
  890MPD2    C313098   4.239   3.804  15.047  0.2316 -1.3900  0.4429
  890MPD2    C413099   4.180   3.737  14.939 -0.1421 -0.5779 -0.0361
  890MPD2    C513100   4.227   3.761  14.808  0.5736 -0.2841 -0.1806
  890MPD2     H13101   4.407   3.935  15.089  1.3385 -1.4580  0.0275
  890MPD2    H113102   4.101   3.664  14.954 -0.0749 -0.7899 -0.7066
  890MPD2    H213103   4.375   3.864  14.689 -1.8165  0.0690  0.1430
  890MPD2    H313104   4.173   3.717  14.725  1.5810  1.7350 -1.8916
  890MPD2     N13105   4.216   3.789  15.183  0.0513 -0.3318 -0.8805
  890MPD2    H513106   4.271   3.845  15.247 -1.6584  2.1115 -1.5411
  890MPD2    N113107   4.522   3.967  14.864  0.0931  0.1644  0.3765
  890MPD2    H713108   4.553   3.972  14.767 -1.5585  0.3523 -0.1345
  891MPD2     C13109   2.563   2.946  16.691  0.4932  0.2832 -0.0584
  891MPD2    C113110   2.497   2.862  16.785 -0.3136 -0.3384 -0.5384
  891MPD2    C213111   2.567   2.787  16.888  0.3134  0.1763  0.1133
  891MPD2    C313112   2.703   2.806  16.894 -0.0025  0.1707 -0.3740
  891MPD2    C413113   2.767   2.890  16.805 -0.3351  0.0522  0.1028
  891MPD2    C513114   2.699   2.956  16.706  0.2803 -0.3363 -0.0966
  891MPD2     H13115   2.517   2.714  16.950  2.2530 -0.2274  1.2180
  891MPD2    H113116   2.875   2.904  16.812 -0.1773 -1.5813  0.8647
  891MPD2    H213117   2.514   2.976  16.599 -0.3913 -0.8031  0.0530
  891MPD2    H313118   2.757   3.007  16.630  0.0445  1.2079  0.7648
  891MPD2     N13119   2.769   2.716  16.981 -0.0658  0.2075 -0.1066
  891MPD2    H513120   2.702   2.660  17.033  0.9184 -0.0025  0.9251
  891MPD2    N113121   2.364   2.838  16.764  0.5107  0.0744  0.0653
  891MPD2    H713122   2.321   2.889  16.687  1.1348 -1.4314 -1.2830
  892MPD2     C13123   3.649   3.609  15.050  0.1087 -0.3793 -0.1175
  892MPD2    C113124   3.535   3.638  14.984  0.3426  0.6430  0.8529
  892MPD2    C213125   3.507   3.586  14.855 -0.3658  0.2181  0.3728
  892MPD2    C313126   3.597   3.511  14.781 -0.2103 -0.9902  0.4004
  892MPD2    C413127   3.712   3.470  14.850 -0.8092  0.0650  0.0983
  892MPD2    C513128   3.741   3.531  14.977  0.1836 -0.2858 -0.0076
  892MPD2     H13129   3.405   3.597  14.820  0.6930 -4.2179 -4.1075
  892MPD2    H113130   3.790   3.423  14.793 -0.5626 -0.3751  0.7980
  892MPD2    H213131   3.678   3.638  15.150 -0.1581 -0.8829  0.1033
  892MPD2    H313132   3.837   3.516  15.026  0.9257  0.8124 -1.1275
  892MPD2     N13133   3.579   3.482  14.648 -0.4471  0.1193  0.0899
  892MPD2    H513134   3.644   3.417  14.604 -1.9032 -0.9897 -0.4006
  892MPD2    N113135   3.434   3.726  15.030  0.2133 -0.4735 -0.4167
  892MPD2    H713136   3.356   3.752  14.970 -0.7099  1.5241  1.6601
  893MPD2     C13137   1.034   1.832   2.259  0.1209  0.5891  0.1631
  893MPD2    C113138   1.167   1.800   2.226  0.6217  0.9448 -0.4892
  893MPD2    C213139   1.246   1.750   2.325 -0.4660  0.1004 -0.6979
  893MPD2    C313140   1.203   1.743   2.456  0.1106  0.0297  0.2474
  893MPD2    C413141   1.070   1.762   2.482  0.5793 -0.3183 -0.2301
  893MPD2    C513142   0.991   1.814   2.383 -0.0618 -0.7305 -0.5329
  893MPD2     H13143   1.351   1.730   2.305  0.5501  2.8328  1.9466
  893MPD2    H113144   1.029   1.756   2.582 -0.1977  0.9932 -0.4715
  893MPD2    H213145   0.963   1.883   2.195  0.8984  0.8899 -0.4617
  893MPD2    H313146   0.889   1.839   2.411  0.0081  0.5522 -1.4269
  893MPD2     N13147   1.294   1.701   2.562  0.3171  0.5215 -0.0271
  893MPD2    H513148   1.251   1.706   2.653  0.5764  0.9199  0.0758
  893MPD2    N113149   1.207   1.843   2.099 -0.0199  0.0231  1.2012
  893MPD2    H713150   1.138   1.895   2.046 -1.5890 -0.5131  2.7502
  894MPD2     C13151   4.049   4.186   1.398 -0.2879 -0.2766 -0.1239
  894MPD2    C113152   3.963   4.286   1.408  0.2384 -0.6484  0.0601
  894MPD2    C213153   3.998   4.412   1.352  0.0354  0.0624  1.2418
  894MPD2    C313154   4.117   4.422   1.284 -0.3864 -0.3116  0.0461
  894MPD2    C413155   4.199   4.313   1.278 -0.9749 -0.8551 -0.0465
  894MPD2    C513156   4.173   4.200   1.342 -0.7137 -0.2722  0.4154
  894MPD2     H13157   3.915   4.479   1.370 -0.9627 -0.0842 -2.8989
  894MPD2    H113158   4.289   4.305   1.218 -1.6721  1.5155 -1.4182
  894MPD2    H213159   4.020   4.085   1.427 -1.2319 -0.6270 -2.2556
  894MPD2    H313160   4.237   4.114   1.325 -1.1793 -0.4112 -0.6326
  894MPD2     N13161   4.152   4.548   1.229 -0.1899  0.0256 -0.3301
  894MPD2    H513162   4.094   4.625   1.259  0.6410  1.6847 -2.9718
  894MPD2    N113163   3.832   4.270   1.437  0.2243 -0.1892 -0.5286
  894MPD2    H713164   3.777   4.349   1.407  1.6287  1.0383  0.1543
  895MPD2     C13165   2.459   3.199  14.281 -0.0956 -0.5085  0.1679
  895MPD2    C113166   2.425   3.216  14.145 -0.4460 -0.4350 -0.3995
  895MPD2    C213167   2.492   3.138  14.051 -0.8614 -0.2125  0.0608
  895MPD2    C313168   2.587   3.042  14.087  0.2794 -0.4155  0.3525
  895MPD2    C413169   2.605   3.020  14.219 -0.5262  0.0594 -0.5012
  895MPD2    C513170   2.551   3.104  14.310  0.1488  0.1342  0.0103
  895MPD2     H13171   2.470   3.151  13.945  3.4105  0.9246 -0.6949
  895MPD2    H113172   2.680   2.947  14.248  0.2823  0.6166 -1.1904
  895MPD2    H213173   2.407   3.263  14.352  0.0263 -0.4480  0.2021
  895MPD2    H313174   2.566   3.101  14.418 -0.6952  2.1059  0.1745
  895MPD2     N13175   2.637   2.952  13.990 -0.1622  0.8714 -0.3270
  895MPD2    H513176   2.658   2.857  14.018  0.9281  0.9066 -0.9851
  895MPD2    N113177   2.357   3.318  14.092 -0.3143  0.0640  0.0897
  895MPD2    H713178   2.330   3.314  13.995  1.4271 -0.7639 -0.3576
  896MPD2     C13179   1.330   0.367   2.394 -0.0999 -0.0641  0.0974
  896MPD2    C113180   1.289   0.384   2.265  0.3986 -1.0589 -0.0200
  896MPD2    C213181   1.149   0.391   2.240 -0.0598 -0.3898 -0.5859
  896MPD2    C313182   1.054   0.389   2.343 -0.1672 -0.2605  0.2700
  896MPD2    C413183   1.099   0.382   2.468  0.5027  0.0504 -0.5364
  896MPD2    C513184   1.233   0.369   2.492  0.5274 -0.3871  0.5721
  896MPD2     H13185   1.128   0.384   2.134 -0.8084  0.0956 -0.4681
  896MPD2    H113186   1.036   0.395   2.556 -1.1979  0.4489 -1.8110
  896MPD2    H213187   1.433   0.356   2.424  0.1349 -2.2654 -1.5165
  896MPD2    H313188   1.273   0.354   2.592  1.5359 -0.8588  0.1029
  896MPD2     N13189   0.921   0.416   2.312  0.0985  0.0914  0.6433
  896MPD2    H513190   0.900   0.419   2.213  3.2843  1.0342  0.0120
  896MPD2    N113191   1.389   0.394   2.163 -0.0638 -0.1787 -0.1603
  896MPD2    H713192   1.484   0.390   2.198 -0.5215  1.4109  1.2257
  897MPD2     C13193   1.095   2.997  10.414  0.7341 -0.4710 -0.2675
  897MPD2    C113194   1.043   3.101  10.485 -0.6807  0.2688 -0.4958
  897MPD2    C213195   0.972   3.078  10.606 -0.2736  1.2590 -0.9251
  897MPD2    C313196   0.968   2.947  10.648 -0.3054 -0.2163 -0.2509
  897MPD2    C413197   0.994   2.843  10.560 -0.4806  0.4277 -0.4889
  897MPD2    C513198   1.065   2.870  10.452  0.4988  0.4588  0.1059
  897MPD2     H13199   0.944   3.162  10.669 -2.5117 -0.5643  0.4820
  897MPD2    H113200   0.969   2.740  10.584  0.6612  0.4120  0.6131
  897MPD2    H213201   1.171   3.008  10.336  1.2073 -0.7962  0.1468
  897MPD2    H313202   1.106   2.796  10.384 -1.4520 -0.9010  0.4350
  897MPD2     N13203   0.926   2.940  10.783  0.1642  0.5286  0.1611
  897MPD2    H513204   0.896   3.028  10.823 -0.3981  1.1940 -1.7475
  897MPD2    N113205   1.070   3.235  10.438 -0.5018  0.7573  0.6345
  897MPD2    H713206   1.112   3.243  10.346  0.5812  0.4315  1.1020
  898MPD2     C13207   3.735   3.577  17.677  0.4883  0.2106 -0.6210
  898MPD2    C113208   3.804   3.696  17.707 -0.6300 -0.0664 -0.0106
  898MPD2    C213209   3.749   3.812  17.664  0.6742 -0.0475  0.4252
  898MPD2    C313210   3.620   3.814  17.608 -0.5691  0.1372  0.3937
  898MPD2    C413211   3.557   3.696  17.576 -0.3581  0.1387 -0.6555
  898MPD2    C513212   3.615   3.578  17.610  0.5078 -0.1455 -0.0172
  898MPD2     H13213   3.804   3.904  17.680 -0.4679  0.2028  3.0476
  898MPD2    H113214   3.455   3.693  17.537 -0.8603  0.8963  0.6127
  898MPD2    H213215   3.767   3.477  17.702  1.2140  0.3996 -0.7984
  898MPD2    H313216   3.567   3.482  17.596  0.2205 -0.3315  2.3098
  898MPD2     N13217   3.571   3.937  17.571 -0.4127  0.2038  0.7969
  898MPD2    H513218   3.638   4.014  17.574 -0.1618  0.0501 -0.6626
  898MPD2    N113219   3.934   3.697   0.010  0.0640 -0.3972  0.2135
  898MPD2    H713220   3.989   3.781   0.003 -0.3654 -0.0263  1.3975
  899MPD2     C13221   0.085   3.846   0.391  0.5150  0.3719  0.4595
  899MPD2    C113222   4.706   3.893   0.345  0.2656 -0.3961  0.1597
  899MPD2    C213223   4.593   3.871   0.421  0.1188 -0.2443  0.2554
  899MPD2    C313224   4.594   3.836   0.555 -0.0669  0.6494 -0.1970
  899MPD2    C413225   4.722   3.804   0.603  0.0259 -0.2033  0.4559
  899MPD2    C513226   0.091   3.800   0.521  0.5846 -0.4402 -0.3449
  899MPD2     H13227   4.493   3.896   0.388  0.1718  0.8601  0.9223
  899MPD2    H113228   0.001   3.776   0.706 -0.8333 -1.0162  0.3906
  899MPD2    H213229   0.166   3.827   0.321  0.7859  0.9624  0.6115
  899MPD2    H313230   0.186   3.764   0.558  0.8291  0.4900 -0.0818
  899MPD2     N13231   4.487   3.828   0.640 -0.4222 -0.5620  0.5614
  899MPD2    H513232   4.507   3.848   0.738 -2.0133 -0.5132  0.8819
  899MPD2    N113233   4.692   3.956   0.219  0.0888 -0.4532  0.0867
  899MPD2    H713234   0.038   3.965   0.165  0.7465 -2.4605  0.8034
  900MPD2     C13235   3.806   0.607  12.788  0.1844  0.8841 -0.7546
  900MPD2    C113236   3.672   0.580  12.799  0.5451  0.3500  0.7393
  900MPD2    C213237   3.580   0.677  12.764  0.0399  0.1878  0.5596
  900MPD2    C313238   3.619   0.802  12.712 -0.1226 -0.2638  0.3890
  900MPD2    C413239   3.762   0.822  12.691  0.0393  0.2540 -0.1803
  900MPD2    C513240   3.848   0.727  12.726 -0.9142 -0.6318 -0.5559
  900MPD2     H13241   3.476   0.653  12.746  0.5319 -1.5321  0.0301
  900MPD2    H113242   3.806   0.912  12.650  0.6854  0.3932  0.8264
  900MPD2    H213243   3.880   0.530  12.804 -0.4394  0.3047 -0.6480
  900MPD2    H313244   3.951   0.752  12.704 -1.6764  0.5538 -2.8178
  900MPD2     N13245   3.525   0.903  12.680 -0.0178 -0.1975 -0.4336
  900MPD2    H513246   3.432   0.900  12.721 -0.6467  0.6279 -1.7912
  900MPD2    N113247   3.631   0.448  12.833  0.2063 -1.0762  0.4679
  900MPD2    H713248   3.706   0.382  12.852  2.0405  0.8969  0.0491
  901MPD2     C13249   3.243   4.223  12.783 -0.0661 -0.7701  0.4950
  901MPD2    C113250   3.363   4.238  12.849  0.1536 -0.2138  1.3044
  901MPD2    C213251   3.401   4.367  12.891 -0.0699  0.3475 -0.6961
  901MPD2    C313252   3.321   4.474  12.876  0.6391 -0.1244  0.0362
  901MPD2    C413253   3.196   4.458  12.815 -0.6813  0.4760 -0.1295
  901MPD2    C513254   3.164   4.336  12.769 -0.6417  0.1810  0.0578
  901MPD2     H13255   3.495   4.378  12.944 -1.0051 -2.2839  1.5072
  901MPD2    H113256   3.119   4.534  12.807  0.3285  1.2910 -2.2936
  901MPD2    H213257   3.202   4.125  12.759 -0.0760 -0.8646  0.8873
  901MPD2    H313258   3.062   4.324  12.735  0.4521 -0.2780 -3.0554
  901MPD2     N13259   3.362   4.599  12.933  0.1262 -0.0433  0.2833
  901MPD2    H513260   3.453   4.598  12.979  0.1251  3.2062  0.3982
  901MPD2    N113261   3.441   4.121  12.881 -0.4133 -0.9110 -0.1146
  901MPD2    H713262   3.385   4.036  12.883 -0.4108 -0.8868  0.9115
  902MPD2     C13263   1.888   3.956  13.074  0.3397 -0.3196  0.5204
  902MPD2    C113264   1.998   3.953  12.991 -0.3938  0.1510 -0.2468
  902MPD2    C213265   2.101   3.871  13.025 -0.0628 -0.5427 -0.4375
  902MPD2    C313266   2.102   3.790  13.144 -0.0658 -0.1526 -0.3950
  902MPD2    C413267   1.992   3.796  13.226 -0.3197 -0.1313  0.1170
  902MPD2    C513268   1.892   3.881  13.190  0.4870 -0.2454 -0.9308
  902MPD2     H13269   2.190   3.873  12.964 -1.2106 -1.1355 -2.1416
  902MPD2    H113270   1.977   3.734  13.314  2.0988 -0.0656  0.5723
  902MPD2    H213271   1.796   4.012  13.066 -0.8644 -2.2505  0.8313
  902MPD2    H313272   1.812   3.897  13.262  1.1964  0.1299 -0.2357
  902MPD2     N13273   2.201   3.688  13.166 -0.5346 -0.6672  0.1556
  902MPD2    H513274   2.176   3.616  13.233 -0.9815 -0.1330  0.5672
  902MPD2    N113275   1.990   4.034  12.873  0.2571 -0.4642  0.2075
  902MPD2    H713276   1.905   4.090  12.877 -0.0945 -0.9489 -0.4818
  903MPD2     C13277   2.626   3.759  12.656  0.0023  0.3380  0.0618
  903MPD2    C113278   2.544   3.651  12.670 -0.7391 -0.0580  0.1309
  903MPD2    C213279   2.427   3.635  12.598 -0.5430  0.7896  0.4007
  903MPD2    C313280   2.387   3.731  12.512  0.2525  0.0278 -0.3411
  903MPD2    C413281   2.465   3.848  12.498  1.0679  0.3078  0.4010
  903MPD2    C513282   2.577   3.855  12.570 -0.0723 -0.4378 -0.1441
  903MPD2     H13283   2.370   3.546  12.620 -1.0374  1.2607  1.0409
  903MPD2    H113284   2.440   3.928  12.430 -0.1554  0.1846  0.7203
  903MPD2    H213285   2.710   3.769  12.724 -0.2323  1.4368  0.1839
  903MPD2    H313286   2.631   3.949  12.573 -0.8359  0.0629 -2.4856
  903MPD2     N13287   2.257   3.725  12.460 -0.0086 -0.5756  1.0145
  903MPD2    H513288   2.198   3.645  12.484 -2.5494  0.9538 -0.1236
  903MPD2    N113289   2.588   3.560  12.772 -0.1523  0.2947  0.1076
  903MPD2    H713290   2.654   3.595  12.841 -0.1643 -1.8725  1.1906
  904MPD2     C13291   1.958   2.412  14.403 -0.5976  0.4795 -0.5894
  904MPD2    C113292   2.035   2.529  14.387 -0.4245 -0.1965  0.7402
  904MPD2    C213293   2.169   2.521  14.385  0.4486  0.3338  0.1921
  904MPD2    C313294   2.233   2.395  14.387  0.7370  0.1101  0.6623
  904MPD2    C413295   2.151   2.284  14.408 -0.2315 -0.1531  0.0819
  904MPD2    C513296   2.011   2.288  14.411  0.2319 -0.7049  0.0634
  904MPD2     H13297   2.234   2.608  14.381  2.7467 -1.4260 -0.6172
  904MPD2    H113298   2.203   2.190  14.425  1.8038  1.1551  1.0394
  904MPD2    H213299   1.852   2.424  14.419 -0.4562  1.7065 -0.5933
  904MPD2    H313300   1.949   2.201  14.427 -0.1415 -0.9727 -2.8244
  904MPD2     N13301   2.369   2.395  14.360 -0.0115 -0.5235  0.4006
  904MPD2    H513302   2.413   2.486  14.359  0.5840 -0.8573 -3.0430
  904MPD2    N113303   1.974   2.651  14.371  0.2879 -0.1998  0.7296
  904MPD2    H713304   2.034   2.733  14.373  0.0605  0.0275 -1.8573
  905MPD2     C13305   1.802   2.737  13.682  0.5021  0.5983  0.1078
  905MPD2    C113306   1.886   2.825  13.747  0.3270 -0.3083  0.2695
  905MPD2    C213307   2.017   2.836  13.708  0.3114 -0.1798  0.0484
  905MPD2    C313308   2.071   2.751  13.605 -0.3772 -0.2148 -0.6033
  905MPD2    C413309   1.982   2.672  13.539  0.0205  0.3743 -0.1722
  905MPD2    C513310   1.850   2.668  13.574  0.4592 -0.7934  0.7931
  905MPD2     H13311   2.095   2.882  13.767  0.3355  0.2386 -0.3069
  905MPD2    H113312   2.025   2.619  13.455  0.3343  1.0660 -0.4451
  905MPD2    H213313   1.698   2.725  13.713  0.8693 -2.6619  0.0869
  905MPD2    H313314   1.784   2.594  13.531 -1.5877  1.7949 -0.5198
  905MPD2     N13315   2.209   2.755  13.553  0.0699 -0.3241  0.8921
  905MPD2    H513316   2.245   2.676  13.500 -0.8465  1.3671 -2.2316
  905MPD2    N113317   1.830   2.877  13.868 -0.6370 -0.5274  0.3418
  905MPD2    H713318   1.735   2.845  13.889 -0.1511 -2.0912  0.1965
  906MPD2     C13319   4.515   2.989  11.605 -0.5751 -0.0444 -0.1144
  906MPD2    C113320   4.545   2.923  11.489  0.2179  0.0232 -0.1469
  906MPD2    C213321   4.583   2.793  11.490 -0.0436  0.2861  0.6452
  906MPD2    C313322   4.569   2.712  11.597 -0.2146 -0.0715  0.7974
  906MPD2    C413323   4.517   2.773  11.712 -0.3148 -0.4507 -0.4763
  906MPD2    C513324   4.497   2.909  11.714 -0.0422 -0.3605  0.3473
  906MPD2     H13325   4.620   2.746  11.400 -1.5282 -0.3692  0.3821
  906MPD2    H113326   4.496   2.720  11.804 -0.0598  2.6012  1.3410
  906MPD2    H213327   4.499   3.096  11.611 -2.4913 -0.2952 -0.7481
  906MPD2    H313328   4.465   2.962  11.804  0.9989 -0.2158  0.6335
  906MPD2     N13329   4.597   2.573  11.607 -0.1574 -0.4258  0.0678
  906MPD2    H513330   4.570   2.530  11.695  1.7789 -1.7546  0.0194
  906MPD2    N113331   4.554   2.993  11.359  0.1114  0.1326  0.4752
  906MPD2    H713332   4.577   2.931  11.283  2.1834  0.1206  1.1153
  907MPD2     C13333   2.987   1.584  15.379  0.4529 -0.0605 -0.0164
  907MPD2    C113334   3.086   1.490  15.398  0.1455 -0.1646 -0.2203
  907MPD2    C213335   3.142   1.480  15.521  0.4751  0.3435  0.3346
  907MPD2    C313336   3.111   1.568  15.623  0.1895 -0.1816  0.1204
  907MPD2    C413337   3.025   1.672  15.600 -0.2324  0.0117 -0.4167
  907MPD2    C513338   2.958   1.672  15.484 -0.6027  0.0849  0.1194
  907MPD2     H13339   3.221   1.407  15.535 -0.8163 -1.1853 -0.3797
  907MPD2    H113340   2.996   1.745  15.674 -1.2612 -2.2853  1.4483
  907MPD2    H213341   2.932   1.594  15.286  1.6544 -2.8216 -1.0291
  907MPD2    H313342   2.881   1.744  15.462  0.5389  1.9497  2.2866
  907MPD2     N13343   3.189   1.557  15.745 -0.2934 -0.0463  0.1371
  907MPD2    H513344   3.262   1.487  15.754  1.5562  1.7585 -0.7869
  907MPD2    N113345   3.129   1.396  15.303 -0.4750  0.4246  0.5688
  907MPD2    H713346   3.187   1.320  15.340  0.8084  0.4832 -1.2981
  908MPD2     C13347   0.644   3.480   9.740 -0.1155  0.3619 -0.5313
  908MPD2    C113348   0.656   3.366   9.823 -0.2371 -0.2179 -0.5050
  908MPD2    C213349   0.747   3.384   9.930  0.8101  0.1345 -0.4009
  908MPD2    C313350   0.829   3.490   9.951 -0.0101 -0.0306  0.1795
  908MPD2    C413351   0.820   3.592   9.856 -0.0845  0.1315 -0.0447
  908MPD2    C513352   0.726   3.582   9.756 -0.3508 -0.2055 -0.0768
  908MPD2     H13353   0.770   3.306  10.001 -0.8794  1.6361  1.8011
  908MPD2    H113354   0.876   3.684   9.868  1.3614 -0.3885 -2.8174
  908MPD2    H213355   0.563   3.485   9.668 -3.1999 -1.6902  2.7956
  908MPD2    H313356   0.731   3.664   9.685 -0.8658 -0.3368 -0.2625
  908MPD2     N13357   0.919   3.493  10.061 -0.6175  0.3373 -0.4659
  908MPD2    H513358   0.914   3.412  10.122  0.2582  0.3272 -0.4044
  908MPD2    N113359   0.575   3.251   9.796  0.4635  0.6281  0.0151
  908MPD2    H713360   0.505   3.266   9.724  0.9637  2.1837 -0.1529
  909MPD2     C13361   1.032   0.746  11.855 -0.4404 -0.5991 -0.1131
  909MPD2    C113362   1.092   0.866  11.881 -0.0058  0.2115  0.1800
  909MPD2    C213363   1.078   0.921  12.008  0.3201 -0.1776  0.7107
  909MPD2    C313364   0.988   0.866  12.090 -0.3636  0.2867 -0.4641
  909MPD2    C413365   0.931   0.743  12.070  0.2798  0.1820  0.0138
  909MPD2    C513366   0.964   0.681  11.952  0.2259 -0.3961 -0.4876
  909MPD2     H13367   1.119   1.019  12.027  2.6041 -1.1528  0.7120
  909MPD2    H113368   0.865   0.692  12.139 -1.3969  1.0602 -0.9370
  909MPD2    H213369   1.030   0.695  11.759 -0.8853 -1.9163  0.5927
  909MPD2    H313370   0.913   0.589  11.923 -2.9026  1.2537 -0.2654
  909MPD2     N13371   0.975   0.924  12.224  0.2085  0.1607 -0.0742
  909MPD2    H513372   1.038   1.002  12.242 -0.0666  0.1588  0.9405
  909MPD2    N113373   1.170   0.937  11.791 -0.1178  0.1370 -0.6042
  909MPD2    H713374   1.195   1.033  11.810  0.9486  0.0590 -1.6126
  910MPD2     C13375   2.877   2.203  16.323 -1.2322  0.1777 -0.3646
  910MPD2    C113376   2.860   2.091  16.246 -0.5766  0.0481 -0.6348
  910MPD2    C213377   2.817   2.096  16.117  0.1997  0.3772 -0.3124
  910MPD2    C313378   2.773   2.217  16.064 -1.1008  0.2522  0.4126
  910MPD2    C413379   2.774   2.332  16.141 -1.0107  0.2317  0.7336
  910MPD2    C513380   2.827   2.324  16.271 -0.3445 -0.4244  0.0555
  910MPD2     H13381   2.814   2.001  16.064  0.2396 -0.1943  0.6930
  910MPD2    H113382   2.730   2.424  16.106 -2.5497  0.5730  3.5320
  910MPD2    H213383   2.924   2.207  16.420 -0.9480  0.5356 -0.5172
  910MPD2    H313384   2.820   2.412  16.334  2.9111 -0.8512  1.0218
  910MPD2     N13385   2.704   2.221  15.940  0.4582  0.0704  0.2815
  910MPD2    H513386   2.650   2.307  15.932  0.4701 -0.0701 -1.3512
  910MPD2    N113387   2.897   1.965  16.290 -0.2785  0.4539 -0.3213
  910MPD2    H713388   2.895   1.894  16.217  0.1782  2.6100 -2.4274
  911MPD2     C13389   0.804   2.459  16.193  0.3711 -0.7789  0.1964
  911MPD2    C113390   0.848   2.492  16.323  0.0575 -0.1139 -0.9025
  911MPD2    C213391   0.799   2.609  16.381 -0.6675 -0.2595 -0.5946
  911MPD2    C313392   0.720   2.697  16.306 -0.0591 -0.0093 -0.4172
  911MPD2    C413393   0.693   2.669  16.173 -0.1399 -0.0664  0.1936
  911MPD2    C513394   0.726   2.550  16.125 -0.1794  0.0857 -0.4343
  911MPD2     H13395   0.816   2.618  16.488  0.2592 -3.2347 -0.4930
  911MPD2    H113396   0.626   2.732  16.117  1.1504  2.2301  1.1925
  911MPD2    H213397   0.829   2.365  16.144  0.4342  0.4667 -2.1650
  911MPD2    H313398   0.710   2.526  16.020  0.0692  2.2510 -0.9787
  911MPD2     N13399   0.649   2.801  16.361 -0.6547 -0.5753  0.2997
  911MPD2    H513400   0.572   2.842  16.309  0.1613  0.5107 -0.0576
  911MPD2    N113401   0.932   2.394  16.380 -0.3231  0.1868  0.9236
  911MPD2    H713402   0.971   2.327  16.314 -1.9106  0.2902 -0.1110
  912MPD2     C13403   0.368   2.706  15.974 -0.0639 -0.5470 -0.2846
  912MPD2    C113404   0.354   2.685  16.111 -0.6356  0.1616  0.5092
  912MPD2    C213405   0.375   2.562  16.161 -0.2844  0.4566  0.2464
  912MPD2    C313406   0.401   2.460  16.072 -0.2901 -0.4431  0.5254
  912MPD2    C413407   0.411   2.478  15.934  0.7029  0.0607  0.6625
  912MPD2    C513408   0.390   2.603  15.892  0.5685  0.0215 -0.4741
  912MPD2     H13409   0.366   2.538  16.266 -2.8422  0.5003  0.0377
  912MPD2    H113410   0.428   2.397  15.865 -1.1390 -1.4758  2.0135
  912MPD2    H213411   0.359   2.800  15.921  1.1008 -0.0818  0.3461
  912MPD2    H313412   0.404   2.633  15.789 -2.8064  2.9981 -0.0443
  912MPD2     N13413   0.439   2.335  16.136  0.3798 -0.3270  0.2732
  912MPD2    H513414   0.442   2.331  16.237  1.2099  1.5050  0.3203
  912MPD2    N113415   0.344   2.806  16.190 -0.4705  0.5230  0.1276
  912MPD2    H713416   0.374   2.892  16.144 -0.3274 -0.4740 -1.6594
  913MPD2     C13417   0.767   4.148  10.519  0.3637  0.6053 -0.0392
  913MPD2    C113418   0.808   4.279  10.544 -0.2891  0.4493  0.1428
  913MPD2    C213419   0.796   4.372  10.438 -0.3693 -0.0731  0.1917
  913MPD2    C313420   0.758   4.341  10.307 -0.0508 -0.0495 -0.4304
  913MPD2    C413421   0.720   4.211  10.284 -0.2837 -0.1437  0.1593
  913MPD2    C513422   0.727   4.117  10.391  0.0047  1.0366  0.5999
  913MPD2     H13423   0.811   4.478  10.454 -0.7683 -0.0972  0.7560
  913MPD2    H113424   0.687   4.186  10.184  2.4342 -4.1193  0.2698
  913MPD2    H213425   0.767   4.077  10.601  0.0376  2.9319  1.9662
  913MPD2    H313426   0.693   4.017  10.366 -0.9190  1.6810 -0.6926
  913MPD2     N13427   0.762   4.424  10.192  0.5758 -0.1846 -0.0881
  913MPD2    H513428   0.711   4.385  10.112 -2.4246  0.7493  1.3740
  913MPD2    N113429   0.828   4.320  10.681  0.0303  0.9053  0.7341
  913MPD2    H713430   0.811   4.249  10.751  0.7608 -0.7443 -0.7496
  914MPD2     C13431   3.297   3.919  12.334 -0.8553  0.0605 -0.3910
  914MPD2    C113432   3.339   4.028  12.416 -0.0784  0.4750 -0.0466
  914MPD2    C213433   3.388   4.000  12.540  0.8628 -0.1207 -0.0374
  914MPD2    C313434   3.405   3.868  12.581  0.0909 -0.4951  0.8035
  914MPD2    C413435   3.380   3.769  12.492 -0.2440  0.2608  0.5156
  914MPD2    C513436   3.322   3.790  12.373 -1.0243  0.4639  0.6135
  914MPD2     H13437   3.403   4.077  12.615  1.8093  0.4048 -0.7788
  914MPD2    H113438   3.378   3.662  12.504  1.3726  0.0346 -1.2658
  914MPD2    H213439   3.242   3.939  12.242  3.3000  1.7845 -2.5026
  914MPD2    H313440   3.294   3.707  12.309  1.2016  1.1026 -1.1844
  914MPD2     N13441   3.454   3.845  12.706 -0.4946 -0.1676  0.4866
  914MPD2    H513442   3.477   3.929  12.759 -1.4860  0.0867  0.5180
  914MPD2    N113443   3.316   4.162  12.376 -0.1203 -0.3549  0.5886
  914MPD2    H713444   3.240   4.175  12.310  2.2652  3.1925 -1.4277
  915MPD2     C13445   2.159   3.800  15.548  0.6194  0.1832  0.0728
  915MPD2    C113446   2.073   3.905  15.524 -0.8791  1.0262  0.2399
  915MPD2    C213447   2.027   3.982  15.623 -0.1045  0.2398  0.5905
  915MPD2    C313448   2.069   3.956  15.757  0.7407 -0.2359  0.0546
  915MPD2    C413449   2.166   3.852  15.776  0.7648 -0.1150 -0.2504
  915MPD2    C513450   2.206   3.780  15.673  0.0059  0.6067 -0.4056
  915MPD2     H13451   1.956   4.062  15.607  1.1116  0.9189 -1.3895
  915MPD2    H113452   2.219   3.839  15.869 -2.3412 -1.9889  1.2813
  915MPD2    H213453   2.187   3.732  15.468 -0.6092 -0.4393  0.1715
  915MPD2    H313454   2.289   3.711  15.686 -0.1653  0.6755  1.0597
  915MPD2     N13455   2.016   4.030  15.865 -0.1026 -0.3676  0.0513
  915MPD2    H513456   1.938   4.090  15.841 -0.5661 -0.7606  0.5884
  915MPD2    N113457   2.003   3.910  15.400 -0.0894 -0.0027 -0.6910
  915MPD2    H713458   2.011   3.831  15.336  0.8188 -0.8579  0.4900
  916MPD2     C13459   0.089   2.402  16.073 -0.5363 -0.3823 -0.2966
  916MPD2    C113460   0.096   2.329  16.189 -0.6246  0.3892  0.2905
  916MPD2    C213461   0.111   2.188  16.178  0.4066 -0.1006 -0.3620
  916MPD2    C313462   0.122   2.124  16.053 -0.0131 -0.1183 -0.9805
  916MPD2    C413463   0.115   2.200  15.941 -0.0232 -0.5101 -0.2261
  916MPD2    C513464   0.100   2.339  15.953  0.1171 -0.2119 -0.5097
  916MPD2     H13465   0.112   2.132  16.271  0.1438 -0.9919 -0.8997
  916MPD2    H113466   0.123   2.162  15.840 -0.5876 -1.7162  0.1904
  916MPD2    H213467   0.070   2.508  16.067  0.3159 -0.2089  0.1166
  916MPD2    H313468   0.096   2.407  15.868 -0.6077  0.7690  0.3175
  916MPD2     N13469   0.159   1.986  16.036  0.3768 -0.0872  0.0349
  916MPD2    H513470   0.182   1.961  15.940  0.7305 -0.4726  0.2195
  916MPD2    N113471   0.081   2.386  16.319  0.6931 -0.3135  0.1225
  916MPD2    H713472   0.051   2.482  16.308  1.1644 -0.1599  0.1595
  917MPD2     C13473   4.717   0.194  11.565 -0.0608  0.0795  0.8683
  917MPD2    C113474   0.018   0.211  11.697 -0.0092 -0.3138  0.3924
  917MPD2    C213475   0.109   0.304  11.726  0.2077  0.0553  0.2963
  917MPD2    C313476   0.147   0.401  11.628 -0.0401  0.3649 -0.1162
  917MPD2    C413477   0.125   0.375  11.498  0.3214 -0.5540  0.4129
  917MPD2    C513478   0.049   0.264  11.466 -0.1387 -0.0744  0.0600
  917MPD2     H13479   0.142   0.304  11.829 -1.2007  0.8396  0.7508
  917MPD2    H113480   0.148   0.443  11.416  0.6040  0.5831  1.4244
  917MPD2    H213481   4.646   0.117  11.537  1.0651 -1.5105  2.3922
  917MPD2    H313482   0.032   0.243  11.361 -0.0318 -0.6404  0.1538
  917MPD2     N13483   0.202   0.527  11.660  0.2891  0.2472  0.5729
  917MPD2    H513484   0.234   0.593  11.590  0.4901 -0.5738 -0.1061
  917MPD2    N113485   4.697   0.122  11.793 -0.0684  0.2527 -0.0805
  917MPD2    H713486   4.622   0.063  11.757  2.3995 -2.2690 -1.1084
  918MPD2     C13487   4.523   0.681  12.267 -0.4656  0.1499 -0.5793
  918MPD2    C113488   4.636   0.601  12.298 -0.0820  0.7147  0.2734
  918MPD2    C213489   4.620   0.464  12.313  0.4892  0.4639  0.3792
  918MPD2    C313490   4.497   0.406  12.288 -0.0288 -0.3844  0.0720
  918MPD2    C413491   4.388   0.479  12.251  0.1415 -0.0369 -0.0036
  918MPD2    C513492   4.404   0.614  12.238 -0.8264  0.1969 -0.0187
  918MPD2     H13493   4.703   0.397  12.334  0.1011 -0.9170 -2.4776
  918MPD2    H113494   4.290   0.435  12.239 -0.4004  1.4742 -1.1818
  918MPD2    H213495   4.517   0.789  12.257  0.3397  0.1532 -0.9683
  918MPD2    H313496   4.319   0.670  12.201  0.0934  0.2559 -2.0171
  918MPD2     N13497   4.498   0.266  12.297  0.4727 -0.1224 -0.4491
  918MPD2    H513498   4.579   0.219  12.338 -0.7854 -1.3818  0.5875
  918MPD2    N113499   0.026   0.650  12.315  0.3819  0.5282  0.1074
  918MPD2    H713500   0.098   0.589  12.352 -0.9248 -2.4113 -2.1251
  919MPD2     C13501   0.603   4.392  12.235 -0.6397  0.6026 -0.0080
  919MPD2    C113502   0.574   4.287  12.159 -0.7512 -0.2121  0.5830
  919MPD2    C213503   0.551   4.305  12.020  0.0892 -0.2339  0.0165
  919MPD2    C313504   0.559   4.429  11.966 -0.1061  0.1662  0.1936
  919MPD2    C413505   0.610   4.531  12.042  0.9074 -0.2494  0.3309
  919MPD2    C513506   0.627   4.510  12.176 -0.3433  0.0509 -0.4309
  919MPD2     H13507   0.555   4.218  11.954  0.1731 -1.5322  1.7392
  919MPD2    H113508   0.637   4.624  11.994  1.0861  1.4033  3.6487
  919MPD2    H213509   0.626   4.379  12.340 -0.9433  0.8377  0.0874
  919MPD2    H313510   0.657   4.586  12.247  0.8989 -2.1767  1.4280
  919MPD2     N13511   0.524   4.449  11.833 -0.3565 -0.3324  0.1311
  919MPD2    H513512   0.556   4.541  11.805  0.3684 -0.8656 -0.7818
  919MPD2    N113513   0.568   4.155  12.213  0.6185 -0.2165 -0.1204
  919MPD2    H713514   0.549   4.092  12.135 -1.8358 -0.4821  0.6859
  920MPD2     C13515   0.663   0.033  10.883  0.3611  0.3483 -0.0536
  920MPD2    C113516   0.556   4.686  10.866 -0.0577  0.5302 -0.0198
  920MPD2    C213517   0.534   4.591  10.964  0.1680  0.4630 -0.5333
  920MPD2    C313518   0.602   4.597  11.085  1.2833  0.5021  0.4642
  920MPD2    C413519   0.711   4.681  11.098 -0.4857  0.0932 -0.2505
  920MPD2    C513520   0.734   0.033  11.000  0.3080 -0.0683 -0.0807
  920MPD2     H13521   0.443   4.532  10.963 -0.7616  1.9032 -1.1410
  920MPD2    H113522   0.773   4.678  11.187 -3.9007 -1.2410  2.1140
  920MPD2    H213523   0.686   0.104  10.805 -0.1468  0.9762  0.3728
  920MPD2    H313524   0.813   0.106  11.006  0.9702 -0.6605 -1.5654
  920MPD2     N13525   0.555   4.514  11.190  0.3128 -0.3322  0.3399
  920MPD2    H513526   0.497   4.436  11.161  1.1697 -0.8525  0.0202
  920MPD2    N113527   0.484   4.680  10.743  0.1462  0.3078  1.1128
  920MPD2    H713528   0.430   4.596  10.726  2.2138 -0.8641  0.2832
  921MPD2     C13529   1.620   2.600  17.021 -0.3127  0.7682 -0.1724
  921MPD2    C113530   1.662   2.546  16.899 -0.1269 -0.1066  0.6415
  921MPD2    C213531   1.575   2.452  16.840  0.0313 -0.0256 -0.3368
  921MPD2    C313532   1.456   2.416  16.905 -0.0797 -0.2469  0.9141
  921MPD2    C413533   1.425   2.471  17.029  0.0975  0.5435  0.6558
  921MPD2    C513534   1.517   2.561  17.093 -0.5328 -0.0365 -0.0052
  921MPD2     H13535   1.594   2.417  16.740  4.9226 -0.7080  0.8533
  921MPD2    H113536   1.336   2.440  17.083  0.0498  2.0347  1.4216
  921MPD2    H213537   1.682   2.669  17.076  1.1151 -0.8043  0.2042
  921MPD2    H313538   1.504   2.612  17.187  2.7588 -3.7438  2.4545
  921MPD2     N13539   1.357   2.336  16.845 -0.0434 -0.0503  0.2211
  921MPD2    H513540   1.279   2.314  16.906  0.1419 -1.1635  0.0500
  921MPD2    N113541   1.790   2.571  16.851 -0.5026  0.0616 -0.2911
  921MPD2    H713542   1.843   2.647  16.893  0.7843 -0.4964 -0.9119
  922MPD2     C13543   2.710   0.404   0.325 -0.0559 -0.1855  0.2243
  922MPD2    C113544   2.718   0.506   0.240  0.3816  0.3544  0.1616
  922MPD2    C213545   2.632   0.521   0.136 -0.7654  0.1955  0.7062
  922MPD2    C313546   2.548   0.422   0.107 -0.1568  0.0459 -0.3366
  922MPD2    C413547   2.537   0.312   0.193 -0.6636 -0.0905 -0.3805
  922MPD2    C513548   2.619   0.303   0.302 -0.1106  1.1243 -0.7005
  922MPD2     H13549   2.638   0.610   0.074  2.0974  1.0509  2.2090
  922MPD2    H113550   2.461   0.235   0.183  0.5836 -1.6285  1.8554
  922MPD2    H213551   2.749   0.411   0.425  0.5226  1.2734 -0.1016
  922MPD2    H313552   2.610   0.226   0.377  0.5741  1.4429 -0.2962
  922MPD2     N13553   2.457   0.439  17.747 -0.7407  0.4015 -0.3302
  922MPD2    H513554   2.461   0.532  17.706  2.9807 -0.0783 -1.0159
  922MPD2    N113555   2.810   0.613   0.269  0.0990 -0.4755 -0.0131
  922MPD2    H713556   2.795   0.690   0.204 -3.1747 -1.5510 -0.5172
  923MPD2     C13557   3.332   2.782   9.266 -0.2447  0.2909 -0.1293
  923MPD2    C113558   3.345   2.920   9.232 -0.5482 -0.2249 -0.4845
  923MPD2    C213559   3.451   2.987   9.288 -0.1443 -0.2960  0.0892
  923MPD2    C313560   3.550   2.926   9.363  0.1613  0.3983  0.1922
  923MPD2    C413561   3.548   2.790   9.372 -0.0133  0.2928  0.6600
  923MPD2    C513562   3.442   2.722   9.319  0.1088  0.0075  0.1106
  923MPD2     H13563   3.456   3.094   9.272 -1.0955 -0.1859  0.5666
  923MPD2    H113564   3.633   2.738   9.416 -0.6940 -1.4353 -0.0404
  923MPD2    H213565   3.261   2.710   9.228  0.5350 -0.6967  0.2683
  923MPD2    H313566   3.431   2.614   9.325  0.3196 -0.0123  0.1608
  923MPD2     N13567   3.658   2.993   9.423  0.1020  0.5511  0.3861
  923MPD2    H513568   3.726   2.942   9.478 -0.2779 -0.7405 -0.3610
  923MPD2    N113569   3.237   2.987   9.169  0.0047  0.8265  0.0742
  923MPD2    H713570   3.161   2.930   9.134 -1.0146  2.4291 -0.3404
  924MPD2     C13571   3.632   0.936  15.907  0.5503 -0.3045 -0.8272
  924MPD2    C113572   3.606   0.993  16.024  0.2531  0.1504  0.6684
  924MPD2    C213573   3.583   1.127  16.040 -1.1699 -0.0416  0.1834
  924MPD2    C313574   3.602   1.207  15.932 -0.5059 -0.0569  0.2954
  924MPD2    C413575   3.643   1.151  15.814  0.4532  0.1611 -0.0924
  924MPD2    C513576   3.640   1.016  15.799  0.5916 -0.4822  0.0643
  924MPD2     H13577   3.537   1.169  16.129 -2.0666 -0.1122 -0.2401
  924MPD2    H113578   3.639   1.210  15.723  0.2753 -1.3198 -1.0509
  924MPD2    H213579   3.637   0.828  15.900  1.5873 -0.2477 -0.8999
  924MPD2    H313580   3.660   0.970  15.703 -0.6398  0.4057 -0.6209
  924MPD2     N13581   3.582   1.346  15.934 -0.2879 -0.6100  0.2287
  924MPD2    H513582   3.589   1.395  15.845  0.7555  0.2374  0.7738
  924MPD2    N113583   3.603   0.900  16.137  0.1519  0.1543 -0.1821
  924MPD2    H713584   3.625   0.802  16.123 -1.6307  0.1501 -2.9800
  925MPD2     C13585   2.703   3.622  15.111 -0.1436 -0.5794 -0.8422
  925MPD2    C113586   2.576   3.606  15.076 -0.7034 -0.3825 -0.7978
  925MPD2    C213587   2.482   3.595  15.182  0.0794  0.4704 -0.5903
  925MPD2    C313588   2.529   3.569  15.311 -0.2950 -0.2983  0.5107
  925MPD2    C413589   2.667   3.585  15.336 -0.2587 -0.5390 -0.6174
  925MPD2    C513590   2.755   3.615  15.235 -0.1498 -0.2711 -0.2848
  925MPD2     H13591   2.377   3.584  15.156  0.0016 -1.2046  0.4142
  925MPD2    H113592   2.710   3.571  15.435  0.2529  0.0792 -0.7592
  925MPD2    H213593   2.778   3.658  15.040 -0.1679 -1.3221 -1.2489
  925MPD2    H313594   2.856   3.638  15.268  0.3240 -1.5306 -0.8506
  925MPD2     N13595   2.437   3.541  15.415 -0.7484  0.2465  0.1754
  925MPD2    H513596   2.476   3.515  15.505 -1.6074  1.2580  0.8288
  925MPD2    N113597   2.537   3.587  14.939  0.7673 -0.4516 -0.1796
  925MPD2    H713598   2.439   3.583  14.913 -0.0037  3.5719  2.1304
  926MPD2     C13599   1.369   2.269  13.658  0.4441  0.3092  0.3138
  926MPD2    C113600   1.238   2.258  13.611 -0.5009  0.1151  0.0418
  926MPD2    C213601   1.210   2.336  13.500  0.4037 -0.6134  0.4106
  926MPD2    C313602   1.300   2.419  13.449 -0.6752 -0.3427  0.9175
  926MPD2    C413603   1.423   2.425  13.501  1.0939  1.1409 -0.1296
  926MPD2    C513604   1.464   2.356  13.608 -0.3403 -0.5156  0.7231
  926MPD2     H13605   1.104   2.343  13.476  0.7474 -1.3815 -1.3252
  926MPD2    H113606   1.507   2.487  13.472  2.9646 -1.1153  0.4188
  926MPD2    H213607   1.402   2.217  13.747  1.0434  1.4905  0.7932
  926MPD2    H313608   1.566   2.357  13.645 -0.1778 -0.7283  0.2857
  926MPD2     N13609   1.277   2.500  13.340  0.3131 -0.1697 -0.1500
  926MPD2    H513610   1.353   2.562  13.315 -0.8264  1.2888 -0.0309
  926MPD2    N113611   1.138   2.187  13.682  0.1673 -0.0263  1.5978
  926MPD2    H713612   1.044   2.188  13.643  1.2723 -0.4342 -1.1353
  927MPD2     C13613   1.625   3.752   0.452  0.4543 -0.0643  0.3417
  927MPD2    C113614   1.497   3.783   0.420  0.0574 -0.2113  0.3789
  927MPD2    C213615   1.463   3.788   0.290  0.6177 -0.6296 -0.1155
  927MPD2    C313616   1.549   3.769   0.190 -0.2612 -0.4806 -0.4913
  927MPD2    C413617   1.675   3.717   0.224  0.1265 -0.3264  0.1237
  927MPD2    C513618   1.715   3.713   0.353 -0.1068 -0.0407 -0.7691
  927MPD2     H13619   1.364   3.829   0.274  0.6814 -0.1637  0.6677
  927MPD2    H113620   1.745   3.688   0.146  1.1408 -2.6934  1.8890
  927MPD2    H213621   1.657   3.752   0.555 -2.9602 -0.2124  1.4113
  927MPD2    H313622   1.820   3.691   0.371 -0.4103 -0.6782  0.1931
  927MPD2     N13623   1.507   3.814   0.062  0.2205 -0.3012 -0.1424
  927MPD2    H513624   1.425   3.873   0.051 -0.1840 -0.8490 -0.0574
  927MPD2    N113625   1.412   3.789   0.533  0.3456 -0.3058 -0.2473
  927MPD2    H713626   1.468   3.810   0.615  0.9480 -0.0400 -0.7252
  928MPD2     C13627   3.803   3.337   1.034 -0.2078 -0.4075  0.2775
  928MPD2    C113628   3.869   3.265   1.128  0.2401 -0.4185  0.5210
  928MPD2    C213629   3.991   3.207   1.095  0.2274 -0.2427  0.2580
  928MPD2    C313630   4.035   3.210   0.966 -0.2359 -0.1295 -0.2399
  928MPD2    C413631   3.963   3.284   0.876  0.9035  0.0453 -0.1258
  928MPD2    C513632   3.846   3.340   0.910 -0.1761  0.2242 -0.5557
  928MPD2     H13633   4.053   3.158   1.169 -0.0893 -0.1418  0.5899
  928MPD2    H113634   3.996   3.289   0.773  0.6202  2.0091 -0.1298
  928MPD2    H213635   3.708   3.387   1.051 -0.1829 -0.6923  1.2351
  928MPD2    H313636   3.799   3.390   0.826 -1.5538 -0.4997 -0.2177
  928MPD2     N13637   4.163   3.170   0.930 -0.7013 -0.7378 -0.0313
  928MPD2    H513638   4.190   3.163   0.832 -1.8955  1.1205 -0.5108
  928MPD2    N113639   3.817   3.258   1.260 -0.1244  0.5385  0.2558
  928MPD2    H713640   3.732   3.309   1.280 -0.7694  0.1848 -1.5405
  929MPD2     C13641   3.223   3.302   9.922  0.4450 -0.0322 -0.4283
  929MPD2    C113642   3.151   3.197   9.987 -0.9112 -0.0968  0.2278
  929MPD2    C213643   3.025   3.159   9.935 -0.6550 -0.2608 -0.3830
  929MPD2    C313644   2.979   3.208   9.818 -0.7719 -0.2312 -0.2677
  929MPD2    C413645   3.047   3.315   9.762  0.3806 -0.3002 -1.4801
  929MPD2    C513646   3.169   3.355   9.809 -0.5830 -0.0072 -0.2552
  929MPD2     H13647   2.969   3.080   9.983  2.0038 -1.2686  1.0896
  929MPD2    H113648   3.002   3.371   9.681 -1.7386  1.3709  0.8484
  929MPD2    H213649   3.324   3.328   9.952  0.6173 -1.0822 -0.0761
  929MPD2    H313650   3.226   3.437   9.767 -2.1350  1.6764  0.9251
  929MPD2     N13651   2.869   3.156   9.739  0.2087 -0.6661  0.4766
  929MPD2    H513652   2.865   3.184   9.641  0.3070 -3.2821 -0.2767
  929MPD2    N113653   3.198   3.162  10.120  0.0139  0.5149 -0.0629
  929MPD2    H713654   3.268   3.222  10.162 -2.0076  2.3854  0.6827
  930MPD2     C13655   0.466   4.538  14.372 -0.4842  0.2129  0.0369
  930MPD2    C113656   0.597   4.538  14.393  1.2645 -0.3514  0.6135
  930MPD2    C213657   0.679   4.529  14.279  0.3154 -0.4792  0.0253
  930MPD2    C313658   0.626   4.527  14.148 -0.4945 -0.2501 -0.3612
  930MPD2    C413659   0.495   4.511  14.134 -0.0710 -0.1251 -0.6603
  930MPD2    C513660   0.412   4.520  14.245  0.6491  0.0664 -0.4408
  930MPD2     H13661   0.786   4.535  14.298  0.2884  1.0368 -0.2998
  930MPD2    H113662   0.450   4.500  14.036 -3.1794  1.6813  0.5485
  930MPD2    H213663   0.398   4.560  14.453 -1.3509 -1.5942 -0.2023
  930MPD2    H313664   0.306   4.529  14.228  0.6198 -0.6729 -0.6449
  930MPD2     N13665   0.703   4.561  14.036 -0.1466 -0.4257 -0.0209
  930MPD2    H513666   0.646   4.576  13.954 -1.6139  2.0996  1.4396
  930MPD2    N113667   0.646   4.594  14.518  0.6507 -0.5516 -0.4553
  930MPD2    H713668   0.586   4.656  14.571  2.0598  0.1146  0.3653
  931MPD2     C13669   1.571   4.019   1.130 -0.1083 -0.3519  0.3946
  931MPD2    C113670   1.524   3.890   1.098  0.2944  0.5062 -0.2290
  931MPD2    C213671   1.569   3.786   1.180  0.6707 -0.0027  0.3064
  931MPD2    C313672   1.663   3.804   1.279  0.6153 -0.2706 -0.2147
  931MPD2    C413673   1.715   3.930   1.295  0.2942  0.2087 -0.1311
  931MPD2    C513674   1.668   4.040   1.225 -0.1138 -0.5071 -0.7814
  931MPD2     H13675   1.513   3.693   1.174  0.0041  0.3127  1.6682
  931MPD2    H113676   1.792   3.944   1.370 -0.5108 -1.3431  0.9905
  931MPD2    H213677   1.544   4.111   1.079  0.8307  0.4570  1.3548
  931MPD2    H313678   1.710   4.138   1.244  0.6571 -0.8713 -0.6271
  931MPD2     N13679   1.689   3.699   1.367  0.4983 -0.0563 -0.4501
  931MPD2    H513680   1.744   3.720   1.450  0.1929 -1.1522  0.0340
  931MPD2    N113681   1.420   3.864   1.008 -0.2519 -0.1139  0.1103
  931MPD2    H713682   1.392   3.768   0.991 -2.2852  1.1333 -3.6206
  932MPD2     C13683   2.216   4.135  11.830 -0.0953  0.5101  0.2172
  932MPD2    C113684   2.332   4.058  11.826 -0.6241 -0.2433 -0.7323
  932MPD2    C213685   2.309   3.921  11.853 -0.8508 -0.2606 -0.3866
  932MPD2    C313686   2.189   3.863  11.871  0.4114  0.2967 -0.1883
  932MPD2    C413687   2.077   3.944  11.874 -0.2718 -0.8120  0.8379
  932MPD2    C513688   2.095   4.074  11.854 -0.2565 -0.3902 -0.5576
  932MPD2     H13689   2.393   3.855  11.840 -0.0388  0.7558 -0.3302
  932MPD2    H113690   1.983   3.912  11.918 -0.2249  0.9162  2.2002
  932MPD2    H213691   2.219   4.242  11.815  0.5181  0.2530 -1.5408
  932MPD2    H313692   2.012   4.142  11.871 -0.8773 -1.8566  2.3764
  932MPD2     N13693   2.165   3.730  11.897  0.3172  0.0481  0.9403
  932MPD2    H513694   2.071   3.701  11.925 -0.3274  1.0879 -0.1500
  932MPD2    N113695   2.460   4.110  11.810  0.1987  0.4809  0.4223
  932MPD2    H713696   2.534   4.041  11.799 -0.5230 -0.2774  0.2947
  933MPD2     C13697   3.203   3.383   1.764 -0.1895  0.8898  0.5160
  933MPD2    C113698   3.307   3.444   1.700 -0.4103 -0.2437  0.2818
  933MPD2    C213699   3.283   3.569   1.643  0.8368 -0.3323  0.5656
  933MPD2    C313700   3.155   3.617   1.623  0.4140 -1.1467 -0.3624
  933MPD2    C413701   3.049   3.556   1.685  0.0731  0.2273  0.1522
  933MPD2    C513702   3.075   3.443   1.755  0.6114  0.2885 -0.2445
  933MPD2     H13703   3.359   3.627   1.591  2.3356 -2.6187  0.1944
  933MPD2    H113704   2.944   3.583   1.677  0.0373  0.0765  0.1176
  933MPD2    H213705   3.206   3.291   1.822 -0.5999  2.4676  3.0402
  933MPD2    H313706   2.992   3.385   1.794 -2.0095  3.9448 -0.3792
  933MPD2     N13707   3.141   3.735   1.549 -0.4458 -0.0219  0.7195
  933MPD2    H513708   3.227   3.785   1.530 -0.8164  0.5373  0.5015
  933MPD2    N113709   3.437   3.385   1.695 -0.1185  0.6066  0.3709
  933MPD2    H713710   3.450   3.296   1.743  1.2007  0.2705 -0.6334
  934MPD2     C13711   0.412   0.204   2.533 -0.0568 -0.4584 -0.0525
  934MPD2    C113712   0.481   0.108   2.462 -0.0982 -0.3493  0.4319
  934MPD2    C213713   0.421   0.037   2.358  0.4262 -0.1964 -0.5942
  934MPD2    C313714   0.289   0.046   2.330 -0.0121  0.1371 -0.5438
  934MPD2    C413715   0.220   0.137   2.407 -0.2562 -0.0502 -0.2494
  934MPD2    C513716   0.273   0.219   2.503  0.2252  0.6050 -0.4323
  934MPD2     H13717   0.485   4.712   2.298  0.6968  1.1453 -1.7258
  934MPD2    H113718   0.112   0.140   2.396 -0.2620 -0.4499 -0.2995
  934MPD2    H213719   0.452   0.264   2.614 -0.3776  0.5541 -0.6377
  934MPD2    H313720   0.220   0.294   2.561 -0.5160 -1.7312  1.8728
  934MPD2     N13721   0.225   4.710   2.230 -0.6998 -1.0159  0.2029
  934MPD2    H513722   0.127   4.733   2.218 -0.4261  0.5376  0.9858
  934MPD2    N113723   0.622   0.081   2.481 -0.6187  0.0673 -0.0682
  934MPD2    H713724   0.673   0.015   2.424 -2.9436 -2.4105  0.7184
  935MPD2     C13725   0.564   3.983   1.709  0.4675  0.1601  1.3572
  935MPD2    C113726   0.429   3.966   1.667 -0.2657  0.9162 -0.6157
  935MPD2    C213727   0.331   4.047   1.727  0.1965  0.2798  0.0347
  935MPD2    C313728   0.376   4.132   1.827 -0.0064  0.0771 -0.1789
  935MPD2    C413729   0.504   4.135   1.868  0.3811 -0.1356  0.2980
  935MPD2    C513730   0.601   4.066   1.808 -0.0554  0.3651 -0.4860
  935MPD2     H13731   0.230   4.035   1.690  0.7896 -0.0844 -1.4627
  935MPD2    H113732   0.544   4.216   1.928 -0.6812 -0.2886  1.2053
  935MPD2    H213733   0.651   3.945   1.656 -0.9894  2.2738 -2.5378
  935MPD2    H313734   0.708   4.070   1.820 -0.4129  2.4793  2.0280
  935MPD2     N13735   0.294   4.229   1.886 -0.0430  0.2231  0.6602
  935MPD2    H513736   0.337   4.289   1.955  1.7098 -2.4174  1.8699
  935MPD2    N113737   0.394   3.887   1.553  0.1875 -0.4586  0.0507
  935MPD2    H713738   0.298   3.903   1.524 -0.6538 -4.3085  0.7282
  936MPD2     C13739   2.911   2.248  12.621  0.4073 -0.4109  0.1420
  936MPD2    C113740   2.981   2.149  12.680  0.0368 -0.1360  0.5717
  936MPD2    C213741   3.111   2.121  12.652  0.5877  0.0676  0.3487
  936MPD2    C313742   3.172   2.195  12.554 -0.0602  0.5447 -0.0715
  936MPD2    C413743   3.099   2.292  12.484 -0.2824 -0.0659 -0.4555
  936MPD2    C513744   2.977   2.316  12.524 -0.8025 -0.2753  0.0920
  936MPD2     H13745   3.165   2.045  12.707  1.0790  0.5541  0.5380
  936MPD2    H113746   3.144   2.353  12.407 -1.7580  1.8042  0.1536
  936MPD2    H213747   2.813   2.285  12.649  1.1609  0.7656  1.2792
  936MPD2    H313748   2.919   2.395  12.477  1.4210 -0.2196 -2.5603
  936MPD2     N13749   3.307   2.178  12.539 -0.3262 -0.4117  0.4692
  936MPD2    H513750   3.351   2.109  12.599  1.1489 -0.4114 -0.5911
  936MPD2    N113751   2.931   2.068  12.783 -0.9613 -0.4160 -0.0284
  936MPD2    H713752   3.001   2.002  12.815 -0.2778 -0.2893 -1.2822
  937MPD2     C13753   0.637   3.502  11.792  0.5482 -0.3204  0.4291
  937MPD2    C113754   0.700   3.608  11.859  0.3672  0.3305  0.0199
  937MPD2    C213755   0.783   3.692  11.790 -0.2043  0.6662 -0.2065
  937MPD2    C313756   0.827   3.653  11.664 -0.2100 -0.9373  0.3750
  937MPD2    C413757   0.779   3.538  11.609  0.5448  0.1240  0.1322
  937MPD2    C513758   0.687   3.459  11.672  0.8766  0.2526  0.4537
  937MPD2     H13759   0.813   3.787  11.833 -0.2516  0.5507  0.0805
  937MPD2    H113760   0.807   3.505  11.510  1.8395 -0.2001  0.6061
  937MPD2    H213761   0.560   3.447  11.846  0.4426 -0.0144  0.5895
  937MPD2    H313762   0.638   3.379  11.618 -0.7057  1.1074  0.6175
  937MPD2     N13763   0.925   3.731  11.608  0.3191  0.0621 -0.2843
  937MPD2    H513764   0.962   3.812  11.657  1.7014 -0.2631 -0.7906
  937MPD2    N113765   0.649   3.655  11.984 -0.7137 -0.1875  0.0146
  937MPD2    H713766   0.566   3.608  12.019 -1.0730  0.0453 -0.5236
  938MPD2     C13767   4.591   4.189   1.450 -0.3189 -0.0034 -1.1582
  938MPD2    C113768   4.555   4.306   1.522  0.4458  0.3563 -0.3900
  938MPD2    C213769   4.455   4.299   1.619  0.1880  0.5349  0.0811
  938MPD2    C313770   4.391   4.175   1.640  0.2368 -0.7599 -0.2538
  938MPD2    C413771   4.436   4.065   1.568 -0.5675  0.2093  0.0258
  938MPD2    C513772   4.537   4.070   1.481  0.2369 -0.3096  0.3949
  938MPD2     H13773   4.408   4.386   1.665  2.8641  3.7488 -3.1928
  938MPD2    H113774   4.393   3.966   1.582 -1.1980  0.2486 -1.7025
  938MPD2    H213775   4.656   4.189   1.363  0.0450  0.0576 -0.8818
  938MPD2    H313776   4.569   3.985   1.422  0.2616 -0.5667  0.7778
  938MPD2     N13777   4.287   4.153   1.729  0.2240  0.4135  0.0782
  938MPD2    H513778   4.249   4.060   1.736  2.6386 -0.6081 -0.4599
  938MPD2    N113779   4.609   4.433   1.489  0.2263 -0.1841  0.1573
  938MPD2    H713780   4.582   4.515   1.544 -1.5001 -0.7479  0.1412
  939MPD2     C13781   1.102   0.399   1.650 -0.6598  0.0845  0.1705
  939MPD2    C113782   1.077   0.519   1.598  0.2524 -0.1492 -0.6975
  939MPD2    C213783   1.112   0.560   1.474  0.1725 -0.2627  0.8317
  939MPD2    C313784   1.187   0.473   1.392 -0.6154 -0.1968  0.2749
  939MPD2    C413785   1.210   0.346   1.433  0.3990  0.3646  0.0079
  939MPD2    C513786   1.166   0.312   1.558 -0.5631 -0.0554  0.3962
  939MPD2     H13787   1.095   0.663   1.446 -2.6671 -1.7545 -2.8870
  939MPD2    H113788   1.260   0.274   1.369 -0.1742 -1.2968  1.4220
  939MPD2    H213789   1.070   0.366   1.748  2.6005  0.5042  1.4009
  939MPD2    H313790   1.171   0.207   1.586 -1.2952 -0.0447  0.5810
  939MPD2     N13791   1.222   0.534   1.266 -0.2053  0.1895  0.0479
  939MPD2    H513792   1.181   0.627   1.258 -0.3668  0.1363  0.2702
  939MPD2    N113793   1.009   0.601   1.694 -0.1612  0.0894  0.2365
  939MPD2    H713794   0.987   0.556   1.782  2.7730  3.3721  2.6651
  940MPD2     C13795   3.703   1.396  13.827  0.0645 -0.5712  0.4251
  940MPD2    C113796   3.640   1.519  13.824  0.1353 -0.1944 -0.0738
  940MPD2    C213797   3.617   1.575  13.704 -0.3104  0.6659  1.1986
  940MPD2    C313798   3.666   1.519  13.591  0.4970  0.0538  0.4680
  940MPD2    C413799   3.725   1.397  13.592 -0.1814 -0.1355  0.7688
  940MPD2    C513800   3.752   1.340  13.711  0.2120  0.0110 -0.4616
  940MPD2     H13801   3.571   1.673  13.707 -0.1063  0.8416 -0.8510
  940MPD2    H113802   3.754   1.359  13.495 -2.4966  0.8511 -0.3358
  940MPD2    H213803   3.723   1.340  13.917  0.8651 -1.4287 -0.2870
  940MPD2    H313804   3.806   1.246  13.710  0.9898  0.4280  1.9813
  940MPD2     N13805   3.646   1.562  13.453  0.0663 -0.1518 -0.3559
  940MPD2    H513806   3.674   1.502  13.376  1.3506 -1.5436  1.1867
  940MPD2    N113807   3.591   1.563  13.944 -0.2279  0.1557  0.0027
  940MPD2    H713808   3.616   1.503  14.022 -0.9411 -0.3566 -0.1644
  941MPD2     C13809   2.800   2.044  10.528  0.1608  1.1131  0.9592
  941MPD2    C113810   2.815   1.903  10.538  0.5795 -0.4087 -0.4325
  941MPD2    C213811   2.737   1.831  10.631  0.2844  0.3499 -0.6662
  941MPD2    C313812   2.645   1.901  10.706 -0.6178  0.1217  1.0648
  941MPD2    C413813   2.636   2.037  10.700 -0.0815 -0.3909  0.1482
  941MPD2    C513814   2.710   2.106  10.610 -0.6338 -0.7963  0.5693
  941MPD2     H13815   2.750   1.725  10.649  0.7576  1.2554  4.2327
  941MPD2    H113816   2.568   2.099  10.759 -0.6282  0.2418 -1.1440
  941MPD2    H213817   2.848   2.111  10.458 -0.2019 -0.3945 -0.7215
  941MPD2    H313818   2.690   2.213  10.604  1.7049 -0.2572  2.4313
  941MPD2     N13819   2.559   1.837  10.800 -0.0400 -0.5163  0.3893
  941MPD2    H513820   2.487   1.896  10.842  1.0533  0.2140  1.2275
  941MPD2    N113821   2.909   1.826  10.471  0.0013  0.0015 -0.1114
  941MPD2    H713822   2.918   1.725  10.485 -0.1991  0.3823  2.8356
  942MPD2     C13823   3.202   2.312   9.449 -0.2479 -0.0051  0.0119
  942MPD2    C113824   3.097   2.392   9.458 -0.5169  0.5566  0.0716
  942MPD2    C213825   3.115   2.516   9.517 -0.0659 -0.4300  0.6876
  942MPD2    C313826   3.241   2.566   9.554  0.2700  0.2193 -0.1608
  942MPD2    C413827   3.347   2.473   9.549  0.2969  0.2594  0.1321
  942MPD2    C513828   3.326   2.351   9.492  0.4947 -0.7606 -0.8524
  942MPD2     H13829   3.032   2.586   9.506  0.8281  0.9763  2.7927
  942MPD2    H113830   3.447   2.505   9.578  1.0650  0.9305 -3.2466
  942MPD2    H213831   3.189   2.207   9.425  0.0107 -0.4394  1.7599
  942MPD2    H313832   3.410   2.283   9.501  0.1949 -0.8825  0.9767
  942MPD2     N13833   3.269   2.697   9.600  0.1738  0.0084  0.1224
  942MPD2    H513834   3.365   2.714   9.627  0.1333  0.8628 -0.2878
  942MPD2    N113835   2.967   2.359   9.410 -0.5621 -0.4040  0.0606
  942MPD2    H713836   2.903   2.438   9.403  0.3899  0.5089  1.5914
  943MPD2     C13837   0.695   1.576  10.149 -0.6483  0.6374 -0.1448
  943MPD2    C113838   0.772   1.460  10.133  0.1996  0.5083 -0.4284
  943MPD2    C213839   0.888   1.460  10.205  0.3175 -0.2570  0.2287
  943MPD2    C313840   0.935   1.562  10.288 -0.3572 -0.3079  0.9105
  943MPD2    C413841   0.858   1.678  10.295 -0.6089  0.1685 -0.0913
  943MPD2    C513842   0.740   1.679  10.231 -0.6567 -0.1710  0.3270
  943MPD2     H13843   0.932   1.361  10.210 -0.8960 -0.7373  1.6869
  943MPD2    H113844   0.884   1.751  10.370 -3.1168 -0.8673  1.7982
  943MPD2    H213845   0.606   1.591  10.088 -0.2131  2.6256 -0.2916
  943MPD2    H313846   0.678   1.768  10.236  1.4188  1.3093 -0.1131
  943MPD2     N13847   1.059   1.550  10.368  0.2798  0.7452  0.0313
  943MPD2    H513848   1.076   1.617  10.442 -0.0062  0.5272  0.2944
  943MPD2    N113849   0.720   1.344  10.063 -0.3955 -0.1973 -0.2431
  943MPD2    H713850   0.642   1.355  10.000 -0.5690  0.7323  0.1302
  944MPD2     C13851   1.320   0.741  11.030  0.0714  0.1204 -0.2737
  944MPD2    C113852   1.255   0.686  11.133  0.0913  0.1983  0.1292
  944MPD2    C213853   1.160   0.762  11.207 -0.6668 -0.3555  0.9145
  944MPD2    C313854   1.147   0.893  11.180 -0.1553  0.3979  0.8189
  944MPD2    C413855   1.222   0.955  11.082 -0.2333 -0.1904 -0.5065
  944MPD2    C513856   1.305   0.876  11.004 -0.2948 -0.1068 -0.4854
  944MPD2     H13857   1.116   0.724  11.299 -0.2016 -0.9868  0.8685
  944MPD2    H113858   1.218   1.062  11.066 -1.9526 -0.2584 -0.6049
  944MPD2    H213859   1.394   0.686  10.974 -0.4013 -1.6506  0.8366
  944MPD2    H313860   1.375   0.917  10.933 -0.4485 -1.3979 -1.3759
  944MPD2     N13861   1.058   0.966  11.262 -0.0565  0.4541 -0.4956
  944MPD2    H513862   0.988   0.907  11.304 -2.0221  1.8045 -1.8653
  944MPD2    N113863   1.294   0.554  11.168 -0.4874 -0.0278 -0.3654
  944MPD2    H713864   1.369   0.508  11.118  0.9087  0.7729  1.0097
    1TMC1    C113865   0.077   0.270  14.299  0.5718  0.3931 -0.1750
    1TMC1    C213866   0.092   0.375  14.388  0.1216  0.1774  0.2923
    1TMC1    C313867   0.136   0.353  14.516  0.4195 -0.0950  0.5031
    1TMC1    C413868   0.114   0.143  14.340 -0.9771  0.2227  0.9082
    1TMC1    C513869   0.155   0.124  14.470  0.3788  0.0091  0.0085
    1TMC1    C613870   0.181   0.227  14.560 -1.0764 -0.5123  0.0400
    1TMC1     C13871   0.059   0.290  14.159 -0.6146 -0.0578  0.2471
    1TMC1     O13872   0.108   0.206  14.091 -0.1235  0.1668 -0.2484
    1TMC1     H13873   0.058   0.473  14.356  0.4146  0.5652  1.1815
    1TMC1    H113874   0.094   0.060  14.274 -0.4133  1.0516 -0.3066
    1TMC1    H213875   0.198   0.207  14.666 -2.1315  0.9634  0.4895
    1TMC1    C713876   0.200   4.738  14.519 -0.7646 -0.5429 -0.3214
    1TMC1    C813877   0.106   0.450  14.616  0.4759  0.1099  0.1338
    1TMC1    O113878   0.286   4.728  14.603  0.4269  0.1805 -0.6076
    1TMC1    O213879   0.154   0.453  14.729 -0.0978 -0.2938  0.0789
    1TMC1    O313880   0.090   4.663  14.509 -0.0461 -0.1803 -0.8885
    1TMC1    H313881   0.021   4.700  14.449 -1.8785 -2.1348  0.0065
    1TMC1    O513882   4.717   0.483  14.600 -0.4462  0.3619 -0.3517
    1TMC1    H513883   4.681   0.460  14.512 -0.5914 -0.4133 -0.0859
    2MPD2     C13884   4.619   0.531  13.753 -0.5126 -0.2950 -0.2648
    2MPD2    C113885   4.540   0.566  13.855  1.0082 -0.2204  0.6171
    2MPD2    C213886   4.567   0.513  13.979 -0.2489  0.4324 -0.6091
    2MPD2    C313887   4.682   0.437  13.998 -0.8331 -0.0727  0.3513
    2MPD2    C413888   0.022   0.406  13.894 -0.4531  0.1237  0.1217
    2MPD2    C513889   4.724   0.443  13.766  0.0573  0.2748 -0.1497
    2MPD2     H13890   4.514   0.546  14.068 -2.9810 -0.0734 -2.0490
    2MPD2    H113891   0.120   0.364  13.911  0.0949  1.1081 -0.6052
    2MPD2    H213892   4.603   0.570  13.653  0.9172  2.1521  0.4490
    2MPD2    H313893   0.049   0.419  13.682  0.6732  1.6541 -0.0523
    2MPD2     N13894   4.719   0.398  14.125  0.5620 -0.3627 -0.4445
    2MPD2    H513895   4.657   0.430  14.199  0.5592  1.7790 -1.3758
    2MPD2    N113896   4.434   0.651  13.827  1.0411 -0.8001 -0.9353
    2MPD2    H713897   4.413   0.665  13.728  1.4291 -1.7004 -1.1424
    3TMC2    C113898   4.244   0.806  13.869 -0.1169  0.5690 -0.1567
    3TMC2    C213899   4.229   0.831  13.736 -0.2522  0.5224 -0.1167
    3TMC2    C313900   4.126   0.914  13.699  0.0437  0.7715 -0.2947
    3TMC2    C413901   4.169   0.864  13.964  0.6346 -0.1764 -0.2731
    3TMC2    C513902   4.075   0.954  13.927 -0.6185  0.4463 -0.0679
    3TMC2    C613903   4.055   0.992  13.791 -0.0338  0.4444 -0.0330
    3TMC2     C13904   4.360   0.719  13.920 -0.8362 -0.3281  0.2972
    3TMC2     O13905   4.360   0.711  14.042 -0.2068  0.0458  0.4627
    3TMC2     H13906   4.273   0.765  13.662 -1.6359  0.9893 -1.3480
    3TMC2    H113907   4.186   0.847  14.070  0.1400  1.3956  0.0566
    3TMC2    H213908   3.987   1.068  13.755 -0.4946 -0.2975 -0.7053
    3TMC2    C713909   4.016   1.030  14.035 -0.2303 -0.3785 -0.5319
    3TMC2    C813910   4.135   0.964  13.559  0.9771  0.7513  0.2391
    3TMC2    O113911   4.010   0.980  14.147 -0.3554 -0.0146 -0.4516
    3TMC2    O213912   4.237   0.942  13.492  0.0100  0.1865 -0.3046
    3TMC2    O513913   4.031   1.033  13.508  0.2012  0.5449  0.2701
    3TMC2    H513914   3.947   0.998  13.546  1.4580 -1.1013  1.5394
    4TMC2    C113915   3.755   2.002  13.932  0.0864  0.4011  0.2494
    4TMC2    C213916   3.781   2.034  13.796 -0.3631 -0.3355 -0.7170
    4TMC2    C313917   3.870   1.963  13.724  0.7902  0.0012 -0.3660
    4TMC2    C413918   3.823   1.894  13.988  0.3797  0.2406  0.2691
    4TMC2    C513919   3.918   1.822  13.919 -0.5527  0.4485 -0.1644
    4TMC2    C613920   3.935   1.854  13.781 -0.7483  0.0815 -0.1895
    4TMC2     C13921   3.634   2.049  13.987  0.4421  0.2279 -0.0960
    4TMC2     O13922   3.626   2.042  14.110 -0.0481  0.0388  0.7306
    4TMC2     H13923   3.729   2.120  13.755 -0.9566 -1.2596 -1.9109
    4TMC2    H113924   3.803   1.861  14.090  0.4272 -2.1595 -0.5052
    4TMC2    H213925   3.986   1.793  13.707  1.7807  1.2376  0.5781
    4TMC2    C713926   3.940   1.681  13.945 -0.0062  0.0679 -0.5349
    4TMC2    C813927   3.862   1.968  13.584  1.1078 -0.5106  0.0187
    4TMC2    O113928   4.002   1.617  13.861 -0.0757 -0.4273  0.0931
    4TMC2    O213929   3.769   2.027  13.528 -0.2073  0.4563  0.4491
    4TMC2    O513930   3.982   1.934  13.526 -0.2097 -0.6353  0.4367
    4TMC2    H513931   4.062   1.939  13.583  0.5733 -0.9147 -0.6235
    5MPD2     C13932   3.189   2.292  13.947  0.2674  0.2409  0.8726
    5MPD2    C113933   3.229   2.255  13.819 -0.3471 -0.2175  0.3360
    5MPD2    C213934   3.356   2.192  13.805  0.1204  0.1391 -0.3185
    5MPD2    C313935   3.421   2.156  13.918  0.0770 -0.2442 -0.3059
    5MPD2    C413936   3.371   2.167  14.048  0.5231 -0.1673 -0.5119
    5MPD2    C513937   3.254   2.233  14.059  0.0350 -0.0991 -0.2133
    5MPD2     H13938   3.399   2.170  13.709  0.8820  0.6180 -0.0852
    5MPD2    H113939   3.438   2.148  14.131 -2.3063  1.7612  2.2532
    5MPD2    H213940   3.101   2.350  13.971  0.4582  0.1172  1.8923
    5MPD2    H313941   3.222   2.256  14.160  0.3356 -0.7471  0.0304
    5MPD2     N13942   3.547   2.095  13.894  0.3157 -0.0566  0.6554
    5MPD2    H513943   3.578   2.069  13.800 -0.0330 -2.0095  1.0839
    5MPD2    N113944   3.136   2.280  13.707 -0.3055  0.0908 -0.1535
    5MPD2    H713945   3.044   2.312  13.734 -1.2197 -2.2987 -0.4577
    6MPD1     C13946   2.641   3.570  12.240 -0.3987  0.2096  0.7059
    6MPD1    C113947   2.756   3.511  12.217  0.7870  0.2588 -0.8748
    6MPD1    C213948   2.781   3.391  12.286  0.1070 -0.7291  0.4559
    6MPD1    C313949   2.686   3.336  12.376  0.1830  0.3234  1.1400
    6MPD1    C413950   2.569   3.398  12.386 -0.2543  0.5299  0.0068
    6MPD1    C513951   2.545   3.516  12.319  0.7410  0.6235  0.1217
    6MPD1     H13952   2.875   3.338  12.273  0.6196  0.4594 -0.7606
    6MPD1    H113953   2.488   3.359  12.447  0.5451  0.0819  0.7760
    6MPD1    H213954   2.615   3.654  12.177  1.3875 -1.2308 -1.9513
    6MPD1    H313955   2.445   3.557  12.314  1.3645  2.1020 -0.3014
    6MPD1     N13956   2.710   3.223  12.459  0.2512 -0.2322 -0.8128
    6MPD1    H513957   2.637   3.184  12.518  0.4222 -2.1429 -1.8417
    6MPD1    N113958   2.851   3.555  12.126 -0.0153 -0.4913  0.4466
    6MPD1    H613959   2.848   3.651  12.094 -1.6438 -0.0617  1.8230
    6MPD1    H713960   2.944   3.515  12.121 -0.0361 -0.5315  0.3852
    7MPD2     C13961   2.693   2.923  13.205  0.4794 -0.0748 -0.8286
    7MPD2    C113962   2.730   2.833  13.114 -0.7145  0.0753 -0.4135
    7MPD2    C213963   2.774   2.706  13.156  0.9929  0.1339 -0.2829
    7MPD2    C313964   2.750   2.661  13.278 -0.3355 -0.3346  0.3857
    7MPD2    C413965   2.698   2.754  13.376 -0.0753 -0.1986  0.1257
    7MPD2    C513966   2.669   2.882  13.335 -0.1465 -0.2804  0.0327
    7MPD2     H13967   2.815   2.645  13.077  0.6431  2.7856 -2.5230
    7MPD2    H113968   2.665   2.714  13.472 -0.7581 -0.3675 -0.1783
    7MPD2    H213969   2.681   3.027  13.179  0.7361  0.2786  0.4945
    7MPD2    H313970   2.629   2.957  13.402 -1.5725 -3.3911  2.6008
    7MPD2     N13971   2.786   2.530  13.310  0.6426  0.3812  0.2086
    7MPD2    H513972   2.819   2.468  13.237 -1.6850  1.0816 -1.4544
    7MPD2    N113973   2.761   2.864  12.982 -0.2778  0.2959 -0.0204
    7MPD2    H713974   2.803   2.785  12.934  1.2628  1.0957 -0.0071
    8TMC3    C113975   2.843   2.351  13.424  0.2246  0.4464  0.3141
    8TMC3    C213976   2.932   2.326  13.519  0.0105  0.7164  0.5587
    8TMC3    C313977   3.062   2.280  13.476 -0.3834 -0.4384  0.0806
    8TMC3    C413978   2.868   2.304  13.299  0.5840 -0.2809  0.1549
    8TMC3    C513979   2.991   2.272  13.256  0.1644  0.7044 -0.3521
    8TMC3    C613980   3.093   2.267  13.346  0.2095  0.3580 -0.3172
    8TMC3     C13981   2.789   2.479  13.432 -0.1973  0.1816 -0.3943
    8TMC3     O13982   2.773   2.528  13.542 -0.2202  0.0789 -0.3905
    8TMC3     H13983   2.919   2.367  13.618 -2.7224 -1.9623  1.3226
    8TMC3    H113984   2.789   2.297  13.225  0.4013 -1.2297  0.4390
    8TMC3    H213985   3.194   2.243  13.315 -0.3162 -0.0148 -1.7209
    8TMC3    C713986   3.017   2.346  13.135 -0.1493 -0.0274  0.0697
    8TMC3    C813987   3.175   2.267  13.571 -0.3460  0.6864  1.3575
    8TMC3    O113988   2.933   2.430  13.110  0.7542  0.1728  0.0427
    8TMC3    O213989   3.278   2.228  13.518  0.6186 -0.6785 -0.0813
    9TMC3    C113990   2.842   3.048  12.563  0.0489 -0.0813 -0.4259
    9TMC3    C213991   2.943   2.958  12.550  0.8687 -0.0318  0.0974
    9TMC3    C313992   2.990   2.888  12.660  0.1214 -0.1116  0.3043
    9TMC3    C413993   2.782   3.066  12.684 -0.7346  0.1366  0.0313
    9TMC3    C513994   2.823   2.987  12.792 -0.2589 -0.3451  0.2708
    9TMC3    C613995   2.932   2.902  12.784 -0.5602 -0.1325  0.4921
    9TMC3     C13996   2.828   3.147  12.454  0.7657  0.3898 -0.5136
    9TMC3     O13997   2.919   3.151  12.379  0.4449 -0.0617 -0.4661
    9TMC3     H13998   2.984   2.941  12.451  0.8010 -0.2305  0.1028
    9TMC3    H113999   2.708   3.144  12.699 -0.4639  0.1320  1.3796
    9TMC3    H214000   2.968   2.854  12.874  0.6792  0.1130  0.1313
    9TMC3    C714001   2.745   2.987  12.918  0.0650  0.2421 -0.4452
    9TMC3    C814002   3.073   2.772  12.637 -0.1331 -0.5158 -0.1961
    9TMC3    O114003   2.677   3.083  12.942 -0.4076  0.1913  0.4475
    9TMC3    O214004   3.160   2.792  12.558  0.2572  0.4369 -0.1120
   10MPD2     C14005   3.280   2.361  12.867  0.1349  0.6567 -0.3901
   10MPD2    C114006   3.162   2.388  12.928 -0.8945 -0.6217 -0.6783
   10MPD2    C214007   3.077   2.486  12.868 -0.5003  0.1859 -0.2381
   10MPD2    C314008   3.118   2.567  12.767 -0.8237 -0.9796 -0.0179
   10MPD2    C414009   3.238   2.545  12.702 -0.4142 -0.0164 -0.4648
   10MPD2    C514010   3.309   2.432  12.749 -0.0322 -0.0062 -0.1403
   10MPD2     H14011   2.980   2.507  12.912  0.9670 -1.2099  3.6591
   10MPD2    H114012   3.271   2.598  12.613 -0.1467 -3.1813 -2.2780
   10MPD2    H214013   3.346   2.282  12.902 -0.0867  0.3608 -0.6370
   10MPD2    H314014   3.404   2.408  12.705 -0.1527 -0.9393  0.1166
   10MPD2     N14015   3.042   2.679  12.733 -0.0870 -0.5996 -0.0644
   10MPD2    H514016   2.951   2.678  12.778  1.0730 -3.0283  2.2565
   10MPD2    N114017   3.128   2.320  13.048 -0.0413  0.2875 -0.1397
   10MPD2    H714018   3.197   2.252  13.080 -1.5503 -1.1235  0.1611
   11MPD2     C14019   3.912   1.250  14.208  0.0998  0.9603  0.2201
   11MPD2    C114020   3.963   1.269  14.081  0.3888 -0.0078  0.4137
   11MPD2    C214021   3.956   1.400  14.032 -0.1165  0.3257  0.8537
   11MPD2    C314022   3.906   1.503  14.108 -0.1684  0.1620 -0.1223
   11MPD2    C414023   3.870   1.471  14.238 -0.0846  0.1475 -0.6969
   11MPD2    C514024   3.877   1.346  14.296 -0.1846  0.2189 -0.3022
   11MPD2     H14025   3.988   1.409  13.929  0.5486  0.8388  1.1075
   11MPD2    H114026   3.842   1.553  14.302 -1.1626 -2.0363  1.6564
   11MPD2    H214027   3.903   1.150  14.248  0.3048  0.3838 -1.1779
   11MPD2    H314028   3.840   1.328  14.396  0.4532 -1.2512 -0.3343
   11MPD2     N14029   3.907   1.638  14.069  0.5815  0.0823  0.3228
   11MPD2    H514030   3.862   1.704  14.132 -1.2183 -1.2144  0.3964
   11MPD2    N114031   4.003   1.160  13.998  0.0225 -0.2239 -0.6381
   11MPD2    H714032   4.051   1.188  13.913 -0.7397  0.3970 -0.8656
    1MPD1     C14033   1.916   2.685  17.270 -0.0186 -0.5308  0.0336
    1MPD1    C114034   1.869   2.685  17.401 -0.8208  0.0032  0.2547
    1MPD1    C214035   1.954   2.735  17.494 -0.3255  0.1270 -0.1933
    1MPD1    C314036   2.089   2.757  17.466  0.0295  0.0373 -0.1647
    1MPD1    C414037   2.126   2.771  17.331  0.3245 -0.2867  0.5475
    1MPD1    C514038   2.034   2.738  17.235 -0.1257 -0.4475  0.0175
    1MPD1     H14039   1.910   2.746  17.592  1.8788 -0.4201  0.8762
    1MPD1    H114040   2.220   2.808  17.291 -0.0262  0.4346  0.3961
    1MPD1    H214041   1.851   2.655  17.188 -0.4887 -1.3354  0.6996
    1MPD1    H314042   2.055   2.747  17.129  1.0987 -0.2876  0.2783
    1MPD1     N14043   2.184   2.797  17.565 -0.5666  0.1879  0.2412
    1MPD1    H514044   2.274   2.814  17.522 -0.1962 -0.5840  0.7120
    1MPD1    N114045   1.733   2.672  17.428 -0.3427 -0.8306 -0.4956
    1MPD1    H614046   1.674   2.615  17.367 -0.1631 -0.5352 -0.9459
    1MPD1    H714047   1.711   2.650  17.525 -0.6120  1.8954  0.0635
    2MPD1     C14048   2.222   2.680   0.818  0.1119 -1.0427 -0.1459
    2MPD1    C114049   2.140   2.635   0.719  0.2956 -0.9130  0.5339
    2MPD1    C214050   2.169   2.663   0.591  0.5209 -0.1148  0.7716
    2MPD1    C314051   2.277   2.734   0.550 -0.0316 -0.1120 -0.4721
    2MPD1    C414052   2.366   2.767   0.652 -0.2437 -0.3144  0.4698
    2MPD1    C514053   2.337   2.738   0.783  0.5174 -0.1612  0.9975
    2MPD1     H14054   2.104   2.621   0.515  0.5415  2.5011 -0.6702
    2MPD1    H114055   2.456   2.827   0.647 -0.7382  0.4937  1.3212
    2MPD1    H214056   2.195   2.656   0.920 -0.2693  1.5412  0.3440
    2MPD1    H314057   2.408   2.769   0.858 -0.5096 -2.5107  2.9466
    2MPD1     N14058   2.299   2.758   0.411 -0.5075 -0.2213 -0.9807
    2MPD1    H514059   2.239   2.709   0.346 -0.2507 -0.6603 -0.8824
    2MPD1    N114060   2.018   2.574   0.762  0.1508 -0.1588 -0.4603
    2MPD1    H614061   1.976   2.516   0.690  0.4239 -1.0408  0.0880
    2MPD1    H714062   2.031   2.516   0.845 -0.0011  1.2722  0.5527
    3TMC3    C114063   2.407   2.848   0.209  0.5006 -0.0251  0.4748
    3TMC3    C214064   2.503   2.932   0.150 -0.1410 -0.2847  0.1257
    3TMC3    C314065   2.476   2.970   0.026  0.2252  0.2317  0.8555
    3TMC3    C414066   2.297   2.804   0.144 -0.4348 -0.0398 -0.0036
    3TMC3    C514067   2.275   2.845   0.020  0.2398 -0.0031 -0.1030
    3TMC3    C614068   2.367   2.923  17.711 -0.5122 -0.1630  0.4359
    3TMC3     C14069   2.406   2.829   0.357  0.3077  0.1205  0.5932
    3TMC3     O14070   2.490   2.891   0.416  0.1412 -0.3030  0.3092
    3TMC3     H14071   2.583   2.963   0.216  0.7800 -3.7146  0.6254
    3TMC3    H114072   2.233   2.729   0.188  0.2898 -0.3061  0.6099
    3TMC3    H214073   2.348   2.972  17.616  2.3500  0.4115  0.1620
    3TMC3    C714074   2.163   2.796  17.703  0.4102  0.4434  0.3368
    3TMC3    C814075   2.571   3.055  17.713  1.0640 -1.1659  0.0823
    3TMC3    O114076   2.073   2.744   0.009  0.1599  0.6696 -0.2135
    3TMC3    O214077   2.633   3.133   0.031 -0.3202  0.6960 -0.4821
    4MPD1     C14078   2.857   3.161  17.307  0.4712  0.6094  0.4096
    4MPD1    C114079   2.783   3.050  17.279 -0.2422  0.7859  0.4093
    4MPD1    C214080   2.700   2.998  17.377  0.2018  0.5428  0.5524
    4MPD1    C314081   2.683   3.065  17.496 -0.2720  0.5106  0.8041
    4MPD1    C414082   2.758   3.178  17.527 -0.4068 -0.1074  0.3568
    4MPD1    C514083   2.854   3.219  17.435  1.1933  0.1108 -0.0534
    4MPD1     H14084   2.654   2.902  17.357  2.6399 -0.7515  1.1995
    4MPD1    H114085   2.749   3.227  17.623  3.6871  1.4167 -0.0578
    4MPD1    H214086   2.917   3.204  17.228 -0.7239  0.5187 -0.5518
    4MPD1    H314087   2.917   3.303  17.464 -0.9808  1.7199  0.0329
    4MPD1     N14088   2.588   3.017  17.580 -0.6000  0.3007 -0.0091
    4MPD1    H514089   2.538   2.936  17.546 -1.2576  1.1125 -0.9798
    4MPD1    N114090   2.813   2.974  17.161 -0.0338 -0.1363  0.6302
    4MPD1    H614091   2.720   2.943  17.136  0.2247  0.9876 -1.7227
    4MPD1    H714092   2.836   3.036  17.083  1.0799 -1.4818 -0.1098
    1TCq1    O114093   2.090   2.686  12.616 -0.0379 -0.5715  0.1920
    1TCq1    C114094   1.991   2.770  12.581 -0.5313  0.4195  0.0542
    1TCq1    O214095   1.898   2.805  12.655  0.7062 -0.0036 -0.6526
    1TCq1    C214096   2.001   2.794  12.437  0.9557  0.0313  0.2001
    1TCq1    C314097   1.884   2.824  12.377 -0.0839 -0.4234  0.4400
    1TCq1    C414098   1.886   2.866  12.251 -0.4234 -0.2037 -0.1197
    1TCq1    C514099   1.994   2.934  12.206 -0.1493  0.3985  0.1409
    1TCq1    C614100   2.112   2.900  12.268 -0.0263  0.0375  0.1452
    1TCq1    C714101   2.122   2.831  12.385  0.9302 -0.0818 -0.2945
    1TCq1    C814102   2.231   2.973  12.228  0.1009  0.3623  0.1061
    1TCq1    O414103   2.319   2.987  12.309  1.0171  0.0622  0.2139
    1TCq1    C914104   1.763   2.897  12.185  0.0263  0.2246 -0.3219
    1TCq1    O514105   1.758   2.970  12.083 -0.4284 -0.2275  0.1208
    1TCq1    O614106   1.661   2.840  12.230 -0.2949 -0.5744  0.6117
    1TCq1    H114107   2.150   2.661  12.542  1.0513 -1.3201  1.3417
    1TCq1    H214108   1.795   2.776  12.416 -0.0211 -0.4008  0.6120
    1TCq1    H314109   1.986   2.990  12.113  0.1893  1.9178  1.0183
    1TCq1    H414110   2.216   2.819  12.436 -0.6881 -0.0760  2.6801
    2MPD1     C14111   2.551   3.207  11.916 -0.2948  0.1134 -0.0210
    2MPD1    C114112   2.445   3.159  11.836 -0.4545  0.1279  0.1638
    2MPD1    C214113   2.334   3.102  11.902  0.5051  0.3288  0.4894
    2MPD1    C314114   2.328   3.102  12.039 -0.0261 -0.2386  0.3242
    2MPD1    C414115   2.429   3.155  12.115  0.2921  0.0698  0.3959
    2MPD1    C514116   2.543   3.203  12.049 -0.2913  0.9743  0.5027
    2MPD1     H14117   2.253   3.067  11.839  1.1343  0.1359 -0.2037
    2MPD1    H114118   2.426   3.161  12.223 -0.6076 -0.6012  0.4049
    2MPD1    H214119   2.627   3.270  11.870  0.7819 -0.8749  0.3938
    2MPD1    H314120   2.610   3.252  12.119 -1.7332  2.1794  1.0338
    2MPD1     N14121   2.227   3.025  12.102  0.3805  0.4640  0.4984
    2MPD1    H514122   2.144   3.002  12.048 -0.5405  0.2453  1.9905
    2MPD1    N114123   2.447   3.176  11.695 -0.4533  0.4844  0.3303
    2MPD1    H614124   2.355   3.174  11.651 -0.5180 -2.2353  0.5403
    2MPD1    H714125   2.508   3.252  11.666 -1.4446  1.3912  0.6297
    1TMC1    C114126   1.381   4.075   1.673 -0.1943  0.5677  0.0512
    1TMC1    C214127   1.389   3.974   1.583 -0.5732 -0.0950  0.3783
    1TMC1    C314128   1.296   3.872   1.587 -0.3420 -0.5866 -0.2319
    1TMC1    C414129   1.281   4.076   1.772 -1.1730  0.0601  0.6166
    1TMC1    C514130   1.189   3.977   1.764  0.1520 -0.6534  0.5546
    1TMC1    C614131   1.197   3.867   1.679  0.2430  0.6494  0.3462
    1TMC1     C14132   1.499   4.162   1.695  0.1338  0.1101 -0.4633
    1TMC1     O14133   1.589   4.164   1.614  0.3801 -0.4846 -0.0285
    1TMC1     H14134   1.479   3.976   1.522 -1.3407  0.9089 -0.7340
    1TMC1    H114135   1.264   4.160   1.838 -0.1341 -0.2032  1.2029
    1TMC1    H214136   1.120   3.791   1.683 -0.5789  1.4381 -0.5680
    1TMC1    C714137   1.080   3.982   1.857  0.3240 -0.3995  0.1800
    1TMC1    C814138   1.292   3.767   1.498  0.3087  0.2860  0.6559
    1TMC1    O114139   1.082   4.038   1.965  0.1791 -0.0968  0.3158
    1TMC1    O214140   1.230   3.662   1.512  0.4945 -0.4768  0.0316
    1TMC1    O314141   0.970   3.964   1.779  0.3218 -0.4339 -0.4828
    1TMC1    H314142   0.982   3.944   1.684  1.7037  1.1851 -0.6501
    1TMC1    O514143   1.329   3.818   1.378  0.4455  0.1655  0.5412
    1TMC1    H514144   1.358   3.911   1.380 -0.1452  0.3488  0.5813
    2MPD1     C14145   1.818   4.434   1.988 -0.1834 -0.6049  0.0947
    2MPD1    C114146   1.729   4.370   2.075 -0.0601 -0.3071  0.0747
    2MPD1    C214147   1.627   4.297   2.018  0.3472 -0.4720  0.0167
    2MPD1    C314148   1.611   4.286   1.881 -0.7235  0.3493  0.0962
    2MPD1    C414149   1.699   4.359   1.798  0.6644  0.3264  0.5208
    2MPD1    C514150   1.796   4.432   1.856  0.0352  0.4538  0.0068
    2MPD1     H14151   1.550   4.240   2.068 -1.4357  1.9130 -0.0332
    2MPD1    H114152   1.698   4.354   1.690  0.5010  2.2114  0.4290
    2MPD1    H214153   1.904   4.485   2.029  0.7314 -1.4973 -0.7574
    2MPD1    H314154   1.865   4.481   1.788  0.7638 -0.4006  0.1309
    2MPD1     N14155   1.506   4.208   1.829  0.3042  0.2422  0.1679
    2MPD1    H514156   1.458   4.162   1.906  0.7468 -1.0628 -0.3406
    2MPD1    N114157   1.754   4.349   2.209 -0.3018 -0.1842  0.4652
    2MPD1    H614158   1.803   4.430   2.245 -0.7767  0.5557 -0.5632
    2MPD1    H714159   1.674   4.327   2.267 -1.0214  0.1825 -0.3913
    1MPD1     C14160   4.185   2.685  12.090 -0.3059 -0.2616 -0.5322
    1MPD1    C114161   4.073   2.748  12.138  0.7884 -0.0555 -0.5374
    1MPD1    C214162   4.068   2.883  12.154  0.0346 -0.4925 -0.6054
    1MPD1    C314163   4.175   2.963  12.117  0.4432 -0.4022  0.0436
    1MPD1    C414164   4.285   2.906  12.064  0.8795  0.2829  0.3739
    1MPD1    C514165   4.287   2.769  12.046 -0.0261 -1.1109 -0.5730
    1MPD1     H14166   3.980   2.930  12.197  0.5874  1.8798 -2.0392
    1MPD1    H114167   4.377   2.958  12.040  0.0459  1.3309 -0.6028
    1MPD1    H214168   4.194   2.579  12.069  2.3800 -0.4384  1.5770
    1MPD1    H314169   4.376   2.725  12.004  0.2209 -0.7224 -0.4481
    1MPD1     N14170   4.161   3.106  12.121 -0.1968 -0.1817  0.1986
    1MPD1    H514171   4.072   3.143  12.152  0.3777  1.7945 -0.5180
    1MPD1    N114172   3.961   2.671  12.160 -0.2158  0.3472  0.2542
    1MPD1    H614173   3.976   2.584  12.210  0.2202 -0.0456 -0.5658
    1MPD1    H714174   3.909   2.736  12.219 -1.2144 -0.2688  0.0421
    2MPD1     C14175   4.159   3.239  11.100  0.2849 -0.0654 -1.0493
    2MPD1    C114176   4.230   3.155  11.014  0.1074 -0.1976 -0.1400
    2MPD1    C214177   4.294   3.225  10.907 -0.0676  0.3449 -0.5478
    2MPD1    C314178   4.316   3.360  10.915  0.1016 -0.1884  0.6760
    2MPD1    C414179   4.270   3.436  11.018  0.1242 -0.3872 -0.0545
    2MPD1    C514180   4.186   3.374  11.103 -0.3085  0.3530  0.0824
    2MPD1     H14181   4.322   3.163  10.823  1.5585  0.9172 -0.4282
    2MPD1    H114182   4.279   3.544  11.019  2.7459 -0.6025 -0.9366
    2MPD1    H214183   4.079   3.201  11.162  0.0293  1.2387 -0.5754
    2MPD1    H314184   4.131   3.432  11.177  0.6502 -0.0256  1.0824
    2MPD1     N14185   4.387   3.430  10.814 -0.3123  0.0716 -0.3287
    2MPD1    H514186   4.390   3.531  10.825 -1.7473  0.1240 -0.3996
    2MPD1    N114187   4.191   3.018  11.004 -0.0710  0.1037  0.4688
    2MPD1    H614188   4.269   2.960  10.974 -0.2633 -1.0146  2.0930
    2MPD1    H714189   4.157   2.986  11.095  0.7511 -0.9093  0.4152
    3MPD1     C14190   0.453   3.573  10.068  0.0553  0.3198  0.2617
    3MPD1    C114191   0.360   3.674  10.061 -0.3520  0.0677  0.5012
    3MPD1    C214192   0.243   3.649  10.128 -0.4177  0.0086 -0.2227
    3MPD1    C314193   0.224   3.556  10.228  0.2730 -0.4030 -0.2349
    3MPD1    C414194   0.322   3.464  10.244  0.4455  0.4078  0.2523
    3MPD1    C514195   0.427   3.472  10.159  0.0513 -0.1501 -0.0489
    3MPD1     H14196   0.157   3.711  10.102 -0.1707 -0.2720 -1.7195
    3MPD1    H114197   0.328   3.378  10.311 -1.0017 -1.2291 -1.7150
    3MPD1    H214198   0.548   3.574  10.014 -0.5265 -1.5066 -0.8003
    3MPD1    H314199   0.504   3.396  10.165  1.6859  1.5098  0.0278
    3MPD1     N14200   0.115   3.562  10.310  0.2277 -0.0036 -0.3630
    3MPD1    H514201   0.050   3.638  10.293 -0.8181 -0.9340 -0.5763
    3MPD1    N114202   0.366   3.765   9.956 -0.5457  0.6473 -0.0074
    3MPD1    H614203   0.464   3.781   9.933 -0.4219 -3.0549 -1.9736
    3MPD1    H714204   0.333   3.722   9.870 -3.4483  1.1171  0.8777
    4MPD2     C14205   3.911   3.632  11.673  0.4761 -0.0069  0.2166
    4MPD2    C114206   4.004   3.675  11.760  0.5201  0.0343 -0.2839
    4MPD2    C214207   4.084   3.785  11.733  0.3866  0.2141  0.3536
    4MPD2    C314208   4.072   3.843  11.611  0.1519 -0.3819  0.5652
    4MPD2    C414209   3.982   3.795  11.514 -0.9444  0.1516 -0.6142
    4MPD2    C514210   3.914   3.679  11.544  1.0695  0.3688  0.3907
    4MPD2     H14211   4.153   3.828  11.805 -0.0977 -0.6098  1.3212
    4MPD2    H114212   3.962   3.852  11.424  0.3401  1.4748 -0.0598
    4MPD2    H214213   3.851   3.547  11.706  0.8703 -0.4253 -0.1458
    4MPD2    H314214   3.845   3.641  11.469  1.3739  0.3051  0.1427
    4MPD2     N14215   4.155   3.942  11.560  0.5904 -0.2228 -0.2505
    4MPD2    H514216   4.137   3.967  11.463  0.8994 -0.1055 -0.2768
    4MPD2    N114217   4.022   3.628  11.890 -1.0865  0.2738 -0.2898
    4MPD2    H714218   4.099   3.667  11.943 -0.8818 -3.4588  2.1620
    5TMC3    C114219   4.027   3.481  12.066  0.1157  0.0226  0.4399
    5TMC3    C214220   4.072   3.354  12.053  0.2826  0.9817 -1.0389
    5TMC3    C314221   4.207   3.331  12.094  0.3779  0.2695 -0.9991
    5TMC3    C414222   4.110   3.580  12.115  0.1670  0.6636  0.5455
    5TMC3    C514223   4.236   3.558  12.131 -0.2327  0.3528  0.4371
    5TMC3    C614224   4.282   3.435  12.134 -0.6133  0.0655 -0.1950
    5TMC3     C14225   3.945   3.532  11.954  0.1250 -0.3343  0.1315
    5TMC3     O14226   3.846   3.465  11.912 -0.0280  0.0520 -0.3224
    5TMC3     H14227   4.016   3.291  11.985 -0.4983 -1.8350  2.2458
    5TMC3    H114228   4.073   3.681  12.129 -1.9064 -0.0638  0.4667
    5TMC3    H214229   4.389   3.422  12.144 -0.5755  0.3704 -0.1996
    5TMC3    C714230   4.316   3.660  12.063 -0.3328  0.5232  0.6572
    5TMC3    C814231   4.258   3.200  12.094 -0.4353 -0.4215 -0.0448
    5TMC3    O114232   4.243   3.731  11.993  0.4858  0.0537 -0.2821
    5TMC3    O214233   4.379   3.178  12.105 -0.0623 -0.0221  0.1180
    6TMC3    C114234   4.564   3.485  10.661 -0.0172  0.2455 -0.3416
    6TMC3    C214235   4.658   3.438  10.573  0.6934 -0.3892 -0.7686
    6TMC3    C314236   4.738   3.536  10.512 -0.0623  0.5568  0.5043
    6TMC3    C414237   4.539   3.619  10.686 -0.0619  0.3600  0.3345
    6TMC3    C514238   4.619   3.704  10.620  0.5609 -0.2797  0.2415
    6TMC3    C614239   4.728   3.664  10.545  0.6808 -0.4823  0.3631
    6TMC3     C14240   4.478   3.378  10.720 -0.1829 -0.2768 -1.0300
    6TMC3     O14241   4.497   3.261  10.702  0.1571 -0.1759  0.1714
    6TMC3     H14242   4.669   3.332  10.552 -0.6829 -0.5944 -0.4041
    6TMC3    H114243   4.467   3.660  10.756 -0.3435 -0.8782  0.7545
    6TMC3    H214244   0.053   3.732  10.491  0.8663 -1.4919 -0.6878
    6TMC3    C714245   4.644   3.837  10.677  0.6506 -0.2601 -0.1550
    6TMC3    C814246   0.102   3.483  10.426  0.5125 -0.2150 -0.3871
    6TMC3    O114247   4.692   3.915  10.597 -0.1742  0.1687 -0.0426
    6TMC3    O214248   0.137   3.369  10.441 -0.7616  0.0725 -0.4902
    7MPD2     C14249   0.016   3.905  11.926  0.3488 -0.0195  0.7171
    7MPD2    C114250   4.625   3.905  11.872 -0.2758  0.0901 -0.1988
    7MPD2    C214251   4.525   3.820  11.921  0.6371  0.9551 -0.4124
    7MPD2    C314252   4.553   3.723  12.018 -0.4431 -0.6926  0.9045
    7MPD2    C414253   4.682   3.718  12.060  0.9162  0.0905 -0.8114
    7MPD2    C514254   0.041   3.804  12.015 -0.1399 -0.4239  0.5755
    7MPD2     H14255   4.422   3.836  11.893  0.0054 -2.0524  0.2101
    7MPD2    H114256   4.714   3.668  12.151 -1.4226  0.7742  0.3748
    7MPD2    H214257   0.104   3.958  11.890  1.3275 -1.4834  0.9263
    7MPD2    H314258   0.145   3.791  12.042  1.2661 -0.5918 -4.9624
    7MPD2     N14259   4.452   3.646  12.080 -0.1779 -0.2553  0.8280
    7MPD2    H514260   4.483   3.575  12.145  0.9302 -0.1627  0.3945
    7MPD2    N114261   4.581   3.994  11.772  0.3148 -0.0197 -0.7010
    7MPD2    H714262   4.488   3.984  11.731  1.1580  0.7900 -2.8515
    8TMC3    C114263   4.563   4.162  11.615 -0.2344 -0.3347  0.3732
    8TMC3    C214264   4.596   4.139  11.482 -0.2519 -1.1085 -0.1797
    8TMC3    C314265   4.496   4.094  11.404  0.3556 -0.2645  0.5896
    8TMC3    C414266   4.433   4.139  11.652  0.0677 -0.1741  0.0624
    8TMC3    C514267   4.340   4.089  11.565 -0.8238  0.4712  0.0701
    8TMC3    C614268   4.369   4.059  11.440  0.4241  0.5105 -0.3838
    8TMC3     C14269   4.651   4.102  11.713  0.1754  0.8112  0.2027
    8TMC3     O14270   0.031   4.136  11.710  0.8729 -0.0372  1.2917
    8TMC3     H14271   4.703   4.141  11.460 -0.6615  1.7672 -1.8656
    8TMC3    H114272   4.404   4.173  11.751  1.2391  1.0401 -0.0222
    8TMC3    H214273   4.293   4.024  11.370  1.4199  0.6133 -1.5224
    8TMC3    C714274   4.256   4.001  11.633  0.8791 -0.1951 -0.0009
    8TMC3    C814275   4.543   4.031  11.279  0.7423  0.2748 -0.2848
    8TMC3    O114276   4.302   3.977  11.741  0.1142  0.4653 -0.0234
    8TMC3    O214277   4.468   3.947  11.235  0.7452 -0.1059 -0.3939
    9MPD2     C14278   0.075   4.128  11.048  0.2748  0.5449  0.0418
    9MPD2    C114279   4.713   4.049  11.101 -0.0754 -0.3589 -0.5905
    9MPD2    C214280   4.664   3.950  11.021  0.6974  0.1781  1.0055
    9MPD2    C314281   4.701   3.937  10.888  0.0345 -0.2759 -0.3117
    9MPD2    C414282   0.050   4.021  10.835 -0.4125 -0.1840 -0.0843
    9MPD2    C514283   0.129   4.104  10.920 -0.1525 -0.2086 -0.8092
    9MPD2     H14284   4.590   3.878  11.052  0.5525 -0.1988 -0.2299
    9MPD2    H114285   0.103   4.000  10.742 -1.7033  1.8364 -1.2613
    9MPD2    H214286   0.129   4.207  11.099 -1.5547  0.4792  2.0928
    9MPD2    H314287   0.202   4.176  10.884  1.0108 -1.0431 -0.1139
    9MPD2     N14288   4.639   3.835  10.812  0.5665 -0.6546 -0.4242
    9MPD2    H514289   4.594   3.756  10.858  0.3242  0.3412  1.0601
    9MPD2    N114290   4.656   4.083  11.225  0.1562 -0.2879 -0.3049
    9MPD2    H714291   4.701   4.161  11.272 -0.1084 -2.2029  3.1351
    1MPD1     C14292   2.136   1.623  17.620 -0.1534 -0.2414  0.2542
    1MPD1    C114293   2.092   1.699  17.727 -0.1897 -0.5380 -0.0452
    1MPD1    C214294   2.065   1.644   0.099  0.1145  0.9313 -0.3311
    1MPD1    C314295   2.106   1.514   0.126 -0.2636  0.5776  0.5722
    1MPD1    C414296   2.148   1.440   0.016 -0.3618 -1.0605  0.0079
    1MPD1    C514297   2.164   1.491  17.643  0.2850  0.1324 -0.5240
    1MPD1     H14298   2.020   1.700   0.181  1.8588  1.3243  0.3592
    1MPD1    H114299   2.195   1.345   0.037  0.2838 -0.5945  0.7058
    1MPD1    H214300   2.157   1.668  17.524 -1.2465  0.9484  0.5657
    1MPD1    H314301   2.214   1.435  17.565 -2.2351 -2.7984 -0.0264
    1MPD1     N14302   2.092   1.453   0.249  0.1047  0.3036  0.5308
    1MPD1    H514303   2.131   1.362   0.269 -0.8243 -0.0897  0.5312
    1MPD1    N114304   2.101   1.842  17.725 -0.3811 -0.1040  0.1774
    1MPD1    H614305   2.091   1.873  17.629  0.9336 -1.2399 -0.3240
    1MPD1    H714306   2.033   1.882   0.033 -0.0615  0.7567 -0.0183
    2TMC2    C114307   2.141   1.290   0.623  0.0780  0.5969  0.7291
    2TMC2    C214308   2.037   1.289   0.709 -0.6191 -0.4111 -0.0910
    2TMC2    C314309   1.917   1.351   0.666  0.1704  0.2545 -0.6692
    2TMC2    C414310   2.136   1.358   0.510 -0.2299 -0.6881 -0.1861
    2TMC2    C514311   2.028   1.437   0.484  0.0601  0.6655  0.6464
    2TMC2    C614312   1.909   1.439   0.557  0.0511 -0.8036  0.0796
    2TMC2     C14313   2.253   1.194   0.637  0.2156  0.0490  0.0423
    2TMC2     O14314   2.324   1.170   0.540  0.3475  0.4364 -0.1203
    2TMC2     H14315   2.041   1.230   0.800 -0.2505  0.2535  0.3166
    2TMC2    H114316   2.233   1.369   0.462  0.1440 -1.0893  0.4845
    2TMC2    H214317   1.819   1.479   0.512 -0.4273  1.3619  2.9185
    2TMC2    C714318   2.029   1.516   0.357 -0.2435 -0.2454  0.3739
    2TMC2    C814319   1.816   1.372   0.769  0.3468 -0.5611  0.6450
    2TMC2    O114320   1.953   1.611   0.363 -0.3332 -0.2673  0.3359
    2TMC2    O214321   1.804   1.292   0.860  0.4302 -0.2494 -0.1716
    2TMC2    O514322   1.802   1.507   0.769 -0.3757  0.1104 -0.5967
    2TMC2    H514323   1.746   1.543   0.841  2.2395  0.8500  1.1034
    3MPD1     C14324   2.423   0.807   0.897  0.1081  0.0192 -0.0815
    3MPD1    C114325   2.424   0.908   0.982  0.0528 -0.4222  0.0327
    3MPD1    C214326   2.376   1.030   0.937  0.4096 -0.6509 -0.2414
    3MPD1    C314327   2.353   1.057   0.804  0.2009 -0.4606 -0.1100
    3MPD1    C414328   2.372   0.953   0.716  0.0937  0.4216 -0.0983
    3MPD1    C514329   2.406   0.827   0.769 -0.2101  0.4201  0.1508
    3MPD1     H14330   2.364   1.111   1.008  0.2356  0.1948 -1.2405
    3MPD1    H114331   2.363   0.959   0.608 -0.5005  2.8455  0.1028
    3MPD1    H214332   2.435   0.704   0.930 -1.2942 -0.9469 -2.6010
    3MPD1    H314333   2.410   0.750   0.693  0.1227 -1.9882  2.5753
    3MPD1     N14334   2.278   1.166   0.765 -0.1981  0.0765 -0.1741
    3MPD1    H514335   2.229   1.221   0.835  0.7010  0.7503 -0.0717
    3MPD1    N114336   2.442   0.882   1.117 -0.0368  0.5628 -0.5641
    3MPD1    H614337   2.496   0.796   1.126  0.2600  1.0002  1.7628
    3MPD1    H714338   2.483   0.957   1.172 -1.5012  0.8789  0.1094
    1TMC1    C114339   2.481   0.994  13.266  0.4507 -0.1208  0.1239
    1TMC1    C214340   2.517   1.082  13.362  0.2825 -0.1336  0.1901
    1TMC1    C314341   2.412   1.141  13.426 -0.4825  0.0623  0.7994
    1TMC1    C414342   2.345   0.964  13.242  0.3719 -0.1138 -0.0718
    1TMC1    C514343   2.250   1.027  13.315  0.0494  0.1328 -0.6328
    1TMC1    C614344   2.276   1.127  13.406  0.3202  0.4984 -0.4140
    1TMC1     C14345   2.570   0.883  13.268 -0.3699  0.0642 -0.2030
    1TMC1     O14346   2.516   0.776  13.274  0.1105  0.2017 -0.2655
    1TMC1     H14347   2.619   1.119  13.366  0.2344  0.0404 -0.2488
    1TMC1    H114348   2.312   0.883  13.178 -1.8095  1.0931 -0.4739
    1TMC1    H214349   2.197   1.166  13.469 -1.1856  1.3847 -2.8766
    1TMC1    C714350   2.110   1.008  13.272  0.0696  0.2981 -0.7403
    1TMC1    C814351   2.449   1.248  13.518  0.0683  0.0202 -0.4002
    1TMC1    O114352   2.028   1.099  13.266 -0.2120  0.1138  0.0416
    1TMC1    O214353   2.558   1.300  13.514 -0.0390 -0.7834 -0.3741
    1TMC1    O314354   2.084   0.879  13.264  0.5707  0.4418  0.0077
    1TMC1    H314355   2.160   0.829  13.301  1.1119  0.4959 -1.0191
    1TMC1    O514356   2.363   1.249  13.619  0.0395  0.2059  0.3011
    1TMC1    H514357   2.303   1.171  13.617  0.9117 -0.3876 -2.6388
    2MPD2     C14358   2.811   0.707  13.270  0.6326  0.1227 -0.4040
    2MPD2    C114359   2.820   0.841  13.266 -0.7292  0.1782  0.2908
    2MPD2    C214360   2.949   0.892  13.273  0.0988 -0.2346  0.2167
    2MPD2    C314361   3.064   0.822  13.282 -0.4629  0.1193 -0.1779
    2MPD2    C414362   3.050   0.680  13.279 -0.6159 -0.4573  0.1864
    2MPD2    C514363   2.925   0.630  13.277  0.3428 -0.1208 -0.0661
    2MPD2     H14364   2.950   1.001  13.271 -0.9765 -0.2386 -0.8264
    2MPD2    H114365   3.131   0.609  13.290 -1.9254 -2.1391 -1.0570
    2MPD2    H214366   2.714   0.658  13.277  0.3765  0.3377 -2.5167
    2MPD2    H314367   2.913   0.523  13.287 -0.7739 -0.0751 -0.9005
    2MPD2     N14368   3.188   0.889  13.288  0.2693 -0.1384  0.3119
    2MPD2    H514369   3.187   0.990  13.299  0.7142 -0.3619  2.2840
    2MPD2    N114370   2.702   0.917  13.249  0.1327 -0.0668  0.8799
    2MPD2    H714371   2.718   1.015  13.227 -1.3464 -0.7445 -3.2094
    3TCq1    O114372   3.431   1.307  13.549 -0.1933 -0.2079  0.2008
    3TCq1    C114373   3.436   1.278  13.417  0.2746  0.0913  0.7411
    3TCq1    O214374   3.382   1.343  13.334  0.4688  0.4934  0.4933
    3TCq1    C214375   3.461   1.138  13.414 -0.4933  0.7710  0.6868
    3TCq1    C314376   3.570   1.088  13.477  0.7444  0.8989  0.2239
    3TCq1    C414377   3.608   0.960  13.468  0.0223  0.0423 -0.7880
    3TCq1    C514378   3.528   0.876  13.398 -0.4186 -0.1008 -0.1062
    3TCq1    C614379   3.415   0.921  13.344 -0.2669 -0.2484 -0.0663
    3TCq1    C714380   3.383   1.056  13.340  0.1479  0.2519 -0.2037
    3TCq1    C814381   3.309   0.828  13.307 -0.1023 -0.9709 -0.5771
    3TCq1    O414382   3.332   0.707  13.307  0.0546 -0.1199 -0.2519
    3TCq1    C914383   3.738   0.919  13.520 -0.6827 -0.3093  1.0510
    3TCq1    O514384   3.771   0.799  13.508  0.5201  0.4597  0.4335
    3TCq1    O614385   3.801   1.003  13.589 -0.2859  0.1422 -0.0448
    3TCq1    H114386   3.458   1.232  13.606  1.3462 -0.3509 -0.6995
    3TCq1    H214387   3.636   1.158  13.527 -0.0341  0.7078  1.5401
    3TCq1    H314388   3.538   0.768  13.397  3.1601  0.2129  2.2424
    3TCq1    H414389   3.305   1.102  13.279 -0.0974 -1.9906 -1.5747
    1MPD2     C14390   2.549   2.344  14.773 -0.2199 -0.0099  0.0438
    1MPD2    C114391   2.464   2.240  14.760  0.0798 -0.4464 -0.6283
    1MPD2    C214392   2.505   2.118  14.706  0.6261  0.3112  0.4427
    1MPD2    C314393   2.641   2.099  14.679  0.1599  0.1997  0.0302
    1MPD2    C414394   2.733   2.197  14.712  0.1140 -0.0177  0.5919
    1MPD2    C514395   2.684   2.324  14.753 -0.4415 -0.5419 -0.2986
    1MPD2     H14396   2.433   2.040  14.689  1.1083  0.4795 -2.2946
    1MPD2    H114397   2.839   2.192  14.693  0.0886 -1.9413  0.9337
    1MPD2    H214398   2.525   2.445  14.803  0.4134 -0.3079  1.5655
    1MPD2    H314399   2.753   2.407  14.764 -3.4930  2.5962 -4.8952
    1MPD2     N14400   2.677   1.976  14.622  0.1213 -0.4390  0.5482
    1MPD2    H514401   2.594   1.926  14.592  0.7608 -0.9628 -0.3542
    1MPD2    N114402   2.329   2.265  14.798 -0.1953  0.2637  0.5913
    1MPD2    H714403   2.302   2.357  14.830  1.1945  0.8838 -0.0428
    2TMC3    C114404   2.117   2.212  14.889 -0.4057  0.1808  0.5347
    2TMC3    C214405   2.061   2.110  14.960  0.6747  0.4326  0.6394
    2TMC3    C314406   1.927   2.078  14.944 -0.2331 -0.8722  0.0971
    2TMC3    C414407   2.035   2.289  14.804  0.5203  0.4170  0.3759
    2TMC3    C514408   1.899   2.259  14.812 -0.6304  0.5985  0.8472
    2TMC3    C614409   1.841   2.154  14.877  0.2212 -0.6245  0.5745
    2TMC3     C14410   2.235   2.170  14.824  0.2894  0.3434  0.5747
    2TMC3     O14411   2.254   2.046  14.827 -0.2335 -0.0161  0.2343
    2TMC3     H14412   2.113   2.033  15.015  0.3672 -0.1761  0.0680
    2TMC3    H114413   2.063   2.350  14.718 -2.7459 -0.2872 -1.1781
    2TMC3    H214414   1.741   2.124  14.846  0.3859  0.2091 -0.7544
    2TMC3    C714415   1.808   2.373  14.802  0.0547  0.1828 -0.0218
    2TMC3    C814416   1.901   1.934  14.916 -0.4012  0.2714 -0.5983
    2TMC3    O114417   1.685   2.351  14.793 -0.8696 -0.1370 -0.2522
    2TMC3    O214418   1.791   1.883  14.922 -0.3735 -0.0757 -0.3822
    3TCq1    O114419   2.076   3.526  14.793  0.0489 -0.0213  0.0413
    3TCq1    C114420   2.154   3.503  14.903 -0.1456 -0.7485  0.3567
    3TCq1    O214421   2.241   3.577  14.941 -0.4504 -0.1326  0.1320
    3TCq1    C214422   2.130   3.366  14.952  0.2355 -0.0735 -0.7618
    3TCq1    C314423   2.248   3.310  14.995  0.0917  0.1330  0.6479
    3TCq1    C414424   2.240   3.172  15.011 -0.3586  0.6115  0.4649
    3TCq1    C514425   2.131   3.100  14.984 -0.0670 -0.1129  0.2579
    3TCq1    C614426   2.016   3.164  14.940 -0.0132  0.4076  0.0803
    3TCq1    C714427   2.011   3.300  14.922 -0.4285  0.4815 -0.2966
    3TCq1    C814428   1.926   3.093  14.848 -0.6467  0.1118 -0.0843
    3TCq1    O414429   1.824   3.158  14.816  0.3455 -0.2839 -0.3072
    3TCq1    C914430   2.354   3.093  15.045 -0.2743 -0.1804 -0.4148
    3TCq1    O514431   2.468   3.147  15.040  0.3771  0.3672 -0.5796
    3TCq1    O614432   2.331   2.975  15.088  0.7762  0.0100  0.5332
    3TCq1    H114433   2.025   3.452  14.754 -0.5266 -0.7964  2.2405
    3TCq1    H214434   2.336   3.369  15.020 -0.1314  1.3912 -1.5547
    3TCq1    H314435   2.142   2.992  14.989 -0.5423 -0.1964 -0.4533
    3TCq1    H414436   1.925   3.352  14.883 -0.8428  1.0553  1.4026
    4MPD2     C14437   1.739   2.886  14.751 -0.1969  0.2621 -0.1190
    4MPD2    C114438   1.864   2.857  14.794  0.8704  0.1154 -0.3843
    4MPD2    C214439   1.911   2.731  14.820 -0.1014 -0.1242  0.3632
    4MPD2    C314440   1.830   2.624  14.786  0.2918  0.4393 -0.2899
    4MPD2    C414441   1.710   2.651  14.738  0.7112 -0.5228  0.1203
    4MPD2    C514442   1.660   2.779  14.715 -0.0194 -0.2707 -0.3095
    4MPD2     H14443   2.011   2.713  14.858 -0.7236 -1.4448  1.3980
    4MPD2    H114444   1.635   2.579  14.709  1.1241  0.1159 -2.5670
    4MPD2    H214445   1.717   2.991  14.735 -1.5396  0.2991  2.0615
    4MPD2    H314446   1.562   2.799  14.674 -0.5889 -0.8867  0.7551
    4MPD2     N14447   1.874   2.490  14.814  0.1998  0.2471 -0.1394
    4MPD2    H514448   1.966   2.469  14.850 -0.4916 -0.3704  1.2362
    4MPD2    N114449   1.946   2.958  14.851  0.0082 -0.8840 -0.4965
    4MPD2    H714450   2.031   2.923  14.893 -1.3241 -1.6013  1.6233
    5TMC2    C114451   2.559   1.667  14.602  0.0041 -0.1471 -0.5262
    5TMC2    C214452   2.615   1.587  14.697 -0.4049  0.0265 -0.4368
    5TMC2    C314453   2.753   1.603  14.722 -0.1483  0.3469 -0.3409
    5TMC2    C414454   2.641   1.760  14.531 -0.4869 -0.1469 -0.3168
    5TMC2    C514455   2.773   1.778  14.567 -0.7101  0.9561  0.1985
    5TMC2    C614456   2.830   1.704  14.668  0.8615 -0.1612 -0.6078
    5TMC2     C14457   2.420   1.703  14.610  0.1286  0.7003 -0.1637
    5TMC2     O14458   2.385   1.817  14.584 -0.2379 -0.4127 -0.2149
    5TMC2     H14459   2.555   1.509  14.742 -2.0066  1.5916  0.1543
    5TMC2    H114460   2.604   1.812  14.444 -1.0361  0.5174  0.3074
    5TMC2    H214461   2.926   1.735  14.708  0.9833 -1.4807  0.1266
    5TMC2    C714462   2.802   1.915  14.598  0.3484 -0.0493 -0.2358
    5TMC2    C814463   2.821   1.509  14.812 -0.2298 -0.0311  0.2481
    5TMC2    O114464   2.915   1.956  14.629 -0.1208 -0.1399 -0.3975
    5TMC2    O214465   2.940   1.490  14.801  0.2251 -0.0628  0.6826
    5TMC2    O514466   2.752   1.438  14.903 -0.5951  0.3653 -0.8016
    5TMC2    H514467   2.654   1.438  14.900 -0.6203  0.9016  0.0813
    6MPD2     C14468   1.972   1.656  14.828 -0.0571 -0.2711 -0.0917
    6MPD2    C114469   2.041   1.764  14.801 -1.0169  0.0103 -0.5531
    6MPD2    C214470   2.161   1.756  14.740 -0.2656  0.0651  0.5572
    6MPD2    C314471   2.217   1.630  14.725  0.3284  0.0200  0.1854
    6MPD2    C414472   2.150   1.521  14.767 -0.0714 -0.4011 -0.0628
    6MPD2    C514473   2.020   1.534  14.808 -0.4350  0.1157 -0.2669
    6MPD2     H14474   2.206   1.847  14.703 -0.6036 -0.8922 -2.1879
    6MPD2    H114475   2.192   1.423  14.750  2.8365  0.6200  1.1636
    6MPD2    H214476   1.870   1.661  14.866  1.3956  1.7740  3.4891
    6MPD2    H314477   1.964   1.441  14.819 -1.7381  1.1783  2.0720
    6MPD2     N14478   2.341   1.604  14.664  0.3044 -0.1627 -0.2035
    6MPD2    H514479   2.381   1.511  14.676 -1.4339 -0.8748  0.0562
    6MPD2    N114480   2.003   1.898  14.837 -0.2872 -0.6514 -0.0205
    6MPD2    H714481   2.070   1.968  14.806 -2.0313  1.3450  0.7969
  945NH3     N114482   3.929   1.740  15.405  0.1236  0.1628  0.4046
  945NH3     H214483   3.922   1.837  15.375  1.9092  0.9949  2.6868
  945NH3     H314484   3.901   1.691  15.321  2.1372  0.0924 -0.2185
  945NH3     H414485   4.027   1.715  15.392  0.9125  2.2569  2.2796
  946SOD     NA14486   3.626   3.198   4.070 -0.6240  0.7982  0.1986
  947SOD     NA14487   1.654   2.793  13.284  0.3260  0.5657  0.0299
  948SOD     NA14488   3.194   2.886  11.838 -0.2121  0.2472  0.2714
  949SOD     NA14489   4.600   2.712  17.432  0.1574 -0.2094 -0.2233
  950SOD     NA14490   0.980   4.709  10.432 -0.2239 -0.3634 -0.2999
  951SOD     NA14491   3.719   2.503   1.869 -0.3258 -0.4354 -0.6498
  952SOD     NA14492   1.041   4.367  14.496 -0.4124 -0.2789 -0.2333
  953SOD     NA14493   1.856   4.452   9.913  0.0158 -0.1680 -0.3218
  954SOL     OW14494   4.373   2.194   4.241 -0.4368 -0.0619 -0.0189
  954SOL    HW114495   4.291   2.211   4.287 -0.9703 -1.7919 -0.3147
  954SOL    HW214496   4.430   2.180   4.316 -1.5426 -2.8481  0.3132
  955SOL     OW14497   2.773   0.720  16.783  0.1905 -1.0904  0.0567
  955SOL    HW114498   2.716   0.791  16.812 -0.1221 -1.5439  0.5452
  955SOL    HW214499   2.817   0.699  16.865 -0.7788 -0.4925  0.7259
  956SOL     OW14500   2.834   4.174   7.326 -0.0298 -0.0885 -0.0957
  956SOL    HW114501   2.849   4.086   7.361  1.6400  0.2233 -0.0717
  956SOL    HW214502   2.920   4.196   7.293  0.4860 -0.0458  1.2735
  957SOL     OW14503   2.644   3.099  10.540  0.0983 -0.6196 -0.0265
  957SOL    HW114504   2.661   3.162  10.470  1.3909  0.1666  1.0155
  957SOL    HW214505   2.677   3.149  10.615  0.2544  0.0770 -0.5612
  958SOL     OW14506   3.427   0.320   7.323 -0.2767  0.6192 -0.7573
  958SOL    HW114507   3.517   0.335   7.352  0.1615 -2.3833 -0.6053
  958SOL    HW214508   3.416   0.236   7.368  0.2047  0.2892 -1.2631
  959SOL     OW14509   3.628   0.327   9.189 -0.5781  0.1708  0.5664
  959SOL    HW114510   3.587   0.274   9.120  0.9546 -0.8496  0.4534
  959SOL    HW214511   3.645   0.262   9.256  0.4307 -0.0539  0.0853
  960SOL     OW14512   3.804   0.528  16.411 -0.8597 -0.4909 -0.2059
  960SOL    HW114513   3.774   0.475  16.337  1.1625 -1.3190 -0.4210
  960SOL    HW214514   3.762   0.482  16.484 -0.3940 -0.1005  0.3092
  961SOL     OW14515   1.964   2.290   4.210  0.2015 -0.6939  0.7187
  961SOL    HW114516   2.059   2.302   4.209  0.1883 -0.5413  1.2963
  961SOL    HW214517   1.927   2.366   4.164  0.4328 -0.6612  0.5854
  962SOL     OW14518   2.736   1.215   4.953 -0.5673  0.6356 -0.1261
  962SOL    HW114519   2.728   1.167   4.870  3.0063 -0.3952  0.1183
  962SOL    HW214520   2.766   1.300   4.923  1.0682 -0.0743 -0.4848
  963SOL     OW14521   1.992   2.934   6.102  0.0583 -0.0758  0.2505
  963SOL    HW114522   1.920   2.919   6.163  0.0408 -1.4895 -0.1258
  963SOL    HW214523   1.965   3.019   6.066  2.9069  0.7215 -0.0160
  964SOL     OW14524   3.765   2.285   1.993 -0.4092 -0.1816  0.4738
  964SOL    HW114525   3.710   2.224   1.945  0.4731  0.0319 -0.8228
  964SOL    HW214526   3.815   2.223   2.046  0.6755 -0.2061 -0.5621
  965SOL     OW14527   0.962   3.753   3.299 -0.4622 -1.1107  0.0736
  965SOL    HW114528   0.902   3.721   3.367 -0.9362 -0.3686  0.0008
  965SOL    HW214529   1.046   3.737   3.342 -0.1021  1.1605  0.2014
  966SOL     OW14530   3.763   1.640  10.099  0.3374  0.4092  0.2273
  966SOL    HW114531   3.705   1.591  10.040 -2.2403  2.7571  0.7980
  966SOL    HW214532   3.760   1.728  10.059  2.0572 -0.1471 -1.1301
  967SOL     OW14533   1.803   0.286  10.070 -0.2077 -0.2285 -0.3394
  967SOL    HW114534   1.719   0.331  10.079 -0.5377 -0.7510 -0.7922
  967SOL    HW214535   1.829   0.309   9.980  2.8383 -1.9157  0.1204
  968SOL     OW14536   1.289   0.109   3.807 -0.0838  0.1351  0.6195
  968SOL    HW114537   1.360   0.048   3.828 -0.3070 -0.1065  0.6811
  968SOL    HW214538   1.257   0.134   3.894 -0.8868 -0.8980  0.6183
  969SOL     OW14539   2.017   4.448   5.823 -0.2928 -0.1047 -0.2019
  969SOL    HW114540   2.110   4.462   5.806 -0.0656 -0.4599  0.7505
  969SOL    HW214541   2.018   4.358   5.855 -2.7638  0.6080  1.8754
  970SOL     OW14542   2.264   1.859   4.145 -0.1830  0.7724  0.5906
  970SOL    HW114543   2.178   1.867   4.103 -0.2931  1.7047  0.9960
  970SOL    HW214544   2.300   1.940   4.112  2.2522 -1.2673 -1.7146
  971SOL     OW14545   0.980   1.787  17.221  0.1426 -0.2379 -0.7514
  971SOL    HW114546   0.998   1.694  17.234 -1.9218 -0.4024  0.9401
  971SOL    HW214547   0.887   1.771  17.206 -0.3051  2.2392 -0.6213
  972SOL     OW14548   0.150   0.669   8.518 -0.3751  0.6932 -0.3008
  972SOL    HW114549   0.197   0.642   8.439 -1.3783  2.1389 -1.3810
  972SOL    HW214550   0.203   0.747   8.533  0.3491 -0.2256  2.0378
  973SOL     OW14551   3.892   1.568   3.030  0.3040  0.4641 -0.0192
  973SOL    HW114552   3.834   1.556   2.955  2.0708 -1.6694 -1.0609
  973SOL    HW214553   3.979   1.545   2.997  0.0233 -2.1502  1.0149
  974SOL     OW14554   2.837   4.052   1.108  0.2652  0.2780 -0.6407
  974SOL    HW114555   2.848   3.969   1.063 -1.3006  0.9595 -2.2649
  974SOL    HW214556   2.879   4.114   1.049 -0.6309 -0.4921 -2.0894
  975SOL     OW14557   0.126   2.434  15.318  0.2620  0.2455  0.6754
  975SOL    HW114558   0.032   2.441  15.303  0.5638  0.6223 -1.0106
  975SOL    HW214559   0.129   2.370  15.390 -0.8892 -0.8303 -0.2432
  976SOL     OW14560   4.313   4.480   9.597  0.1337  0.1457  0.2777
  976SOL    HW114561   4.332   4.570   9.620  1.5678 -0.4603  1.4394
  976SOL    HW214562   4.400   4.442   9.603 -0.5460 -1.5609 -0.6423
  977SOL     OW14563   2.250   0.226   9.472 -0.0587  0.5634  0.0624
  977SOL    HW114564   2.170   0.199   9.516  0.5240  0.7042  1.1955
  977SOL    HW214565   2.305   0.263   9.542  1.0962  1.2098 -1.1743
  978SOL     OW14566   4.474   0.478   2.372 -0.2912 -0.4270  0.7859
  978SOL    HW114567   4.390   0.509   2.340  0.1339  0.4611  0.5238
  978SOL    HW214568   4.489   0.534   2.448  5.2414  0.2965 -0.7677
  979SOL     OW14569   3.489   0.010  11.125  0.4146  0.5036 -0.1885
  979SOL    HW114570   3.521   4.671  11.171  0.2472  2.5598  3.4470
  979SOL    HW214571   3.426   4.712  11.064 -1.0055  1.5253  0.6730
  980SOL     OW14572   3.229   0.288   2.721  0.0165 -0.5297 -0.0459
  980SOL    HW114573   3.242   0.372   2.764  0.7497  0.0785 -1.4524
  980SOL    HW214574   3.166   0.316   2.655  0.9103  0.8691 -0.3131
  981SOL     OW14575   3.493   1.452   3.124 -0.3491 -0.0803 -0.6458
  981SOL    HW114576   3.439   1.454   3.203 -0.0083 -1.8686 -0.3685
  981SOL    HW214577   3.433   1.400   3.069 -0.8701  0.7875 -0.8977
  982SOL     OW14578   0.862   4.043  15.241  0.3752 -0.0812 -0.0814
  982SOL    HW114579   0.854   4.100  15.318 -0.7045 -0.3486  0.0052
  982SOL    HW214580   0.769   4.024  15.241 -0.2349  2.8540  1.2082
  983SOL     OW14581   0.892   1.649   7.031  0.8845  0.0552 -0.0617
  983SOL    HW114582   0.886   1.625   6.938  1.8925  0.6474 -0.2874
  983SOL    HW214583   0.950   1.576   7.056 -0.0889 -0.0873  1.7679
  984SOL     OW14584   4.586   1.759  11.723  0.1884 -0.1230  0.0285
  984SOL    HW114585   4.677   1.775  11.750 -0.1669  2.1585 -0.1435
  984SOL    HW214586   4.605   1.674  11.683  2.0129  1.1988 -1.9545
  985SOL     OW14587   4.320   0.022   5.216  0.0099 -0.3593 -0.3181
  985SOL    HW114588   4.388   4.703   5.183  2.2254  0.4451  2.7654
  985SOL    HW214589   4.248   4.703   5.238  1.2811 -1.6570  0.3579
  986SOL     OW14590   4.443   2.387  12.623 -0.3516  0.0745 -0.3105
  986SOL    HW114591   4.490   2.305  12.637 -0.6545 -0.0656 -0.1126
  986SOL    HW214592   4.380   2.353  12.559 -0.4123 -2.6483  1.1913
  987SOL     OW14593   1.813   4.457   2.600  0.0654  0.0323 -0.6463
  987SOL    HW114594   1.752   4.530   2.612  0.2342 -0.2444  1.8218
  987SOL    HW214595   1.798   4.438   2.507 -1.1876 -2.0259 -0.0395
  988SOL     OW14596   1.289   4.089   1.288  0.4190 -0.0681  0.5261
  988SOL    HW114597   1.216   4.151   1.295  0.3044  0.1532 -2.6576
  988SOL    HW214598   1.315   4.083   1.196  0.3804 -3.4389  0.7188
  989SOL     OW14599   3.953   4.411   5.755  0.4748  0.0374 -0.8665
  989SOL    HW114600   3.977   4.338   5.811 -0.4068  0.2029 -0.2711
  989SOL    HW214601   3.864   4.386   5.732  0.2615 -1.0653  1.1152
  990SOL     OW14602   3.568   2.918   1.667  0.2257 -0.0357 -0.2099
  990SOL    HW114603   3.538   2.936   1.577  1.8568  2.0290 -0.3451
  990SOL    HW214604   3.516   2.984   1.714  0.7615 -0.0250  0.3648
  991SOL     OW14605   2.425   1.621   9.985 -0.8132  0.3677  0.9804
  991SOL    HW114606   2.423   1.708   9.946  0.6934  0.3508  0.8528
  991SOL    HW214607   2.513   1.597   9.957 -0.6764  0.2064  1.5468
  992SOL     OW14608   0.894   1.285   6.003  0.5901 -0.3305  0.0595
  992SOL    HW114609   0.971   1.309   5.951  0.4142 -0.9566 -0.4883
  992SOL    HW214610   0.851   1.235   5.933 -0.0018  0.5079 -0.1798
  993SOL     OW14611   0.213   4.154  11.886  0.6098  0.2189  0.0604
  993SOL    HW114612   0.281   4.206  11.843 -1.1946  2.1378 -0.4905
  993SOL    HW214613   0.143   4.149  11.821 -0.6947 -0.6780  1.5446
  994SOL     OW14614   2.782   2.090  13.894 -0.0242  0.1116 -0.8077
  994SOL    HW114615   2.738   2.008  13.917  3.1429 -1.1197  0.9063
  994SOL    HW214616   2.866   2.054  13.864  0.3001 -0.4658  0.8050
  995SOL     OW14617   3.665   3.178   5.381 -0.3631  0.2674 -0.1914
  995SOL    HW114618   3.675   3.101   5.437 -0.7627 -0.1323 -0.6655
  995SOL    HW214619   3.724   3.237   5.428 -2.1793 -0.6517  3.2502
  996SOL     OW14620   0.553   2.466   6.171  0.1081  0.0731 -0.4963
  996SOL    HW114621   0.549   2.380   6.130 -1.9987  0.5083 -1.2028
  996SOL    HW214622   0.544   2.435   6.261  1.1636 -2.5794 -1.3289
  997SOL     OW14623   4.236   4.136   4.861  0.7323 -0.0719  0.3055
  997SOL    HW114624   4.321   4.163   4.827 -0.8247  0.7733 -2.9941
  997SOL    HW214625   4.220   4.205   4.926 -1.7472  0.1254 -0.4955
  998SOL     OW14626   3.070   3.081   6.522 -0.2647 -0.0203  0.3526
  998SOL    HW114627   3.070   3.175   6.507 -1.9170 -0.1266 -0.3006
  998SOL    HW214628   3.018   3.068   6.602 -2.2402 -1.6980 -1.2057
  999SOL     OW14629   1.312   4.087   6.954  0.1304  0.1672  0.5220
  999SOL    HW114630   1.297   4.141   6.876  0.2994 -0.8288 -0.2046
  999SOL    HW214631   1.324   4.161   7.013  0.3808  1.1257 -0.7301
 1000SOL     OW14632   3.934   3.095   7.610  0.1308 -0.9096 -0.2129
 1000SOL    HW114633   3.933   3.162   7.542  2.3681  0.4322  1.0623
 1000SOL    HW214634   3.867   3.129   7.670 -0.2638 -0.2320 -1.0324
 1001SOL     OW14635   3.110   3.393  11.978 -0.3582 -0.0452 -0.3773
 1001SOL    HW114636   3.125   3.421  12.068 -1.6267 -0.8992  0.1012
 1001SOL    HW214637   3.198   3.405  11.942 -0.2561  1.3313  0.3260
 1002SOL     OW14638   3.438   2.162   3.383  0.1405  0.4213 -0.2158
 1002SOL    HW114639   3.345   2.158   3.406 -0.1539 -2.4264 -1.8746
 1002SOL    HW214640   3.474   2.203   3.461  1.4600 -0.5517 -0.3060
 1003SOL     OW14641   2.092   3.463   9.878 -0.8827 -0.6206 -0.0243
 1003SOL    HW114642   2.124   3.485   9.966 -2.8998 -0.1328  0.5938
 1003SOL    HW214643   2.067   3.370   9.880 -1.0558 -0.6041 -1.7922
 1004SOL     OW14644   3.152   2.918  12.200  0.8105  0.1267  0.2413
 1004SOL    HW114645   3.142   2.826  12.226  5.6198 -0.5136 -0.2319
 1004SOL    HW214646   3.197   2.946  12.279  0.4146  1.6493 -0.0766
 1005SOL     OW14647   2.678   3.360  13.883 -0.0061  0.3328 -0.1348
 1005SOL    HW114648   2.652   3.273  13.853  0.2548  1.2261 -2.9440
 1005SOL    HW214649   2.772   3.339  13.880 -0.2006 -0.4781 -0.6195
 1006SOL     OW14650   2.672   3.952   9.203 -0.2132 -0.0828  0.0168
 1006SOL    HW114651   2.737   3.908   9.257 -0.6915 -1.2264 -0.3267
 1006SOL    HW214652   2.637   3.872   9.162 -0.7059 -0.2380  0.7286
 1007SOL     OW14653   2.090   0.495   7.029 -0.4895 -0.7111 -0.0872
 1007SOL    HW114654   2.126   0.566   7.081 -0.8463  0.8270 -1.9557
 1007SOL    HW214655   2.001   0.526   7.013  0.1068 -0.1948 -2.4105
 1008SOL     OW14656   3.582   3.242   3.862 -0.8298  0.3294 -0.1851
 1008SOL    HW114657   3.556   3.329   3.832  0.9787  0.8277 -0.3607
 1008SOL    HW214658   3.553   3.182   3.794  0.2368  1.5242 -1.6950
 1009SOL     OW14659   2.085   4.165   7.412  0.0226 -0.5627 -0.0397
 1009SOL    HW114660   2.117   4.152   7.323 -2.3397  1.6419 -1.2191
 1009SOL    HW214661   2.043   4.083   7.436  1.4158 -1.4835 -0.7551
 1010SOL     OW14662   0.043   1.562   7.871  0.0095  0.0433  0.0999
 1010SOL    HW114663   0.007   1.651   7.865  0.5899 -0.0323 -4.5362
 1010SOL    HW214664   0.127   1.561   7.825 -0.1074  0.3047 -0.1198
 1011SOL     OW14665   1.318   3.981  17.046  0.2199 -0.1945  0.4801
 1011SOL    HW114666   1.341   4.049  17.109  1.5800  0.0161 -0.2472
 1011SOL    HW214667   1.376   3.910  17.076  0.5013  0.6588  1.9261
 1012SOL     OW14668   4.257   1.934  13.916 -0.0552  0.5079 -0.0706
 1012SOL    HW114669   4.223   1.874  13.982  3.0684 -1.4374 -0.2103
 1012SOL    HW214670   4.350   1.929  13.937  0.1516 -1.9144 -1.5245
 1013SOL     OW14671   3.950   2.993  15.488  0.7684  0.0422  0.0692
 1013SOL    HW114672   3.937   3.078  15.531 -0.8003 -0.0111 -0.3229
 1013SOL    HW214673   3.861   2.977  15.458  1.0830  0.9744 -1.3665
 1014SOL     OW14674   2.299   1.841  17.278  0.2695 -0.7084  0.5407
 1014SOL    HW114675   2.385   1.810  17.306  1.1573  1.1760 -0.0618
 1014SOL    HW214676   2.299   1.838  17.182 -0.8309 -0.2349  0.5256
 1015SOL     OW14677   1.699   0.783  12.189  0.0906 -0.1856 -0.7460
 1015SOL    HW114678   1.643   0.711  12.218  2.2064 -0.2297  3.3615
 1015SOL    HW214679   1.651   0.795  12.107 -0.8069  0.0849 -0.1835
 1016SOL     OW14680   2.071   0.947   9.572  0.0050 -0.2846  0.5127
 1016SOL    HW114681   2.085   0.908   9.659 -2.4459  0.5082  1.2666
 1016SOL    HW214682   2.029   1.029   9.599  0.4007  0.8800 -2.5041
 1017SOL     OW14683   3.914   3.128  16.486 -0.2206  0.1991  0.2350
 1017SOL    HW114684   3.842   3.078  16.524  0.8110 -0.5866  1.1303
 1017SOL    HW214685   3.968   3.135  16.564 -0.4964  0.2388  0.4204
 1018SOL     OW14686   2.324   3.113   3.310  0.4191  0.6899  0.1617
 1018SOL    HW114687   2.357   3.048   3.247  2.4561  0.8415  1.0590
 1018SOL    HW214688   2.256   3.157   3.260 -0.6248 -0.6317  0.4288
 1019SOL     OW14689   1.971   1.229  11.631  0.0555 -0.4182  0.1200
 1019SOL    HW114690   2.061   1.197  11.636  1.4784  3.3399 -0.8310
 1019SOL    HW214691   1.989   1.321  11.609  1.5397 -0.6427  0.4366
 1020SOL     OW14692   0.427   0.373   8.639 -0.2495  0.7704  0.1572
 1020SOL    HW114693   0.479   0.452   8.626  0.2629  0.4686  0.3693
 1020SOL    HW214694   0.343   0.413   8.618 -0.7827 -1.1677 -1.4336
 1021SOL     OW14695   0.880   1.174  14.943 -0.1925  0.4666 -0.3926
 1021SOL    HW114696   0.829   1.093  14.936 -0.5852  0.6958 -0.1550
 1021SOL    HW214697   0.879   1.216  14.858  1.1423  1.4788  0.0876
 1022SOL     OW14698   0.921   2.350   9.816 -0.6259  0.1597 -0.3010
 1022SOL    HW114699   0.871   2.336   9.896  0.3165  3.3330  0.8616
 1022SOL    HW214700   0.922   2.445   9.826 -0.8236  0.1610 -0.2871
 1023SOL     OW14701   3.834   3.601   7.754  0.0362 -0.4909  0.3782
 1023SOL    HW114702   3.842   3.548   7.833  2.0529  1.3287  1.4142
 1023SOL    HW214703   3.839   3.691   7.786 -0.0599  0.0809 -1.2280
 1024SOL     OW14704   3.372   3.125   7.441  0.3144 -0.0492 -0.3128
 1024SOL    HW114705   3.462   3.144   7.470  0.5119 -1.3307 -0.0908
 1024SOL    HW214706   3.392   3.060   7.374 -0.5225 -1.5286  0.8622
 1025SOL     OW14707   0.302   3.274   3.058 -0.6133  0.6425  0.4500
 1025SOL    HW114708   0.341   3.283   3.144 -0.9590  0.3713  0.6346
 1025SOL    HW214709   0.275   3.365   3.046 -1.5647  0.2953 -0.0496
 1026SOL     OW14710   3.959   0.505   9.682 -0.7105  0.1368  0.1163
 1026SOL    HW114711   3.891   0.512   9.615 -1.5001  0.2466  0.9259
 1026SOL    HW214712   3.916   0.447   9.745 -0.8811  1.0468  0.8527
 1027SOL     OW14713   2.598   2.868  11.052  0.5871  0.2179  0.1387
 1027SOL    HW114714   2.560   2.829  10.973  0.5139  0.3123  0.1266
 1027SOL    HW214715   2.669   2.918  11.014  1.2002 -1.1490 -0.5140
 1028SOL     OW14716   0.311   1.880   8.424 -0.3205 -0.0870  0.4199
 1028SOL    HW114717   0.228   1.833   8.415  0.4256 -0.9165 -1.9989
 1028SOL    HW214718   0.321   1.916   8.336 -0.1820 -1.6868 -0.2123
 1029SOL     OW14719   1.096   3.696   4.123  0.4659 -0.2812 -0.6970
 1029SOL    HW114720   1.022   3.729   4.073 -0.2689 -0.0066  0.5777
 1029SOL    HW214721   1.064   3.614   4.160 -0.2425  0.4781  0.3641
 1030SOL     OW14722   3.865   1.530   1.443 -0.2366  0.3548 -0.0411
 1030SOL    HW114723   3.896   1.544   1.354  0.7712  1.1676  0.4336
 1030SOL    HW214724   3.949   1.547   1.487 -0.1387  1.9642 -0.8551
 1031SOL     OW14725   4.275   2.898   2.943 -0.0999  0.1001 -0.0665
 1031SOL    HW114726   4.264   2.804   2.934 -0.0672  0.1662 -0.8232
 1031SOL    HW214727   4.234   2.928   2.862 -0.4038  0.6871  0.3035
 1032SOL     OW14728   0.201   2.098   8.687 -0.1329 -0.8439  0.3919
 1032SOL    HW114729   0.201   2.004   8.666  0.2170 -0.2677 -2.1998
 1032SOL    HW214730   0.243   2.126   8.606  1.7706 -0.2250  1.6034
 1033SOL     OW14731   1.593   1.759   5.007 -0.1279  0.6190  0.5082
 1033SOL    HW114732   1.618   1.722   5.092  1.2776 -2.8000 -1.4335
 1033SOL    HW214733   1.519   1.812   5.038 -1.0802 -0.2869 -0.2411
 1034SOL     OW14734   0.584   3.224   7.946  0.8426 -0.3105 -0.1007
 1034SOL    HW114735   0.656   3.270   7.989  0.3135  1.8965 -1.5503
 1034SOL    HW214736   0.632   3.166   7.887  2.1589 -2.4718  3.0776
 1035SOL     OW14737   4.622   1.633  16.463  0.0277 -0.1397 -0.7322
 1035SOL    HW114738   4.529   1.650  16.478 -0.0835 -0.8994 -0.5768
 1035SOL    HW214739   4.635   1.671  16.376 -1.1185  0.7837 -0.5032
 1036SOL     OW14740   0.678   0.742   7.831 -0.2660  0.0159  0.2209
 1036SOL    HW114741   0.696   0.771   7.741 -0.7419  5.4497  1.8393
 1036SOL    HW214742   0.697   0.649   7.827  0.3515  0.1495  0.0177
 1037SOL     OW14743   1.667   3.846   3.519  0.4164 -0.2057 -0.5757
 1037SOL    HW114744   1.624   3.765   3.546  0.9059 -0.8628 -1.7625
 1037SOL    HW214745   1.725   3.861   3.594  1.1389 -0.8586 -1.0025
 1038SOL     OW14746   0.023   1.379   4.143 -0.0640 -0.2092  0.0741
 1038SOL    HW114747   4.717   1.301   4.110 -1.6312  0.6069  0.3034
 1038SOL    HW214748   4.734   1.443   4.077 -1.5843 -1.3054 -0.3391
 1039SOL     OW14749   4.374   2.190   0.388  0.1588  0.0817 -0.1724
 1039SOL    HW114750   4.303   2.246   0.356  0.7253  0.0104 -1.5394
 1039SOL    HW214751   4.327   2.163   0.468  2.0930 -1.0521  0.5755
 1040SOL     OW14752   4.163   1.927   4.283 -0.4487 -0.2513 -0.3557
 1040SOL    HW114753   4.123   1.917   4.369 -0.3163  0.5125 -0.2063
 1040SOL    HW214754   4.225   1.998   4.298 -1.8974  0.1577  3.7058
 1041SOL     OW14755   4.028   1.855   9.446 -0.0862 -0.1616 -0.2477
 1041SOL    HW114756   4.060   1.887   9.362 -1.8802  0.4037 -0.7118
 1041SOL    HW214757   4.107   1.862   9.500  0.9929 -4.0987 -1.3054
 1042SOL     OW14758   3.220   3.878   2.904  0.1254 -0.1704  0.2110
 1042SOL    HW114759   3.260   3.957   2.869 -1.8893  1.3356  1.2973
 1042SOL    HW214760   3.195   3.838   2.821 -0.4268  0.3247  0.1380
 1043SOL     OW14761   3.259   4.332   3.129  0.4284  0.2385  0.0490
 1043SOL    HW114762   3.230   4.286   3.207 -1.2949 -1.2264 -1.4433
 1043SOL    HW214763   3.326   4.270   3.100  0.4938  0.9141 -1.2352
 1044SOL     OW14764   1.035   0.766  15.566 -0.6161  0.4166 -0.0455
 1044SOL    HW114765   1.009   0.851  15.531 -0.0623  1.2310  1.4955
 1044SOL    HW214766   1.096   0.747  15.494 -0.0209  2.6675 -0.1460
 1045SOL     OW14767   2.185   2.572   4.013 -0.0456  0.2294  0.2009
 1045SOL    HW114768   2.206   2.500   3.954  1.9297  1.3456 -0.4603
 1045SOL    HW214769   2.241   2.646   3.989  0.8475 -0.5992 -0.2533
 1046SOL     OW14770   0.807   1.434   4.989 -0.3022  0.1812 -0.3547
 1046SOL    HW114771   0.806   1.388   5.073 -2.1480  0.0211 -0.4626
 1046SOL    HW214772   0.717   1.465   4.986 -0.2192  0.5247  0.6755
 1047SOL     OW14773   3.372   0.445   6.105  0.4722  0.0650  0.6310
 1047SOL    HW114774   3.448   0.504   6.107  0.0762  0.5761  0.7243
 1047SOL    HW214775   3.327   0.487   6.031  0.7299 -2.6087 -1.0197
 1048SOL     OW14776   0.817   2.900   4.197  0.4726 -0.3093  0.2257
 1048SOL    HW114777   0.822   2.806   4.182 -1.4096 -0.1336 -1.5011
 1048SOL    HW214778   0.722   2.900   4.210  0.7618  1.4514  2.4377
 1049SOL     OW14779   0.012   4.145   8.636 -0.1377  0.5555 -0.5295
 1049SOL    HW114780   0.081   4.157   8.570  2.1077 -0.1970  1.6631
 1049SOL    HW214781   4.718   4.059   8.611 -2.2145  1.5250 -1.0336
 1050SOL     OW14782   0.490   3.125  11.692  0.0671  0.8356  0.3214
 1050SOL    HW114783   0.451   3.068  11.758  1.2126  0.0792  0.3536
 1050SOL    HW214784   0.574   3.141  11.735 -1.0550 -0.7919  3.0779
 1051SOL     OW14785   0.690   2.748   0.969 -0.0877 -0.2400  0.7925
 1051SOL    HW114786   0.713   2.839   0.949 -1.9024  0.3445  1.4233
 1051SOL    HW214787   0.772   2.706   0.941  0.0546  1.5156 -1.4246
 1052SOL     OW14788   0.189   3.881   8.512 -0.2127  0.1092  0.5213
 1052SOL    HW114789   0.262   3.937   8.487  0.2057  0.4905  2.5866
 1052SOL    HW214790   0.186   3.819   8.439 -2.2975  0.2056  0.5195
 1053SOL     OW14791   2.806   0.474   8.231  0.3750  0.3032  0.1183
 1053SOL    HW114792   2.877   0.429   8.186  0.6764  1.0455 -0.1485
 1053SOL    HW214793   2.854   0.556   8.245 -0.1250  0.5982  0.1333
 1054SOL     OW14794   0.299   2.758   2.188  0.2864 -0.1019 -0.1224
 1054SOL    HW114795   0.211   2.729   2.212 -0.5924  1.2088 -1.6684
 1054SOL    HW214796   0.334   2.689   2.133  0.5150 -0.0720 -0.0119
 1055SOL     OW14797   1.735   4.499   0.645  0.1869 -0.0712 -0.3115
 1055SOL    HW114798   1.757   4.588   0.673  1.2976 -0.2771 -0.5197
 1055SOL    HW214799   1.654   4.515   0.597  0.5139 -0.6769 -1.0644
 1056SOL     OW14800   0.178   3.393   8.216 -0.1950  0.2838  0.1527
 1056SOL    HW114801   0.268   3.423   8.202  0.6989 -1.9958  1.1119
 1056SOL    HW214802   0.126   3.467   8.185 -1.2209 -0.8265 -0.8018
 1057SOL     OW14803   1.301   1.190   5.425 -0.1807  0.2373 -0.0365
 1057SOL    HW114804   1.333   1.103   5.449  0.9497  1.2052  1.9467
 1057SOL    HW214805   1.357   1.225   5.494 -0.3356 -1.3679  0.9078
 1058SOL     OW14806   0.893   1.718   4.634 -1.0031  0.2256 -0.3681
 1058SOL    HW114807   0.836   1.734   4.710  1.9072  0.9208  1.6930
 1058SOL    HW214808   0.943   1.647   4.676 -2.2237 -0.6495 -0.4001
 1059SOL     OW14809   0.562   0.793   8.059 -0.0078 -0.0526 -0.5631
 1059SOL    HW114810   0.552   0.701   8.084 -1.1046  0.1898 -0.1331
 1059SOL    HW214811   0.594   0.778   7.970 -0.3536  0.1001 -0.7125
 1060SOL     OW14812   0.799   4.609   7.495 -0.2862 -0.1841  0.1419
 1060SOL    HW114813   0.806   4.692   7.449 -1.2382 -0.4247 -0.4207
 1060SOL    HW214814   0.751   4.547   7.441 -2.8250  1.4375  0.5541
 1061SOL     OW14815   3.757   2.300   5.779  0.2478 -0.1665  0.1371
 1061SOL    HW114816   3.772   2.232   5.844 -0.0995 -0.2574  0.1203
 1061SOL    HW214817   3.662   2.306   5.784  0.2813  0.1960  0.3559
 1062SOL     OW14818   3.180   1.991  15.598  0.0666  0.4733 -0.0441
 1062SOL    HW114819   3.129   1.972  15.677  0.9657 -2.5605 -0.1885
 1062SOL    HW214820   3.117   2.031  15.539 -1.8232  0.6788  2.0873
 1063SOL     OW14821   1.328   4.677  12.591  0.1750 -0.1463 -0.4353
 1063SOL    HW114822   1.346   4.717  12.676  0.0047  0.7632 -0.8264
 1063SOL    HW214823   1.253   4.619  12.603 -0.6239  0.6349 -1.6987
 1064SOL     OW14824   4.545   0.072   6.942 -0.0936 -0.0341 -0.5875
 1064SOL    HW114825   4.543   4.727   6.989  3.6884 -0.1960 -0.7122
 1064SOL    HW214826   4.596   0.129   6.999  1.1113 -2.4160  0.7582
 1065SOL     OW14827   3.113   1.602   6.929  0.4167  0.4577 -0.0615
 1065SOL    HW114828   3.065   1.520   6.933 -0.7261  1.0771 -1.0256
 1065SOL    HW214829   3.048   1.669   6.950 -0.9298 -1.5006  2.0550
 1066SOL     OW14830   3.669   3.070  11.933  0.0101  0.1424  0.1262
 1066SOL    HW114831   3.683   2.982  11.899  1.9995 -0.0713  1.4826
 1066SOL    HW214832   3.573   3.069  11.936  0.0310  1.3692  1.9388
 1067SOL     OW14833   3.772   0.512   6.758 -0.3744 -0.0707  0.3316
 1067SOL    HW114834   3.766   0.607   6.755 -0.7936 -0.1597 -1.3441
 1067SOL    HW214835   3.792   0.486   6.669  1.7183 -1.0545  1.0807
 1068SOL     OW14836   4.141   4.404   4.499 -0.2330  0.6948  0.1834
 1068SOL    HW114837   4.111   4.434   4.413 -0.3341 -0.7053 -0.2725
 1068SOL    HW214838   4.215   4.349   4.473 -0.0311  2.2013 -2.4612
 1069SOL     OW14839   3.045   2.117   5.567  0.6358 -0.0664 -0.4691
 1069SOL    HW114840   3.135   2.096   5.592  0.9638 -1.7015 -3.0495
 1069SOL    HW214841   3.050   2.147   5.477  0.8433  1.0330 -0.0835
 1070SOL     OW14842   4.500   3.256   6.341  0.0784 -0.5614 -0.4041
 1070SOL    HW114843   4.438   3.184   6.329 -1.7020  1.1923 -1.7138
 1070SOL    HW214844   4.580   3.229   6.296 -0.4918 -1.3857 -0.9174
 1071SOL     OW14845   0.068   0.311   6.955 -0.6164 -0.0299 -0.2687
 1071SOL    HW114846   4.738   0.333   6.893 -0.5420 -0.2379 -0.4245
 1071SOL    HW214847   0.035   0.328   7.044 -1.3754  0.5064 -0.6526
 1072SOL     OW14848   3.401   1.672   4.933 -0.1313 -0.0232 -0.3389
 1072SOL    HW114849   3.492   1.643   4.939 -0.4462 -1.5224 -2.9288
 1072SOL    HW214850   3.379   1.691   5.025 -4.3758 -0.3187 -1.2896
 1073SOL     OW14851   2.805   2.875  16.367 -0.1621  0.1107  0.4447
 1073SOL    HW114852   2.860   2.807  16.328 -0.3507  1.2271 -1.7701
 1073SOL    HW214853   2.873   2.937  16.392  1.4371  0.2156 -4.0998
 1074SOL     OW14854   0.931   2.826   5.145 -0.1225 -0.5994  0.1504
 1074SOL    HW114855   0.918   2.920   5.150 -0.7259 -0.7337  1.1677
 1074SOL    HW214856   0.919   2.816   5.051  0.4369 -0.7299  0.0930
 1075SOL     OW14857   0.521   4.259   8.878  0.0457  0.0163  0.1285
 1075SOL    HW114858   0.440   4.308   8.860 -0.1575 -0.4223 -0.1644
 1075SOL    HW214859   0.511   4.242   8.972 -2.2730 -2.0525 -0.4845
 1076SOL     OW14860   3.247   0.149   9.554  0.2259 -0.0022 -0.1479
 1076SOL    HW114861   3.249   0.155   9.459  1.0079 -0.9533 -0.1980
 1076SOL    HW214862   3.341   0.136   9.565 -0.2543 -3.1849  0.3167
 1077SOL     OW14863   4.718   2.421   6.913  0.4935  0.2653  0.0021
 1077SOL    HW114864   4.637   2.453   6.873  2.4315  2.2100 -2.2974
 1077SOL    HW214865   4.734   2.487   6.981 -2.3273  0.2574  0.7111
 1078SOL     OW14866   4.564   4.573  10.260  0.1993  0.5407 -0.2152
 1078SOL    HW114867   4.649   4.568  10.303  0.0887  0.1553 -0.0412
 1078SOL    HW214868   4.512   4.523  10.323  0.7422 -0.2066 -0.3617
 1079SOL     OW14869   4.379   1.920   5.062 -0.4249 -0.3474  0.1434
 1079SOL    HW114870   4.304   1.920   5.121 -0.5202 -3.3140  0.0471
 1079SOL    HW214871   4.437   1.984   5.103  0.2295 -2.0275  1.8887
 1080SOL     OW14872   1.648   1.724   2.260  0.4123 -0.0901 -0.2338
 1080SOL    HW114873   1.591   1.677   2.321  0.9427  1.0464  1.1200
 1080SOL    HW214874   1.587   1.736   2.187  0.3361 -1.5982 -0.4317
 1081SOL     OW14875   1.346   0.864  12.197 -0.3733  0.0903  0.0303
 1081SOL    HW114876   1.355   0.947  12.149 -2.4596  0.5217  0.4091
 1081SOL    HW214877   1.371   0.809  12.123 -2.4108 -1.3359  0.4202
 1082SOL     OW14878   1.749   4.126  15.800  0.4233 -1.0566  0.1016
 1082SOL    HW114879   1.696   4.194  15.842  1.5480 -0.7043  0.9518
 1082SOL    HW214880   1.686   4.085  15.741 -1.6075 -0.0841  1.6006
 1083SOL     OW14881   1.157   0.660   1.973  0.3768  0.3590  0.2070
 1083SOL    HW114882   1.177   0.710   1.894 -1.2423 -0.7545 -0.9137
 1083SOL    HW214883   1.212   0.584   1.953 -0.9031 -0.1826 -1.3287
 1084SOL     OW14884   1.805   4.285   9.383  0.8290 -0.1172  0.3361
 1084SOL    HW114885   1.804   4.210   9.324 -0.5940  1.2954 -1.4088
 1084SOL    HW214886   1.715   4.318   9.374  0.7359  0.6210  3.7653
 1085SOL     OW14887   4.537   3.214   2.249  0.2897 -0.2797 -0.1507
 1085SOL    HW114888   4.632   3.204   2.254  0.2947  0.1135  0.6128
 1085SOL    HW214889   4.516   3.197   2.157 -2.9951  0.7856  0.3950
 1086SOL     OW14890   2.671   2.098   4.389  0.0553  0.4723  0.2354
 1086SOL    HW114891   2.724   2.176   4.368  0.3136  0.5156  1.0350
 1086SOL    HW214892   2.719   2.064   4.465  0.9503 -1.5781 -1.2598
 1087SOL     OW14893   1.158   0.516  14.469  0.2249  0.0944  0.0651
 1087SOL    HW114894   1.235   0.470  14.434  1.6405  3.2672 -1.0057
 1087SOL    HW214895   1.176   0.601  14.427  0.2053  0.1072  0.0826
 1088SOL     OW14896   2.788   3.725   4.384  0.0578 -0.0384  0.1578
 1088SOL    HW114897   2.863   3.776   4.414  1.4090 -2.7755  1.4782
 1088SOL    HW214898   2.742   3.702   4.465 -0.1517  0.4574  0.1763
 1089SOL     OW14899   3.276   2.192   4.741 -0.1413  0.3383 -0.4374
 1089SOL    HW114900   3.335   2.189   4.816 -1.2380 -0.9467  0.3748
 1089SOL    HW214901   3.330   2.161   4.668 -2.7007 -2.9924 -0.8976
 1090SOL     OW14902   0.959   3.428  12.625  0.2202 -0.1802 -0.4950
 1090SOL    HW114903   0.902   3.498  12.592  0.5810 -0.1667 -1.0973
 1090SOL    HW214904   1.032   3.442  12.565 -0.3920  0.8372 -1.0025
 1091SOL     OW14905   3.108   2.793  14.974 -0.5725 -0.4897 -0.5195
 1091SOL    HW114906   3.164   2.813  15.049 -3.8052 -1.3936  2.1551
 1091SOL    HW214907   3.172   2.795  14.904  0.5913 -2.3344  0.4873
 1092SOL     OW14908   2.723   0.910   3.369 -0.4596 -0.0672  0.3311
 1092SOL    HW114909   2.701   0.842   3.304  1.0809  0.1088 -0.3748
 1092SOL    HW214910   2.799   0.946   3.323  0.1327  0.3686  1.6545
 1093SOL     OW14911   0.462   3.718  11.289  0.4231  0.2640  0.1770
 1093SOL    HW114912   0.420   3.648  11.339 -3.0453  2.0943 -0.1745
 1093SOL    HW214913   0.548   3.682  11.266 -1.1539 -4.2443  1.4401
 1094SOL     OW14914   1.634   1.591  13.482 -0.0431  0.5658  0.1419
 1094SOL    HW114915   1.664   1.674  13.520 -0.2033  2.0587 -2.9969
 1094SOL    HW214916   1.615   1.545  13.564  0.1545 -0.3510 -0.3308
 1095SOL     OW14917   0.232   2.795   2.955  0.1404 -0.0010 -0.4637
 1095SOL    HW114918   0.294   2.819   3.024  1.0359 -0.1481 -1.2280
 1095SOL    HW214919   0.254   2.865   2.893  0.2386 -2.2013 -2.8996
 1096SOL     OW14920   3.791   3.278  17.502 -0.3117  0.0696  0.0861
 1096SOL    HW114921   3.840   3.356  17.476  0.3911 -0.2344  0.4742
 1096SOL    HW214922   3.854   3.225  17.552  0.3194  0.5321 -0.2248
 1097SOL     OW14923   2.787   3.613   9.448 -0.1541  0.0792 -0.3356
 1097SOL    HW114924   2.803   3.703   9.420 -0.2397  0.6296  1.3967
 1097SOL    HW214925   2.830   3.600   9.532  0.5080  0.7625 -0.5651
 1098SOL     OW14926   2.392   1.876   2.044  0.3039 -0.3262  0.0271
 1098SOL    HW114927   2.470   1.834   2.079  0.0540 -0.7459  0.0700
 1098SOL    HW214928   2.425   1.966   2.049  1.2944 -0.7830  1.9305
 1099SOL     OW14929   3.797   0.199   3.472 -0.4313  0.8986 -0.1867
 1099SOL    HW114930   3.798   0.295   3.467  0.7877  1.0263  2.5811
 1099SOL    HW214931   3.810   0.174   3.381  0.5708 -1.3116  0.5634
 1100SOL     OW14932   0.186   1.271   8.832 -0.0207  0.4553  0.8876
 1100SOL    HW114933   0.117   1.330   8.862 -1.1501 -0.9696  1.0750
 1100SOL    HW214934   0.243   1.334   8.788  0.4337  0.8686  2.0760
 1101SOL     OW14935   1.213   1.571   8.217 -0.1306  0.1922 -0.5365
 1101SOL    HW114936   1.228   1.500   8.279  2.4007 -0.3818 -1.7988
 1101SOL    HW214937   1.268   1.643   8.248  0.0892 -1.2159  2.3616
 1102SOL     OW14938   2.521   3.426   2.504  0.6271  0.2249  0.3452
 1102SOL    HW114939   2.473   3.486   2.562 -1.8250  0.8227 -2.3334
 1102SOL    HW214940   2.472   3.434   2.423  0.2991  2.4958  0.7799
 1103SOL     OW14941   2.372   1.970   4.707 -0.5031  0.3157  0.1129
 1103SOL    HW114942   2.340   2.058   4.686 -1.6045 -0.0510  0.2917
 1103SOL    HW214943   2.337   1.927   4.629  1.0351 -0.4629 -0.1399
 1104SOL     OW14944   2.083   2.874   6.475 -0.0895  0.4497  0.0870
 1104SOL    HW114945   1.990   2.860   6.455  0.2398 -1.2805 -0.2334
 1104SOL    HW214946   2.109   2.789   6.440  0.5516 -0.5570  3.0447
 1105SOL     OW14947   0.370   2.124   8.943 -0.4344 -0.1604  0.2649
 1105SOL    HW114948   0.309   2.120   8.870 -0.5263 -1.5569  0.4205
 1105SOL    HW214949   0.360   2.035   8.976  0.3046 -0.3608 -0.0441
 1106SOL     OW14950   2.265   3.253   1.197  0.4079 -0.0299  0.1392
 1106SOL    HW114951   2.241   3.177   1.143 -1.0020  0.7691 -0.3438
 1106SOL    HW214952   2.290   3.323   1.137  0.3181  0.5555  0.7880
 1107SOL     OW14953   2.684   2.739  12.466  0.8353 -0.6074  0.0957
 1107SOL    HW114954   2.644   2.812  12.419  1.0940 -1.2301 -1.0663
 1107SOL    HW214955   2.641   2.734  12.552 -1.1392 -1.2510 -0.9384
 1108SOL     OW14956   1.518   4.172   5.113  0.0249  0.2829  0.2863
 1108SOL    HW114957   1.450   4.144   5.052 -0.4335 -1.2169  1.5074
 1108SOL    HW214958   1.596   4.145   5.064 -1.1528 -1.4726 -0.5843
 1109SOL     OW14959   1.485   2.832   7.036 -0.1494 -0.4273 -0.2413
 1109SOL    HW114960   1.444   2.917   7.025  0.2731 -0.0955  0.7553
 1109SOL    HW214961   1.410   2.785   7.074  0.6129 -1.4388  0.0056
 1110SOL     OW14962   2.321   3.167  10.169  0.3977 -0.0807 -0.0982
 1110SOL    HW114963   2.386   3.106  10.204 -0.4578  0.6331  2.6805
 1110SOL    HW214964   2.354   3.254  10.189  1.6589 -0.4056 -0.7225
 1111SOL     OW14965   0.163   3.728   9.437  0.3881  0.0074 -0.0884
 1111SOL    HW114966   0.211   3.804   9.404 -1.7766  1.6342  0.5201
 1111SOL    HW214967   0.122   3.761   9.517  0.6987 -1.6590  0.7513
 1112SOL     OW14968   0.090   4.628  14.088  0.2998  0.1285  0.2287
 1112SOL    HW114969   0.099   4.552  14.030  0.2576  0.6512 -0.4710
 1112SOL    HW214970   0.008   4.676  14.074  0.3199  0.8300  2.6143
 1113SOL     OW14971   4.678   3.169   3.507  0.1062 -0.1025  0.5271
 1113SOL    HW114972   4.645   3.245   3.459  1.8590 -0.6491 -1.5734
 1113SOL    HW214973   4.712   3.105   3.445 -0.3961 -0.3641  0.5245
 1114SOL     OW14974   1.295   2.013   7.297  0.2192 -0.3427  0.6958
 1114SOL    HW114975   1.351   1.937   7.316  0.5702 -0.6157 -1.3603
 1114SOL    HW214976   1.210   1.984   7.330  0.5231 -0.9619  0.9409
 1115SOL     OW14977   0.791   3.062   4.628 -0.1754  0.3407 -0.4274
 1115SOL    HW114978   0.762   3.153   4.614  1.1897  0.8835  0.3206
 1115SOL    HW214979   0.867   3.082   4.682 -0.0805 -1.1681 -0.0221
 1116SOL     OW14980   0.512   4.673   6.955 -0.2465 -0.5039  0.3927
 1116SOL    HW114981   0.422   4.693   6.983  0.3166  1.5147  0.7381
 1116SOL    HW214982   0.533   0.007   6.897 -0.3560 -0.3810  0.5067
 1117SOL     OW14983   3.616   0.346   5.773  0.5038  0.2122 -0.6230
 1117SOL    HW114984   3.600   0.314   5.684  1.5624  0.3253 -0.8478
 1117SOL    HW214985   3.625   0.259   5.812 -0.3175 -0.3366 -1.6390
 1118SOL     OW14986   3.002   0.570   5.166 -0.3608  0.2152 -0.0405
 1118SOL    HW114987   3.088   0.610   5.177 -0.1368 -0.2440 -0.1630
 1118SOL    HW214988   2.964   0.565   5.254 -0.0844  0.3591  0.0868
 1119SOL     OW14989   1.959   3.339   3.543 -0.5704  0.1181  0.3222
 1119SOL    HW114990   2.001   3.423   3.562  1.2882 -0.6058 -0.5429
 1119SOL    HW214991   2.019   3.275   3.579 -0.1234  0.0125 -0.5992
 1120SOL     OW14992   2.483   4.471   8.293 -0.0106  0.0201  0.1000
 1120SOL    HW114993   2.546   4.501   8.229 -1.3408 -2.2248 -2.2445
 1120SOL    HW214994   2.528   4.482   8.377  0.2667  1.5419 -0.2448
 1121SOL     OW14995   2.381   0.617  10.767  0.1217  0.1966 -0.2816
 1121SOL    HW114996   2.449   0.559  10.733 -1.6455 -1.4089 -1.1241
 1121SOL    HW214997   2.414   0.706  10.766  0.6753 -0.0349 -3.2206
 1122SOL     OW14998   0.652   2.674   6.475 -0.3753 -0.4487  0.5879
 1122SOL    HW114999   0.678   2.589   6.438 -0.1599  0.3160 -1.0036
 1122SOL    HW215000   0.635   2.640   6.563 -1.4953 -0.1834  0.4745
 1123SOL     OW15001   4.132   2.271   9.341  0.0986  0.0403 -0.0010
 1123SOL    HW115002   4.222   2.237   9.340  1.5094  3.8684 -1.6834
 1123SOL    HW215003   4.084   2.193   9.313  0.1365 -0.1461  0.4527
 1124SOL     OW15004   0.540   0.149   6.782 -0.2700 -0.3433 -0.3199
 1124SOL    HW115005   0.613   0.187   6.733  1.0028  0.2789  2.0408
 1124SOL    HW215006   0.483   0.223   6.801  1.6771  1.3825 -1.1844
 1125SOL     OW15007   1.529   0.825   0.392  0.2063  0.4295 -0.3381
 1125SOL    HW115008   1.597   0.760   0.374 -0.8589 -0.6479 -0.4972
 1125SOL    HW215009   1.524   0.865   0.305  2.1670 -0.5350 -0.9142
 1126SOL     OW15010   0.070   4.206   6.018  0.3380 -0.1090  0.0570
 1126SOL    HW115011   0.114   4.274   6.069 -0.6822  1.2890 -0.9329
 1126SOL    HW215012   0.048   4.251   5.937 -0.4945  1.2368  1.0182
 1127SOL     OW15013   3.697   4.471   6.651  0.2158 -0.2269 -0.5192
 1127SOL    HW115014   3.717   4.563   6.666 -2.2609 -0.0402  1.7044
 1127SOL    HW215015   3.764   4.450   6.586  1.1604 -1.8614  0.9717
 1128SOL     OW15016   1.331   4.298   3.377 -0.0562 -0.2127  0.1109
 1128SOL    HW115017   1.400   4.273   3.316 -0.6939  1.6083 -1.3473
 1128SOL    HW215018   1.378   4.333   3.453 -0.1738 -0.9681  0.5383
 1129SOL     OW15019   2.496   2.364   4.792 -0.3571  0.9636  0.2186
 1129SOL    HW115020   2.492   2.303   4.865  0.1409  1.1178  0.3738
 1129SOL    HW215021   2.430   2.322   4.738  1.4478 -1.5895  0.0294
 1130SOL     OW15022   0.516   2.744  13.499 -0.4463  0.0060 -0.4551
 1130SOL    HW115023   0.461   2.801  13.553  0.2090 -1.0908  1.3364
 1130SOL    HW215024   0.601   2.760  13.540 -1.1222 -1.9439  1.6866
 1131SOL     OW15025   2.178   0.277  11.764  0.7773 -0.0913  0.4664
 1131SOL    HW115026   2.212   0.263  11.853  4.3868  1.2419 -0.7408
 1131SOL    HW215027   2.137   0.194  11.737 -1.0533  0.0489  2.7326
 1132SOL     OW15028   2.226   4.397   7.933  0.2753  0.8280  0.0915
 1132SOL    HW115029   2.247   4.422   7.843 -0.5971 -0.2647 -0.4054
 1132SOL    HW215030   2.214   4.488   7.959  0.0882  0.6674  0.5644
 1133SOL     OW15031   4.420   4.230   6.596  0.6630 -0.2238 -0.3747
 1133SOL    HW115032   4.330   4.221   6.565  0.0644 -0.0114  1.2981
 1133SOL    HW215033   4.419   4.325   6.603  0.2737 -0.3362  1.0590
 1134SOL     OW15034   4.337   1.451  16.606 -0.2840  0.1521 -0.6414
 1134SOL    HW115035   4.249   1.426  16.578 -1.2059  1.9148  0.6641
 1134SOL    HW215036   4.344   1.541  16.575 -1.4907  0.4757  0.0577
 1135SOL     OW15037   2.134   3.139   4.472  0.3214  0.7797 -0.2613
 1135SOL    HW115038   2.185   3.217   4.494 -0.2214  1.4647 -1.4024
 1135SOL    HW215039   2.206   3.076   4.470 -1.7847 -1.6152 -1.3614
 1136SOL     OW15040   1.071   2.528   4.814  0.4029  0.2251  0.2289
 1136SOL    HW115041   1.143   2.514   4.752 -0.6354  0.5237 -1.0438
 1136SOL    HW215042   1.001   2.557   4.756  1.5671  0.7862 -0.9048
 1137SOL     OW15043   1.510   1.016  10.611 -0.2446 -0.1298  0.3288
 1137SOL    HW115044   1.458   1.029  10.532 -0.1160 -0.5576  0.1710
 1137SOL    HW215045   1.557   0.934  10.597 -2.5279 -1.5217  0.7565
 1138SOL     OW15046   1.469   2.798  13.438  0.1359  0.1808  0.2415
 1138SOL    HW115047   1.428   2.779  13.522  0.1185  2.3813  0.7138
 1138SOL    HW215048   1.419   2.876  13.412 -0.0417 -0.1628 -0.4470
 1139SOL     OW15049   4.013   0.103   2.017  0.2967 -0.3390 -0.3534
 1139SOL    HW115050   4.106   0.087   2.000  0.3668  0.2790 -0.5461
 1139SOL    HW215051   3.989   0.147   1.935  1.1339  2.1751  0.7369
 1140SOL     OW15052   2.561   2.496   8.242 -0.0037  0.0082  0.3432
 1140SOL    HW115053   2.510   2.534   8.170  1.2682  0.7286 -0.1703
 1140SOL    HW215054   2.598   2.420   8.198  0.1219  0.9679 -1.2108
 1141SOL     OW15055   1.776   3.270  15.477  0.1511 -0.8090  0.5001
 1141SOL    HW115056   1.846   3.262  15.412  0.9327  2.5369  0.9317
 1141SOL    HW215057   1.790   3.197  15.537 -0.0951 -2.5021 -1.5046
 1142SOL     OW15058   2.841   4.238   6.088  0.4975 -0.5503 -0.0471
 1142SOL    HW115059   2.813   4.210   6.001 -1.8614  2.3195 -0.2366
 1142SOL    HW215060   2.936   4.230   6.082  0.7387  1.9085  0.5466
 1143SOL     OW15061   2.882   0.592   5.406  0.4653  0.0109 -0.3020
 1143SOL    HW115062   2.886   0.571   5.499 -0.2038 -0.8368 -0.4705
 1143SOL    HW215063   2.844   0.679   5.418 -1.0083 -0.4397 -1.6982
 1144SOL     OW15064   2.687   0.668   5.755 -0.3338 -0.1506  0.3289
 1144SOL    HW115065   2.737   0.719   5.691 -0.1939 -2.8776 -1.7553
 1144SOL    HW215066   2.662   0.741   5.810  2.0777 -1.4650  3.1763
 1145SOL     OW15067   0.979   2.507   2.222  0.1035 -0.3637 -0.3843
 1145SOL    HW115068   0.888   2.537   2.210  0.5969  1.4513  0.3615
 1145SOL    HW215069   1.030   2.551   2.154  0.2611  1.3344  0.8327
 1146SOL     OW15070   2.241   2.303   4.221 -0.3520  0.6391 -0.4664
 1146SOL    HW115071   2.299   2.379   4.231  0.7005 -0.1187 -0.7273
 1146SOL    HW215072   2.268   2.248   4.295  0.6394 -0.4388 -1.6077
 1147SOL     OW15073   0.306   1.360   8.075 -0.3748  0.3368 -0.0890
 1147SOL    HW115074   0.353   1.310   8.142 -0.1158 -0.3459 -0.7882
 1147SOL    HW215075   0.362   1.349   7.999 -0.5027  0.6263 -0.2238
 1148SOL     OW15076   3.749   4.183   0.331 -0.2085  0.0704 -0.2598
 1148SOL    HW115077   3.823   4.233   0.298  0.2748 -1.6017 -1.7425
 1148SOL    HW215078   3.790   4.120   0.392 -1.5604  0.3719  0.9573
 1149SOL     OW15079   2.540   1.764   8.116 -0.1405 -0.1923  0.5158
 1149SOL    HW115080   2.614   1.703   8.120 -1.8262 -2.2822 -0.7018
 1149SOL    HW215081   2.581   1.845   8.149  1.0226  0.0154 -1.3947
 1150SOL     OW15082   2.027   0.286  14.372 -0.1465  0.3430 -0.3954
 1150SOL    HW115083   2.103   0.338  14.398  0.5949 -1.1886  0.4986
 1150SOL    HW215084   1.983   0.271  14.456  0.8924 -2.0031 -0.2692
 1151SOL     OW15085   1.640   4.354   8.177 -0.1826  0.1207  0.2667
 1151SOL    HW115086   1.712   4.312   8.224 -0.1451  1.2732  1.2170
 1151SOL    HW215087   1.624   4.440   8.215  0.9944  0.6916 -0.5529
 1152SOL     OW15088   0.482   1.650   2.876  0.4036  0.1675 -0.2517
 1152SOL    HW115089   0.390   1.657   2.850  1.4396 -0.6253 -4.0749
 1152SOL    HW215090   0.506   1.738   2.904  2.1286 -1.1350  2.4322
 1153SOL     OW15091   4.075   0.418  12.673  0.0807 -0.1217 -0.6551
 1153SOL    HW115092   4.144   0.445  12.734  1.5482 -1.8464 -1.5505
 1153SOL    HW215093   4.133   0.373  12.611 -2.3143 -2.2441 -1.3226
 1154SOL     OW15094   1.746   2.548   4.767  0.4830  0.1569 -1.1006
 1154SOL    HW115095   1.770   2.635   4.800  0.6581 -0.7548  1.2215
 1154SOL    HW215096   1.712   2.518   4.851  0.1709 -2.7840 -2.3104
 1155SOL     OW15097   1.148   0.912   5.253 -0.4880  0.0609  0.2183
 1155SOL    HW115098   1.196   0.902   5.171 -0.2611 -0.0658  0.3679
 1155SOL    HW215099   1.145   0.821   5.281 -1.5780  0.0450  0.0513
 1156SOL     OW15100   1.669   2.362   1.113 -0.2575  0.2739 -0.0576
 1156SOL    HW115101   1.587   2.339   1.158  0.1945 -3.4034 -1.1845
 1156SOL    HW215102   1.733   2.382   1.181  1.1161  1.9273 -1.8536
 1157SOL     OW15103   2.378   2.222  17.022 -0.1100 -0.2502  0.1943
 1157SOL    HW115104   2.380   2.307  17.065 -0.6453 -0.5731  0.8585
 1157SOL    HW215105   2.379   2.250  16.931 -1.1798  0.0336  0.2738
 1158SOL     OW15106   2.370   3.436   6.468  0.3321 -0.3220 -0.4729
 1158SOL    HW115107   2.374   3.489   6.388  1.0843  0.2978 -0.0217
 1158SOL    HW215108   2.321   3.360   6.437 -0.7232  1.6654 -3.6450
 1159SOL     OW15109   4.405   2.748   7.618  0.0373  0.1237 -0.1598
 1159SOL    HW115110   4.324   2.782   7.657  0.2464 -0.3355  0.6821
 1159SOL    HW215111   4.373   2.666   7.581  1.1157 -0.9123  1.2141
 1160SOL     OW15112   3.675   3.027   3.407  0.0616  0.2765 -0.0199
 1160SOL    HW115113   3.599   2.980   3.442 -0.5800  1.9839  0.8985
 1160SOL    HW215114   3.658   3.117   3.435  0.4565  0.3172  0.0777
 1161SOL     OW15115   4.408   2.380   0.100  0.0232 -0.4567  0.0934
 1161SOL    HW115116   4.354   2.459   0.096 -0.4164 -0.8535 -1.4546
 1161SOL    HW215117   4.431   2.367   0.193  1.0235 -1.3971 -0.2861
 1162SOL     OW15118   1.312   0.435   5.338  0.0073 -0.3759  0.4163
 1162SOL    HW115119   1.284   0.503   5.278  0.4493 -1.1502 -0.6648
 1162SOL    HW215120   1.263   0.475   5.409 -1.6274  2.6153 -2.4544
 1163SOL     OW15121   0.644   4.062  13.305 -0.2588  0.4565  0.5009
 1163SOL    HW115122   0.580   4.129  13.280 -1.9110 -1.1322  0.4517
 1163SOL    HW215123   0.717   4.080  13.246 -0.1900  2.0834  1.0729
 1164SOL     OW15124   0.146   1.221   3.888  0.1957  0.0720  0.2395
 1164SOL    HW115125   0.228   1.228   3.840  0.0924  1.2205  0.2078
 1164SOL    HW215126   0.174   1.222   3.980 -1.1416 -1.4059  0.6600
 1165SOL     OW15127   3.243   2.203   0.663  0.0520 -0.6840  0.5646
 1165SOL    HW115128   3.186   2.146   0.611 -1.3497  0.5531  0.7348
 1165SOL    HW215129   3.185   2.215   0.738  1.2195  2.1436  1.0329
 1166SOL     OW15130   0.594   0.113   4.470 -0.1574 -0.0608 -0.4070
 1166SOL    HW115131   0.564   0.202   4.458 -0.8635 -0.1574  0.6595
 1166SOL    HW215132   0.670   0.119   4.529  1.9344  0.6766 -3.1614
 1167SOL     OW15133   4.735   0.737   7.365 -0.2290 -0.1815  0.2104
 1167SOL    HW115134   0.057   0.775   7.428  1.4697 -3.0472  0.2763
 1167SOL    HW215135   4.651   0.761   7.402 -1.4664 -2.4288 -1.1220
 1168SOL     OW15136   4.088   2.023   3.789 -0.5246 -0.0001  0.1443
 1168SOL    HW115137   4.123   1.989   3.707 -0.6534 -2.3002  1.0497
 1168SOL    HW215138   3.995   2.005   3.772 -0.5683 -0.1037  0.5041
 1169SOL     OW15139   4.163   2.247   5.825 -0.6459 -0.0211 -0.3981
 1169SOL    HW115140   4.220   2.295   5.886  1.0986 -2.7164  0.0841
 1169SOL    HW215141   4.163   2.164   5.872 -0.4919  0.8440  1.1428
 1170SOL     OW15142   4.522   3.149   3.159  0.1452  0.3069  0.0707
 1170SOL    HW115143   4.561   3.147   3.072  0.8180  1.6870  0.3464
 1170SOL    HW215144   4.576   3.221   3.191  1.1909 -1.4604  2.2882
 1171SOL     OW15145   0.885   0.084   7.310 -0.0329  0.0069 -0.1544
 1171SOL    HW115146   0.827   0.152   7.344  0.7551  0.7816 -0.3617
 1171SOL    HW215147   0.848   0.079   7.222  0.1024  0.2024 -0.2224
 1172SOL     OW15148   0.035   1.975   3.389  0.3183 -0.1560  0.1014
 1172SOL    HW115149   4.692   1.951   3.346  0.3000 -0.5814  0.3743
 1172SOL    HW215150   0.034   1.923   3.469 -0.4264  1.3902  1.0879
 1173SOL     OW15151   3.858   2.315   0.306 -0.0730  0.3261  0.1155
 1173SOL    HW115152   3.786   2.296   0.245  0.3389  0.7385 -0.5005
 1173SOL    HW215153   3.813   2.342   0.386  0.2401  2.5142 -0.4415
 1174SOL     OW15154   1.377   4.154   5.635  0.6948 -0.1837 -0.0676
 1174SOL    HW115155   1.408   4.084   5.576  0.9822 -0.0096 -0.1238
 1174SOL    HW215156   1.439   4.146   5.707 -0.2623 -2.8386  0.4827
 1175SOL     OW15157   1.239   2.001   4.248 -0.2151  0.4625  0.0596
 1175SOL    HW115158   1.172   1.989   4.181  1.9731 -0.7457 -1.9357
 1175SOL    HW215159   1.299   2.064   4.208  0.0068  0.2352  0.0314
 1176SOL     OW15160   2.157   4.461  16.658  0.0072 -0.6878 -0.1219
 1176SOL    HW115161   2.164   4.534  16.597  2.5412 -2.3000 -1.7353
 1176SOL    HW215162   2.239   4.470  16.706 -0.7279  0.5278  0.9383
 1177SOL     OW15163   0.597   2.993   7.324 -0.0189  0.1828 -1.2735
 1177SOL    HW115164   0.621   2.939   7.250  1.5099 -2.7378  1.3813
 1177SOL    HW215165   0.502   3.001   7.312 -0.1672  2.0600  0.9835
 1178SOL     OW15166   4.514   1.929  13.547 -0.8059 -0.0286  0.2008
 1178SOL    HW115167   4.503   1.876  13.469  1.2680 -0.9301  0.5372
 1178SOL    HW215168   4.547   2.014  13.516  1.7455 -0.7679  0.9053
 1179SOL     OW15169   1.079   3.353   2.136 -0.0141  0.8909  0.2526
 1179SOL    HW115170   1.163   3.397   2.124  0.8104 -0.8148 -0.3597
 1179SOL    HW215171   1.058   3.373   2.227 -0.3626  0.5424  0.2482
 1180SOL     OW15172   1.577   0.186  17.595  0.1384  0.5020  0.5645
 1180SOL    HW115173   1.524   0.236  17.657  1.0805  0.1915  1.6130
 1180SOL    HW215174   1.520   0.169  17.520 -1.4944  2.0952  1.4035
 1181SOL     OW15175   3.700   3.231  14.576  0.1971  0.3252 -0.0808
 1181SOL    HW115176   3.736   3.189  14.498  2.1877  1.1882  0.3801
 1181SOL    HW215177   3.774   3.207  14.632  0.9417  0.1673 -1.1267
 1182SOL     OW15178   3.380   3.811   6.397 -0.1121  0.6409  0.0654
 1182SOL    HW115179   3.291   3.800   6.431 -1.1792 -1.3541 -3.3599
 1182SOL    HW215180   3.437   3.803   6.473  1.7214 -0.3364 -1.4255
 1183SOL     OW15181   2.473   0.579   5.152  0.3298  0.3836 -0.2402
 1183SOL    HW115182   2.559   0.549   5.181 -0.4904 -1.9543 -0.2156
 1183SOL    HW215183   2.486   0.672   5.169 -0.6439  0.7515 -1.4836
 1184SOL     OW15184   0.462   1.773   8.601 -0.0766  0.3184  0.6087
 1184SOL    HW115185   0.415   1.802   8.522  1.9867 -0.9915 -1.1020
 1184SOL    HW215186   0.431   1.845   8.657 -1.1451  1.3849 -1.3458
 1185SOL     OW15187   0.164   3.349   5.393 -0.9783 -0.6661 -0.8181
 1185SOL    HW115188   0.079   3.390   5.401  0.6405  2.6940 -0.9877
 1185SOL    HW215189   0.149   3.277   5.454  3.1546 -0.0503  0.9476
 1186SOL     OW15190   3.286   4.562  14.230 -0.1348 -0.1481  0.0554
 1186SOL    HW115191   3.380   4.575  14.221  0.2438 -3.0227 -0.0979
 1186SOL    HW215192   3.261   4.615  14.154  1.4845 -0.5668 -0.7507
 1187SOL     OW15193   3.253   3.133   3.730 -0.5250  0.1364  0.2793
 1187SOL    HW115194   3.258   3.161   3.821  0.2619 -2.1390  0.9248
 1187SOL    HW215195   3.341   3.098   3.714 -0.6933 -0.7322  1.2625
 1188SOL     OW15196   3.001   1.389   8.351 -0.1156  0.0537 -0.1041
 1188SOL    HW115197   2.936   1.375   8.282 -0.2008  1.5794 -0.3515
 1188SOL    HW215198   2.941   1.392   8.426 -2.0450 -0.5389 -1.6246
 1189SOL     OW15199   2.783   2.573   0.324  0.0989 -0.2231 -0.3595
 1189SOL    HW115200   2.725   2.587   0.398 -0.5327 -0.0596 -0.8818
 1189SOL    HW215201   2.825   2.658   0.311 -0.3124 -0.2331 -1.8280
 1190SOL     OW15202   3.956   3.959   2.446 -0.3188 -0.3254 -0.4016
 1190SOL    HW115203   3.954   3.915   2.361  0.5291 -2.3464  0.6416
 1190SOL    HW215204   4.043   4.000   2.447 -0.6287  0.2811  1.4878
 1191SOL     OW15205   3.231   0.551   7.609 -0.0579  0.7190  0.1279
 1191SOL    HW115206   3.194   0.599   7.683  0.6591 -0.6905  1.3871
 1191SOL    HW215207   3.157   0.549   7.548  0.0649  1.6971 -0.0673
 1192SOL     OW15208   0.279   0.257   9.347  0.3298  0.8324 -0.7633
 1192SOL    HW115209   0.227   0.334   9.366 -2.9765 -0.9761 -2.4322
 1192SOL    HW215210   0.304   0.273   9.256  1.0492  0.0971 -0.6920
 1193SOL     OW15211   4.716   2.800   8.985  0.2706  0.5952  0.8281
 1193SOL    HW115212   4.702   2.715   8.945  1.3929  0.7628  0.0893
 1193SOL    HW215213   0.004   2.856   8.912  0.9903 -0.5032  0.2658
 1194SOL     OW15214   2.572   0.625  17.501  0.2116  0.4898  0.0710
 1194SOL    HW115215   2.627   0.550  17.521  2.3031  2.1258  0.4554
 1194SOL    HW215216   2.553   0.605  17.410 -1.9772 -0.1251  0.6650
 1195SOL     OW15217   2.626   2.038   1.976 -0.6003 -0.0440 -0.3591
 1195SOL    HW115218   2.666   2.055   2.061 -1.5091  2.0997 -0.3590
 1195SOL    HW215219   2.625   2.123   1.931  3.0494  0.0631 -0.2100
 1196SOL     OW15220   1.684   3.017  10.526  0.2274 -0.1410  0.0494
 1196SOL    HW115221   1.630   2.943  10.555 -0.3026  0.8328  1.5531
 1196SOL    HW215222   1.764   2.971  10.501  1.2144  1.2793  0.6349
 1197SOL     OW15223   1.642   3.867   1.866 -0.5454 -0.1957  0.1062
 1197SOL    HW115224   1.692   3.825   1.936 -0.3882  0.5536  0.4439
 1197SOL    HW215225   1.582   3.797   1.841  0.0145 -0.5599 -0.2234
 1198SOL     OW15226   4.004   3.819   6.882 -0.0090  0.8161  0.0928
 1198SOL    HW115227   4.037   3.878   6.815  0.2144 -1.3338 -1.6925
 1198SOL    HW215228   3.991   3.876   6.958 -2.1628  0.2965  0.1225
 1199SOL     OW15229   4.170   4.190  11.167 -0.3140 -0.0775  0.2508
 1199SOL    HW115230   4.185   4.283  11.180 -1.7235  0.1631  0.2303
 1199SOL    HW215231   4.096   4.180  11.228 -1.3663 -1.7461 -1.2892
 1200SOL     OW15232   1.806   1.810   7.352 -0.1221  0.2017  0.0569
 1200SOL    HW115233   1.777   1.778   7.438 -0.4822  1.2863  0.3449
 1200SOL    HW215234   1.771   1.749   7.288 -0.9657  2.4909 -1.6303
 1201SOL     OW15235   3.101   3.503  17.287 -0.5159  0.1361  0.5517
 1201SOL    HW115236   3.082   3.534  17.376 -0.6129 -3.0984  1.6541
 1201SOL    HW215237   3.119   3.409  17.296  1.8718  0.2862 -2.7781
 1202SOL     OW15238   2.149   3.581   7.012 -0.6107  0.1024 -0.3549
 1202SOL    HW115239   2.113   3.668   7.034  0.7553 -0.0331  2.4171
 1202SOL    HW215240   2.076   3.531   7.048  1.6635 -3.1665 -0.2950
 1203SOL     OW15241   2.666   0.728  10.669  0.2529  0.3338 -0.0015
 1203SOL    HW115242   2.595   0.740  10.606 -0.5915  0.4967  1.0011
 1203SOL    HW215243   2.657   0.809  10.719  1.7601 -0.4684  1.5700
 1204SOL     OW15244   3.601   0.253  11.135 -0.0230  0.7581  0.3666
 1204SOL    HW115245   3.625   0.262  11.227 -1.1640 -0.5035  0.7908
 1204SOL    HW215246   3.551   0.172  11.144  1.0076  0.0802 -0.0280
 1205SOL     OW15247   2.508   4.425   4.070 -0.7431  0.1163 -0.1414
 1205SOL    HW115248   2.566   4.366   4.022 -3.6569 -1.0703 -2.2049
 1205SOL    HW215249   2.460   4.368   4.130  2.9288 -3.9781 -1.0414
 1206SOL     OW15250   2.840   0.147   7.375 -0.0666  0.1851 -0.0952
 1206SOL    HW115251   2.912   0.207   7.393  0.0403 -0.3009  1.1286
 1206SOL    HW215252   2.869   0.125   7.287 -0.6894  0.1826 -0.3020
 1207SOL     OW15253   3.785   1.903   2.193  0.2275 -0.0945  0.2991
 1207SOL    HW115254   3.758   1.896   2.284 -0.9135  2.6370  0.1814
 1207SOL    HW215255   3.702   1.867   2.162 -0.1346 -0.7287  2.0046
 1208SOL     OW15256   0.289   1.395   3.254 -0.2891  0.2984  0.5635
 1208SOL    HW115257   0.230   1.469   3.271  1.7895  2.2686 -0.8494
 1208SOL    HW215258   0.307   1.418   3.163 -1.5263 -1.1585 -0.0423
 1209SOL     OW15259   3.397   2.169  11.028 -0.0019 -0.1442  0.3449
 1209SOL    HW115260   3.459   2.237  11.054 -0.3098  0.5120 -0.6665
 1209SOL    HW215261   3.322   2.226  11.010 -0.8329 -0.7910  1.7899
 1210SOL     OW15262   0.121   1.505   5.411  0.4327  0.0522 -0.3504
 1210SOL    HW115263   0.159   1.440   5.469 -1.1510  1.9854  2.8383
 1210SOL    HW215264   0.097   1.454   5.333  0.2103  0.1081 -0.3172
 1211SOL     OW15265   2.908   4.143  17.305  0.3706 -0.2372 -0.5813
 1211SOL    HW115266   2.849   4.213  17.276  0.8482  1.2325  2.0506
 1211SOL    HW215267   2.995   4.166  17.273  0.6016 -0.6806 -0.2647
 1212SOL     OW15268   2.421   4.276   2.219  0.3522 -0.1025 -0.1535
 1212SOL    HW115269   2.382   4.212   2.278  0.9877 -1.1370 -0.8574
 1212SOL    HW215270   2.427   4.213   2.147  2.9198 -2.7088  2.3281
 1213SOL     OW15271   4.737   3.896   9.032  0.0793 -0.4239  0.3847
 1213SOL    HW115272   0.043   3.868   8.952 -1.4902  1.4161 -1.1670
 1213SOL    HW215273   4.732   3.816   9.084  0.1269  0.6318  2.0103
 1214SOL     OW15274   2.016   3.652   8.695  0.6861 -0.5477  0.3751
 1214SOL    HW115275   1.947   3.586   8.706  1.5459 -1.4265  0.4356
 1214SOL    HW215276   2.088   3.592   8.715  1.2315  0.1816  0.5634
 1215SOL     OW15277   1.952   3.360  10.922 -0.0793 -0.4737 -0.0053
 1215SOL    HW115278   1.935   3.452  10.944  2.1264  0.3939 -1.8731
 1215SOL    HW215279   1.872   3.332  10.877 -1.6650  0.4685  2.2462
 1216SOL     OW15280   3.260   3.561   6.501 -0.0592  0.3106 -0.0705
 1216SOL    HW115281   3.209   3.630   6.542  1.9758  2.5635 -1.3171
 1216SOL    HW215282   3.323   3.556   6.574  2.2022 -0.9940 -2.0960
 1217SOL     OW15283   0.277   0.781   8.869  0.6419 -0.4726  0.8786
 1217SOL    HW115284   0.228   0.863   8.861  1.9952  0.1096 -1.5810
 1217SOL    HW215285   0.276   0.771   8.964 -1.1908  3.7775  1.2856
 1218SOL     OW15286   2.571   1.549  11.649  0.8336 -0.2291 -0.0957
 1218SOL    HW115287   2.660   1.552  11.685  1.1728  1.0424 -1.0615
 1218SOL    HW215288   2.597   1.553  11.557 -0.1130 -0.3647 -0.3687
 1219SOL     OW15289   4.071   1.794   3.612  0.8173  0.7671  0.1764
 1219SOL    HW115290   4.014   1.746   3.673  0.1308  1.0826 -0.2238
 1219SOL    HW215291   4.058   1.737   3.536  1.8230  0.3453  0.3135
 1220SOL     OW15292   0.798   4.203   9.117 -0.3653 -0.1235  0.1772
 1220SOL    HW115293   0.741   4.258   9.172 -2.1645  2.4712 -4.2735
 1220SOL    HW215294   0.783   4.247   9.033  2.7190  2.2024  0.8373
 1221SOL     OW15295   0.124   2.949  11.035  0.7845  0.1255 -0.0192
 1221SOL    HW115296   0.155   2.957  11.125 -1.7145  0.1316  0.8585
 1221SOL    HW215297   0.094   2.858  11.030 -0.0034  0.5680 -2.9909
 1222SOL     OW15298   2.398   3.562  10.979  0.1020  0.0241  0.1146
 1222SOL    HW115299   2.412   3.470  11.002 -0.0939 -0.1570 -0.4933
 1222SOL    HW215300   2.314   3.577  11.021  0.8102  2.1739  0.7546
 1223SOL     OW15301   0.696   2.283  15.833 -0.0944 -0.0695 -0.2122
 1223SOL    HW115302   0.615   2.271  15.882  1.9698  0.3017  3.2619
 1223SOL    HW215303   0.752   2.231  15.891  0.5521  0.5731 -0.2619
 1224SOL     OW15304   0.102   0.712  11.116 -0.0227 -0.6062  0.5056
 1224SOL    HW115305   0.141   0.785  11.163 -1.4901  0.1429  0.5428
 1224SOL    HW215306   0.127   0.733  11.026  0.9554 -0.8313  0.7171
 1225SOL     OW15307   3.990   2.017   0.165 -0.3703  0.0445 -0.3270
 1225SOL    HW115308   3.915   2.030   0.223 -0.3433  3.0404 -0.9466
 1225SOL    HW215309   3.964   1.950   0.102  2.1580 -1.1758 -0.0852
 1226SOL     OW15310   0.911   0.568   4.395  0.0877 -0.3578 -0.5842
 1226SOL    HW115311   0.993   0.518   4.395 -0.5411 -1.4002 -0.3648
 1226SOL    HW215312   0.934   0.625   4.322 -2.1808 -0.2646 -1.2074
 1227SOL     OW15313   1.080   0.573   9.221  0.0468  0.2738 -0.1765
 1227SOL    HW115314   1.005   0.585   9.279  0.0636 -1.4769  0.1948
 1227SOL    HW215315   1.141   0.518   9.269 -1.0014 -0.5273  0.2263
 1228SOL     OW15316   2.332   2.421  16.849  0.4312  0.6206  0.2619
 1228SOL    HW115317   2.411   2.446  16.800 -2.0880  5.6383 -1.2200
 1228SOL    HW215318   2.320   2.492  16.912 -0.1182 -1.0620  2.0609
 1229SOL     OW15319   2.301   2.604   5.651  0.5726 -0.3295  0.1806
 1229SOL    HW115320   2.249   2.528   5.673  0.4867 -0.5744 -0.9014
 1229SOL    HW215321   2.283   2.626   5.560 -1.7308  0.3549  0.8144
 1230SOL     OW15322   0.875   3.506   7.651 -0.4799  0.5001  0.3567
 1230SOL    HW115323   0.844   3.552   7.574 -0.2839  1.3520  0.7924
 1230SOL    HW215324   0.880   3.575   7.717 -0.7508  0.9490 -0.0942
 1231SOL     OW15325   4.707   2.369   1.883  0.5421 -0.2607 -0.2470
 1231SOL    HW115326   0.030   2.297   1.895 -1.1810 -1.6309  0.3994
 1231SOL    HW215327   4.697   2.365   1.788 -2.8233 -3.5212  0.2649
 1232SOL     OW15328   3.198   2.308   6.211 -0.1291  0.8684  1.0090
 1232SOL    HW115329   3.248   2.307   6.292 -1.5960 -3.0149  1.8567
 1232SOL    HW215330   3.256   2.367   6.163 -0.2862  0.5483  0.4281
 1233SOL     OW15331   2.791   3.261   1.836 -0.2987 -0.2387  0.4636
 1233SOL    HW115332   2.796   3.264   1.931  1.1762  2.3926  0.3132
 1233SOL    HW215333   2.808   3.168   1.821  1.5679  0.5927 -2.7187
 1234SOL     OW15334   4.508   3.952   7.673 -0.3176 -0.1820 -0.2252
 1234SOL    HW115335   4.492   3.951   7.767 -0.3904  2.7162 -0.2200
 1234SOL    HW215336   4.600   3.928   7.681 -0.2263  0.4156  0.5205
 1235SOL     OW15337   1.338   1.011   2.796  0.2480 -0.8518  0.3197
 1235SOL    HW115338   1.326   0.917   2.783 -0.3586 -0.8787  1.0470
 1235SOL    HW215339   1.359   1.033   2.705  1.7377  1.3584  1.1975
 1236SOL     OW15340   0.177   0.722   3.382  0.3972 -0.0621 -0.3929
 1236SOL    HW115341   0.199   0.632   3.360  0.2119  0.3474 -2.2134
 1236SOL    HW215342   0.086   0.723   3.352  0.7015  3.0413 -1.1727
 1237SOL     OW15343   3.541   2.237   6.595  0.2544  0.0340 -0.3181
 1237SOL    HW115344   3.632   2.251   6.565  0.6122 -1.8559 -0.1395
 1237SOL    HW215345   3.549   2.161   6.652  0.7820 -0.1139 -0.5785
 1238SOL     OW15346   1.983   2.031   5.031 -0.0112  0.1931 -0.1529
 1238SOL    HW115347   1.929   2.015   5.108 -1.0730  1.6248 -0.5865
 1238SOL    HW215348   1.917   2.021   4.963  0.7824 -0.2423 -0.8600
 1239SOL     OW15349   3.927   0.687  10.299  0.1220  1.1803 -0.1678
 1239SOL    HW115350   3.897   0.761  10.351 -0.8376  0.4713  0.2862
 1239SOL    HW215351   3.975   0.739  10.234  0.5197 -0.7090 -1.4032
 1240SOL     OW15352   4.227   0.394   9.688 -0.3037  0.6954 -0.4738
 1240SOL    HW115353   4.232   0.363   9.597  3.4638 -0.0793 -0.0000
 1240SOL    HW215354   4.145   0.443   9.690 -0.8547 -0.2339 -0.0435
 1241SOL     OW15355   2.970   2.861   3.250  0.3408 -0.0735 -0.6769
 1241SOL    HW115356   2.979   2.818   3.335  0.1919  1.4092  0.0994
 1241SOL    HW215357   3.001   2.791   3.192 -1.8204  0.8115 -2.9286
 1242SOL     OW15358   0.009   4.635   3.197  0.2431 -0.2719  0.0100
 1242SOL    HW115359   0.006   4.630   3.101 -2.0568  0.9425  0.0261
 1242SOL    HW215360   0.012   4.728   3.221  0.2113 -0.5955  1.2450
 1243SOL     OW15361   1.538   3.069  16.534 -0.1894 -0.1384 -0.1807
 1243SOL    HW115362   1.479   3.143  16.515  0.7513  0.8907  0.9459
 1243SOL    HW215363   1.602   3.085  16.464 -0.2687 -2.0458 -0.6848
 1244SOL     OW15364   4.318   4.540   1.981  0.2022  0.0973  0.2373
 1244SOL    HW115365   4.265   4.474   2.025  3.0383 -1.9616  0.5581
 1244SOL    HW215366   4.335   4.481   1.907 -2.0471 -1.6813  1.1430
 1245SOL     OW15367   0.299   0.400   3.291 -0.6122 -0.6095 -0.6021
 1245SOL    HW115368   0.323   0.417   3.200  1.0655 -1.6585 -0.3493
 1245SOL    HW215369   0.387   0.382   3.324 -1.4207 -2.4139  0.5852
 1246SOL     OW15370   4.351   0.679  17.310 -0.2355  0.1547 -0.1176
 1246SOL    HW115371   4.323   0.757  17.262 -0.3992 -0.6926 -1.4085
 1246SOL    HW215372   4.393   0.628  17.240  0.4223 -0.0138  0.3941
 1247SOL     OW15373   1.049   2.874   2.191 -0.3463 -0.3105 -0.2270
 1247SOL    HW115374   1.127   2.833   2.228 -0.6984  0.0052  0.8691
 1247SOL    HW215375   1.080   2.946   2.136  0.6393 -0.6572 -0.1230
 1248SOL     OW15376   4.449   0.262   3.537 -0.2872 -0.4645  0.1579
 1248SOL    HW115377   4.509   0.272   3.463 -1.6595  1.0875 -0.7477
 1248SOL    HW215378   4.482   0.189   3.590 -0.4657 -0.4081  0.3473
 1249SOL     OW15379   4.712   4.523   2.396 -0.0049  0.1671 -0.3050
 1249SOL    HW115380   4.647   4.470   2.442  0.2765  1.4409  1.5687
 1249SOL    HW215381   4.702   4.602   2.449  2.7947 -0.0811  0.5967
 1250SOL     OW15382   1.438   0.367  12.302  0.1432 -0.3630  0.0002
 1250SOL    HW115383   1.349   0.402  12.312 -0.7598 -1.7709 -3.0766
 1250SOL    HW215384   1.439   0.285  12.350 -0.9619 -1.6536 -2.1419
 1251SOL     OW15385   1.771   1.504  11.096  0.2529 -0.7755 -0.0933
 1251SOL    HW115386   1.846   1.468  11.144  0.5790 -0.7631 -0.5947
 1251SOL    HW215387   1.780   1.472  11.006  1.2338  0.9547 -0.6075
 1252SOL     OW15388   3.040   1.388   7.709  0.1505 -0.1224 -0.0409
 1252SOL    HW115389   3.053   1.295   7.730 -0.8393  0.3278  2.4614
 1252SOL    HW215390   2.979   1.380   7.636  0.8188  2.5007 -0.8780
 1253SOL     OW15391   1.032   0.573   6.628  0.2271 -0.0484 -0.2548
 1253SOL    HW115392   0.988   0.601   6.708  1.4717  0.9225  0.0976
 1253SOL    HW215393   0.948   0.563   6.583 -0.3297  0.5456  0.6623
 1254SOL     OW15394   4.187   3.391   2.961  0.7534 -0.0481 -0.4498
 1254SOL    HW115395   4.211   3.298   2.971  0.4889 -0.2693 -1.8978
 1254SOL    HW215396   4.272   3.436   2.960  0.5843  0.2810  0.0747
 1255SOL     OW15397   2.293   2.648   3.598 -0.3030 -0.2578  0.1870
 1255SOL    HW115398   2.375   2.600   3.608  0.2682  0.5259 -0.8455
 1255SOL    HW215399   2.293   2.704   3.676  0.5272  0.9355 -0.6856
 1256SOL     OW15400   1.748   0.405   6.199  0.4248 -0.1100 -0.2015
 1256SOL    HW115401   1.790   0.348   6.135  4.7747  0.7740  1.9287
 1256SOL    HW215402   1.749   0.484   6.146 -2.4760  2.5153  3.6900
 1257SOL     OW15403   3.743   3.868   2.624  0.3398 -0.3577 -0.1877
 1257SOL    HW115404   3.756   3.807   2.551 -2.0609  1.5281 -2.1744
 1257SOL    HW215405   3.801   3.936   2.590  0.9961 -0.7845  0.0618
 1258SOL     OW15406   4.356   0.721   8.487 -0.6118  0.7116  0.0648
 1258SOL    HW115407   4.394   0.707   8.574  1.6480  1.2667 -0.8364
 1258SOL    HW215408   4.283   0.660   8.478  2.3034 -2.8971  0.4746
 1259SOL     OW15409   3.924   3.179   2.855 -0.3886  0.1467 -0.1136
 1259SOL    HW115410   3.859   3.110   2.867 -2.8321  2.4149 -0.2714
 1259SOL    HW215411   3.990   3.158   2.922  0.1205 -1.0141 -0.9787
 1260SOL     OW15412   2.293   1.998  15.917  0.1361 -0.3159 -0.2926
 1260SOL    HW115413   2.245   2.072  15.878  0.4670 -0.1848 -0.4537
 1260SOL    HW215414   2.335   2.039  15.993 -0.6562 -1.0433  0.5327
 1261SOL     OW15415   3.855   0.263   6.857 -0.0720  0.8261 -0.0194
 1261SOL    HW115416   3.815   0.335   6.906  1.8915  0.5964  1.9182
 1261SOL    HW215417   3.925   0.314   6.816  0.3835 -1.0101 -1.4941
 1262SOL     OW15418   4.256   0.445  17.688  0.1620 -0.1952 -0.2776
 1262SOL    HW115419   4.335   0.470  17.736  0.3096 -0.9204 -0.1550
 1262SOL    HW215420   4.253   0.352  17.707 -0.6324  0.0233  0.6867
 1263SOL     OW15421   2.113   1.990   8.061  0.2113  0.0426 -0.8850
 1263SOL    HW115422   2.180   1.927   8.033 -0.9605 -1.4267 -0.3830
 1263SOL    HW215423   2.170   2.066   8.073  3.2404 -2.4554  0.3896
 1264SOL     OW15424   4.307   0.755  14.559  0.0651 -0.3020  0.0572
 1264SOL    HW115425   4.325   0.849  14.569  4.1059 -1.0670 -0.0576
 1264SOL    HW215426   4.304   0.754  14.464 -0.7759 -1.5459  0.0912
 1265SOL     OW15427   3.184   4.185  15.265 -0.0011  0.2259  0.4138
 1265SOL    HW115428   3.266   4.169  15.218 -0.3863  0.5620 -0.3668
 1265SOL    HW215429   3.131   4.221  15.194  1.3948  1.9408  0.2579
 1266SOL     OW15430   2.851   2.285   3.609 -0.4906  0.2089  0.5193
 1266SOL    HW115431   2.818   2.371   3.583  0.7816 -0.0228 -1.8304
 1266SOL    HW215432   2.821   2.220   3.545  0.3315 -0.6106  0.9684
 1267SOL     OW15433   1.328   2.136  12.602 -0.1242  0.6389  0.2459
 1267SOL    HW115434   1.266   2.074  12.564  1.4038  0.0891 -1.3900
 1267SOL    HW215435   1.405   2.109  12.551 -0.5305  0.5104 -0.2945
 1268SOL     OW15436   2.135   3.896   5.907  0.7856  0.0296  0.2308
 1268SOL    HW115437   2.061   3.957   5.907  1.3555  0.7130  0.7964
 1268SOL    HW215438   2.106   3.825   5.850  0.2740  1.1279 -0.8902
 1269SOL     OW15439   3.671   0.684   4.097  0.4599 -0.1331 -0.4674
 1269SOL    HW115440   3.744   0.721   4.147 -1.3163 -1.3876  3.0035
 1269SOL    HW215441   3.722   0.662   4.019  1.6525 -1.0461  0.5670
 1270SOL     OW15442   3.619   3.214   7.474 -0.5863  0.0187 -0.5222
 1270SOL    HW115443   3.705   3.180   7.450 -0.1263  0.1076  1.0264
 1270SOL    HW215444   3.621   3.293   7.420 -3.2889  1.4100  1.3783
 1271SOL     OW15445   3.242   4.730   9.110 -0.4250  0.1273  0.2594
 1271SOL    HW115446   3.148   0.007   9.113 -0.6075 -0.6564 -1.0957
 1271SOL    HW215447   3.255   4.678   9.031 -1.5301  0.3349 -0.0507
 1272SOL     OW15448   1.811   4.256   1.473 -0.4448  0.2218  0.5132
 1272SOL    HW115449   1.815   4.346   1.440  0.2723  0.1153  0.3032
 1272SOL    HW215450   1.719   4.247   1.494 -0.5289  1.2644  0.6250
 1273SOL     OW15451   3.501   2.723   3.216 -0.3083  0.0423 -0.0713
 1273SOL    HW115452   3.516   2.630   3.232  0.3197 -0.1942 -2.0311
 1273SOL    HW215453   3.507   2.765   3.302 -1.5450  0.9987 -0.4415
 1274SOL     OW15454   1.991   2.851  15.138  0.1903  0.3949  0.2752
 1274SOL    HW115455   1.961   2.761  15.125 -0.2489  0.6536 -0.5254
 1274SOL    HW215456   2.084   2.834  15.152 -0.4302 -3.3806 -0.3110
 1275SOL     OW15457   4.149   2.745   5.512 -0.3338  0.0887 -0.1195
 1275SOL    HW115458   4.105   2.821   5.475  1.1675  1.5636  1.1108
 1275SOL    HW215459   4.075   2.702   5.554 -1.6175  0.9731 -1.5035
 1276SOL     OW15460   1.121   1.946  16.029 -0.1978 -0.8341 -0.2941
 1276SOL    HW115461   1.176   1.991  16.093 -0.8476 -1.8733  0.9738
 1276SOL    HW215462   1.135   1.856  16.058  0.3140 -0.9405 -0.8717
 1277SOL     OW15463   0.013   3.159   9.295  0.0630  0.0673  0.1483
 1277SOL    HW115464   4.677   3.114   9.258 -0.0741 -1.5337  2.3647
 1277SOL    HW215465   0.080   3.114   9.243 -0.2649  1.7383 -1.6876
 1278SOL     OW15466   2.049   2.367   3.345  0.4013 -0.5590 -0.0347
 1278SOL    HW115467   1.991   2.434   3.309 -0.7749 -1.0359  0.9765
 1278SOL    HW215468   2.064   2.417   3.425 -0.4856  0.4210 -0.4832
 1279SOL     OW15469   1.002   4.407   4.419 -0.1275 -0.1053  0.2145
 1279SOL    HW115470   1.061   4.389   4.346 -1.7385 -3.6920 -0.2254
 1279SOL    HW215471   1.006   4.502   4.414 -1.3161 -0.0524  0.2457
 1280SOL     OW15472   4.494   3.645  15.209  0.5152  0.6805  0.1224
 1280SOL    HW115473   4.564   3.693  15.253 -1.2629  0.4672  3.2110
 1280SOL    HW215474   4.455   3.721  15.166 -1.9820 -0.4543  0.3445
 1281SOL     OW15475   1.570   1.648   3.532  0.1852  0.4859  0.5987
 1281SOL    HW115476   1.657   1.630   3.568  0.0084  1.8947  1.7259
 1281SOL    HW215477   1.599   1.705   3.461 -2.0226 -1.0747 -1.5368
 1282SOL     OW15478   0.464   0.305   1.718  0.0808 -0.4241 -0.1047
 1282SOL    HW115479   0.441   0.376   1.658 -0.7916  2.4438  3.6578
 1282SOL    HW215480   0.422   0.236   1.667 -0.6052  1.9883 -2.7807
 1283SOL     OW15481   0.701   2.308   3.563  0.0159  0.1419 -0.2877
 1283SOL    HW115482   0.652   2.389   3.553  0.6910  0.6587  0.6169
 1283SOL    HW215483   0.782   2.330   3.610  0.8997 -2.4577 -0.5412
 1284SOL     OW15484   0.558   3.262   5.566 -0.0982  0.2096 -0.2086
 1284SOL    HW115485   0.612   3.268   5.488 -1.2903  0.4646 -1.0147
 1284SOL    HW215486   0.617   3.291   5.635 -2.6767 -0.1930  2.1866
 1285SOL     OW15487   0.146   3.232  14.849  0.8949 -0.0842  0.3947
 1285SOL    HW115488   0.170   3.160  14.791  2.6387  0.4814  0.3996
 1285SOL    HW215489   0.138   3.177  14.927 -0.4775  0.7528  0.8468
 1286SOL     OW15490   4.727   1.360   3.428 -0.6821 -0.2908  0.3429
 1286SOL    HW115491   4.636   1.364   3.459 -1.0036 -1.2581 -0.4687
 1286SOL    HW215492   4.738   1.444   3.384  2.1043 -1.1862 -0.6304
 1287SOL     OW15493   0.775   4.119   7.399  0.0614 -0.7287  0.0975
 1287SOL    HW115494   0.805   4.173   7.472  0.4232  0.9813 -1.3098
 1287SOL    HW215495   0.706   4.173   7.362 -1.2737 -2.8707 -0.5445
 1288SOL     OW15496   1.517   2.896  17.042  0.3688 -0.4141 -0.0351
 1288SOL    HW115497   1.577   2.857  16.978  3.6737 -1.2079  3.5424
 1288SOL    HW215498   1.522   2.984  17.005  0.2539 -1.3180 -2.1995
 1289SOL     OW15499   0.258   2.663  15.326 -0.1036 -0.8156 -0.2537
 1289SOL    HW115500   0.200   2.588  15.317  1.0251 -1.6904 -0.2261
 1289SOL    HW215501   0.323   2.627  15.386  0.2782  1.8045  0.9095
 1290SOL     OW15502   4.586   0.539   1.096  0.0583  0.2961 -0.2252
 1290SOL    HW115503   4.561   0.618   1.048 -1.7817 -0.0402  0.1455
 1290SOL    HW215504   4.611   0.473   1.032  2.0020  1.2561 -0.4334
 1291SOL     OW15505   1.654   2.278   9.129 -0.0595 -0.2135  0.1750
 1291SOL    HW115506   1.574   2.321   9.158 -0.8901 -0.1064 -2.3065
 1291SOL    HW215507   1.687   2.207   9.184 -0.1027  0.1911  0.7201
 1292SOL     OW15508   3.490   2.201   1.618 -0.3845 -0.5613 -0.2602
 1292SOL    HW115509   3.523   2.156   1.540  1.3453  0.5442 -0.1701
 1292SOL    HW215510   3.410   2.236   1.580 -0.5441  0.7984  1.3204
 1293SOL     OW15511   4.387   4.049   7.238  0.0001 -0.5755 -0.2577
 1293SOL    HW115512   4.404   4.039   7.144 -1.0743 -0.3141 -0.4736
 1293SOL    HW215513   4.458   3.988   7.258 -0.5962 -1.5997 -1.2664
 1294SOL     OW15514   2.728   2.224   8.742  0.6440  0.0404 -0.3429
 1294SOL    HW115515   2.642   2.214   8.700  0.1867  0.8107  0.3889
 1294SOL    HW215516   2.778   2.152   8.704 -0.3287 -0.2515 -1.0820
 1295SOL     OW15517   4.731   3.672   7.647 -0.5810  0.5074 -0.0812
 1295SOL    HW115518   0.029   3.748   7.603  1.1989 -0.4473 -0.2385
 1295SOL    HW215519   4.651   3.660   7.596 -2.3422  2.8652  2.1621
 1296SOL     OW15520   4.357   1.042   0.912 -0.0200  0.4850  0.2361
 1296SOL    HW115521   4.270   1.070   0.886 -1.0647 -1.5869  1.5450
 1296SOL    HW215522   4.404   1.122   0.887 -0.7049  0.9064  0.3078
 1297SOL     OW15523   2.202   0.349   0.858  0.3331  0.6470  0.4239
 1297SOL    HW115524   2.159   0.393   0.931 -0.3909 -0.5685  0.7231
 1297SOL    HW215525   2.191   0.421   0.796  1.8970  0.7378  0.2390
 1298SOL     OW15526   2.528   2.382   6.465  0.2146  0.1691  0.7090
 1298SOL    HW115527   2.537   2.299   6.417  1.9231  1.3389 -0.9853
 1298SOL    HW215528   2.471   2.426   6.402 -1.1800 -0.6788  1.3728
 1299SOL     OW15529   1.130   0.736   7.873  0.5135 -0.1066  1.0962
 1299SOL    HW115530   1.123   0.649   7.913 -3.7391 -0.1048  0.3957
 1299SOL    HW215531   1.223   0.757   7.870  0.5453 -0.1912  1.5381
 1300SOL     OW15532   0.057   0.681   0.887  0.0265 -0.2129  0.0054
 1300SOL    HW115533   0.019   0.606   0.932 -1.5596 -0.5862 -1.9601
 1300SOL    HW215534   0.087   0.644   0.804 -1.6267 -0.3462 -0.5429
 1301SOL     OW15535   2.080   1.348   3.216 -0.2034  0.0387 -0.1797
 1301SOL    HW115536   2.106   1.300   3.294  0.4508 -0.1751 -0.5295
 1301SOL    HW215537   2.163   1.339   3.169 -0.3787 -0.2922 -0.4229
 1302SOL     OW15538   2.916   2.062   6.783 -0.1945  0.3822  0.0289
 1302SOL    HW115539   3.008   2.080   6.801  0.0755 -0.9089 -0.0860
 1302SOL    HW215540   2.883   2.143   6.821 -1.6124 -0.5190  0.7448
 1303SOL     OW15541   4.011   1.384  14.656 -0.0735  0.0444  0.0720
 1303SOL    HW115542   3.956   1.307  14.670  0.8384 -0.8657 -1.3995
 1303SOL    HW215543   4.059   1.381  14.738 -2.0935 -0.3659  1.2311
 1304SOL     OW15544   4.072   0.063   3.174 -0.2322  0.0057  0.0510
 1304SOL    HW115545   4.065   0.142   3.120 -0.2337  0.4859  0.7468
 1304SOL    HW215546   3.984   0.072   3.211  0.6103  1.3396  1.7578
 1305SOL     OW15547   3.158   2.115   3.422 -0.1446  0.5189  0.2535
 1305SOL    HW115548   3.092   2.050   3.447 -0.5374  1.1921  0.9918
 1305SOL    HW215549   3.105   2.178   3.373 -0.7600 -0.4799 -0.3658
 1306SOL     OW15550   1.720   2.161  16.649  0.1735  0.6953  0.0608
 1306SOL    HW115551   1.778   2.229  16.683  0.2770 -0.2324  1.7248
 1306SOL    HW215552   1.629   2.180  16.675 -0.9146 -0.4838 -2.8209
 1307SOL     OW15553   1.304   0.977   6.930  0.0846  0.0143 -0.1047
 1307SOL    HW115554   1.212   0.987   6.953  0.5530  1.9237  0.9760
 1307SOL    HW215555   1.315   0.894   6.884 -0.0046  1.1416 -2.1665
 1308SOL     OW15556   4.651   2.088   2.705  0.1101  0.0089  0.3817
 1308SOL    HW115557   4.678   2.142   2.779 -2.1973  2.0774 -0.2700
 1308SOL    HW215558   4.573   2.141   2.688 -0.9944 -1.1455  1.8767
 1309SOL     OW15559   1.685   2.153   6.116  0.5543  0.4933 -1.4507
 1309SOL    HW115560   1.765   2.105   6.095  0.9135  0.5724 -0.2209
 1309SOL    HW215561   1.624   2.080   6.127  1.0659  0.1407 -0.9922
 1310SOL     OW15562   0.283   4.513   8.995 -0.7807 -0.3722  0.3356
 1310SOL    HW115563   0.216   4.454   9.028 -2.5657  1.6207  0.2672
 1310SOL    HW215564   0.347   4.507   9.066  0.3149  1.7583 -0.4602
 1311SOL     OW15565   2.361   1.310   6.054 -0.1534 -0.0998  0.0743
 1311SOL    HW115566   2.305   1.331   6.128  2.4059  1.0431  1.6729
 1311SOL    HW215567   2.384   1.393   6.013 -1.0745  0.1122  0.0065
 1312SOL     OW15568   3.161   2.151   6.900  0.1237 -0.4288 -0.5353
 1312SOL    HW115569   3.237   2.124   6.952  0.3037  3.0384  1.0208
 1312SOL    HW215570   3.174   2.245   6.886  0.9947 -0.5117 -0.2349
 1313SOL     OW15571   4.434   4.211  15.466  0.1858  0.6131  0.1911
 1313SOL    HW115572   4.359   4.261  15.498  1.6556  1.1523  2.8641
 1313SOL    HW215573   4.457   4.163  15.546 -2.8570  1.9862  1.8940
 1314SOL     OW15574   0.477   0.658  10.544 -0.1592  0.3858 -0.2095
 1314SOL    HW115575   0.502   0.715  10.616 -0.4805 -0.3778  0.5040
 1314SOL    HW215576   0.490   0.567  10.569 -3.9261 -0.0457  0.2051
 1315SOL     OW15577   1.606   0.548   5.581  0.0029 -0.6101  0.0973
 1315SOL    HW115578   1.626   0.624   5.636  0.7579 -0.8638  0.1737
 1315SOL    HW215579   1.512   0.535   5.593 -0.3034 -0.0743 -1.5826
 1316SOL     OW15580   0.189   4.489   5.944  0.5253  0.5974  0.3108
 1316SOL    HW115581   0.242   4.517   5.869 -0.4593  0.9323 -0.2533
 1316SOL    HW215582   0.110   4.457   5.902  0.4555  1.2881 -0.0764
 1317SOL     OW15583   4.396   1.142   4.891  0.5142  0.2634  0.6149
 1317SOL    HW115584   4.420   1.233   4.906  0.9357  0.5794 -1.9489
 1317SOL    HW215585   4.428   1.144   4.801 -3.3411 -2.0489 -0.8078
 1318SOL     OW15586   4.365   0.974   1.195 -0.4372 -0.1812  0.2695
 1318SOL    HW115587   4.329   1.012   1.115  1.3058 -0.7162 -0.7731
 1318SOL    HW215588   4.384   1.049   1.251  0.7209 -0.9201  0.8626
 1319SOL     OW15589   3.102   1.203  13.342 -0.5176  0.4693  0.4977
 1319SOL    HW115590   3.155   1.280  13.320  0.1962  0.0887  0.8596
 1319SOL    HW215591   3.029   1.207  13.280 -0.3735  0.5013  0.3292
 1320SOL     OW15592   1.883   0.137   7.068 -0.1934  0.1885  0.0553
 1320SOL    HW115593   1.877   0.042   7.083 -0.2661  0.1840 -0.0031
 1320SOL    HW215594   1.963   0.165   7.113  0.3261  1.5771 -1.7668
 1321SOL     OW15595   1.560   3.453   5.836  0.5487  0.4331  0.5789
 1321SOL    HW115596   1.549   3.504   5.756 -0.5871  1.5261  1.4188
 1321SOL    HW215597   1.489   3.392   5.817  1.5495 -0.8554  1.0451
 1322SOL     OW15598   2.079   0.658   1.203 -0.4019  0.5582  0.0126
 1322SOL    HW115599   2.095   0.630   1.292 -1.4608 -1.1662 -0.3418
 1322SOL    HW215600   2.020   0.731   1.222 -0.3166  0.3416  1.0662
 1323SOL     OW15601   3.666   0.201   1.455  0.3446  0.1804  0.5665
 1323SOL    HW115602   3.693   0.116   1.490 -0.9009 -0.3581  0.2215
 1323SOL    HW215603   3.748   0.230   1.414 -1.0359  0.0052 -2.2631
 1324SOL     OW15604   4.546   1.884   3.827 -0.2469  0.2218  0.2300
 1324SOL    HW115605   4.544   1.940   3.905 -0.6150 -0.2410  0.5572
 1324SOL    HW215606   4.456   1.852   3.828  0.1754 -0.9738 -0.1928
 1325SOL     OW15607   3.417   0.173  16.732 -0.3244  0.1107 -0.0271
 1325SOL    HW115608   3.396   0.190  16.824 -0.3682  0.9144 -0.1797
 1325SOL    HW215609   3.337   0.205  16.690 -0.5651  0.5546  0.7781
 1326SOL     OW15610   2.940   4.411   6.357  0.1788 -0.0063  0.2751
 1326SOL    HW115611   2.987   4.362   6.289  0.6206 -0.5303  0.9646
 1326SOL    HW215612   2.933   4.343   6.424  0.4718 -1.7620 -1.4480
 1327SOL     OW15613   2.610   3.739  13.270 -0.4468 -0.2470  0.2754
 1327SOL    HW115614   2.529   3.734  13.321 -1.1269  0.9018 -0.6884
 1327SOL    HW215615   2.592   3.802  13.200 -1.5068 -1.4703 -0.5491
 1328SOL     OW15616   2.557   1.317   3.912 -0.2204 -0.4418  0.0831
 1328SOL    HW115617   2.537   1.236   3.865  0.9966 -0.9445  0.4124
 1328SOL    HW215618   2.543   1.389   3.851 -0.9598  1.9264  3.0243
 1329SOL     OW15619   2.995   4.716   3.280 -0.4240 -0.4136  0.3071
 1329SOL    HW115620   3.078   0.007   3.244 -0.4839  0.3270  0.7931
 1329SOL    HW215621   2.955   0.054   3.319  0.6675  1.0163 -1.4056
 1330SOL     OW15622   1.395   2.153   8.348  0.5133  0.5045  0.5617
 1330SOL    HW115623   1.401   2.169   8.442  0.1170 -1.4630  0.9289
 1330SOL    HW215624   1.303   2.156   8.323  0.8772  1.0853 -0.6989
 1331SOL     OW15625   1.373   1.979  15.851  0.5622  0.1261 -0.2267
 1331SOL    HW115626   1.280   1.968  15.872  0.5083 -1.6305 -1.4149
 1331SOL    HW215627   1.409   1.891  15.855 -2.1791 -0.9102  2.1397
 1332SOL     OW15628   3.133   1.550   5.818  0.8394  0.2648  0.0752
 1332SOL    HW115629   3.177   1.635   5.814  0.8653  0.1726 -1.5261
 1332SOL    HW215630   3.154   1.522   5.907  3.2729 -0.4760 -0.7217
 1333SOL     OW15631   0.008   3.158   6.221 -0.1246 -0.2533  0.0000
 1333SOL    HW115632   0.071   3.087   6.209 -1.9325 -1.7937 -0.4126
 1333SOL    HW215633   0.066   3.232   6.204  0.1723 -0.9048 -1.8701
 1334SOL     OW15634   0.254   4.647   4.814  0.9430  0.2151  0.0185
 1334SOL    HW115635   0.245   4.610   4.726  0.8479 -0.6157  0.3844
 1334SOL    HW215636   0.179   4.599   4.848 -0.6987  2.6145 -0.2354
 1335SOL     OW15637   3.198   0.465   9.149  0.0697  0.2578  0.4272
 1335SOL    HW115638   3.244   0.524   9.089 -1.8735  1.5210  0.2092
 1335SOL    HW215639   3.129   0.528   9.166 -2.2154 -2.1988  0.2555
 1336SOL     OW15640   2.460   0.844   6.566  0.2203 -0.6963 -0.7466
 1336SOL    HW115641   2.473   0.904   6.493 -0.0674  0.0370 -0.1963
 1336SOL    HW215642   2.534   0.783   6.560  0.8367 -0.2658  2.1935
 1337SOL     OW15643   3.186   3.204  17.338  0.2697 -0.2037  0.6855
 1337SOL    HW115644   3.270   3.170  17.307  0.0691 -0.1324  0.0714
 1337SOL    HW215645   3.135   3.125  17.323  0.3272 -0.3695  1.3691
 1338SOL     OW15646   1.309   0.467  14.741  0.4743  0.4090 -0.0014
 1338SOL    HW115647   1.283   0.445  14.651 -1.2778 -0.1136  0.6411
 1338SOL    HW215648   1.332   0.559  14.747 -1.7186  1.1333 -2.7088
 1339SOL     OW15649   0.257   3.427   8.640  0.0824 -0.1281  0.1516
 1339SOL    HW115650   0.321   3.358   8.651 -1.5155 -1.4774  0.9957
 1339SOL    HW215651   0.185   3.409   8.701  0.2951  0.5370  0.5993
 1340SOL     OW15652   2.412   3.453  10.600 -0.3121 -0.2030 -0.4403
 1340SOL    HW115653   2.412   3.364  10.564  0.0967 -0.0394 -0.8420
 1340SOL    HW215654   2.344   3.447  10.668  0.8993 -1.1196  0.6916
 1341SOL     OW15655   1.937   3.109   7.475 -0.1473  0.2248  0.0881
 1341SOL    HW115656   1.860   3.064   7.442  1.0238 -1.8154  0.1331
 1341SOL    HW215657   1.924   3.101   7.569 -1.2490  0.3494 -0.0561
 1342SOL     OW15658   3.472   1.886  17.117  0.6145 -0.2906  0.0271
 1342SOL    HW115659   3.482   1.843  17.202  2.0561  0.4954  0.2454
 1342SOL    HW215660   3.565   1.904  17.109  0.7700 -0.7768  0.7201
 1343SOL     OW15661   2.590   2.024   3.927  0.0553 -0.3150 -0.2115
 1343SOL    HW115662   2.656   2.068   3.980 -0.5028  1.2733 -0.8502
 1343SOL    HW215663   2.514   2.041   3.983  2.2997  2.2799  2.0455
 1344SOL     OW15664   3.793   0.930   1.952  0.0659 -0.5544  0.1824
 1344SOL    HW115665   3.781   0.849   1.903  0.3071 -0.8759  0.6567
 1344SOL    HW215666   3.800   0.993   1.881 -2.2486 -0.7622 -0.2236
 1345SOL     OW15667   2.829   1.693   8.980 -0.2520 -0.5800  0.1471
 1345SOL    HW115668   2.870   1.739   9.053  0.5108 -2.4311  0.8941
 1345SOL    HW215669   2.894   1.623   8.979  1.2701  0.8362  0.0119
 1346SOL     OW15670   3.461   0.872   6.170 -0.3690 -0.1084  0.0315
 1346SOL    HW115671   3.367   0.873   6.191 -0.6452 -0.0608 -1.2219
 1346SOL    HW215672   3.499   0.855   6.256 -1.9190  1.1125  0.9550
 1347SOL     OW15673   0.986   2.519   5.245 -0.1166 -0.0086  0.1752
 1347SOL    HW115674   0.914   2.457   5.231 -0.0385  0.0388 -0.4327
 1347SOL    HW215675   0.947   2.601   5.276  1.2420  1.5629 -2.2760
 1348SOL     OW15676   1.428   3.723  16.175  0.1032  0.1786  0.0764
 1348SOL    HW115677   1.386   3.809  16.176 -1.5511 -0.6062 -1.0807
 1348SOL    HW215678   1.428   3.688  16.086  1.0120 -0.5370  0.3628
 1349SOL     OW15679   2.631   1.454   8.213 -0.0342  0.2233 -0.0773
 1349SOL    HW115680   2.567   1.470   8.282  1.2484  0.4474  1.0582
 1349SOL    HW215681   2.607   1.362   8.201  0.9596  0.1377 -1.4095
 1350SOL     OW15682   3.663   3.215   0.611  0.1428  0.3809  0.0414
 1350SOL    HW115683   3.614   3.190   0.533 -0.8627 -1.2337  1.1906
 1350SOL    HW215684   3.601   3.174   0.672 -0.6619  3.0133  1.0100
 1351SOL     OW15685   2.458   4.165   3.137 -0.1150 -0.5186  0.3300
 1351SOL    HW115686   2.553   4.181   3.132 -0.2477  0.9745  2.8786
 1351SOL    HW215687   2.455   4.137   3.228  0.3439 -0.3227  0.4068
 1352SOL     OW15688   0.011   4.082  15.418  0.5739  0.3363 -0.1766
 1352SOL    HW115689   4.708   4.135  15.351  2.1928 -0.6872 -2.0213
 1352SOL    HW215690   0.038   4.153  15.477  0.7997 -0.6125  0.8676
 1353SOL     OW15691   1.248   1.368  11.067  0.3510 -0.1321  0.5710
 1353SOL    HW115692   1.191   1.300  11.104  0.5067  0.3720  1.7430
 1353SOL    HW215693   1.287   1.411  11.143  2.4855 -0.1242 -0.5495
 1354SOL     OW15694   4.061   0.916   2.308  0.2313 -0.0389 -0.4536
 1354SOL    HW115695   4.059   0.880   2.397 -2.2802  2.9013  0.6848
 1354SOL    HW215696   4.077   1.008   2.327 -1.3478  0.0373  0.4738
 1355SOL     OW15697   0.553   0.320   3.445  0.0314  0.5220  0.5473
 1355SOL    HW115698   0.549   0.340   3.539  0.0733  1.0268  0.4405
 1355SOL    HW215699   0.568   0.225   3.448  0.6400  0.7093  3.4853
 1356SOL     OW15700   4.117   2.625  14.292  0.3475  0.4661  0.0562
 1356SOL    HW115701   4.203   2.583  14.291  0.3923  0.5421  0.5838
 1356SOL    HW215702   4.131   2.700  14.234 -0.8369  0.4979 -0.1800
 1357SOL     OW15703   3.811   2.707   1.149 -0.8458 -0.2895  0.1787
 1357SOL    HW115704   3.795   2.779   1.088 -0.8564 -0.0184  0.4963
 1357SOL    HW215705   3.851   2.753   1.223 -0.0059 -1.1717  0.2635
 1358SOL     OW15706   4.422   3.428   5.590 -0.2737  0.2177  0.3772
 1358SOL    HW115707   4.514   3.416   5.611  0.0233  0.9525 -0.5369
 1358SOL    HW215708   4.385   3.465   5.670 -1.9807 -2.2053  0.7255
 1359SOL     OW15709   1.785   4.095   5.059  0.4847  0.0779  0.6764
 1359SOL    HW115710   1.804   4.027   4.995 -1.0522  0.4031 -0.1219
 1359SOL    HW215711   1.818   4.050   5.137 -0.7769 -2.9708 -0.5531
 1360SOL     OW15712   1.090   0.847   4.868 -0.0584 -0.2370 -0.0496
 1360SOL    HW115713   1.157   0.891   4.920  0.3666 -1.2800  0.2877
 1360SOL    HW215714   1.129   0.761   4.854  2.5759  1.1587 -1.4342
 1361SOL     OW15715   2.441   1.857   5.467  0.4098 -0.3380  0.2658
 1361SOL    HW115716   2.516   1.917   5.476  2.2770 -2.1749 -2.8886
 1361SOL    HW215717   2.481   1.779   5.429  1.2658  0.0841  0.2852
 1362SOL     OW15718   4.346   1.400   8.565 -0.0367 -0.0133 -0.3051
 1362SOL    HW115719   4.399   1.322   8.554  2.0328  1.2301  0.8560
 1362SOL    HW215720   4.309   1.403   8.654  3.3300  1.0502  1.0382
 1363SOL     OW15721   2.522   4.034  13.388 -0.5160 -0.5571 -0.6523
 1363SOL    HW115722   2.467   3.957  13.407 -0.4044 -0.0261  1.8820
 1363SOL    HW215723   2.509   4.064  13.298 -1.1320  0.5415 -0.1942
 1364SOL     OW15724   3.678   3.490   5.711 -0.2176 -0.0415 -0.5619
 1364SOL    HW115725   3.731   3.435   5.768 -2.0381 -1.1937  0.0085
 1364SOL    HW215726   3.709   3.461   5.625  1.0029 -1.8595  0.4793
 1365SOL     OW15727   3.045   0.405   3.834  0.2371 -0.3018 -0.0132
 1365SOL    HW115728   3.079   0.319   3.810 -2.9365 -2.0827  1.8346
 1365SOL    HW215729   2.952   0.384   3.831  0.4654 -0.7543 -3.0427
 1366SOL     OW15730   1.237   4.024   6.393 -0.2373  0.4306  0.2353
 1366SOL    HW115731   1.156   3.975   6.383  1.1486 -1.5900 -0.9235
 1366SOL    HW215732   1.297   3.978   6.453 -0.1610 -0.6074 -0.6489
 1367SOL     OW15733   1.820   0.966   8.701  0.0108 -0.2014 -0.1680
 1367SOL    HW115734   1.728   0.962   8.673  0.5385  0.6700 -2.0514
 1367SOL    HW215735   1.845   1.037   8.642 -1.2766  0.9569  0.6903
 1368SOL     OW15736   3.017   0.302   6.978  0.3887  0.6004  0.1147
 1368SOL    HW115737   3.066   0.331   7.055 -1.9705  0.2466  1.7598
 1368SOL    HW215738   3.012   0.370   6.911  3.2461  0.8371  0.1554
 1369SOL     OW15739   2.572   2.263   7.248  0.2401 -0.4812 -0.5477
 1369SOL    HW115740   2.543   2.321   7.319  1.5065 -0.5068 -0.0119
 1369SOL    HW215741   2.491   2.220   7.219 -0.0816  0.2071 -0.6719
 1370SOL     OW15742   3.710   1.982   5.252 -0.3524  0.4225 -0.0595
 1370SOL    HW115743   3.798   2.018   5.267 -0.1588 -0.4228  0.8703
 1370SOL    HW215744   3.658   2.014   5.326 -1.4893 -0.4199 -0.5062
 1371SOL     OW15745   0.390   4.718  12.275  0.0166  0.4364  0.3930
 1371SOL    HW115746   0.337   0.056  12.293 -2.1476 -0.8676 -0.4707
 1371SOL    HW215747   0.342   4.654  12.327  1.3731 -0.4633  0.5387
 1372SOL     OW15748   1.932   0.250  14.634  0.3354  0.2903 -0.6163
 1372SOL    HW115749   1.929   0.345  14.639 -1.0370  0.2227 -0.0581
 1372SOL    HW215750   1.837   0.237  14.642  0.3177  0.2756 -0.8458
 1373SOL     OW15751   1.112   0.063  10.625  0.0710 -0.4499  0.4705
 1373SOL    HW115752   1.167   0.141  10.636 -1.7348  0.9016 -0.0915
 1373SOL    HW215753   1.174   4.730  10.638 -0.2012 -0.3048  2.5578
 1374SOL     OW15754   4.284   1.853  14.935 -0.5236  0.4052  0.0392
 1374SOL    HW115755   4.239   1.852  14.850  1.3814  1.2930 -0.9780
 1374SOL    HW215756   4.375   1.836  14.913 -0.9288  0.5811 -1.7765
 1375SOL     OW15757   4.367   1.679   6.193  0.0500  0.1285 -0.2039
 1375SOL    HW115758   4.442   1.686   6.133  0.2758  1.3296  0.2175
 1375SOL    HW215759   4.348   1.589   6.217  0.6434 -0.3420 -1.5062
 1376SOL     OW15760   4.092   3.317   6.412  0.1630  0.1243  0.3589
 1376SOL    HW115761   4.116   3.358   6.329 -1.0057 -2.8493 -1.4025
 1376SOL    HW215762   4.154   3.363   6.470  1.1680 -0.6534 -0.1045
 1377SOL     OW15763   1.473   1.125   9.430  0.3607 -0.0285  0.0377
 1377SOL    HW115764   1.506   1.051   9.480 -0.5277 -1.8648 -2.0536
 1377SOL    HW215765   1.381   1.100   9.421  0.7192 -1.0990 -0.5389
 1378SOL     OW15766   2.743   3.571   7.133  0.2343 -0.0357 -0.0655
 1378SOL    HW115767   2.677   3.536   7.192  0.3516  1.1205  0.7577
 1378SOL    HW215768   2.814   3.583   7.195  1.7298  0.6340 -1.8831
 1379SOL     OW15769   0.133   1.165   3.543  0.2283 -0.3708  0.3508
 1379SOL    HW115770   0.101   1.239   3.492  0.3294 -0.8201 -0.3760
 1379SOL    HW215771   0.091   1.184   3.627 -2.3297 -0.4380 -0.9172
 1380SOL     OW15772   3.294   2.383   5.467  0.3719 -1.1265  0.1062
 1380SOL    HW115773   3.333   2.417   5.387 -2.3780 -1.7717 -1.5410
 1380SOL    HW215774   3.209   2.366   5.425 -0.5756  0.7373  1.2676
 1381SOL     OW15775   2.005   0.125   2.861 -0.2322 -0.2330 -0.1828
 1381SOL    HW115776   1.982   0.036   2.836  0.7902 -0.1262 -1.5401
 1381SOL    HW215777   2.087   0.113   2.909 -1.2729 -1.2604  1.3241
 1382SOL     OW15778   1.524   2.653   3.150  0.0466  0.1538 -0.4941
 1382SOL    HW115779   1.513   2.636   3.244  1.4889 -0.0491 -0.3724
 1382SOL    HW215780   1.597   2.715   3.153  1.8729 -2.0090 -0.0995
 1383SOL     OW15781   3.245   1.073   3.707 -0.5737 -0.1530 -1.0429
 1383SOL    HW115782   3.199   1.092   3.625  2.0667  0.9019 -2.3159
 1383SOL    HW215783   3.168   1.053   3.760 -0.7706 -0.9585 -1.6429
 1384SOL     OW15784   3.368   4.565   8.018  0.0950 -0.3744  0.2145
 1384SOL    HW115785   3.330   4.652   8.025  1.7117  0.2595  1.1059
 1384SOL    HW215786   3.312   4.536   7.946 -0.7597  1.1638  0.2542
 1385SOL     OW15787   2.021   2.380   0.973 -0.2365  0.1788  0.4117
 1385SOL    HW115788   1.954   2.366   0.906 -0.6856 -0.3697  0.9725
 1385SOL    HW215789   1.982   2.342   1.052  1.1798  1.7175  1.8582
 1386SOL     OW15790   2.511   0.790  10.421  0.3793  0.0269 -0.3857
 1386SOL    HW115791   2.580   0.856  10.415  0.7633 -0.3952 -0.6710
 1386SOL    HW215792   2.438   0.848  10.398  0.4846  0.2320 -0.1984
 1387SOL     OW15793   2.291   1.808   7.965 -0.1822  0.5234  0.3906
 1387SOL    HW115794   2.369   1.814   8.020  1.4944  2.7639 -2.2329
 1387SOL    HW215795   2.334   1.824   7.881 -1.0513 -1.0748 -0.3535
 1388SOL     OW15796   1.179   0.897   4.304  0.0643 -0.5437 -0.3553
 1388SOL    HW115797   1.180   0.981   4.259  2.4101 -0.4830 -0.1690
 1388SOL    HW215798   1.149   0.926   4.390  0.4133 -3.1586  0.6566
 1389SOL     OW15799   2.537   0.319   3.481 -0.4540 -0.6241 -0.0664
 1389SOL    HW115800   2.553   0.344   3.390 -0.5388 -0.6360 -0.0845
 1389SOL    HW215801   2.615   0.362   3.516 -0.1480 -0.0013 -1.5183
 1390SOL     OW15802   0.539   1.369   8.586  0.3855  0.0877  0.0968
 1390SOL    HW115803   0.515   1.383   8.495  0.6806  0.8885  0.1417
 1390SOL    HW215804   0.488   1.291   8.609 -1.2589  1.3926  0.8385
 1391SOL     OW15805   4.477   1.219   3.021 -0.7759  0.1434  0.3649
 1391SOL    HW115806   4.499   1.282   2.952 -2.5170 -1.0918 -1.3184
 1391SOL    HW215807   4.408   1.163   2.985  0.1849 -0.5024 -0.4840
 1392SOL     OW15808   0.309   1.733   5.184  0.4568  0.0983 -0.6239
 1392SOL    HW115809   0.216   1.723   5.204  1.0548 -0.5025  1.8330
 1392SOL    HW215810   0.340   1.643   5.194  0.3879  0.2053  0.5581
 1393SOL     OW15811   1.051   1.045   8.999 -0.6049  0.0786  0.3211
 1393SOL    HW115812   1.127   0.998   9.034 -0.3070  0.9189  0.8193
 1393SOL    HW215813   1.035   0.994   8.919 -0.5004 -0.7411  0.8208
 1394SOL     OW15814   4.444   4.451   5.188  0.3856  0.3496  0.0554
 1394SOL    HW115815   4.476   4.518   5.248  1.5931 -0.2013  0.0288
 1394SOL    HW215816   4.469   4.370   5.234 -0.4743  0.8378  1.3752
 1395SOL     OW15817   4.161   1.043   9.172 -0.1545 -0.2084 -0.2528
 1395SOL    HW115818   4.148   0.997   9.254  3.4543  0.0637  0.4877
 1395SOL    HW215819   4.074   1.050   9.132 -0.3105  1.8220  0.3999
 1396SOL     OW15820   4.308   0.538   3.331 -0.0450  0.0409  0.0330
 1396SOL    HW115821   4.371   0.555   3.401  0.2195  2.7842 -0.8502
 1396SOL    HW215822   4.365   0.557   3.257 -1.2343  0.7922 -0.6979
 1397SOL     OW15823   3.173   4.140   7.910  0.6980  0.4591 -0.1738
 1397SOL    HW115824   3.088   4.184   7.904 -0.7860 -2.7486 -2.6434
 1397SOL    HW215825   3.203   4.157   7.999  1.0176 -0.2572 -0.1427
 1398SOL     OW15826   3.204   0.932   7.570  0.2243 -0.2151  0.3770
 1398SOL    HW115827   3.115   0.943   7.537  0.9503  3.3107 -0.4412
 1398SOL    HW215828   3.199   0.893   7.658 -0.0174 -0.4256  0.2700
 1399SOL     OW15829   1.892   2.000   7.034  0.3525 -0.1726 -0.5337
 1399SOL    HW115830   1.948   1.928   7.065 -0.5730 -0.7091 -0.0993
 1399SOL    HW215831   1.867   1.961   6.950 -2.3568  0.1188  0.1238
 1400SOL     OW15832   3.171   0.524  12.702 -0.4236  0.4848 -0.0549
 1400SOL    HW115833   3.241   0.486  12.755 -0.1528  0.2145 -0.5980
 1400SOL    HW215834   3.143   0.450  12.648 -2.1099  2.0517 -1.3393
 1401SOL     OW15835   3.003   3.372   4.318  0.3811 -0.2441 -0.1076
 1401SOL    HW115836   3.004   3.280   4.291  0.3406  0.1126 -1.3608
 1401SOL    HW215837   2.918   3.403   4.286 -0.0778 -1.9016 -0.4853
 1402SOL     OW15838   1.390   0.938   9.849  0.4877 -0.3793 -1.1778
 1402SOL    HW115839   1.470   0.954   9.799  1.2885  0.5634  0.4254
 1402SOL    HW215840   1.330   0.989   9.793 -0.6112  1.4460  1.6643
 1403SOL     OW15841   2.393   3.110   3.800  0.4002 -0.0893 -0.3328
 1403SOL    HW115842   2.484   3.088   3.819  1.1343  0.7238 -2.9728
 1403SOL    HW215843   2.410   3.158   3.719  1.7550 -2.0429 -1.2171
 1404SOL     OW15844   4.528   1.803  13.914 -0.2464 -0.0641 -0.2066
 1404SOL    HW115845   4.617   1.835  13.897 -0.1120 -1.0483 -1.3775
 1404SOL    HW215846   4.551   1.728  13.969 -0.9787 -0.7493 -0.8231
 1405SOL     OW15847   3.725   4.658  10.240 -0.0478 -0.1133 -0.3774
 1405SOL    HW115848   3.637   4.637  10.207 -0.3059  1.9734 -1.0063
 1405SOL    HW215849   3.713   4.632  10.331 -2.9961 -1.2890 -1.1053
 1406SOL     OW15850   2.590   0.423   4.680  0.0021  0.0314  0.1477
 1406SOL    HW115851   2.563   0.392   4.767 -0.8317  0.1539 -0.0740
 1406SOL    HW215852   2.617   0.341   4.638  1.7573  1.7580 -2.1307
 1407SOL     OW15853   1.693   4.020   8.824  0.0265  0.2571 -0.0053
 1407SOL    HW115854   1.600   4.033   8.838  0.2290  1.4250  0.2534
 1407SOL    HW215855   1.698   3.930   8.858  2.7155  1.0498  1.7593
 1408SOL     OW15856   1.226   2.388   0.124  0.0221  0.2007  0.1462
 1408SOL    HW115857   1.246   2.472   0.165  1.3328  0.4858 -1.0460
 1408SOL    HW215858   1.306   2.335   0.130 -1.4321 -1.9739  0.4277
 1409SOL     OW15859   1.144   1.255  12.930  0.8932  0.6590 -0.2774
 1409SOL    HW115860   1.190   1.172  12.919  0.0933  0.3984 -1.7659
 1409SOL    HW215861   1.077   1.235  12.996  0.3523  1.9743 -0.4269
 1410SOL     OW15862   1.212   3.407   3.421 -0.7049 -0.2415 -0.7118
 1410SOL    HW115863   1.301   3.375   3.439 -0.9360 -0.2357  0.4800
 1410SOL    HW215864   1.216   3.502   3.416  2.5539 -0.3922 -0.8537
 1411SOL     OW15865   2.393   1.890   7.725  0.1471 -0.4170 -0.1564
 1411SOL    HW115866   2.368   1.978   7.697  1.0038 -0.5262 -1.2686
 1411SOL    HW215867   2.488   1.899   7.732  0.1277 -0.8159  0.6667
 1412SOL     OW15868   0.857   4.290   6.048 -0.5567 -0.4600  0.6059
 1412SOL    HW115869   0.772   4.333   6.057  0.2151  0.8936  1.4741
 1412SOL    HW215870   0.852   4.253   6.137 -2.2778 -1.1376  0.2321
 1413SOL     OW15871   1.451   1.407   3.654 -0.2878  0.3301  0.2762
 1413SOL    HW115872   1.438   1.363   3.570 -0.4379 -2.0787  1.5616
 1413SOL    HW215873   1.509   1.477   3.623  3.5124 -2.5693  0.8395
 1414SOL     OW15874   0.564   3.251   2.906  0.1517 -0.1905  0.1809
 1414SOL    HW115875   0.560   3.241   2.811  0.6696  0.9805  0.0314
 1414SOL    HW215876   0.474   3.227   2.928  0.1991  0.2388  0.8512
 1415SOL     OW15877   1.964   3.990   9.703  0.5804  0.6542 -0.5162
 1415SOL    HW115878   1.931   3.943   9.780 -1.3137  0.6266 -1.3353
 1415SOL    HW215879   2.045   3.941   9.699  1.1426  1.6999 -1.8554
 1416SOL     OW15880   3.162   3.015  17.089  0.1223 -0.3916  0.0883
 1416SOL    HW115881   3.228   3.083  17.075  0.2135 -0.3910  0.5354
 1416SOL    HW215882   3.083   3.056  17.055  0.2204 -0.7007 -0.5292
 1417SOL     OW15883   3.926   4.502   3.348 -0.4000 -0.3855 -0.2887
 1417SOL    HW115884   3.875   4.572   3.389  0.3854  0.4357 -0.7201
 1417SOL    HW215885   3.973   4.466   3.423 -0.9569 -1.5288 -0.4859
 1418SOL     OW15886   2.506   2.477   3.640  0.0692 -0.2272  0.6219
 1418SOL    HW115887   2.558   2.483   3.721  0.5722  1.9819  0.1339
 1418SOL    HW215888   2.488   2.383   3.637 -1.8065  0.1234  0.8800
 1419SOL     OW15889   4.094   2.921   7.405  0.2251 -0.2875 -0.3295
 1419SOL    HW115890   4.089   2.855   7.474  2.2604 -1.5457 -1.3802
 1419SOL    HW215891   4.139   2.994   7.447 -0.6179  0.2839 -0.4265
 1420SOL     OW15892   0.558   3.446   3.091 -0.4864 -0.3460  0.0839
 1420SOL    HW115893   0.588   3.383   3.025 -0.2569  0.9472 -1.0514
 1420SOL    HW215894   0.636   3.492   3.122 -0.0717 -0.8836 -0.1600
 1421SOL     OW15895   3.709   3.514   1.906 -0.5128 -0.0508  0.3394
 1421SOL    HW115896   3.759   3.546   1.830 -1.4847 -2.3836 -1.2962
 1421SOL    HW215897   3.733   3.588   1.962 -0.8847 -1.9022  2.9164
 1422SOL     OW15898   1.978   0.452   9.386  0.6845 -0.2173 -0.1452
 1422SOL    HW115899   2.005   0.372   9.431 -0.7545 -0.0174  1.1200
 1422SOL    HW215900   2.056   0.504   9.368  0.2982 -0.2939 -2.0409
 1423SOL     OW15901   4.051   2.061  15.887  0.2128  0.0252  0.0022
 1423SOL    HW115902   4.123   2.001  15.909  0.2978  0.3520  0.5944
 1423SOL    HW215903   4.101   2.141  15.902 -1.7894  1.4959 -1.2084
 1424SOL     OW15904   2.216   4.645   6.332  0.5673  0.0276 -0.2926
 1424SOL    HW115905   2.139   4.694   6.302  0.9442 -0.6597 -2.4304
 1424SOL    HW215906   2.216   4.582   6.260  0.9610  0.7866 -0.9632
 1425SOL     OW15907   3.274   1.876   6.555 -0.3152 -0.6148 -0.0986
 1425SOL    HW115908   3.253   1.786   6.531 -1.2214  0.0263 -1.7272
 1425SOL    HW215909   3.185   1.910   6.569 -0.0275 -0.1321  0.5738
 1426SOL     OW15910   4.001   2.318   7.287  0.3130  0.4235  0.5370
 1426SOL    HW115911   4.075   2.290   7.341  1.2470  0.7831 -0.5377
 1426SOL    HW215912   3.972   2.404   7.318 -0.3201  0.2152  0.5248
 1427SOL     OW15913   3.639   2.106  17.297 -0.1938 -0.2543 -0.1765
 1427SOL    HW115914   3.654   2.118  17.203  0.1394 -1.6491 -0.2953
 1427SOL    HW215915   3.720   2.138  17.337  0.5418 -1.7547 -0.4467
 1428SOL     OW15916   0.092   1.891   2.590 -0.4614  0.0179 -0.2614
 1428SOL    HW115917   0.022   1.956   2.598 -0.5575 -0.1736  0.4621
 1428SOL    HW215918   0.162   1.953   2.569  0.3198 -0.4941  0.8376
 1429SOL     OW15919   1.440   4.345   7.969 -0.0809  0.5726 -0.2025
 1429SOL    HW115920   1.492   4.338   8.049 -0.5107  1.3331  0.1484
 1429SOL    HW215921   1.507   4.378   7.910 -2.4025 -1.0022 -3.7526
 1430SOL     OW15922   2.281   0.743   4.392  0.7959  0.0970  0.2143
 1430SOL    HW115923   2.274   0.659   4.348  2.2642  0.4429 -0.6827
 1430SOL    HW215924   2.211   0.794   4.353 -0.4602 -2.8734 -1.3854
 1431SOL     OW15925   3.014   2.249  14.939  0.3276 -0.4315  0.0233
 1431SOL    HW115926   3.061   2.166  14.948 -2.3782 -2.0312 -0.6516
 1431SOL    HW215927   2.920   2.233  14.950  0.2890  0.2939  0.7324
 1432SOL     OW15928   0.473   1.004   2.983  0.2039 -0.1574 -0.2833
 1432SOL    HW115929   0.529   1.081   2.989  0.3900 -0.2222 -1.1872
 1432SOL    HW215930   0.468   0.988   3.077 -1.8556 -0.4861 -0.4614
 1433SOL     OW15931   4.172   3.918   6.671  0.1577  0.5340  0.3538
 1433SOL    HW115932   4.229   3.841   6.675 -0.2358  0.2769  1.0429
 1433SOL    HW215933   4.234   3.987   6.695 -1.7910  1.7993  1.7294
 1434SOL     OW15934   3.221   2.849   6.624  0.2486  0.4912  0.8175
 1434SOL    HW115935   3.167   2.918   6.583 -1.1081 -2.0870 -1.7524
 1434SOL    HW215936   3.275   2.907   6.677 -0.6075  1.2708  0.8512
 1435SOL     OW15937   1.397   3.581   4.495 -0.3700 -0.0803 -0.1128
 1435SOL    HW115938   1.355   3.499   4.520 -1.2713  0.1895 -0.7512
 1435SOL    HW215939   1.488   3.557   4.514 -0.3188  0.3442  0.1877
 1436SOL     OW15940   4.381   0.487   9.860  0.2288  0.4645 -0.4083
 1436SOL    HW115941   4.324   0.451   9.791 -0.4748  0.9859 -0.0930
 1436SOL    HW215942   4.311   0.545   9.888  1.9887  1.6952  1.4500
 1437SOL     OW15943   3.343   1.300   1.097 -1.0662  0.2823 -0.2437
 1437SOL    HW115944   3.300   1.380   1.129  0.3706 -0.1319  2.7515
 1437SOL    HW215945   3.437   1.322   1.098 -1.0353 -0.0218  3.4955
 1438SOL     OW15946   2.137   3.942   0.841  0.1136 -0.1648 -0.0811
 1438SOL    HW115947   2.163   4.027   0.805  0.2207 -0.6201 -1.0806
 1438SOL    HW215948   2.157   3.952   0.934  2.5706 -0.7483 -0.5428
 1439SOL     OW15949   2.724   2.538   2.977  0.2516  0.0722 -0.4599
 1439SOL    HW115950   2.800   2.500   2.934  1.1301 -1.5352  2.5804
 1439SOL    HW215951   2.657   2.473   2.957  1.3809 -1.2607  0.1562
 1440SOL     OW15952   2.596   1.376  16.227  0.4191 -0.0079 -0.5236
 1440SOL    HW115953   2.667   1.334  16.177 -1.3749 -3.1947 -0.3886
 1440SOL    HW215954   2.555   1.293  16.252 -0.1303 -0.2028 -2.0447
 1441SOL     OW15955   3.556   4.176   8.023 -0.7122  0.2000  0.1147
 1441SOL    HW115956   3.463   4.177   8.047 -1.0481 -1.5358 -1.1087
 1441SOL    HW215957   3.559   4.131   7.938 -1.1313 -0.4456  0.4401
 1442SOL     OW15958   1.836   3.378   4.264  0.0389 -0.1201  0.1674
 1442SOL    HW115959   1.818   3.388   4.171  1.3229  1.2323  0.0699
 1442SOL    HW215960   1.920   3.420   4.283 -0.0708  0.1734  0.0021
 1443SOL     OW15961   2.309   0.850   8.986 -0.3639 -0.2956 -0.5003
 1443SOL    HW115962   2.385   0.822   9.037 -1.1653 -3.0351 -0.8021
 1443SOL    HW215963   2.254   0.888   9.055 -0.5451 -0.6078 -0.4727
 1444SOL     OW15964   1.215   2.901   8.334  0.2453  0.0170  0.1458
 1444SOL    HW115965   1.291   2.869   8.383  0.0193  0.8334  1.0259
 1444SOL    HW215966   1.152   2.927   8.401  1.0685  4.5207 -0.8313
 1445SOL     OW15967   3.996   0.187   7.449 -0.2967 -0.4483 -0.4675
 1445SOL    HW115968   3.938   0.207   7.522  0.5959 -1.1120  0.4238
 1445SOL    HW215969   4.084   0.186   7.488  0.4336  1.0824 -2.0775
 1446SOL     OW15970   3.542   4.279   2.333  0.6512 -0.1688  0.3863
 1446SOL    HW115971   3.574   4.365   2.307 -2.8103  1.6203  2.0263
 1446SOL    HW215972   3.617   4.219   2.331  0.6398 -0.2762  2.4307
 1447SOL     OW15973   2.140   1.612   9.410 -0.1139  0.5196  0.1552
 1447SOL    HW115974   2.174   1.690   9.455  1.7674  0.3166 -0.8847
 1447SOL    HW215975   2.190   1.540   9.447 -0.1987 -0.2713 -1.2664
 1448SOL     OW15976   2.189   1.386   9.103 -0.1087 -0.0168  0.3852
 1448SOL    HW115977   2.127   1.332   9.054 -1.4876  0.8971  1.1163
 1448SOL    HW215978   2.130   1.456   9.133  0.8134 -0.7052  3.8244
 1449SOL     OW15979   1.398   3.486   0.311 -0.3565  0.1278  0.4062
 1449SOL    HW115980   1.414   3.580   0.319 -0.0618  0.5047 -4.3168
 1449SOL    HW215981   1.304   3.477   0.297 -0.3180  0.0861  0.1687
 1450SOL     OW15982   1.931   0.309   7.799  0.6251 -0.2119  0.4720
 1450SOL    HW115983   1.952   0.315   7.706 -0.1330 -0.2520  0.3010
 1450SOL    HW215984   1.837   0.295   7.797  0.4915  0.8336 -0.4763
 1451SOL     OW15985   0.102   1.119   7.515  0.3608  0.0099  0.1522
 1451SOL    HW115986   0.163   1.056   7.554  0.8251  0.8746  0.8140
 1451SOL    HW215987   0.014   1.086   7.536 -0.1492  0.6360 -0.9885
 1452SOL     OW15988   2.669   1.054   4.731  0.4472  0.1574 -0.6126
 1452SOL    HW115989   2.698   1.005   4.654  0.1845  0.8964 -1.1812
 1452SOL    HW215990   2.657   0.985   4.796 -0.3595 -0.2599 -1.2025
 1453SOL     OW15991   3.703   3.848  14.362  0.1474  0.5478  0.0717
 1453SOL    HW115992   3.751   3.814  14.438  1.1217  0.0362 -0.7842
 1453SOL    HW215993   3.747   3.816  14.284 -1.2809  1.7459 -1.2240
 1454SOL     OW15994   0.025   4.122   9.207  0.3166 -0.0431 -0.6925
 1454SOL    HW115995   4.730   4.051   9.152  0.3911 -0.4678 -0.1916
 1454SOL    HW215996   0.009   4.085   9.294  2.2937 -0.6396 -0.5960
 1455SOL     OW15997   4.610   0.466  15.648 -0.5713  0.0868 -0.2471
 1455SOL    HW115998   4.609   0.377  15.613  0.3852 -0.6615  1.6815
 1455SOL    HW215999   4.527   0.477  15.694 -1.5034 -3.4172 -1.0610
 1456SOL     OW16000   1.434   1.045  10.354  0.2245 -0.2543 -0.5207
 1456SOL    HW116001   1.383   0.975  10.314  0.6172 -0.7043 -0.2271
 1456SOL    HW216002   1.500   1.059  10.286  1.0908  1.8309  0.7499
 1457SOL     OW16003   0.030   3.278   4.307  0.1299 -0.2070  0.2398
 1457SOL    HW116004   4.735   3.189   4.316 -0.5065  0.0039 -0.1463
 1457SOL    HW216005   0.095   3.272   4.237  0.9990 -1.8517  1.1814
 1458SOL     OW16006   1.042   4.429  11.425  0.5919 -0.4467 -0.6695
 1458SOL    HW116007   1.099   4.506  11.415  0.4583 -0.1993  0.4488
 1458SOL    HW216008   1.062   4.396  11.513  0.7177 -1.1419 -0.9586
 1459SOL     OW16009   2.665   0.708   2.034  0.6270  0.2360 -0.1850
 1459SOL    HW116010   2.571   0.693   2.025  1.3945 -3.9833 -1.1858
 1459SOL    HW216011   2.662   0.755   2.118  0.2038  1.0390 -0.6464
 1460SOL     OW16012   3.683   1.437   0.401 -0.2434 -0.0546  0.6960
 1460SOL    HW116013   3.588   1.439   0.387 -0.1832 -0.8264  0.1670
 1460SOL    HW216014   3.689   1.497   0.475 -1.5592 -2.0456  2.4248
 1461SOL     OW16015   1.465   1.786   9.312 -0.1443 -0.2077  0.3167
 1461SOL    HW116016   1.477   1.776   9.218 -0.9055  0.8481  0.1080
 1461SOL    HW216017   1.494   1.878   9.311  0.2708 -0.3138  3.5346
 1462SOL     OW16018   4.237   1.836  10.449 -0.1445 -0.0709  0.3538
 1462SOL    HW116019   4.248   1.825  10.543  2.5258  1.5781  0.2265
 1462SOL    HW216020   4.322   1.821  10.409  0.3716  0.2578  1.3445
 1463SOL     OW16021   0.399   0.555   3.550 -0.0004  0.7119  0.0383
 1463SOL    HW116022   0.426   0.639   3.514  0.7678  1.2798  1.9337
 1463SOL    HW216023   0.414   0.493   3.478  1.7842 -1.0081  1.8873
 1464SOL     OW16024   1.217   3.515  12.520 -0.0601 -0.1681  0.1023
 1464SOL    HW116025   1.218   3.580  12.450  0.2408 -1.4029 -1.0429
 1464SOL    HW216026   1.281   3.554  12.580 -1.1990  0.3289  0.9833
 1465SOL     OW16027   1.565   4.615   7.536  0.0698 -0.1721  0.3169
 1465SOL    HW116028   1.630   4.681   7.559  1.0024 -0.2821 -2.0513
 1465SOL    HW216029   1.604   4.572   7.460 -0.8149 -1.6320  0.6835
 1466SOL     OW16030   4.574   3.974   6.623  0.1327  0.1431 -0.0274
 1466SOL    HW116031   4.545   4.062   6.646  0.2722  0.0659  0.4466
 1466SOL    HW216032   4.538   3.969   6.535  0.2422 -1.3490  0.0091
 1467SOL     OW16033   4.140   1.010   8.785  0.7172 -0.3751  0.2092
 1467SOL    HW116034   4.083   0.997   8.861 -1.4076 -0.8831 -1.4698
 1467SOL    HW216035   4.082   1.052   8.722  1.2961  0.9798  0.5733
 1468SOL     OW16036   0.388   1.759   3.607  0.0032 -0.1345 -0.5561
 1468SOL    HW116037   0.405   1.813   3.685  0.6367 -0.4374 -0.4877
 1468SOL    HW216038   0.335   1.816   3.551  0.3264  1.8734  1.1547
 1469SOL     OW16039   2.891   3.854   9.361 -0.1001 -0.7584  0.2750
 1469SOL    HW116040   2.934   3.882   9.442 -1.2753 -0.2988  0.7438
 1469SOL    HW216041   2.962   3.839   9.299  0.7319  3.9517  0.0941
 1470SOL     OW16042   4.298   3.950   7.479  0.0337 -0.4190 -0.0185
 1470SOL    HW116043   4.320   4.017   7.415 -2.1283 -0.1870 -0.5103
 1470SOL    HW216044   4.357   3.950   7.554  0.0714 -0.5210 -0.0470
 1471SOL     OW16045   0.821   4.337   8.189 -0.9977  0.1670 -0.7843
 1471SOL    HW116046   0.731   4.354   8.216 -1.3192 -2.2699 -0.3176
 1471SOL    HW216047   0.845   4.355   8.279  2.0114 -2.2069 -1.1217
 1472SOL     OW16048   2.104   4.022   4.678  0.6159  0.0600 -0.6910
 1472SOL    HW116049   2.154   4.074   4.741  2.6916  0.0768 -2.3545
 1472SOL    HW216050   2.103   4.075   4.599 -2.0330  3.2467  1.4637
 1473SOL     OW16051   1.224   1.943   2.820  0.1531  0.1849  0.3056
 1473SOL    HW116052   1.158   2.006   2.791  0.2178 -1.3249 -3.1122
 1473SOL    HW216053   1.174   1.863   2.804 -0.3198  0.7934 -1.2007
 1474SOL     OW16054   0.788   3.378  15.574 -0.5022 -0.1171 -0.3305
 1474SOL    HW116055   0.763   3.370  15.483 -0.8686 -2.3413 -0.0173
 1474SOL    HW216056   0.877   3.342  15.571 -0.9136 -1.0378 -1.3153
 1475SOL     OW16057   0.619   3.990   6.584 -0.2203 -0.5045 -0.4069
 1475SOL    HW116058   0.703   3.947   6.572 -0.9740 -2.0982  0.0727
 1475SOL    HW216059   0.559   3.921   6.613  0.8473 -1.7890 -1.2563
 1476SOL     OW16060   2.128   0.490   9.881  0.1166  0.3757  0.1196
 1476SOL    HW116061   2.142   0.417   9.942  0.6117  0.1795 -0.2216
 1476SOL    HW216062   2.086   0.550   9.942 -0.8765  0.1055 -0.3022
 1477SOL     OW16063   1.043   3.068   4.780 -0.1851 -0.0227  0.0645
 1477SOL    HW116064   1.113   3.073   4.845  0.4093  0.3931 -0.6048
 1477SOL    HW216065   1.066   3.150   4.736 -0.0637 -1.0393 -1.7658
 1478SOL     OW16066   0.012   0.946   0.878 -0.3788  0.0445 -0.5425
 1478SOL    HW116067   4.709   0.934   0.793 -1.3247  0.7887 -0.1759
 1478SOL    HW216068   0.056   0.862   0.892 -0.3292  0.3557  1.2083
 1479SOL     OW16069   1.396   0.780   7.852 -0.3281 -0.2558  0.4234
 1479SOL    HW116070   1.459   0.792   7.923 -0.8891  0.8357  0.7341
 1479SOL    HW216071   1.448   0.814   7.779 -2.2308  0.4420 -0.5968
 1480SOL     OW16072   1.284   0.684   3.712  0.5554  0.1665 -0.8402
 1480SOL    HW116073   1.353   0.745   3.686  0.1009  0.6685 -0.8778
 1480SOL    HW216074   1.295   0.614   3.648  0.3340 -0.6644  0.0321
 1481SOL     OW16075   2.456   2.027  12.808  0.2824 -0.0311 -0.2051
 1481SOL    HW116076   2.532   2.085  12.800  1.1036 -0.9550  0.9535
 1481SOL    HW216077   2.386   2.071  12.759 -1.5160 -1.0190  1.4716
 1482SOL     OW16078   0.393   3.059   3.849 -0.3890 -0.4000 -0.2143
 1482SOL    HW116079   0.325   3.105   3.799 -0.9164 -0.8202  0.1145
 1482SOL    HW216080   0.351   2.980   3.883  0.1159 -1.4417 -2.0570
 1483SOL     OW16081   4.603   1.702   7.568 -0.1018  0.5686  0.3798
 1483SOL    HW116082   4.671   1.664   7.513 -1.0520 -0.0960 -0.3447
 1483SOL    HW216083   4.651   1.731   7.645  0.5800  0.7590 -0.1220
 1484SOL     OW16084   0.850   3.638   1.590 -0.2526  0.0753 -0.4893
 1484SOL    HW116085   0.883   3.632   1.501 -3.3560 -1.7947 -1.4808
 1484SOL    HW216086   0.791   3.709   1.566 -0.1705  0.7504  1.3188
 1485SOL     OW16087   2.501   1.992  11.069  0.0769  0.4223  0.1125
 1485SOL    HW116088   2.581   2.045  11.077  1.8961 -2.2094 -0.4775
 1485SOL    HW216089   2.431   2.051  11.042  1.0008  2.1427  1.4985
 1486SOL     OW16090   4.296   4.506   8.122 -0.4403  0.1942  0.0374
 1486SOL    HW116091   4.268   4.551   8.042 -2.2642 -0.2016  0.4429
 1486SOL    HW216092   4.380   4.550   8.132  0.7580 -1.8883 -0.9846
 1487SOL     OW16093   2.371   2.535  15.439  0.0454 -0.6309 -0.4186
 1487SOL    HW116094   2.375   2.492  15.353 -0.4705  2.3931 -1.9612
 1487SOL    HW216095   2.448   2.590  15.451 -0.2757  0.0985 -1.7061
 1488SOL     OW16096   4.593   2.192  13.488 -0.2729 -0.0631  0.0526
 1488SOL    HW116097   4.615   2.280  13.520 -1.1959 -1.0734  3.4440
 1488SOL    HW216098   4.684   2.167  13.479 -0.3590 -0.9306  1.5840
 1489SOL     OW16099   0.787   3.206   6.133  0.1583 -0.5034 -0.2606
 1489SOL    HW116100   0.786   3.111   6.131 -1.5625 -0.5114  0.7193
 1489SOL    HW216101   0.762   3.216   6.225 -0.8477  0.2310 -0.6144
 1490SOL     OW16102   3.740   1.143   4.870  0.8385 -0.2004 -0.2019
 1490SOL    HW116103   3.651   1.150   4.905  0.5363 -1.0054 -0.7992
 1490SOL    HW216104   3.718   1.164   4.779  0.4344 -0.8008 -0.2397
 1491SOL     OW16105   3.605   4.670   4.900  0.0808  0.5480  0.8041
 1491SOL    HW116106   3.523   4.720   4.898 -0.7937 -0.8985  1.0243
 1491SOL    HW216107   3.626   4.678   4.807  1.6284  0.8847  1.1924
 1492SOL     OW16108   2.663   2.790   3.653  0.2657 -0.6168 -0.7943
 1492SOL    HW116109   2.655   2.816   3.745  0.5982 -1.1507 -0.6117
 1492SOL    HW216110   2.692   2.870   3.609 -1.4822 -0.4410 -1.6133
 1493SOL     OW16111   3.780   1.815  17.400 -0.4031 -0.0930  0.3018
 1493SOL    HW116112   3.809   1.874  17.330  0.5188 -1.9330 -0.8792
 1493SOL    HW216113   3.864   1.772  17.417  0.1566  0.3710 -1.2479
 1494SOL     OW16114   2.139   2.075   5.904 -0.1010 -0.3325 -0.3450
 1494SOL    HW116115   2.223   2.056   5.947 -0.0351  0.1891 -0.2421
 1494SOL    HW216116   2.165   2.038   5.819 -2.8986 -1.8042 -0.5694
 1495SOL     OW16117   4.620   4.281   2.544  0.0613  0.2044 -0.1140
 1495SOL    HW116118   4.531   4.246   2.544  0.4076 -0.7175  1.7439
 1495SOL    HW216119   4.659   4.231   2.617  2.5030  1.2672 -0.6892
 1496SOL     OW16120   3.499   1.684   7.928  0.5742  0.1634  0.3483
 1496SOL    HW116121   3.446   1.620   7.881  0.4241 -0.1036  0.8823
 1496SOL    HW216122   3.543   1.639   8.001 -1.2310 -0.9682  0.7151
 1497SOL     OW16123   0.780   4.251   3.728  0.2436  0.0366 -0.3025
 1497SOL    HW116124   0.828   4.334   3.726 -0.9817  0.7750  0.3923
 1497SOL    HW216125   0.701   4.275   3.680  1.2463 -1.2485 -2.5743
 1498SOL     OW16126   2.550   1.419   7.250  0.3179  0.3205 -0.3197
 1498SOL    HW116127   2.471   1.377   7.218 -0.0701 -0.6011  1.8485
 1498SOL    HW216128   2.582   1.353   7.311  0.5459  0.1742 -0.5992
 1499SOL     OW16129   3.506   4.512   2.673  0.2053 -0.0614 -0.3271
 1499SOL    HW116130   3.574   4.577   2.688  0.3653  0.2333 -2.3333
 1499SOL    HW216131   3.429   4.566   2.693  0.3478 -0.7698  2.1377
 1500SOL     OW16132   4.293   1.136  14.995 -0.7824  1.0178 -0.3259
 1500SOL    HW116133   4.271   1.154  15.087  0.5814  0.1671  0.1631
 1500SOL    HW216134   4.222   1.076  14.969  0.3321  0.2811 -1.6345
 1501SOL     OW16135   0.308   3.972   9.326  0.5978 -0.0311 -0.2154
 1501SOL    HW116136   0.336   4.002   9.239  0.2801 -0.3964 -0.4456
 1501SOL    HW216137   0.280   4.057   9.360 -1.3038 -0.3427 -0.9721
 1502SOL     OW16138   2.565   4.067  16.399 -0.5723 -0.2806 -0.0668
 1502SOL    HW116139   2.588   3.979  16.427  1.7686  0.0969 -0.8166
 1502SOL    HW216140   2.493   4.044  16.340  0.8300 -1.6104 -1.2334
 1503SOL     OW16141   2.787   3.480   6.113  0.1260 -0.3847 -0.0004
 1503SOL    HW116142   2.777   3.386   6.123  0.5236 -0.4250  0.0226
 1503SOL    HW216143   2.722   3.497   6.045 -2.0365 -0.5293  2.0230
 1504SOL     OW16144   1.406   0.610   5.751 -0.0604 -0.1700  0.3886
 1504SOL    HW116145   1.314   0.631   5.736 -0.0308 -0.2225  0.1256
 1504SOL    HW216146   1.436   0.698   5.776  0.5165  0.3169 -1.9855
 1505SOL     OW16147   4.186   0.726   9.062  0.0963 -0.2683  0.3420
 1505SOL    HW116148   4.140   0.748   9.143 -0.8840  3.2956 -1.1599
 1505SOL    HW216149   4.142   0.646   9.032  0.8590 -1.1274  1.5146
 1506SOL     OW16150   3.951   3.533   6.052  0.1817  0.0146  0.5100
 1506SOL    HW116151   4.031   3.525   6.103  1.5250  2.2384 -1.2723
 1506SOL    HW216152   3.927   3.441   6.039  1.5542 -0.4153  1.0901
 1507SOL     OW16153   0.213   3.051   4.528  0.0868 -0.2597  0.1329
 1507SOL    HW116154   0.289   3.097   4.562  0.1645  0.2204 -0.6944
 1507SOL    HW216155   0.141   3.076   4.586 -1.5362  0.4885 -2.2342
 1508SOL     OW16156   2.804   3.493  16.068  0.5889  0.5254 -0.3726
 1508SOL    HW116157   2.747   3.420  16.044  0.4658  0.3550  0.4606
 1508SOL    HW216158   2.880   3.475  16.011  0.8332  3.9003 -1.1316
 1509SOL     OW16159   4.175   3.994  13.335 -0.1223 -0.6667 -0.1696
 1509SOL    HW116160   4.260   3.971  13.297 -0.2503 -1.1275 -0.1750
 1509SOL    HW216161   4.154   3.918  13.389  2.2355 -0.5622  0.9071
 1510SOL     OW16162   2.748   1.093   9.373 -0.0336  0.6515  0.3057
 1510SOL    HW116163   2.700   1.101   9.290  0.2763  0.3630  0.0968
 1510SOL    HW216164   2.832   1.126   9.339  0.6965  0.0844  1.5662
 1511SOL     OW16165   1.918   1.374   9.444 -0.4957  0.3133  0.3870
 1511SOL    HW116166   1.916   1.294   9.496 -0.8493  0.1684  0.1437
 1511SOL    HW216167   2.002   1.403   9.480 -0.6326  0.8280  0.2898
 1512SOL     OW16168   1.944   2.497   5.405  0.4106 -0.1723 -0.5100
 1512SOL    HW116169   1.958   2.532   5.494  0.0080  0.6351 -0.7629
 1512SOL    HW216170   1.854   2.524   5.388  0.4326  1.3353  1.7755
 1513SOL     OW16171   0.595   1.036  17.723  0.1135 -0.6425 -0.4178
 1513SOL    HW116172   0.504   1.058  17.703  0.0267  0.0643  0.7306
 1513SOL    HW216173   0.643   1.094  17.664 -0.9356 -2.4203 -3.0401
 1514SOL     OW16174   1.327   3.287   5.225  0.1878 -0.5781 -0.2086
 1514SOL    HW116175   1.417   3.271   5.197  0.4578 -3.0687  2.1196
 1514SOL    HW216176   1.320   3.228   5.300 -3.6293 -0.2925 -0.3391
 1515SOL     OW16177   1.766   0.535   9.182 -0.4883  0.1588  0.0251
 1515SOL    HW116178   1.775   0.478   9.106  1.7100  0.3386  0.1651
 1515SOL    HW216179   1.852   0.537   9.223  0.0354  0.3195 -1.0915
 1516SOL     OW16180   4.433   2.336   0.699 -0.1714  0.5370 -0.5987
 1516SOL    HW116181   4.360   2.396   0.716 -1.2457 -1.1362  0.7328
 1516SOL    HW216182   4.392   2.250   0.703  0.1888  0.3180 -1.7641
 1517SOL     OW16183   3.028   2.453   2.580 -0.8301 -0.4768 -0.4791
 1517SOL    HW116184   2.964   2.510   2.537  0.7908  2.0042  0.3529
 1517SOL    HW216185   3.109   2.502   2.596  0.2384 -2.4621  0.2451
 1518SOL     OW16186   0.967   2.138   5.840  0.4255 -0.4840 -0.5448
 1518SOL    HW116187   0.923   2.073   5.895 -1.4515  0.4557 -0.9123
 1518SOL    HW216188   0.915   2.215   5.861  1.3890 -0.1169  0.4639
 1519SOL     OW16189   4.162   2.296  15.897 -0.5602  0.4253 -0.4099
 1519SOL    HW116190   4.200   2.293  15.809 -0.3978 -2.2590 -0.2310
 1519SOL    HW216191   4.232   2.355  15.928 -0.2125  0.4223 -1.1812
 1520SOL     OW16192   4.411   2.330   8.515 -0.3248 -0.3419 -0.6307
 1520SOL    HW116193   4.492   2.324   8.465  0.6932 -1.8492  1.2091
 1520SOL    HW216194   4.359   2.385   8.456 -1.1765  0.2075  0.6205
 1521SOL     OW16195   2.846   0.329   6.251 -0.0283  0.0322  0.4935
 1521SOL    HW116196   2.789   0.306   6.178  2.2303 -2.9083 -0.3089
 1521SOL    HW216197   2.795   0.387   6.308 -0.3163  0.8315 -0.5669
 1522SOL     OW16198   4.328   1.922   2.898 -0.1791  0.2755  0.0683
 1522SOL    HW116199   4.314   1.952   2.988  2.6872 -1.8494  1.2258
 1522SOL    HW216200   4.287   1.993   2.848  0.1421  1.1732  1.0806
 1523SOL     OW16201   0.700   0.193   8.044  0.7412 -0.4466  0.2377
 1523SOL    HW116202   0.738   0.172   7.959  2.1447  1.8047  0.3117
 1523SOL    HW216203   0.709   0.111   8.092  0.1480 -0.6160  0.0638
 1524SOL     OW16204   1.854   0.698   5.006 -0.5422 -0.0164 -0.3602
 1524SOL    HW116205   1.821   0.610   4.994 -2.0105  0.4802  0.0713
 1524SOL    HW216206   1.771   0.744   5.016 -0.5439 -0.5392  2.0296
 1525SOL     OW16207   2.038   1.547   5.465 -0.2505 -0.1068  0.4899
 1525SOL    HW116208   1.987   1.477   5.425 -1.4689 -0.4611  2.6476
 1525SOL    HW216209   2.044   1.612   5.395  0.3609 -0.8814 -0.1713
 1526SOL     OW16210   0.408   1.351   6.922  0.5434 -0.3055  0.6747
 1526SOL    HW116211   0.372   1.438   6.909 -3.1461 -1.6735  1.7059
 1526SOL    HW216212   0.328   1.305   6.945  0.2557 -1.1707 -2.0718
 1527SOL     OW16213   0.151   0.426   8.638 -0.0089 -0.0995 -0.1407
 1527SOL    HW116214   0.147   0.420   8.734 -0.3418  0.3998 -0.1296
 1527SOL    HW216215   0.110   0.511   8.629  1.4944  0.6145 -0.1833
 1528SOL     OW16216   0.681   4.395  12.568  0.1478 -0.3393  0.4293
 1528SOL    HW116217   0.589   4.420  12.562  0.2543 -0.4800 -1.9364
 1528SOL    HW216218   0.680   4.316  12.514  0.0561 -0.0233 -0.0256
 1529SOL     OW16219   2.035   4.284   4.208 -0.4228 -0.6044  0.5242
 1529SOL    HW116220   1.969   4.339   4.166 -0.8055 -0.1487  1.7438
 1529SOL    HW216221   2.077   4.257   4.126  1.7937  0.4438  1.3284
 1530SOL     OW16222   1.709   3.293   6.247  0.4089 -0.4710  0.1194
 1530SOL    HW116223   1.660   3.352   6.190  1.5049  2.2890  2.0634
 1530SOL    HW216224   1.667   3.208   6.233  1.6379 -1.0899  0.2175
 1531SOL     OW16225   3.954   1.360   9.308 -0.2241 -0.1403  0.6457
 1531SOL    HW116226   3.910   1.445   9.295 -0.7132 -0.2657  1.4680
 1531SOL    HW216227   4.037   1.401   9.333 -0.4491  1.7909 -1.7939
 1532SOL     OW16228   0.820   1.148   3.742 -0.2126  0.7092  0.4230
 1532SOL    HW116229   0.875   1.070   3.748 -2.5308 -0.8536  1.4333
 1532SOL    HW216230   0.880   1.182   3.676  0.9342 -0.5842  0.7714
 1533SOL     OW16231   0.527   4.416   5.182  0.7424  0.4584  0.3210
 1533SOL    HW116232   0.459   4.410   5.114  2.1066  0.0174 -1.0109
 1533SOL    HW216233   0.564   4.330   5.168 -2.8035 -0.7648 -1.6522
 1534SOL     OW16234   1.228   3.581   8.122  0.1716  0.8744  0.0611
 1534SOL    HW116235   1.201   3.652   8.064  1.5259  0.7227 -0.7475
 1534SOL    HW216236   1.197   3.618   8.205  0.2140  0.4939  0.2457
 1535SOL     OW16237   4.211   0.283   8.984 -0.0561 -0.1495  0.4116
 1535SOL    HW116238   4.192   0.235   8.904  1.1968 -0.1270  0.1060
 1535SOL    HW216239   4.170   0.230   9.053  2.4943 -0.6516  1.5124
 1536SOL     OW16240   4.001   0.533   4.859 -0.3160  0.5164 -0.6231
 1536SOL    HW116241   3.964   0.619   4.843  0.7330  0.4997 -3.2033
 1536SOL    HW216242   4.008   0.529   4.954 -1.5886 -1.6385 -0.6255
 1537SOL     OW16243   2.774   2.941  12.080 -0.0726  0.1293 -0.7345
 1537SOL    HW116244   2.840   2.992  12.125 -0.2560 -0.4022  0.1441
 1537SOL    HW216245   2.742   2.990  12.004  2.3471 -0.7246 -2.3100
 1538SOL     OW16246   2.073   1.401   5.906  0.1637 -0.7589  0.0990
 1538SOL    HW116247   2.149   1.458   5.895 -1.6210  1.4011 -0.9285
 1538SOL    HW216248   2.018   1.436   5.836  0.9825 -0.1373 -0.2375
 1539SOL     OW16249   4.679   1.579   3.994  0.7346 -0.3203  0.2202
 1539SOL    HW116250   4.609   1.622   4.044 -1.0551 -0.3272 -2.3206
 1539SOL    HW216251   4.648   1.542   3.912  3.3077 -0.9733 -0.4835
 1540SOL     OW16252   0.631   4.516   5.699  0.0275 -0.1829 -0.3369
 1540SOL    HW116253   0.715   4.563   5.698  1.2277 -2.3407 -1.9234
 1540SOL    HW216254   0.582   4.565   5.634  0.7807 -0.6003 -1.2158
 1541SOL     OW16255   1.666   0.744   6.340  0.2676  0.2025  0.4028
 1541SOL    HW116256   1.658   0.692   6.420  0.8035  3.4420  2.5682
 1541SOL    HW216257   1.753   0.785   6.344  1.4881 -2.6253  2.1834
 1542SOL     OW16258   1.182   0.133   0.589 -0.2358  0.4050  0.2481
 1542SOL    HW116259   1.206   0.051   0.632  0.5764 -0.5518 -2.0680
 1542SOL    HW216260   1.254   0.186   0.622  1.7748 -0.0945 -3.3996
 1543SOL     OW16261   2.302   1.290   8.791  0.1486  0.0066 -0.0749
 1543SOL    HW116262   2.380   1.235   8.803 -0.5156 -1.2580 -1.6216
 1543SOL    HW216263   2.235   1.238   8.836 -0.3819  1.5281  0.9052
 1544SOL     OW16264   4.736   1.292   6.801  0.3406 -0.3515  0.1543
 1544SOL    HW116265   4.678   1.363   6.772  0.0511  0.2747  2.2476
 1544SOL    HW216266   4.674   1.246   6.858  1.1863  0.5179  1.7774
 1545SOL     OW16267   0.819   0.018   3.763  0.6078  0.2153  0.0282
 1545SOL    HW116268   0.768   0.024   3.844 -0.9321  0.9838 -0.9966
 1545SOL    HW216269   0.835   0.112   3.758  0.3103  0.1790 -1.8607
 1546SOL     OW16270   3.788   0.249   7.660  0.1845 -0.1885 -0.0774
 1546SOL    HW116271   3.839   0.216   7.734  1.1782 -0.1406 -0.7525
 1546SOL    HW216272   3.699   0.248   7.695  0.1226 -1.8850 -0.2873
 1547SOL     OW16273   0.654   2.020   3.560  0.0180 -0.0729 -0.0421
 1547SOL    HW116274   0.735   1.984   3.597 -1.2902 -2.2435  0.6808
 1547SOL    HW216275   0.669   2.114   3.549 -2.7561  0.4114  0.3129
 1548SOL     OW16276   1.732   1.196   2.158 -0.0685  0.3507  0.3120
 1548SOL    HW116277   1.676   1.140   2.104  1.0267  0.5615 -1.0524
 1548SOL    HW216278   1.721   1.280   2.114 -0.8494  0.3905  0.5852
 1549SOL     OW16279   0.237   1.705   2.746  0.2610 -0.2020  0.1771
 1549SOL    HW116280   0.170   1.652   2.788 -1.1019  0.7583 -0.7999
 1549SOL    HW216281   0.189   1.749   2.676  1.6752 -1.1135 -1.3595
 1550SOL     OW16282   2.213   3.116   0.940  0.4615 -0.0272  0.6044
 1550SOL    HW116283   2.281   3.113   0.872 -0.2043 -2.2484  0.0222
 1550SOL    HW216284   2.143   3.161   0.893  1.8251  1.9181  0.4496
 1551SOL     OW16285   3.160   3.321  13.538 -0.0544 -0.5580 -0.4027
 1551SOL    HW116286   3.199   3.326  13.625 -1.9379 -1.3784  0.4931
 1551SOL    HW216287   3.088   3.384  13.547 -1.3271 -2.4712  2.9304
 1552SOL     OW16288   2.691   3.122   7.339  0.3948 -0.5159  0.0500
 1552SOL    HW116289   2.773   3.093   7.297  0.2828 -0.7141 -0.0343
 1552SOL    HW216290   2.645   3.160   7.264 -0.1204 -2.6412 -0.7050
 1553SOL     OW16291   2.949   3.345  13.852  0.8477  0.2993  0.0768
 1553SOL    HW116292   3.039   3.332  13.824  1.0648  0.3994  0.7342
 1553SOL    HW216293   2.966   3.407  13.923 -0.9146  0.1868  0.5939
 1554SOL     OW16294   4.375   4.406   6.949  0.0708  0.5708 -0.0058
 1554SOL    HW116295   4.470   4.395   6.957 -0.0913  0.0689  1.3143
 1554SOL    HW216296   4.386   4.475   6.884 -0.9924 -0.4690 -1.2909
 1555SOL     OW16297   0.932   2.549   3.128 -0.0961  0.2199  0.3521
 1555SOL    HW116298   0.984   2.469   3.119  1.6231  1.3145  0.6878
 1555SOL    HW216299   0.948   2.572   3.219 -1.8088  1.2111  0.4151
 1556SOL     OW16300   4.224   3.231   8.847 -0.7190  0.6790  0.7358
 1556SOL    HW116301   4.214   3.227   8.751  1.2862  0.3664  0.5442
 1556SOL    HW216302   4.304   3.283   8.853  0.1612 -0.8131  1.7907
 1557SOL     OW16303   4.193   0.149   3.442  0.0622 -0.0639  0.4343
 1557SOL    HW116304   4.231   0.161   3.355  1.3901  1.3119  1.2175
 1557SOL    HW216305   4.262   0.181   3.500  2.0442 -0.7778 -1.5138
 1558SOL     OW16306   2.677   4.735   6.898  0.4097  0.6333  0.3184
 1558SOL    HW116307   2.611   4.666   6.903  0.8818  0.4482  3.9728
 1558SOL    HW216308   2.612   0.065   6.914 -1.4738 -0.8991 -0.6716
 1559SOL     OW16309   0.780   2.872   8.064  0.2126 -0.5808  0.0847
 1559SOL    HW116310   0.719   2.919   8.121 -1.4850 -0.9212 -1.4438
 1559SOL    HW216311   0.809   2.949   8.016 -0.8954 -0.5962 -0.6134
 1560SOL     OW16312   1.024   1.002  15.449  0.1475  0.0628  0.6206
 1560SOL    HW116313   1.119   1.010  15.444  0.2576 -1.9042 -0.6020
 1560SOL    HW216314   1.000   1.065  15.381 -1.6362 -1.8377 -0.5441
 1561SOL     OW16315   0.312   4.581   8.354 -0.0819 -0.6044 -0.1048
 1561SOL    HW116316   0.225   4.591   8.392  0.4794  2.4467  0.3628
 1561SOL    HW216317   0.366   4.621   8.422 -1.8641  0.3263  0.7439
 1562SOL     OW16318   3.023   0.674   8.184  0.3482 -0.5701 -0.5851
 1562SOL    HW116319   3.045   0.627   8.265 -1.2997 -0.4996 -0.1092
 1562SOL    HW216320   3.106   0.683   8.137  0.1800  0.1969 -0.7352
 1563SOL     OW16321   1.093   1.656   6.642  0.4150 -0.6982  0.1591
 1563SOL    HW116322   1.004   1.670   6.673  1.2642  0.7500  1.9515
 1563SOL    HW216323   1.083   1.667   6.548 -0.7554 -0.4280  0.3237
 1564SOL     OW16324   3.471   1.140   2.786 -0.4271  0.4283 -0.3881
 1564SOL    HW116325   3.420   1.114   2.710 -0.3875 -1.0964  0.1154
 1564SOL    HW216326   3.547   1.082   2.781 -1.3595 -0.9591  1.6886
 1565SOL     OW16327   0.403   2.988   3.067 -0.2677 -0.6357  0.3799
 1565SOL    HW116328   0.357   3.071   3.053 -0.7455 -1.0023 -0.2329
 1565SOL    HW216329   0.493   3.018   3.053 -0.5047  0.3355  0.9533
 1566SOL     OW16330   3.236   3.272   8.526  0.4757 -0.2441 -0.0777
 1566SOL    HW116331   3.220   3.364   8.547 -0.7147 -0.4259 -0.1965
 1566SOL    HW216332   3.146   3.240   8.518  0.8202 -0.7718 -1.9426
 1567SOL     OW16333   0.353   3.023   5.266  0.3939  0.1693  0.4278
 1567SOL    HW116334   0.379   3.075   5.342  1.4800 -1.8382  1.4303
 1567SOL    HW216335   0.317   2.947   5.311 -2.4502 -0.4942 -2.9527
 1568SOL     OW16336   2.940   0.436   8.618  0.5480 -0.5881 -0.2035
 1568SOL    HW116337   2.864   0.379   8.607 -0.7172  0.4325  3.3388
 1568SOL    HW216338   2.921   0.486   8.697  0.4541  0.8185 -1.1095
 1569SOL     OW16339   2.014   2.307   6.752  0.2796  0.0670 -0.6528
 1569SOL    HW116340   2.033   2.281   6.843  2.3567 -0.1960 -1.1688
 1569SOL    HW216341   2.098   2.336   6.718 -0.8210  0.5243 -3.0195
 1570SOL     OW16342   3.774   3.015   4.070  0.2684  0.1221 -0.4852
 1570SOL    HW116343   3.835   2.988   4.001  1.0860  1.0231 -0.1139
 1570SOL    HW216344   3.825   2.990   4.147  1.1243  0.4443 -0.9499
 1571SOL     OW16345   2.422   2.752  14.403  0.1696  0.4601  0.4581
 1571SOL    HW116346   2.449   2.742  14.312 -5.2263  0.0024 -1.0934
 1571SOL    HW216347   2.503   2.736  14.451  0.2468  0.5469  0.3589
 1572SOL     OW16348   3.962   3.134  13.528 -0.0146  0.5448 -0.2558
 1572SOL    HW116349   4.008   3.092  13.456  1.3600  1.6620 -0.0201
 1572SOL    HW216350   4.025   3.199  13.557 -0.6505  0.6276  0.9447
 1573SOL     OW16351   4.058   0.642   7.850  0.4363  0.3283 -0.0777
 1573SOL    HW116352   4.022   0.725   7.882  2.3291  0.8947  0.6231
 1573SOL    HW216353   4.147   0.650   7.885  0.2237  1.6173  0.1595
 1574SOL     OW16354   4.075   4.422   9.483 -0.2931 -0.5366  0.2848
 1574SOL    HW116355   4.077   4.430   9.387  1.2004 -1.6132  0.2062
 1574SOL    HW216356   4.168   4.415   9.504 -0.9837 -0.6687  3.2171
 1575SOL     OW16357   1.515   4.711   8.770 -0.1616  0.0448 -0.4688
 1575SOL    HW116358   1.568   4.649   8.821 -1.0818  2.4687  3.4308
 1575SOL    HW216359   1.546   4.699   8.680 -1.2568 -1.9698 -0.5930
 1576SOL     OW16360   2.631   1.390   2.766  0.1999 -0.1272  0.3793
 1576SOL    HW116361   2.682   1.356   2.692 -1.3950 -0.0413 -0.7545
 1576SOL    HW216362   2.692   1.452   2.806 -2.2276  2.0837  0.6565
 1577SOL     OW16363   2.446   1.403   3.508 -0.0786  1.0364 -0.2003
 1577SOL    HW116364   2.428   1.393   3.601  0.9031 -0.8893 -0.2182
 1577SOL    HW216365   2.390   1.479   3.493  1.6708  2.1096 -1.3504
 1578SOL     OW16366   4.636   1.165   7.048  0.2452 -0.2645 -0.1220
 1578SOL    HW116367   4.579   1.089   7.030  1.2691 -0.9464 -0.4935
 1578SOL    HW216368   4.695   1.133   7.116  2.6277  1.0269 -1.6000
 1579SOL     OW16369   2.962   0.939   9.646 -0.5035 -0.0964 -0.0563
 1579SOL    HW116370   2.990   0.926   9.737 -0.7261 -0.8525 -0.0994
 1579SOL    HW216371   2.908   0.861   9.636 -2.7856  1.4655  0.0208
 1580SOL     OW16372   4.597   0.507   4.717  0.3829 -0.3204  0.3586
 1580SOL    HW116373   4.686   0.472   4.716  1.4344  2.4255 -0.9709
 1580SOL    HW216374   4.605   0.575   4.784  1.3544 -1.5179  1.4428
 1581SOL     OW16375   3.636   1.060  14.136  0.3034  0.0031 -0.1964
 1581SOL    HW116376   3.665   0.982  14.183  1.0528 -0.4028 -1.3216
 1581SOL    HW216377   3.612   1.031  14.048  0.0378 -0.8075  0.1399
 1582SOL     OW16378   1.437   4.133  17.238  0.1166 -0.7450 -0.0142
 1582SOL    HW116379   1.407   4.191  17.307 -1.1513 -0.7988 -0.5274
 1582SOL    HW216380   1.531   4.130  17.254  0.1622 -0.4761 -0.2403
 1583SOL     OW16381   3.390   3.518   5.363 -0.0871  0.6286  0.0041
 1583SOL    HW116382   3.378   3.536   5.457  1.0432  2.4870 -0.2204
 1583SOL    HW216383   3.436   3.599   5.342 -2.9361  2.1157 -0.6290
 1584SOL     OW16384   1.405   0.231   6.133 -0.3717  0.5526  0.1627
 1584SOL    HW116385   1.380   0.144   6.100  0.0480  1.0976 -1.5981
 1584SOL    HW216386   1.431   0.263   6.047 -0.0859  2.4104  0.9547
 1585SOL     OW16387   2.865   1.528   5.093  0.1368 -0.1681  0.2184
 1585SOL    HW116388   2.817   1.599   5.136 -1.2252  0.6951 -2.7612
 1585SOL    HW216389   2.870   1.561   5.004  0.4529  1.7118  0.9222
 1586SOL     OW16390   2.902   1.767   5.896  0.6454 -1.0884 -0.0234
 1586SOL    HW116391   2.916   1.678   5.929 -0.6806 -1.5668 -0.7702
 1586SOL    HW216392   2.955   1.816   5.958 -0.4708 -1.1217  0.9306
 1587SOL     OW16393   1.440   3.862   8.858 -0.6735  0.0455 -0.4518
 1587SOL    HW116394   1.422   3.771   8.837  0.3255  0.2771 -2.2798
 1587SOL    HW216395   1.402   3.902   8.780 -0.3828  0.8303 -0.1884
 1588SOL     OW16396   2.414   2.662   7.126  0.1165  0.1246  0.0333
 1588SOL    HW116397   2.321   2.648   7.104  0.0483 -0.6878  0.8020
 1588SOL    HW216398   2.457   2.615   7.055  1.0796  2.1456 -0.7025
 1589SOL     OW16399   0.867   4.643   3.521 -0.1621  0.5050  0.6019
 1589SOL    HW116400   0.841   4.679   3.606  1.3515  0.9121  0.9064
 1589SOL    HW216401   0.847   4.549   3.517  0.6883  0.3058  0.8795
 1590SOL     OW16402   4.222   2.499   0.755 -0.0490  0.1107  0.2739
 1590SOL    HW116403   4.224   2.590   0.727 -0.9493  0.2411  0.6219
 1590SOL    HW216404   4.128   2.478   0.758  0.0083 -0.0088  1.2277
 1591SOL     OW16405   1.048   2.850   2.612  0.6877 -0.0424 -0.0635
 1591SOL    HW116406   1.005   2.794   2.677  0.8580 -0.3452 -0.2120
 1591SOL    HW216407   0.976   2.865   2.551  0.9535  1.8292  0.0864
 1592SOL     OW16408   4.320   1.683  17.468 -0.2067 -0.4743  0.1123
 1592SOL    HW116409   4.412   1.702  17.487  0.6982 -1.6479 -3.1549
 1592SOL    HW216410   4.334   1.591  17.448 -0.2862  0.3611 -3.7030
 1593SOL     OW16411   2.559   0.638  17.033 -0.1545  0.0421 -0.7212
 1593SOL    HW116412   2.537   0.573  16.967  1.1223 -1.3734  0.2513
 1593SOL    HW216413   2.646   0.654  16.999  0.0369  0.6927  0.0617
 1594SOL     OW16414   2.712   1.538   5.967  0.4582 -0.3378  0.6282
 1594SOL    HW116415   2.752   1.451   5.971 -0.7429 -0.9013  0.6099
 1594SOL    HW216416   2.742   1.578   6.048 -0.8950  0.3350  0.7859
 1595SOL     OW16417   2.955   3.484  13.571  0.3105 -0.0028 -0.4169
 1595SOL    HW116418   2.915   3.528  13.497 -0.5067 -0.7126 -0.3933
 1595SOL    HW216419   2.880   3.499  13.629  1.7571 -2.2132  2.0823
 1596SOL     OW16420   2.467   4.295   9.377 -0.1077  0.6092 -0.1824
 1596SOL    HW116421   2.459   4.299   9.281 -0.1959  0.5338 -0.1785
 1596SOL    HW216422   2.466   4.204   9.405  0.3133  1.3261  2.1660
 1597SOL     OW16423   0.184   0.183  16.597 -0.8653  0.3351 -0.3854
 1597SOL    HW116424   0.117   0.121  16.569  1.6987 -2.8206  0.5173
 1597SOL    HW216425   0.193   0.152  16.687 -0.4952 -0.2979 -0.6461
 1598SOL     OW16426   2.764   0.707   4.244 -0.1709  0.0278  0.6676
 1598SOL    HW116427   2.837   0.646   4.231 -0.4001  0.0994 -0.8680
 1598SOL    HW216428   2.761   0.705   4.340 -0.0323 -1.5187  0.6407
 1599SOL     OW16429   0.862   2.126  16.217  0.9018 -1.0185  0.6894
 1599SOL    HW116430   0.854   2.040  16.258  3.5899 -1.5846  0.0255
 1599SOL    HW216431   0.860   2.097  16.126  2.0975 -1.3184  0.7579
 1600SOL     OW16432   2.578   3.715   3.494 -0.0518  0.6778  0.3377
 1600SOL    HW116433   2.561   3.677   3.580  0.4039 -0.9991 -0.3221
 1600SOL    HW216434   2.489   3.745   3.473 -0.0770  0.5486  0.2600
 1601SOL     OW16435   3.739   1.831  17.094  0.3395 -0.2358  0.1803
 1601SOL    HW116436   3.723   1.737  17.100 -2.6212  0.3146  0.8873
 1601SOL    HW216437   3.832   1.834  17.070  0.5021 -2.0510  0.5654
 1602SOL     OW16438   3.446   0.926   6.846  0.1611  0.3393  0.0092
 1602SOL    HW116439   3.425   1.018   6.829 -0.4695  0.1113 -0.4745
 1602SOL    HW216440   3.383   0.902   6.914 -0.8835  0.9595 -0.7279
 1603SOL     OW16441   1.355   4.315   7.094  0.0808 -0.0225  0.6679
 1603SOL    HW116442   1.343   4.373   7.019  0.4476 -0.1147  0.5381
 1603SOL    HW216443   1.450   4.305   7.093  0.1464  0.5038  1.7182
 1604SOL     OW16444   3.027   0.566   8.415 -0.6382  0.7357  0.0712
 1604SOL    HW116445   3.009   0.509   8.489  0.4220  0.8188  0.3915
 1604SOL    HW216446   2.970   0.640   8.436  0.9610  1.3735  2.1006
 1605SOL     OW16447   3.853   1.604   4.520 -0.1633 -0.3756  0.1429
 1605SOL    HW116448   3.841   1.699   4.511  1.2481 -0.3620 -1.5034
 1605SOL    HW216449   3.939   1.593   4.480  0.3441  2.6402  0.3844
 1606SOL     OW16450   3.043   1.534   9.028 -0.3810  0.3433 -0.3029
 1606SOL    HW116451   3.122   1.565   9.072  0.0853 -1.5525  0.2235
 1606SOL    HW216452   3.066   1.443   9.012  1.0803  0.6695 -0.0365
 1607SOL     OW16453   1.296   3.010   2.996 -0.2869  0.6609 -0.2342
 1607SOL    HW116454   1.223   3.034   2.940 -0.9894 -0.1629  0.3269
 1607SOL    HW216455   1.296   3.076   3.065  0.2620 -1.2531  1.6154
 1608SOL     OW16456   2.537   3.404   8.506  0.2356  0.4039 -0.0286
 1608SOL    HW116457   2.520   3.311   8.518 -1.5946  0.6594 -0.5852
 1608SOL    HW216458   2.505   3.438   8.590 -2.1632 -1.3342 -0.2327
 1609SOL     OW16459   2.270   1.200   0.251  0.6919  0.5217 -0.2110
 1609SOL    HW116460   2.341   1.166   0.306 -1.3324 -0.8680  1.5573
 1609SOL    HW216461   2.242   1.117   0.212 -1.9990  1.6119 -0.6046
 1610SOL     OW16462   4.359   1.655   9.482  0.3853 -0.1352  0.3276
 1610SOL    HW116463   4.435   1.709   9.460 -0.1750 -0.1351 -1.6203
 1610SOL    HW216464   4.382   1.575   9.436 -4.3448 -3.5142  3.8388
 1611SOL     OW16465   4.172   1.367  14.433  0.3021  0.0727  0.5046
 1611SOL    HW116466   4.118   1.309  14.379  1.2217  0.5394 -0.9294
 1611SOL    HW216467   4.121   1.376  14.513 -1.0088  0.2735 -0.3643
 1612SOL     OW16468   3.992   1.722  16.185  0.4950 -0.0718 -0.6705
 1612SOL    HW116469   3.931   1.732  16.112  0.2759  1.1487 -0.3061
 1612SOL    HW216470   3.953   1.648  16.231  0.8567  0.5841  0.6740
 1613SOL     OW16471   4.461   0.512  17.112  0.0376 -0.0918 -0.1815
 1613SOL    HW116472   4.546   0.528  17.071  1.0589 -0.1929  1.8952
 1613SOL    HW216473   4.403   0.552  17.047  1.4413 -0.3112 -1.5619
 1614SOL     OW16474   3.630   3.821   1.519 -0.0377  0.5498 -0.1749
 1614SOL    HW116475   3.704   3.809   1.460  0.1231  1.2050 -0.1052
 1614SOL    HW216476   3.630   3.730   1.552 -0.6612 -0.1996 -2.2598
 1615SOL     OW16477   4.673   1.715  10.482  0.1514  0.1139  0.4872
 1615SOL    HW116478   4.657   1.620  10.474  0.8185  0.3584 -4.0138
 1615SOL    HW216479   4.622   1.749  10.408  0.3987 -2.4041 -0.8694
 1616SOL     OW16480   0.728   0.934   2.471 -0.3442 -0.4664  0.1111
 1616SOL    HW116481   0.794   0.904   2.409 -1.1066 -0.6712 -0.5975
 1616SOL    HW216482   0.746   0.866   2.536  0.5722  1.4823  1.9341
 1617SOL     OW16483   0.568   0.062   8.383 -0.0722  0.2463 -1.2166
 1617SOL    HW116484   0.623   0.050   8.460 -0.7175 -1.0200 -0.9533
 1617SOL    HW216485   0.482   0.038   8.418 -0.6510  2.4237 -1.1587
 1618SOL     OW16486   1.045   3.406   9.147  0.0313 -0.9294 -0.4109
 1618SOL    HW116487   0.997   3.417   9.229  1.7097  0.1203  0.4477
 1618SOL    HW216488   1.068   3.496   9.124  1.0214 -0.3617  2.9007
 1619SOL     OW16489   1.123   4.077   7.514  0.0787 -0.7342  0.6813
 1619SOL    HW116490   1.134   4.161   7.558 -1.1574  1.3060 -2.9796
 1619SOL    HW216491   1.091   4.008   7.573  0.8982 -1.2736  0.4961
 1620SOL     OW16492   4.313   0.686   7.912  0.0391 -0.4222 -0.6325
 1620SOL    HW116493   4.343   0.722   7.996 -2.3415 -1.3497  0.5847
 1620SOL    HW216494   4.397   0.667   7.870 -0.7583  0.0048 -2.4297
 1621SOL     OW16495   0.274   2.782   1.808  0.6043  0.4036  0.2598
 1621SOL    HW116496   0.281   2.709   1.870 -4.3682 -3.1929 -3.3696
 1621SOL    HW216497   0.320   2.740   1.735  0.2517 -1.4349  1.0747
 1622SOL     OW16498   4.565   4.170  10.559 -0.4564 -0.0924 -0.7656
 1622SOL    HW116499   4.636   4.117  10.595 -0.8454 -0.0983 -0.0016
 1622SOL    HW216500   4.487   4.145  10.609 -1.2639 -0.2835 -2.1265
 1623SOL     OW16501   0.541   4.587   7.321  0.2811  0.0534 -0.5616
 1623SOL    HW116502   0.460   4.540   7.340  0.7204 -0.4480  0.0310
 1623SOL    HW216503   0.525   4.663   7.377 -0.7087 -0.7432  0.2490
 1624SOL     OW16504   2.404   3.747   0.377 -0.1898  0.3146  0.0689
 1624SOL    HW116505   2.444   3.692   0.444 -1.1716 -0.6097 -0.1181
 1624SOL    HW216506   2.314   3.720   0.362 -0.2336  0.7815 -0.4975
 1625SOL     OW16507   4.552   0.433   6.458 -0.6554  0.6167 -0.2673
 1625SOL    HW116508   4.580   0.444   6.367  1.2857 -0.9942  0.1225
 1625SOL    HW216509   4.464   0.396   6.457  0.1319 -1.2809 -0.8114
 1626SOL     OW16510   1.197   0.785   8.950  0.6202 -0.1317 -0.6853
 1626SOL    HW116511   1.106   0.757   8.942  0.4473 -0.1505  1.5538
 1626SOL    HW216512   1.235   0.758   8.866 -1.0921 -1.1067 -1.1471
 1627SOL     OW16513   4.434   4.400  10.434 -0.0267  0.0331  0.6504
 1627SOL    HW116514   4.390   4.348  10.367  0.9410  0.0369  0.0172
 1627SOL    HW216515   4.487   4.339  10.486 -0.2279 -0.5304  0.1939
 1628SOL     OW16516   2.868   2.340  13.849 -0.3851 -0.1537  0.1191
 1628SOL    HW116517   2.837   2.251  13.868 -0.9964  0.3002  1.2189
 1628SOL    HW216518   2.783   2.381  13.834 -1.1165 -1.1989  1.3917
 1629SOL     OW16519   1.737   0.267  10.407 -0.5558 -0.0596  0.2242
 1629SOL    HW116520   1.653   0.221  10.412 -1.6395  1.5457 -3.5682
 1629SOL    HW216521   1.756   0.308  10.492 -0.3280  4.6626 -2.1381
 1630SOL     OW16522   2.454   3.620  17.098 -0.0061  0.0103 -0.1422
 1630SOL    HW116523   2.471   3.692  17.158  2.0696 -1.9610  1.6484
 1630SOL    HW216524   2.410   3.666  17.026 -1.8166 -0.5766  0.5772
 1631SOL     OW16525   2.923   2.644  16.294  0.1129 -0.3840 -0.3426
 1631SOL    HW116526   2.832   2.615  16.285 -0.4033  0.7465  1.1581
 1631SOL    HW216527   2.943   2.647  16.200 -1.4235 -1.1338 -0.7005
 1632SOL     OW16528   4.421   1.036   1.687  0.3031  0.1015 -0.0707
 1632SOL    HW116529   4.490   1.023   1.623  1.8850 -0.6366  1.7851
 1632SOL    HW216530   4.403   0.946   1.714 -2.2092  0.6158 -0.0248
 1633SOL     OW16531   4.338   1.129   5.456  0.4576 -0.1632 -0.5843
 1633SOL    HW116532   4.384   1.089   5.382  4.5328  1.0559  1.2725
 1633SOL    HW216533   4.276   1.057   5.468 -0.2544  0.6477  0.6067
 1634SOL     OW16534   4.647   3.289   6.652 -0.3692  0.3462  0.3412
 1634SOL    HW116535   4.639   3.247   6.738 -1.6050 -2.6420 -1.2734
 1634SOL    HW216536   4.661   3.211   6.598 -1.2175  1.0192 -0.8443
 1635SOL     OW16537   1.583   0.194  13.447 -1.0367 -0.0101 -0.0627
 1635SOL    HW116538   1.510   0.142  13.482  0.4678 -2.2273 -0.1897
 1635SOL    HW216539   1.593   0.147  13.364  1.7220  1.6837 -0.6745
 1636SOL     OW16540   3.640   2.157  11.900  0.3201  0.1696  0.3350
 1636SOL    HW116541   3.563   2.131  11.950  0.4856  1.5680  1.3316
 1636SOL    HW216542   3.622   2.096  11.830 -1.4566 -0.0384  0.9675
 1637SOL     OW16543   4.044   2.551   1.092 -0.0502  0.2534 -0.6912
 1637SOL    HW116544   4.064   2.637   1.129  2.9590  0.0599 -1.8852
 1637SOL    HW216545   3.950   2.564   1.083 -0.2955 -0.4173  0.7821
 1638SOL     OW16546   1.119   3.578   8.597 -0.4259 -0.3277 -0.1756
 1638SOL    HW116547   1.121   3.571   8.692 -1.0231  2.4189  0.0461
 1638SOL    HW216548   1.197   3.630   8.576 -2.2651  2.7008  0.4720
 1639SOL     OW16549   1.613   4.367  12.451  0.4702 -0.3279 -0.4577
 1639SOL    HW116550   1.669   4.385  12.527  0.0037  1.1589 -0.4611
 1639SOL    HW216551   1.638   4.432  12.386 -0.7734  0.7746  0.1569
 1640SOL     OW16552   1.105   0.125  10.316  0.0404  0.3108 -0.0956
 1640SOL    HW116553   1.199   0.133  10.334  0.0123 -0.0385  0.1945
 1640SOL    HW216554   1.099   0.148  10.223  2.6739 -0.0648 -0.3590
 1641SOL     OW16555   2.745   3.845  10.480 -0.0286  0.1504 -0.0016
 1641SOL    HW116556   2.834   3.853  10.446 -0.6880  5.4625 -0.4793
 1641SOL    HW216557   2.723   3.934  10.507 -3.9937 -1.2679  1.6097
 1642SOL     OW16558   3.063   2.789   6.161 -0.3469 -0.2897 -0.1914
 1642SOL    HW116559   2.998   2.794   6.232 -0.2890  0.5153 -0.1985
 1642SOL    HW216560   3.050   2.697   6.139 -2.0058 -0.0277 -0.3157
 1643SOL     OW16561   4.540   3.217   6.945 -0.0924 -0.1340  0.2227
 1643SOL    HW116562   4.454   3.252   6.964  0.9928  0.9495  3.0980
 1643SOL    HW216563   4.512   3.140   6.895 -0.9591 -0.5418  1.3315
 1644SOL     OW16564   0.073   3.254   2.273  0.5569  0.3054  0.5615
 1644SOL    HW116565   0.096   3.311   2.200  0.0552  0.1909  0.3162
 1644SOL    HW216566   0.149   3.195   2.270 -1.7193 -2.6115  0.3679
 1645SOL     OW16567   2.877   2.549  14.540 -0.4062 -0.1604 -0.2388
 1645SOL    HW116568   2.909   2.480  14.597 -2.4258 -1.7270 -0.9747
 1645SOL    HW216569   2.927   2.529  14.461 -2.4836 -4.6924 -0.4249
 1646SOL     OW16570   2.382   3.548   8.948 -0.1025  0.0891 -0.5002
 1646SOL    HW116571   2.344   3.626   8.907  1.5733  1.0956 -0.1223
 1646SOL    HW216572   2.344   3.541   9.036  0.9143 -2.2476 -0.2617
 1647SOL     OW16573   2.022   0.807   7.378 -0.0547  0.3306  0.3011
 1647SOL    HW116574   2.037   0.784   7.470 -2.5205 -2.9742 -0.1233
 1647SOL    HW216575   2.043   0.899   7.389 -0.1617  0.4829 -0.7454
 1648SOL     OW16576   2.470   2.485   2.726  0.0655  0.1231 -0.3181
 1648SOL    HW116577   2.519   2.564   2.705  0.7057 -0.0729  0.4589
 1648SOL    HW216578   2.424   2.477   2.642 -0.1984 -0.2442 -0.1383
 1649SOL     OW16579   3.115   2.932  16.191  0.3866 -0.1749  0.2527
 1649SOL    HW116580   3.061   3.010  16.184  1.5272  0.6151  0.2306
 1649SOL    HW216581   3.057   2.860  16.167  1.5360 -1.0347  0.0198
 1650SOL     OW16582   3.286   1.931  11.091 -0.0667 -0.1947 -0.0897
 1650SOL    HW116583   3.337   1.857  11.057  0.4336 -0.2934  0.8795
 1650SOL    HW216584   3.341   2.007  11.071  0.2315 -0.2885  0.3819
 1651SOL     OW16585   1.427   0.488  10.538 -0.0758 -0.7862 -0.5188
 1651SOL    HW116586   1.444   0.569  10.490  0.8996 -0.2261  0.7643
 1651SOL    HW216587   1.502   0.492  10.597 -0.1748 -2.6712 -0.2784
 1652SOL     OW16588   0.322   3.550   6.161  0.0599 -0.1921  0.4150
 1652SOL    HW116589   0.345   3.471   6.210 -0.4614 -0.0754  0.8470
 1652SOL    HW216590   0.235   3.550   6.200  0.4249  0.5221  1.2303
 1653SOL     OW16591   1.609   3.660   2.535  0.4753 -0.4048  0.7876
 1653SOL    HW116592   1.545   3.688   2.601 -1.9816  0.0009 -1.7436
 1653SOL    HW216593   1.557   3.664   2.454  0.4976 -3.8562  0.6130
 1654SOL     OW16594   0.798   1.105  14.470 -0.8212 -0.6541  0.6738
 1654SOL    HW116595   0.878   1.095  14.418 -0.3907 -0.1852  1.2493
 1654SOL    HW216596   0.780   1.195  14.444  2.2034 -0.6660 -1.4090
 1655SOL     OW16597   2.617   0.482   1.552 -0.1642 -0.1468 -0.5607
 1655SOL    HW116598   2.706   0.449   1.537  0.4547  0.5018  1.6453
 1655SOL    HW216599   2.605   0.475   1.647 -1.3744  1.8399 -0.5564
 1656SOL     OW16600   3.725   0.601   8.225  0.4225  0.1593 -0.3940
 1656SOL    HW116601   3.780   0.624   8.299  1.1179  1.1560 -1.2233
 1656SOL    HW216602   3.757   0.656   8.153 -1.3964  0.0772 -1.2689
 1657SOL     OW16603   2.496   1.151   8.507 -0.0756  0.2227  0.1116
 1657SOL    HW116604   2.461   1.240   8.501 -0.9503 -0.1630 -0.5664
 1657SOL    HW216605   2.569   1.158   8.446  1.0335 -0.9562  1.3242
 1658SOL     OW16606   3.850   0.648   8.505 -0.6000 -0.0169 -0.4911
 1658SOL    HW116607   3.856   0.743   8.512 -0.1893  0.1085 -2.5213
 1658SOL    HW216608   3.777   0.630   8.563 -0.3561  0.4966 -0.0238
 1659SOL     OW16609   2.773   1.256   2.571 -0.2657 -0.4355 -0.4014
 1659SOL    HW116610   2.809   1.176   2.533  1.9649 -0.0482  0.8945
 1659SOL    HW216611   2.747   1.305   2.493  1.5271  1.6713  0.3010
 1660SOL     OW16612   3.522   1.681  17.309 -0.3799 -0.3119  0.4674
 1660SOL    HW116613   3.580   1.700  17.383  1.6616 -2.0942 -0.6851
 1660SOL    HW216614   3.584   1.627  17.260  0.4142  1.5901 -0.6284
 1661SOL     OW16615   4.473   1.462   5.610 -0.3379 -0.2474 -0.2521
 1661SOL    HW116616   4.533   1.453   5.536  0.6240 -0.4696  0.5545
 1661SOL    HW216617   4.385   1.479   5.576  0.4327  0.7010 -1.7594
 1662SOL     OW16618   1.414   3.177   4.098 -0.4799  0.1672 -0.6605
 1662SOL    HW116619   1.440   3.211   4.184  1.3762 -1.3501 -0.6167
 1662SOL    HW216620   1.500   3.156   4.062  0.0634 -1.0550  1.3177
 1663SOL     OW16621   0.027   2.992   5.867 -0.3765 -0.0026 -0.0033
 1663SOL    HW116622   0.084   3.064   5.896 -0.9551  0.7773 -0.8420
 1663SOL    HW216623   0.036   2.939   5.947  3.6413  1.3592  0.4609
 1664SOL     OW16624   2.235   3.731  10.783  0.2183 -0.3053 -0.2907
 1664SOL    HW116625   2.251   3.639  10.802 -0.6823 -0.5491 -0.6979
 1664SOL    HW216626   2.184   3.764  10.858  0.3544  2.1066 -1.2859
 1665SOL     OW16627   2.179   0.753  12.957 -0.0108 -0.3840  0.2394
 1665SOL    HW116628   2.271   0.745  12.932  0.2607 -1.2890  1.5154
 1665SOL    HW216629   2.158   0.838  12.918 -3.4870 -0.6331  1.5951
 1666SOL     OW16630   3.808   1.984  15.134  0.1369 -0.3001 -0.7976
 1666SOL    HW116631   3.735   1.956  15.079  0.0121 -0.3534 -0.6023
 1666SOL    HW216632   3.839   2.055  15.077 -1.0451  1.0445  0.2382
 1667SOL     OW16633   3.348   1.943   0.192  0.5947 -0.3224  0.0720
 1667SOL    HW116634   3.323   1.870   0.248 -0.1694  1.1132  1.5871
 1667SOL    HW216635   3.410   1.906   0.129 -0.8347 -1.3939 -0.7129
 1668SOL     OW16636   2.702   4.070   8.807  0.7290 -0.2699  0.2666
 1668SOL    HW116637   2.778   4.049   8.861  2.8006  1.7101 -1.8812
 1668SOL    HW216638   2.740   4.086   8.720 -2.0178  0.1106 -0.8567
 1669SOL     OW16639   3.878   0.968  16.441  0.1495 -0.1674  0.6199
 1669SOL    HW116640   3.949   1.019  16.403  0.2697 -1.3112 -0.7145
 1669SOL    HW216641   3.918   0.881  16.445 -1.1509 -0.7894  0.2916
 1670SOL     OW16642   0.580   3.900   5.319 -0.1118 -0.2744 -0.5416
 1670SOL    HW116643   0.528   3.876   5.396  1.7030 -0.4663  0.6158
 1670SOL    HW216644   0.668   3.880   5.352 -0.3932  0.2539  0.5379
 1671SOL     OW16645   4.028   0.323   3.759 -0.0102  0.5430  0.2633
 1671SOL    HW116646   4.109   0.373   3.769  0.2544  0.6898 -2.4532
 1671SOL    HW216647   4.007   0.355   3.671  1.0960  1.6619  0.4128
 1672SOL     OW16648   2.595   0.996  12.157 -0.1312  0.0015 -0.3475
 1672SOL    HW116649   2.624   0.945  12.233  0.4460 -2.8760 -2.5255
 1672SOL    HW216650   2.659   0.956  12.098  0.2100  0.1538 -0.0807
 1673SOL     OW16651   4.284   1.775   3.812  0.5274  0.4944  0.1458
 1673SOL    HW116652   4.224   1.849   3.821 -0.0578 -0.1267  1.3902
 1673SOL    HW216653   4.277   1.768   3.717 -0.4565 -0.1908  0.2694
 1674SOL     OW16654   0.372   2.333   6.551  0.1466 -0.0849  0.3257
 1674SOL    HW116655   0.282   2.364   6.560  0.8546  2.0562  0.0991
 1674SOL    HW216656   0.402   2.326   6.642  0.8156 -0.8009  0.0521
 1675SOL     OW16657   1.109   2.341   3.455  0.2662  0.4539 -0.8687
 1675SOL    HW116658   1.196   2.343   3.416  0.0397 -0.6872 -1.4358
 1675SOL    HW216659   1.083   2.432   3.437 -2.3431 -0.2028 -0.5114
 1676SOL     OW16660   1.386   1.819   6.703  0.5309 -0.4237  0.5973
 1676SOL    HW116661   1.352   1.850   6.787 -0.8334  0.0697 -0.1393
 1676SOL    HW216662   1.321   1.856   6.643  1.7804  0.0272 -0.4914
 1677SOL     OW16663   0.308   1.882   9.103  0.3764  0.0790  0.0874
 1677SOL    HW116664   0.256   1.849   9.176 -1.3489  0.2346 -1.0498
 1677SOL    HW216665   0.383   1.823   9.093  0.9862  0.1576  4.4712
 1678SOL     OW16666   3.313   4.714  16.367 -0.0561  0.1398 -0.0819
 1678SOL    HW116667   3.228   4.701  16.325 -0.5458 -2.5238  1.7497
 1678SOL    HW216668   3.290   4.696  16.458  1.4246  0.7851  0.4310
 1679SOL     OW16669   2.572   0.379  14.762  0.0920 -0.2443 -0.1513
 1679SOL    HW116670   2.578   0.448  14.828 -1.4828 -0.0002 -0.2474
 1679SOL    HW216671   2.611   0.305  14.808 -2.1448 -1.3613 -0.0528
 1680SOL     OW16672   3.765   4.639   8.289 -0.8225  0.2987  0.0880
 1680SOL    HW116673   3.713   4.626   8.210 -0.0223  0.6125 -0.5000
 1680SOL    HW216674   3.855   4.650   8.258 -0.1357 -0.6793  1.7656
 1681SOL     OW16675   3.237   4.333   9.356 -0.4456 -0.2207 -0.4402
 1681SOL    HW116676   3.153   4.375   9.374 -0.2548 -0.6219  1.3815
 1681SOL    HW216677   3.232   4.352   9.262 -1.8091  0.3488 -0.2612
 1682SOL     OW16678   1.323   3.581  11.414  0.3778 -0.4996 -0.0101
 1682SOL    HW116679   1.332   3.586  11.509  2.2152 -0.6754 -0.1732
 1682SOL    HW216680   1.265   3.505  11.409 -0.4112  0.0635  0.6944
 1683SOL     OW16681   4.481   2.075  14.827 -0.3143  0.1497  0.2736
 1683SOL    HW116682   4.441   2.091  14.742  0.0912 -1.0900 -0.1564
 1683SOL    HW216683   4.528   2.156  14.846  1.8473 -0.5255 -2.1774
 1684SOL     OW16684   0.068   2.985   4.762 -0.4502  0.2933  0.0730
 1684SOL    HW116685   0.074   3.053   4.829  1.3961 -2.0839  2.3309
 1684SOL    HW216686   4.734   2.931   4.791  1.0090 -1.1760  1.0356
 1685SOL     OW16687   3.118   3.785   6.508  0.1726  0.0176 -0.2365
 1685SOL    HW116688   3.080   3.865   6.545  1.5561  1.4732 -1.9373
 1685SOL    HW216689   3.048   3.765   6.445 -1.1683 -1.4374  1.7401
 1686SOL     OW16690   3.226   0.248   9.850  0.3852  0.4752  0.7671
 1686SOL    HW116691   3.185   0.185   9.790  3.0791 -0.2732 -0.2928
 1686SOL    HW216692   3.314   0.211   9.858  0.5672  0.3968 -1.6100
 1687SOL     OW16693   3.045   3.574  15.584  0.2703  0.6153  0.2739
 1687SOL    HW116694   3.017   3.483  15.573 -1.1519  1.4064 -2.5446
 1687SOL    HW216695   2.978   3.605  15.645 -0.8151 -1.2011  0.0155
 1688SOL     OW16696   0.141   0.267   4.054  0.5031  0.4719 -0.0801
 1688SOL    HW116697   0.083   0.286   4.127  2.1290 -0.5441  1.4844
 1688SOL    HW216698   0.111   0.177   4.042 -2.7422  1.8400 -2.0398
 1689SOL     OW16699   3.678   4.214  15.446  0.2518  0.2210 -0.5411
 1689SOL    HW116700   3.640   4.300  15.465 -0.5257  0.2228 -2.1426
 1689SOL    HW216701   3.719   4.233  15.362  1.4764  0.9535  0.2139
 1690SOL     OW16702   4.736   1.219   8.387  0.5568  0.0199 -0.1717
 1690SOL    HW116703   4.665   1.211   8.324 -1.0690 -0.3626  1.7110
 1690SOL    HW216704   0.047   1.286   8.341 -1.0640  1.1019 -0.3579
 1691SOL     OW16705   0.464   1.063   4.380 -0.0697  0.3307 -0.0083
 1691SOL    HW116706   0.506   1.087   4.298 -3.2369  4.0360 -0.5451
 1691SOL    HW216707   0.516   1.099   4.452  0.9983 -1.8951  0.3552
 1692SOL     OW16708   2.188   3.704   2.279 -0.1027 -0.3570 -0.5036
 1692SOL    HW116709   2.173   3.727   2.187  3.0999  0.4693 -0.8070
 1692SOL    HW216710   2.250   3.768   2.313 -2.7753  1.6762  0.5904
 1693SOL     OW16711   3.096   1.531   6.112  0.3398 -0.6406 -0.1852
 1693SOL    HW116712   3.011   1.488   6.121  0.5912 -0.8292  1.4275
 1693SOL    HW216713   3.082   1.600   6.177 -0.4502  0.2641 -1.3146
 1694SOL     OW16714   0.752   2.389   9.579  0.4424 -0.0286 -0.5596
 1694SOL    HW116715   0.683   2.328   9.550 -0.9526  0.3051  2.0721
 1694SOL    HW216716   0.797   2.326   9.635 -1.2877  0.2741  1.2018
 1695SOL     OW16717   3.630   3.140   3.154 -0.0225 -0.1347 -0.2699
 1695SOL    HW116718   3.619   3.139   3.249  0.5744  2.1857 -0.1851
 1695SOL    HW216719   3.664   3.228   3.142  0.0561 -0.2031 -0.5494
 1696SOL     OW16720   1.386   4.390   9.690  0.1050 -0.1346  0.4620
 1696SOL    HW116721   1.327   4.315   9.682  1.3731 -1.1096  0.3157
 1696SOL    HW216722   1.334   4.444   9.751  0.9089  0.0463  0.9787
 1697SOL     OW16723   4.361   3.024  13.685  0.2123 -0.4136 -0.1653
 1697SOL    HW116724   4.361   3.011  13.590 -0.4094  3.0482 -0.6275
 1697SOL    HW216725   4.385   3.116  13.690 -0.7468 -0.0915 -1.4015
 1698SOL     OW16726   4.145   0.667  16.135  0.1468  0.0577  0.1178
 1698SOL    HW116727   4.201   0.744  16.146  0.6381 -0.1611 -0.8421
 1698SOL    HW216728   4.121   0.657  16.042  0.9679 -2.1204  0.1610
 1699SOL     OW16729   4.427   3.997  13.969 -0.3716 -0.4371 -0.0084
 1699SOL    HW116730   4.353   4.005  13.910  0.9047 -2.7089 -1.9040
 1699SOL    HW216731   4.492   4.050  13.924 -1.9937 -0.5531 -2.4557
 1700SOL     OW16732   2.948   2.192   4.345  0.0817 -0.2161 -0.0034
 1700SOL    HW116733   2.990   2.278   4.353  0.4768 -0.2793 -1.4150
 1700SOL    HW216734   3.014   2.143   4.394  0.1577  0.1088  0.2174
 1701SOL     OW16735   4.246   4.030  17.102 -0.0380  0.0102 -0.2001
 1701SOL    HW116736   4.242   4.096  17.032  0.9617 -0.5507 -0.7862
 1701SOL    HW216737   4.156   3.997  17.095 -0.7579  1.7846  0.6784
 1702SOL     OW16738   2.370   1.070   4.252  0.0469  0.3182 -0.2002
 1702SOL    HW116739   2.351   1.095   4.161  1.4260  1.6008 -0.1332
 1702SOL    HW216740   2.434   1.000   4.243  0.1680  0.7151 -2.3921
 1703SOL     OW16741   0.796   4.305   4.756  0.2769  0.1848 -0.5665
 1703SOL    HW116742   0.804   4.210   4.747 -0.5549  0.2399 -1.9435
 1703SOL    HW216743   0.798   4.318   4.851  3.9801  0.4731 -0.6778
 1704SOL     OW16744   2.948   4.642  12.984 -0.1254 -0.1626  0.0497
 1704SOL    HW116745   3.003   4.719  12.998 -0.5329 -0.2473  2.1873
 1704SOL    HW216746   2.872   4.672  13.034 -0.5869  0.3189 -0.9619
 1705SOL     OW16747   1.882   1.531   8.597  0.3893 -0.5508 -0.4049
 1705SOL    HW116748   1.825   1.534   8.674  0.7613 -0.0165 -0.1532
 1705SOL    HW216749   1.908   1.622   8.604 -0.2985 -0.4390  0.6701
 1706SOL     OW16750   4.132   1.791  10.007 -0.0963  0.6165  0.7100
 1706SOL    HW116751   4.152   1.765   9.917 -3.8509  1.9779 -0.5011
 1706SOL    HW216752   4.136   1.704  10.047 -1.7424  0.8209  1.3503
 1707SOL     OW16753   2.815   2.006   4.603  0.7054 -0.0057  0.1339
 1707SOL    HW116754   2.807   1.922   4.650  1.5924  1.0559  2.2170
 1707SOL    HW216755   2.901   1.993   4.564  1.3040 -0.2138  1.4934
 1708SOL     OW16756   2.976   2.862   2.725  0.1855  0.3096  0.4186
 1708SOL    HW116757   2.949   2.946   2.763 -0.1591  0.7655 -0.8312
 1708SOL    HW216758   2.894   2.830   2.687  0.7078  0.9858 -1.2722
 1709SOL     OW16759   1.270   3.954   3.918  0.3675  0.0331 -0.4298
 1709SOL    HW116760   1.298   3.865   3.939 -2.6118 -0.8974 -0.3365
 1709SOL    HW216761   1.306   3.962   3.829 -1.4093  0.3336 -1.1261
 1710SOL     OW16762   3.496   2.919  13.169  0.1811  0.2238 -0.5099
 1710SOL    HW116763   3.580   2.876  13.183  0.1072  0.9724  2.1880
 1710SOL    HW216764   3.525   3.009  13.152 -0.5859  0.5358 -0.1703
 1711SOL     OW16765   1.832   0.934   2.801 -0.2513 -0.2022  0.1888
 1711SOL    HW116766   1.920   0.973   2.801 -1.2759  2.1614 -1.5348
 1711SOL    HW216767   1.819   0.929   2.896 -2.3025  0.8335 -0.0492
 1712SOL     OW16768   0.360   0.440   5.215  0.5918 -0.3856 -0.1389
 1712SOL    HW116769   0.288   0.445   5.152  0.6036  1.6188  0.0013
 1712SOL    HW216770   0.396   0.352   5.200 -1.1470 -0.5793 -3.1675
 1713SOL     OW16771   2.552   3.076   2.420  0.1853  0.1848  0.1963
 1713SOL    HW116772   2.463   3.044   2.433  0.8200 -0.7323  2.2597
 1713SOL    HW216773   2.536   3.154   2.367  0.6302  0.7201  0.8621
 1714SOL     OW16774   4.321   2.110  10.649  0.2090  0.1809  0.5287
 1714SOL    HW116775   4.263   2.111  10.572  2.5456  1.2375 -1.2181
 1714SOL    HW216776   4.255   2.087  10.714  0.8572  1.4171  1.6351
 1715SOL     OW16777   3.038   0.057   9.676  0.0443 -0.9286  0.4549
 1715SOL    HW116778   2.998   0.127   9.728 -3.2848 -1.7017 -1.1220
 1715SOL    HW216779   3.093   0.108   9.615 -1.2231  0.7982  0.7521
 1716SOL     OW16780   4.601   1.776  16.228  0.2327  0.1200 -0.4548
 1716SOL    HW116781   4.690   1.804  16.206  0.5710 -0.2638  0.4345
 1716SOL    HW216782   4.547   1.855  16.232 -1.2071 -0.8333 -0.9481
 1717SOL     OW16783   2.020   2.728   1.999  0.5099 -0.6737 -0.3390
 1717SOL    HW116784   2.092   2.716   1.936  1.2973  2.5466 -0.0679
 1717SOL    HW216785   1.986   2.809   1.961 -0.0711 -1.5895 -1.7829
 1718SOL     OW16786   2.537   2.351   0.290  0.2525  0.2499  0.2056
 1718SOL    HW116787   2.576   2.424   0.337 -0.9374  0.1597  1.3358
 1718SOL    HW216788   2.563   2.276   0.345 -1.6105  0.5257  1.4530
 1719SOL     OW16789   2.055   3.239   4.728  0.0449  0.0739 -0.1664
 1719SOL    HW116790   2.048   3.164   4.668 -1.5960 -0.9022  1.2401
 1719SOL    HW216791   2.132   3.282   4.691 -1.0611  0.3929 -2.1096
 1720SOL     OW16792   4.674   3.489   5.375 -0.1750  0.3086  0.0597
 1720SOL    HW116793   4.670   3.504   5.470  1.6787  0.4533  0.1126
 1720SOL    HW216794   4.699   3.576   5.345 -0.3505  0.6736  0.9675
 1721SOL     OW16795   3.518   0.320  11.752 -0.6263  0.0202 -0.2843
 1721SOL    HW116796   3.610   0.306  11.774 -0.6011  0.9493  0.1817
 1721SOL    HW216797   3.531   0.390  11.688 -0.2215 -0.6476 -0.9392
 1722SOL     OW16798   0.198   2.617   7.596  0.3370  0.2481  0.8255
 1722SOL    HW116799   0.186   2.694   7.540  0.2836  0.5903  1.3049
 1722SOL    HW216800   0.114   2.624   7.642  0.1955  2.5884  0.2129
 1723SOL     OW16801   1.589   0.858   9.516  0.1954 -0.6542  0.1240
 1723SOL    HW116802   1.577   0.881   9.608  0.7215 -0.4166  0.1339
 1723SOL    HW216803   1.675   0.815   9.512  0.0325 -1.1758  2.3706
 1724SOL     OW16804   1.617   3.633   8.028 -0.4259 -0.0983 -0.6033
 1724SOL    HW116805   1.660   3.717   8.014 -0.0430 -0.1052  0.5151
 1724SOL    HW216806   1.646   3.583   7.951  0.0593  0.7319 -0.9602
 1725SOL     OW16807   3.769   0.986   5.781 -0.0907 -0.3023  0.3220
 1725SOL    HW116808   3.780   1.035   5.863  0.7569  0.0855 -0.0251
 1725SOL    HW216809   3.701   1.039   5.741 -0.3360 -2.1971 -1.7761
 1726SOL     OW16810   2.166   0.237  14.138 -0.1674 -0.1306 -0.0662
 1726SOL    HW116811   2.106   0.258  14.209 -0.7585  0.9225 -0.8672
 1726SOL    HW216812   2.252   0.256  14.175  0.0715 -2.0115  0.3707
 1727SOL     OW16813   0.025   3.637   3.270  0.2422  0.1925  0.2035
 1727SOL    HW116814   0.029   3.688   3.189 -1.5291  0.9386  0.5962
 1727SOL    HW216815   0.104   3.585   3.260  1.1284  1.6345 -0.3369
 1728SOL     OW16816   2.190   1.184   3.424  0.2948  0.0592  0.0658
 1728SOL    HW116817   2.199   1.194   3.519  2.3412 -2.4021  0.1458
 1728SOL    HW216818   2.282   1.171   3.400  0.6207  4.0809 -0.8671
 1729SOL     OW16819   3.270   4.676   2.688  0.4401 -0.8402  0.4210
 1729SOL    HW116820   3.215   4.710   2.618  0.8384  1.9555  1.4517
 1729SOL    HW216821   3.248   0.012   2.743  1.3127  0.3654 -0.8751
 1730SOL     OW16822   0.423   3.193   7.560  0.1630 -0.5504  0.3086
 1730SOL    HW116823   0.500   3.215   7.613  0.0085 -0.4280  0.4815
 1730SOL    HW216824   0.419   3.264   7.495  0.6415 -1.0647 -0.2860
 1731SOL     OW16825   4.582   1.924   6.779  0.2923 -0.2109 -0.3485
 1731SOL    HW116826   4.639   1.995   6.808 -0.4303  0.5845 -0.8804
 1731SOL    HW216827   4.535   1.970   6.710  1.7315  0.7156 -0.7063
 1732SOL     OW16828   0.751   0.019   8.581  0.0919 -0.2129  0.1204
 1732SOL    HW116829   0.727   0.037   8.672 -0.0628 -1.0765  0.2582
 1732SOL    HW216830   0.829   0.073   8.570 -0.3800  0.3832 -0.3213
 1733SOL     OW16831   0.904   0.262   6.726 -0.3735 -0.1972  0.3322
 1733SOL    HW116832   0.998   0.244   6.731 -0.0811  1.6435  1.5313
 1733SOL    HW216833   0.889   0.184   6.672  1.4650 -0.5220  0.2797
 1734SOL     OW16834   2.804   0.328   2.558 -0.1382 -0.5369 -0.5646
 1734SOL    HW116835   2.728   0.352   2.506 -0.8963  1.6142  1.5772
 1734SOL    HW216836   2.772   0.307   2.646 -0.7311 -2.3067 -1.2011
 1735SOL     OW16837   1.126   0.614   5.474  0.8794 -0.0830  0.1771
 1735SOL    HW116838   1.143   0.671   5.550 -0.7779  0.2114  0.3293
 1735SOL    HW216839   1.039   0.580   5.495  0.1739  0.8999 -1.1706
 1736SOL     OW16840   2.862   0.778   6.141  0.6493  0.8314  0.3621
 1736SOL    HW116841   2.881   0.707   6.080  0.3291 -0.0317  1.2686
 1736SOL    HW216842   2.785   0.808   6.094 -0.8185  1.0127  2.8940
 1737SOL     OW16843   1.856   1.167   7.299 -0.6309 -0.7229 -0.0709
 1737SOL    HW116844   1.858   1.258   7.268  0.5976 -1.0966 -1.0870
 1737SOL    HW216845   1.764   1.156   7.321  0.1466 -2.2992  2.4574
 1738SOL     OW16846   3.834   2.806  17.628  0.4360 -0.2404  0.6353
 1738SOL    HW116847   3.856   2.850  17.546 -2.0392  2.0618  1.1906
 1738SOL    HW216848   3.879   2.866  17.687  0.6489 -0.0243  0.2482
 1739SOL     OW16849   0.283   2.540   6.198  0.3380 -0.3497 -0.3022
 1739SOL    HW116850   0.303   2.609   6.262  1.2542 -0.5245 -0.3950
 1739SOL    HW216851   0.372   2.519   6.169 -0.0301 -0.8126 -1.0791
 1740SOL     OW16852   2.395   1.921   5.754  0.1282  0.1407 -0.2141
 1740SOL    HW116853   2.436   1.836   5.771  2.5048  1.4727  0.8304
 1740SOL    HW216854   2.372   1.921   5.661  1.2425  0.0052 -0.4911
 1741SOL     OW16855   3.744   2.830  13.268  0.6803 -0.3539 -0.4683
 1741SOL    HW116856   3.774   2.846  13.358 -1.1542 -1.9594  0.4199
 1741SOL    HW216857   3.746   2.735  13.258 -0.3601 -0.8205  3.7673
 1742SOL     OW16858   2.972   2.032  17.486 -0.6670  0.3736 -0.3885
 1742SOL    HW116859   2.904   1.966  17.495  1.0054 -1.7527 -3.4457
 1742SOL    HW216860   2.995   2.042  17.579 -0.2101 -2.4859 -0.2069
 1743SOL     OW16861   2.651   2.771  11.763 -0.0798  0.0353  0.1950
 1743SOL    HW116862   2.584   2.771  11.694 -0.4592 -3.0795  0.5591
 1743SOL    HW216863   2.591   2.775  11.838  0.6364 -1.9423  0.8813
 1744SOL     OW16864   0.230   2.240   8.443 -0.5619 -0.3053  0.4298
 1744SOL    HW116865   0.320   2.269   8.453 -1.2767  2.7958 -2.4717
 1744SOL    HW216866   0.206   2.287   8.364  2.1356  1.0967  0.4513
 1745SOL     OW16867   3.026   1.106   7.744 -0.4042  0.0357 -0.3039
 1745SOL    HW116868   2.972   1.042   7.791  0.6590  0.0828  0.9776
 1745SOL    HW216869   3.112   1.068   7.760  0.4108  2.1688  0.4295
 1746SOL     OW16870   3.611   1.470   6.171 -0.3812 -0.6908  0.0414
 1746SOL    HW116871   3.536   1.441   6.119 -1.0903  0.0626  0.6609
 1746SOL    HW216872   3.604   1.415   6.249  0.9858  2.9141  2.6616
 1747SOL     OW16873   0.875   4.463   0.668  0.3158  0.1665  0.0734
 1747SOL    HW116874   0.808   4.448   0.601  0.3731 -1.9133  0.4958
 1747SOL    HW216875   0.816   4.501   0.733 -1.5244 -1.6438 -0.5666
 1748SOL     OW16876   4.389   4.682   7.703  0.3270  0.3969 -0.9708
 1748SOL    HW116877   4.360   4.723   7.621  2.9663  1.8451 -1.1728
 1748SOL    HW216878   4.390   4.589   7.683  3.4431  0.7152 -2.2822
 1749SOL     OW16879   2.739   2.359   1.463  0.0880 -0.2018  0.4445
 1749SOL    HW116880   2.706   2.300   1.530  2.8766 -0.7549  1.3354
 1749SOL    HW216881   2.739   2.447   1.501  1.3473  0.3130 -0.7421
 1750SOL     OW16882   4.128   0.858  16.635  0.3488 -0.5235  0.2910
 1750SOL    HW116883   4.071   0.935  16.643 -1.1148 -1.4698 -0.9770
 1750SOL    HW216884   4.078   0.805  16.573  0.6726 -0.3949 -0.0867
 1751SOL     OW16885   2.265   1.001   3.774  0.2282  0.1037 -0.0766
 1751SOL    HW116886   2.316   1.030   3.850 -1.4862  2.0910  0.3156
 1751SOL    HW216887   2.296   0.915   3.745 -3.3564 -1.2415 -0.0057
 1752SOL     OW16888   3.592   3.759  10.549  0.1687  0.5576  0.9349
 1752SOL    HW116889   3.624   3.820  10.483 -1.8568 -1.6843 -2.1653
 1752SOL    HW216890   3.538   3.822  10.596 -1.2908  1.0416 -1.3969
 1753SOL     OW16891   3.149   4.716  14.051 -0.2503  0.0233 -0.2477
 1753SOL    HW116892   3.122   0.068  14.038  1.5812  0.6062 -0.0188
 1753SOL    HW216893   3.068   4.673  14.027  0.3670 -0.5588 -1.2724
 1754SOL     OW16894   3.160   4.167   3.310 -0.1679  0.1404 -0.3490
 1754SOL    HW116895   3.231   4.119   3.353  1.2095  1.2178 -1.3942
 1754SOL    HW216896   3.094   4.107   3.277 -1.0611  0.5754  0.6734
 1755SOL     OW16897   3.233   3.040  12.794  0.3016  0.0316 -0.4006
 1755SOL    HW116898   3.159   3.087  12.758 -1.0319 -0.4210  1.7382
 1755SOL    HW216899   3.177   3.009  12.865  0.4931  0.4990 -0.0462
 1756SOL     OW16900   1.390   0.254  14.904  0.5283 -0.2983 -0.5261
 1756SOL    HW116901   1.352   0.183  14.853  1.0112 -0.9578  0.0316
 1756SOL    HW216902   1.374   0.330  14.848 -0.5936  0.5893  1.0041
 1757SOL     OW16903   2.639   4.074   8.366 -0.5412  0.5470 -0.5300
 1757SOL    HW116904   2.574   4.085   8.435 -1.3710  2.0592 -1.5552
 1757SOL    HW216905   2.682   4.160   8.367  1.2608 -0.3059 -2.2234
 1758SOL     OW16906   3.690   2.246  16.367 -0.1905  0.2155 -0.2569
 1758SOL    HW116907   3.604   2.234  16.409  0.3206 -0.4791  0.6018
 1758SOL    HW216908   3.688   2.168  16.312  0.1671  1.0578 -1.4419
 1759SOL     OW16909   4.194   4.056   3.721 -0.6146 -0.4691 -0.2106
 1759SOL    HW116910   4.195   4.115   3.646 -3.7999 -0.5599 -0.3147
 1759SOL    HW216911   4.195   4.112   3.799 -0.1392 -0.3774 -0.2810
 1760SOL     OW16912   0.005   0.753   2.115 -0.1891  1.1790 -0.4277
 1760SOL    HW116913   0.064   0.702   2.171 -1.0716 -0.4740 -0.9856
 1760SOL    HW216914   0.048   0.734   2.031 -2.0514  1.1385 -1.3718
 1761SOL     OW16915   0.747   0.451   5.256  0.7096  0.0311  0.3397
 1761SOL    HW116916   0.716   0.361   5.247  1.8356 -0.1845 -1.3876
 1761SOL    HW216917   0.746   0.484   5.166  1.7723 -0.5566  0.1065
 1762SOL     OW16918   3.036   1.082   8.153 -0.1594  0.5998 -0.3333
 1762SOL    HW116919   2.954   1.035   8.167  0.3157 -0.2011 -0.2314
 1762SOL    HW216920   3.048   1.071   8.059 -1.5505 -1.1600 -0.3123
 1763SOL     OW16921   3.253   2.592   2.552 -0.8317  0.9546  0.5254
 1763SOL    HW116922   3.253   2.683   2.582  1.4485  1.4450 -0.9291
 1763SOL    HW216923   3.306   2.600   2.472 -0.6227  0.4763  0.6127
 1764SOL     OW16924   3.905   3.510   4.211 -0.1513 -0.4730 -0.0752
 1764SOL    HW116925   3.963   3.541   4.142 -1.1888 -0.9507 -1.1461
 1764SOL    HW216926   3.868   3.428   4.177 -0.8680  0.2289 -0.9698
 1765SOL     OW16927   2.091   0.684   2.028  0.2961  0.5119  0.5569
 1765SOL    HW116928   2.037   0.701   2.105 -1.5430  2.5852 -1.2320
 1765SOL    HW216929   2.106   0.774   2.002  0.0253  1.1178  2.4779
 1766SOL     OW16930   0.344   2.910   7.714 -0.4077  0.3487  0.5969
 1766SOL    HW116931   0.341   3.000   7.745  0.0660  1.0036 -1.2626
 1766SOL    HW216932   0.433   2.909   7.680 -0.2559  2.0652  0.9756
 1767SOL     OW16933   0.112   1.240  16.875  0.1994 -0.4204 -0.5833
 1767SOL    HW116934   0.152   1.317  16.835  1.5047 -0.1054  1.3036
 1767SOL    HW216935   0.178   1.173  16.855  1.1611 -0.4779  2.8119
 1768SOL     OW16936   3.835   3.141   8.459 -0.3507  0.7820 -0.2112
 1768SOL    HW116937   3.875   3.198   8.525 -0.4547  1.7303 -0.9723
 1768SOL    HW216938   3.840   3.061   8.512  0.4320 -0.5579 -2.3293
 1769SOL     OW16939   3.635   4.710   1.847 -0.7077 -0.0795  0.3221
 1769SOL    HW116940   3.584   4.654   1.789  1.3400 -1.3680 -0.2359
 1769SOL    HW216941   3.657   4.657   1.924  2.8786 -0.8208 -1.2009
 1770SOL     OW16942   2.820   1.734   3.639  0.5420 -0.2678 -0.3503
 1770SOL    HW116943   2.864   1.653   3.614 -0.0149 -0.2975 -1.2067
 1770SOL    HW216944   2.760   1.746   3.566 -1.5828 -0.0852  1.4342
 1771SOL     OW16945   3.831   3.222   8.124  0.5894  0.2150  0.5205
 1771SOL    HW116946   3.752   3.228   8.178 -0.6779 -1.6345 -1.1818
 1771SOL    HW216947   3.898   3.227   8.193  1.0108  3.5377 -0.1370
 1772SOL     OW16948   0.007   1.620   2.947  0.3081 -0.0368 -0.4779
 1772SOL    HW116949   0.016   1.557   2.876 -0.0027 -1.6250  0.8872
 1772SOL    HW216950   4.678   1.675   2.909  1.1675  1.4325  0.0947
 1773SOL     OW16951   2.329   2.818   3.873 -0.1926 -0.5595 -0.2480
 1773SOL    HW116952   2.324   2.897   3.820  1.1782  0.7912  1.6551
 1773SOL    HW216953   2.421   2.816   3.898  0.2450 -1.6581 -1.9367
 1774SOL     OW16954   3.279   4.628   0.450 -0.0121  0.0106 -0.3101
 1774SOL    HW116955   3.342   4.658   0.515 -0.5963  1.6962 -0.5153
 1774SOL    HW216956   3.252   4.544   0.486  2.0296 -0.2406  0.6271
 1775SOL     OW16957   3.015   2.745   5.668  0.8254  0.8799  0.0149
 1775SOL    HW116958   3.088   2.779   5.616  0.9632 -0.9763 -0.9732
 1775SOL    HW216959   2.971   2.828   5.689 -1.1453 -0.2562  0.4026
 1776SOL     OW16960   4.440   1.696  13.688 -0.3513  0.4588 -0.0327
 1776SOL    HW116961   4.457   1.734  13.775 -0.0955 -1.1865  0.6281
 1776SOL    HW216962   4.462   1.769  13.630  1.5445 -0.0810 -0.0081
 1777SOL     OW16963   3.683   0.170   3.781  0.0560 -0.0889 -0.3039
 1777SOL    HW116964   3.658   0.155   3.689  1.8691  1.4181 -1.0476
 1777SOL    HW216965   3.610   0.222   3.814  0.1812 -1.3157  1.8638
 1778SOL     OW16966   1.126   1.344   9.614  0.5470  0.0031  0.4309
 1778SOL    HW116967   1.130   1.438   9.636 -0.1408  0.6969 -2.4475
 1778SOL    HW216968   1.221   1.333   9.605  0.4757  0.8821 -1.4121
 1779SOL     OW16969   2.360   3.874   7.011 -0.2917 -0.3749  0.3024
 1779SOL    HW116970   2.415   3.797   6.995  1.0857  0.8300 -0.7053
 1779SOL    HW216971   2.307   3.883   6.932  1.4349  2.6503 -0.5019
 1780SOL     OW16972   4.092   0.789   9.849 -0.0758 -0.0995  0.5179
 1780SOL    HW116973   4.159   0.727   9.880 -0.8817 -0.4768  1.4959
 1780SOL    HW216974   4.014   0.748   9.885 -0.1682  0.3279  0.7998
 1781SOL     OW16975   4.399   1.882   7.696 -0.3520  0.6093 -0.4096
 1781SOL    HW116976   4.489   1.859   7.669  0.1959  0.3392  1.6500
 1781SOL    HW216977   4.357   1.907   7.614 -2.5445  1.4951  0.9894
 1782SOL     OW16978   3.086   1.555   0.463 -0.0845 -0.1626  0.4439
 1782SOL    HW116979   3.152   1.611   0.422  0.2072 -0.1324  0.9521
 1782SOL    HW216980   3.068   1.498   0.388  0.4414  1.7433 -1.1126
 1783SOL     OW16981   0.412   1.173   7.837  0.2493 -0.6214 -0.3770
 1783SOL    HW116982   0.495   1.221   7.840  0.5081 -1.0993  0.0603
 1783SOL    HW216983   0.359   1.215   7.768 -0.9469  1.2142  1.6718
 1784SOL     OW16984   1.593   4.327  15.903  0.1337 -0.0971  0.3127
 1784SOL    HW116985   1.572   4.403  15.849  0.4748 -0.6640 -0.6248
 1784SOL    HW216986   1.673   4.350  15.950 -0.2448  2.3296 -0.2773
 1785SOL     OW16987   3.832   1.503   1.059  0.4814 -1.1992 -0.1310
 1785SOL    HW116988   3.778   1.580   1.076  0.9467 -0.5958 -1.4309
 1785SOL    HW216989   3.894   1.528   1.128 -1.4295  2.0127  0.4043
 1786SOL     OW16990   4.606   2.409  14.817  0.1907 -0.6860 -0.1356
 1786SOL    HW116991   4.650   2.403  14.902  0.1945  2.9491  0.1198
 1786SOL    HW216992   4.517   2.408  14.854  0.1525  0.0404 -0.2065
 1787SOL     OW16993   2.417   0.228   7.440  0.8119  0.1374  0.4618
 1787SOL    HW116994   2.395   0.143   7.402 -0.5715  0.9843 -0.5979
 1787SOL    HW216995   2.354   0.284   7.395  1.3150  0.1430 -0.2382
 1788SOL     OW16996   3.915   3.493   8.804 -0.1681 -0.4492  0.4034
 1788SOL    HW116997   4.003   3.489   8.766 -0.7569 -1.0421 -0.9165
 1788SOL    HW216998   3.879   3.406   8.786 -0.1584 -0.4082  0.1827
 1789SOL     OW16999   2.123   2.419   7.358 -0.5287  0.2185  0.5557
 1789SOL    HW117000   2.147   2.470   7.435  1.4987  1.2542 -0.7492
 1789SOL    HW217001   2.027   2.409   7.356 -0.7448  2.3712 -0.5887
 1790SOL     OW17002   4.493   2.883   4.519  0.0454 -0.2628  0.2027
 1790SOL    HW117003   4.485   2.816   4.450  0.6667 -2.4904  2.2885
 1790SOL    HW217004   4.494   2.823   4.593 -1.5596 -0.6783 -0.0947
 1791SOL     OW17005   1.214   4.729   5.040 -0.8881  0.2523  0.0069
 1791SOL    HW117006   1.196   4.675   5.117 -3.9812  0.7472 -0.3720
 1791SOL    HW217007   1.231   0.070   5.088  0.9869 -1.2046  1.7410
 1792SOL     OW17008   3.271   4.241  10.527  0.6560  0.2737  0.3045
 1792SOL    HW117009   3.203   4.265  10.464 -1.4649 -0.5903  2.2680
 1792SOL    HW217010   3.274   4.150  10.497 -1.6200  1.1719 -2.7195
 1793SOL     OW17011   1.575   2.770  10.623 -0.5317 -1.0086 -0.1694
 1793SOL    HW117012   1.661   2.739  10.597 -0.7539 -2.0294  0.3426
 1793SOL    HW217013   1.534   2.684  10.619  1.0185 -1.7981  0.9085
 1794SOL     OW17014   3.675   3.039   4.534 -0.4000  0.1038 -0.2265
 1794SOL    HW117015   3.758   3.084   4.548 -0.5048  0.6376 -1.3775
 1794SOL    HW217016   3.611   3.102   4.568  1.0556  1.3215  0.2753
 1795SOL     OW17017   3.465   1.681   6.332  0.0517  0.0796  0.3200
 1795SOL    HW117018   3.453   1.621   6.258 -1.2790  0.3614  0.2970
 1795SOL    HW217019   3.404   1.643   6.396  1.7740 -1.3209  1.1179
 1796SOL     OW17020   2.523   0.474   6.111 -0.0057 -0.5318  0.0766
 1796SOL    HW117021   2.443   0.438   6.150 -1.2266  0.4063 -1.5856
 1796SOL    HW217022   2.522   0.565   6.141  0.3300 -0.1095 -1.2085
 1797SOL     OW17023   1.313   3.016  13.398  1.1493 -0.1230 -0.2114
 1797SOL    HW117024   1.363   3.095  13.376  1.4071 -1.0996 -3.0256
 1797SOL    HW217025   1.224   3.050  13.393 -0.2470 -3.9120 -0.3956
 1798SOL     OW17026   4.562   1.200  16.494 -0.3836 -0.5376  0.6368
 1798SOL    HW117027   4.617   1.123  16.503 -1.1573 -1.0702  0.8382
 1798SOL    HW217028   4.626   1.271  16.495 -0.8235 -0.1628  1.4744
 1799SOL     OW17029   3.455   0.192   6.807 -0.1434 -0.2570  0.0379
 1799SOL    HW117030   3.466   0.201   6.902 -2.1442  3.5501 -0.0539
 1799SOL    HW217031   3.449   0.283   6.778  2.4841  0.4415  1.6426
 1800SOL     OW17032   3.000   1.933   1.269  0.6870  0.5316  0.0728
 1800SOL    HW117033   3.018   2.003   1.332 -1.5259 -0.5397  1.8580
 1800SOL    HW217034   2.909   1.911   1.285  0.4343  1.1754 -0.4628
 1801SOL     OW17035   2.142   4.592   8.686 -0.2781 -0.2420  0.2410
 1801SOL    HW117036   2.080   4.520   8.680 -1.0116  0.2612  1.7192
 1801SOL    HW217037   2.185   4.566   8.768  1.1147  0.4521 -0.2655
 1802SOL     OW17038   1.791   0.573   7.965 -0.1008 -0.3614  0.0053
 1802SOL    HW117039   1.881   0.598   7.990  0.3908 -1.8509 -0.2467
 1802SOL    HW217040   1.806   0.548   7.874 -0.2132 -0.8306  0.1155
 1803SOL     OW17041   3.687   0.603   4.562  0.1467 -0.1178  0.2458
 1803SOL    HW117042   3.731   0.519   4.576 -1.5733 -1.2691 -1.2405
 1803SOL    HW217043   3.600   0.571   4.541  0.1108  0.2538 -0.1828
 1804SOL     OW17044   3.990   4.627   5.901 -0.6053 -0.0459  0.1203
 1804SOL    HW117045   4.079   4.635   5.935 -0.5639 -0.7802  0.1670
 1804SOL    HW217046   3.986   4.555   5.838 -3.5620 -0.4829  0.7955
 1805SOL     OW17047   0.766   1.635  17.491 -0.3273  0.0875 -0.1231
 1805SOL    HW117048   0.780   1.581  17.414  0.0806 -0.3987  0.2923
 1805SOL    HW217049   0.677   1.659  17.467 -1.4314 -1.4396  2.4733
 1806SOL     OW17050   0.314   1.995   2.070  0.3519 -0.0719  0.1063
 1806SOL    HW117051   0.240   2.018   2.126 -1.1504 -0.0528 -1.8918
 1806SOL    HW217052   0.374   2.070   2.075 -0.1340  0.1874  1.8650
 1807SOL     OW17053   0.637   1.642   5.090 -0.8606 -0.4225 -0.0310
 1807SOL    HW117054   0.546   1.633   5.060 -1.1734 -0.8325  1.0417
 1807SOL    HW217055   0.672   1.677   5.009 -1.8830  1.0272  0.1656
 1808SOL     OW17056   4.188   1.496   5.596 -0.3002 -0.0853  0.3434
 1808SOL    HW117057   4.193   1.577   5.646 -1.3004 -0.5558  1.2253
 1808SOL    HW217058   4.114   1.514   5.538 -0.1776  2.9707  1.1726
 1809SOL     OW17059   3.064   0.703   9.124  0.1976  0.2415 -0.4489
 1809SOL    HW117060   3.113   0.745   9.195  0.9874 -1.5002  0.0580
 1809SOL    HW217061   2.980   0.696   9.168  1.8119 -2.9394  2.1785
 1810SOL     OW17062   0.763   0.949   4.341 -0.4328  0.2455 -0.2973
 1810SOL    HW117063   0.673   0.917   4.343  0.0774 -1.2643 -1.6748
 1810SOL    HW217064   0.803   0.871   4.303 -1.4406 -1.2911  1.8130
 1811SOL     OW17065   4.112   4.656   2.280 -0.6596 -0.7594 -0.0990
 1811SOL    HW117066   4.028   4.620   2.310 -0.3520 -2.2403 -1.0059
 1811SOL    HW217067   4.107   0.011   2.293 -1.3928 -0.7581 -0.3925
 1812SOL     OW17068   1.301   1.577  12.498 -0.1538  0.0874 -0.2303
 1812SOL    HW117069   1.298   1.482  12.487 -1.9494 -0.1428  2.1653
 1812SOL    HW217070   1.209   1.588  12.474  0.1395  1.2386 -0.8122
 1813SOL     OW17071   2.857   3.360  15.612  0.1048 -0.5125  0.3002
 1813SOL    HW117072   2.861   3.373  15.517  0.4133 -1.1012  0.2287
 1813SOL    HW217073   2.898   3.273  15.620 -0.4642 -0.6502  1.7275
 1814SOL     OW17074   0.632   4.479   3.724  0.2286 -0.8177  0.5690
 1814SOL    HW117075   0.686   4.485   3.803  0.7670 -0.0750  0.1357
 1814SOL    HW217076   0.585   4.563   3.725 -0.3766 -1.1559  0.5961
 1815SOL     OW17077   3.274   2.803   5.563 -0.1460  0.1360 -0.4354
 1815SOL    HW117078   3.338   2.750   5.514  0.2363  0.2991 -0.1159
 1815SOL    HW217079   3.314   2.889   5.554  0.6123 -0.3734 -1.9622
 1816SOL     OW17080   2.799   0.720   0.701 -0.2205  0.0228  0.1064
 1816SOL    HW117081   2.794   0.638   0.653 -0.7971  0.1296 -0.0147
 1816SOL    HW217082   2.729   0.765   0.653  0.7630 -0.9688 -2.2175
 1817SOL     OW17083   1.149   0.837  13.793  0.4323  0.0015  0.5176
 1817SOL    HW117084   1.087   0.845  13.720 -0.6547  0.4906  1.4996
 1817SOL    HW217085   1.228   0.808  13.748  0.4344 -0.8859  1.0902
 1818SOL     OW17086   0.349   0.040   8.577 -0.0085 -0.5443 -0.2397
 1818SOL    HW117087   0.395   0.016   8.658  1.9734 -1.9143 -1.7906
 1818SOL    HW217088   0.269   0.073   8.619  1.3121  0.2131  1.6861
 1819SOL     OW17089   3.020   0.584  10.841 -0.5032 -0.0027 -0.2427
 1819SOL    HW117090   3.102   0.544  10.869 -1.4144 -0.8545  1.2161
 1819SOL    HW217091   3.048   0.664  10.796 -1.4759  1.0125  0.9456
 1820SOL     OW17092   4.175   2.889  14.181  0.1000 -0.1096 -0.1388
 1820SOL    HW117093   4.270   2.880  14.178 -0.0443 -1.5635 -0.5021
 1820SOL    HW217094   4.151   2.930  14.098 -0.0633  0.5071  0.2092
 1821SOL     OW17095   0.608   0.515   9.052  0.2422 -0.1676  0.1334
 1821SOL    HW117096   0.661   0.525   9.132 -0.8187  2.7948  0.5004
 1821SOL    HW217097   0.639   0.584   8.994  1.7726  0.6240  1.8692
 1822SOL     OW17098   3.567   4.041   6.780 -0.5999 -0.3011 -0.1568
 1822SOL    HW117099   3.473   4.039   6.765 -0.5040 -0.5627 -0.7143
 1822SOL    HW217100   3.604   4.024   6.693  0.6788 -0.5119  0.4259
 1823SOL     OW17101   0.051   4.656   8.419  0.0423  0.0064  0.3806
 1823SOL    HW117102   0.060   4.698   8.504  1.8027  2.8936 -1.2478
 1823SOL    HW217103   0.037   4.731   8.362  0.1790 -0.5850 -0.4347
 1824SOL     OW17104   1.568   3.148  16.967 -0.2405 -0.0652  0.2735
 1824SOL    HW117105   1.644   3.132  16.911  0.6744 -1.2062  1.8294
 1824SOL    HW217106   1.524   3.221  16.925 -0.2280 -0.4264 -0.3572
 1825SOL     OW17107   0.256   2.778   4.628  0.4021  0.4572  0.6282
 1825SOL    HW117108   0.301   2.818   4.554  0.3807 -0.3708  0.1803
 1825SOL    HW217109   0.212   2.856   4.662 -0.5802 -0.2907  1.0750
 1826SOL     OW17110   3.575   1.369   9.154  0.3085 -0.0473 -0.1889
 1826SOL    HW117111   3.596   1.310   9.226 -0.1912 -1.6899 -1.3805
 1826SOL    HW217112   3.504   1.423   9.189  0.3444  0.9868 -1.6808
 1827SOL     OW17113   3.807   1.132   1.745 -0.0010 -0.2594  0.2654
 1827SOL    HW117114   3.787   1.200   1.681 -0.6672 -0.6004  0.1146
 1827SOL    HW217115   3.890   1.170   1.775  0.7439 -0.9994 -0.8617
 1828SOL     OW17116   2.322   3.856   1.819 -0.4809 -0.0416 -0.0683
 1828SOL    HW117117   2.295   3.831   1.730  1.7579  1.8480 -1.2771
 1828SOL    HW217118   2.376   3.783   1.849 -2.7708 -1.7381 -0.1013
 1829SOL     OW17119   2.175   1.172   5.433 -0.1153  0.4778  0.2113
 1829SOL    HW117120   2.095   1.155   5.383  2.2005 -1.8947 -2.6469
 1829SOL    HW217121   2.203   1.084   5.457 -0.9492 -0.1418 -1.0937
 1830SOL     OW17122   3.666   2.294  11.342 -0.0902 -0.0175  0.1398
 1830SOL    HW117123   3.582   2.319  11.305  0.2594  1.9284  0.6774
 1830SOL    HW217124   3.720   2.337  11.275  1.1363 -1.2114  0.3535
 1831SOL     OW17125   1.813   3.794   2.053  0.1589  0.4405  0.0958
 1831SOL    HW117126   1.899   3.810   2.015  0.0323  0.4606 -0.1826
 1831SOL    HW217127   1.813   3.845   2.133  0.3129  0.9091 -0.2047
 1832SOL     OW17128   2.501   4.302  16.325 -0.1248 -0.4283  0.0519
 1832SOL    HW117129   2.424   4.285  16.379 -2.0127  1.9409 -1.8836
 1832SOL    HW217130   2.553   4.224  16.345 -0.9996 -1.3648 -1.3121
 1833SOL     OW17131   2.751   0.024   6.156  0.0001  0.4647 -0.1179
 1833SOL    HW117132   2.768   4.684   6.107 -0.3201 -0.4397  1.2401
 1833SOL    HW217133   2.844   0.047   6.160  0.0263 -0.0074  2.2323
 1834SOL     OW17134   1.407   2.695   7.631  0.2856 -0.2529 -0.1791
 1834SOL    HW117135   1.399   2.619   7.573 -1.6330  0.9375 -1.4793
 1834SOL    HW217136   1.395   2.641   7.709  0.2774 -2.0877 -1.4574
 1835SOL     OW17137   0.595   0.455   2.748  0.1018  0.0968 -1.1560
 1835SOL    HW117138   0.651   0.491   2.816  1.2142 -2.9479 -0.4362
 1835SOL    HW217139   0.649   0.383   2.715  1.7929  0.0943  1.5778
 1836SOL     OW17140   2.110   1.223  16.057 -0.1948 -0.5388  1.0411
 1836SOL    HW117141   2.202   1.238  16.076 -0.4648  2.1996  0.2264
 1836SOL    HW217142   2.099   1.223  16.152 -0.1695  0.5941  1.0419
 1837SOL     OW17143   3.716   2.897   0.315  0.0410  0.2105  0.4853
 1837SOL    HW117144   3.669   2.816   0.336 -0.6560  1.1073  2.4398
 1837SOL    HW217145   3.702   2.905   0.221 -1.7710 -1.2022  0.6340
 1838SOL     OW17146   3.578   2.671   0.613  0.0405  0.5520 -0.0778
 1838SOL    HW117147   3.630   2.694   0.690  0.9318  2.3318 -1.2328
 1838SOL    HW217148   3.508   2.615   0.648  0.2803 -0.4753 -1.2435
 1839SOL     OW17149   1.397   1.418   8.743  0.1205  0.3049 -0.4707
 1839SOL    HW117150   1.339   1.390   8.813  0.5816  0.8132  0.1099
 1839SOL    HW217151   1.346   1.399   8.664  1.2513 -4.4356 -0.0636
 1840SOL     OW17152   1.957   0.996   3.861 -0.2964  0.4996  0.1378
 1840SOL    HW117153   1.930   1.077   3.904 -2.1585  0.9416 -1.8698
 1840SOL    HW217154   1.923   1.007   3.772  1.1720 -1.4301 -0.6675
 1841SOL     OW17155   4.314   2.858   9.845  0.6526 -0.0102  0.3916
 1841SOL    HW117156   4.307   2.929   9.781 -1.5901 -1.4538 -0.9478
 1841SOL    HW217157   4.406   2.833   9.838  0.9512  1.0189  0.6016
 1842SOL     OW17158   3.440   2.596  17.643 -0.7411 -0.1094 -0.4933
 1842SOL    HW117159   3.409   2.687  17.637  1.0718  0.5709  0.1196
 1842SOL    HW217160   3.425   2.585  17.737  0.4134  2.1123 -0.0290
 1843SOL     OW17161   3.138   4.294  16.462 -0.6595  0.2965  0.0700
 1843SOL    HW117162   3.168   4.291  16.553  0.0139 -1.5436 -0.2097
 1843SOL    HW217163   3.063   4.352  16.468 -0.2208  0.7854  0.9116
 1844SOL     OW17164   2.992   3.942   3.212  0.0784 -0.2063 -0.1875
 1844SOL    HW117165   3.002   3.882   3.286  1.1068 -0.1499 -0.2802
 1844SOL    HW217166   2.897   3.932   3.217  0.1099 -0.5136 -0.1960
 1845SOL     OW17167   0.624   0.811   0.874 -0.7576 -0.4871 -0.2350
 1845SOL    HW117168   0.557   0.827   0.939 -0.1018 -0.4237  0.4239
 1845SOL    HW217169   0.616   0.891   0.822 -0.2570 -0.1393  0.2252
 1846SOL     OW17170   2.598   0.563   9.669 -0.2617 -0.1101  0.0610
 1846SOL    HW117171   2.610   0.500   9.597 -2.1322 -1.1313  0.6430
 1846SOL    HW217172   2.517   0.603   9.638 -0.7472 -1.0461  0.0993
 1847SOL     OW17173   2.343   4.683   9.989  0.4516 -0.0880  0.2932
 1847SOL    HW117174   2.303   4.645  10.068 -0.9623  0.0742 -0.3353
 1847SOL    HW217175   2.289   4.645   9.919  1.5135 -1.8067  0.4049
 1848SOL     OW17176   0.985   0.012   5.940  0.3455 -0.0965  0.2000
 1848SOL    HW117177   1.038   4.704   6.004  1.5620 -0.1733 -0.8684
 1848SOL    HW217178   0.912   0.045   5.992 -0.7998  1.5362 -2.4659
 1849SOL     OW17179   4.632   1.372  17.310  0.0570  0.5899 -0.1282
 1849SOL    HW117180   4.617   1.429  17.235 -0.4362  1.6188  0.7491
 1849SOL    HW217181   4.709   1.326  17.275 -0.0883 -0.4531  0.9154
 1850SOL     OW17182   1.290   1.356   2.695 -0.1303  0.1161 -0.0729
 1850SOL    HW117183   1.199   1.384   2.706 -0.5432 -2.0071  1.8458
 1850SOL    HW217184   1.281   1.288   2.628 -0.2645  0.0560  0.0076
 1851SOL     OW17185   2.325   0.734   2.936  0.5785 -0.1570 -0.1344
 1851SOL    HW117186   2.388   0.686   2.882  0.1352 -1.4923  0.5344
 1851SOL    HW217187   2.376   0.805   2.973  3.0720 -2.3047  0.5216
 1852SOL     OW17188   0.449   0.362  17.109  0.4797 -0.7964  0.1529
 1852SOL    HW117189   0.493   0.399  17.186 -0.3298 -0.8869  0.6559
 1852SOL    HW217190   0.519   0.357  17.044 -0.7729  0.1877 -1.2526
 1853SOL     OW17191   1.550   1.102   4.983 -0.5551  0.4299 -0.1823
 1853SOL    HW117192   1.608   1.172   4.953  2.0031 -1.2148  0.8579
 1853SOL    HW217193   1.523   1.057   4.903 -0.9282  1.7477 -0.8017
 1854SOL     OW17194   1.275   0.585   8.194 -0.7705 -0.1172  0.1923
 1854SOL    HW117195   1.187   0.608   8.162 -0.8401 -1.0086 -0.2499
 1854SOL    HW217196   1.298   0.508   8.143  0.1523  0.8184 -0.8053
 1855SOL     OW17197   1.679   1.855   9.677  0.0839 -0.1697  0.3633
 1855SOL    HW117198   1.598   1.845   9.627 -0.7557  0.7607  1.5241
 1855SOL    HW217199   1.736   1.794   9.631 -0.1487 -0.8893  1.0280
 1856SOL     OW17200   0.899   2.856   4.875  0.7556 -0.1389  0.5078
 1856SOL    HW117201   0.895   2.795   4.802  0.1041 -0.4879  0.8341
 1856SOL    HW217202   0.929   2.933   4.827 -1.7376  1.0417  0.8344
 1857SOL     OW17203   2.331   3.669   3.658  0.4590  0.3725  0.2851
 1857SOL    HW117204   2.309   3.742   3.601  1.3362 -0.3981 -1.0335
 1857SOL    HW217205   2.316   3.596   3.599  0.7956 -0.3303  1.0661
 1858SOL     OW17206   2.744   4.282   9.539  0.5941 -0.2551 -0.2909
 1858SOL    HW117207   2.704   4.332   9.609  0.6070  1.0793 -1.2460
 1858SOL    HW217208   2.670   4.288   9.479 -0.3675 -0.1612  0.9295
 1859SOL     OW17209   3.165   2.478   2.062  0.1131  0.4995 -0.1562
 1859SOL    HW117210   3.093   2.425   2.096  0.7846 -0.7798 -0.7334
 1859SOL    HW217211   3.122   2.563   2.054 -1.9234 -0.3152  2.0748
 1860SOL     OW17212   3.574   0.005  16.354 -0.4488  0.0268  0.1891
 1860SOL    HW117213   3.483   4.717  16.361  0.1139 -1.5112  1.5354
 1860SOL    HW217214   3.599   0.011  16.447 -2.2348  0.4893  0.6462
 1861SOL     OW17215   0.535   2.894   4.166  0.1835 -0.6395 -0.8548
 1861SOL    HW117216   0.456   2.942   4.141 -0.4346 -0.6173  1.1852
 1861SOL    HW217217   0.520   2.817   4.110 -0.1977 -0.6379 -0.7557
 1862SOL     OW17218   3.021   3.773   3.416 -0.1668  0.4537  0.5916
 1862SOL    HW117219   3.072   3.826   3.477 -0.3319 -0.3446  1.4366
 1862SOL    HW217220   2.940   3.759   3.466  0.2105 -2.9839  0.2493
 1863SOL     OW17221   0.430   4.012   8.500 -0.1015 -0.3897  0.7578
 1863SOL    HW117222   0.426   4.093   8.449 -0.8728 -0.7790  0.1999
 1863SOL    HW217223   0.479   4.045   8.575  2.1232  0.3372 -1.0325
 1864SOL     OW17224   3.969   2.024  16.957  0.1072 -0.4376 -0.2967
 1864SOL    HW117225   4.018   1.947  16.985  1.4882  0.7546  0.5809
 1864SOL    HW217226   4.027   2.083  16.909 -0.9382  0.1137 -0.8895
 1865SOL     OW17227   1.189   3.677   6.051 -0.1072 -0.1551  0.0513
 1865SOL    HW117228   1.161   3.637   6.133  0.5178 -0.2827  0.1978
 1865SOL    HW217229   1.242   3.750   6.083  2.7590 -2.7459  1.0934
 1866SOL     OW17230   4.227   3.665   7.888 -0.3461  0.5116  0.4039
 1866SOL    HW117231   4.209   3.747   7.934  1.1399 -0.0245  1.9510
 1866SOL    HW217232   4.194   3.597   7.948 -3.1140 -0.9596 -2.7792
 1867SOL     OW17233   3.022   3.092   8.302 -0.6711  0.2737  0.2029
 1867SOL    HW117234   2.992   3.051   8.383 -0.4903  0.9129  0.5972
 1867SOL    HW217235   2.955   3.159   8.285  1.3863  2.0534 -0.8966
 1868SOL     OW17236   3.384   2.980  15.271  0.2440 -0.1367 -0.0506
 1868SOL    HW117237   3.307   3.018  15.229 -0.0898  1.0214  1.5980
 1868SOL    HW217238   3.369   2.885  15.268  2.2151 -0.4807  0.6692
 1869SOL     OW17239   1.099   3.458   7.908  0.1322 -0.0055  0.2719
 1869SOL    HW117240   1.170   3.491   7.963  0.7772  0.7999 -1.0362
 1869SOL    HW217241   1.103   3.534   7.849 -4.2709  1.7538  2.2382
 1870SOL     OW17242   4.530   0.908   4.051  0.1192  0.0058 -0.1840
 1870SOL    HW117243   4.534   0.832   3.994  3.4668 -0.0282  0.1204
 1870SOL    HW217244   4.493   0.875   4.133 -0.3558  2.2268  0.5001
 1871SOL     OW17245   3.199   3.806  15.714 -0.0168  0.4250  0.6233
 1871SOL    HW117246   3.186   3.721  15.672  2.4124  0.6540 -0.6216
 1871SOL    HW217247   3.138   3.858  15.662  0.2829 -0.1236 -0.2858
 1872SOL     OW17248   1.711   2.679   3.729 -0.1854  0.3809 -0.2794
 1872SOL    HW117249   1.700   2.762   3.683  0.9567  1.0245  0.6106
 1872SOL    HW217250   1.797   2.691   3.769 -0.0650  1.8344 -1.0007
 1873SOL     OW17251   3.337   2.730   3.833  0.2266  0.1089  0.2253
 1873SOL    HW117252   3.326   2.651   3.779  1.4223  0.8609 -1.1270
 1873SOL    HW217253   3.427   2.727   3.867  1.3069  0.5834 -2.5781
 1874SOL     OW17254   0.055   2.279   4.200 -0.2107 -0.4007  0.3830
 1874SOL    HW117255   0.054   2.362   4.151  0.2694 -0.7659 -0.2477
 1874SOL    HW217256   0.114   2.304   4.271  3.4599 -1.5605 -2.2782
 1875SOL     OW17257   1.126   3.713   9.791 -0.0675  0.1786  0.1554
 1875SOL    HW117258   1.073   3.674   9.721  0.4912 -1.2249  0.5071
 1875SOL    HW217259   1.086   3.693   9.876 -0.2435  2.1916  0.5396
 1876SOL     OW17260   1.627   3.195  15.003  0.4990  0.4233  0.5679
 1876SOL    HW117261   1.682   3.140  15.058  0.3796 -0.7383 -0.4755
 1876SOL    HW217262   1.692   3.206  14.933  0.0090  1.3896  0.2660
 1877SOL     OW17263   1.442   3.555  13.561 -0.4759  0.4055  0.1742
 1877SOL    HW117264   1.455   3.620  13.492  1.7692 -0.4981 -0.2546
 1877SOL    HW217265   1.349   3.533  13.554  0.3250 -2.7353 -0.7853
 1878SOL     OW17266   3.593   2.835  14.352  0.5911  0.2042  0.2025
 1878SOL    HW117267   3.578   2.831  14.257  0.5307  2.2897  0.1309
 1878SOL    HW217268   3.665   2.777  14.373  1.4339  0.0915 -2.9534
 1879SOL     OW17269   0.549   1.675   3.217  0.2382 -0.2453 -0.6230
 1879SOL    HW117270   0.547   1.580   3.228  0.0033 -0.1089  0.4994
 1879SOL    HW217271   0.469   1.684   3.165  0.3764 -0.6498 -0.8980
 1880SOL     OW17272   3.303   2.697   6.897  0.2537 -0.1761 -0.2688
 1880SOL    HW117273   3.310   2.689   6.802 -2.5236  1.0345 -0.5764
 1880SOL    HW217274   3.211   2.669   6.903  0.8721 -1.8332  1.5111
 1881SOL     OW17275   3.546   4.645   7.064  0.4334  0.0558 -0.4856
 1881SOL    HW117276   3.452   4.626   7.067 -0.2180  3.0894 -1.4037
 1881SOL    HW217277   3.544   0.001   7.075 -0.9961 -0.1672  1.1937
 1882SOL     OW17278   1.495   4.417  11.764  0.2318 -0.3883  0.5980
 1882SOL    HW117279   1.509   4.354  11.693 -0.3570 -1.1485  1.1566
 1882SOL    HW217280   1.444   4.489  11.729 -1.2868 -2.8637 -2.3322
 1883SOL     OW17281   1.144   0.370   4.763  0.0700 -0.5880 -0.1900
 1883SOL    HW117282   1.145   0.387   4.858  0.9194 -3.6343  0.3378
 1883SOL    HW217283   1.082   0.439   4.738 -0.4993 -2.1659 -3.0851
 1884SOL     OW17284   1.274   0.538   6.746 -0.1807  0.5260  0.3684
 1884SOL    HW117285   1.188   0.563   6.711 -0.8145  0.8336  2.0897
 1884SOL    HW217286   1.253   0.490   6.827  2.2324 -1.4170 -0.1604
 1885SOL     OW17287   1.324   2.574   9.064 -0.3696 -0.1831 -0.1498
 1885SOL    HW117288   1.334   2.667   9.083 -1.2355  0.1547 -1.4139
 1885SOL    HW217289   1.240   2.570   9.110 -0.3650 -0.9370 -0.1953
 1886SOL     OW17290   2.417   2.141   3.509 -0.0659 -0.3023  0.4995
 1886SOL    HW117291   2.408   2.197   3.432 -0.5584 -0.0374  0.7483
 1886SOL    HW217292   2.367   2.064   3.481  3.3593 -1.8769 -1.3261
 1887SOL     OW17293   3.066   1.680   4.356  0.4953 -0.2412 -0.2720
 1887SOL    HW117294   2.998   1.663   4.421  1.0924 -0.1834  0.3736
 1887SOL    HW217295   3.016   1.652   4.279 -0.2428  1.2875 -0.3658
 1888SOL     OW17296   1.843   4.627   2.350  0.8625  0.1699 -0.8338
 1888SOL    HW117297   1.820   4.718   2.368  2.0739  0.5762 -1.3450
 1888SOL    HW217298   1.910   4.632   2.281  0.5627 -0.4414 -1.1717
 1889SOL     OW17299   3.386   4.593  13.893 -0.0639  0.0601  0.2101
 1889SOL    HW117300   3.307   4.648  13.900 -0.0930  0.0466 -0.0109
 1889SOL    HW217301   3.348   4.511  13.924  0.3397  0.2465  1.1718
 1890SOL     OW17302   0.784   4.105   8.502 -0.2973 -0.3691  0.3632
 1890SOL    HW117303   0.832   4.149   8.572  0.3402 -1.5215  0.6528
 1890SOL    HW217304   0.698   4.090   8.542 -0.8604  2.2939  0.1695
 1891SOL     OW17305   0.390   3.404  17.475 -0.2409  0.0136 -0.0367
 1891SOL    HW117306   0.425   3.318  17.453 -0.6372  0.2786 -1.7190
 1891SOL    HW217307   0.305   3.383  17.513  0.5233 -1.7259  0.7056
 1892SOL     OW17308   0.521   1.708   9.077 -0.0840  0.0421  0.0658
 1892SOL    HW117309   0.561   1.629   9.115 -0.7987 -1.6047 -2.6351
 1892SOL    HW217310   0.564   1.705   8.992  1.0947 -0.3627  0.6635
 1893SOL     OW17311   0.092   3.371   2.620  0.4977  0.5479  0.1874
 1893SOL    HW117312   0.096   3.312   2.545 -0.3870 -0.3570  0.8541
 1893SOL    HW217313   0.089   3.452   2.569 -0.3709  0.7237  0.5229
 1894SOL     OW17314   1.788   0.364   8.979  0.3495 -0.2389  0.1432
 1894SOL    HW117315   1.764   0.271   8.985  0.0055 -0.1785 -0.3152
 1894SOL    HW217316   1.737   0.396   8.905  1.2459 -1.8358 -1.1514
 1895SOL     OW17317   2.967   1.956  11.879  0.2762  0.1010  0.0446
 1895SOL    HW117318   2.889   2.000  11.913 -0.2358 -1.5319  0.9749
 1895SOL    HW217319   3.015   2.035  11.855  1.0325 -0.0826  0.9361
 1896SOL     OW17320   4.103   0.520   8.455 -0.4330 -0.1588 -0.1236
 1896SOL    HW117321   4.152   0.507   8.536 -2.1022  0.3595  0.9753
 1896SOL    HW217322   4.011   0.524   8.478 -0.0561 -0.0225  1.3197
 1897SOL     OW17323   4.676   1.491  15.817  0.3051  0.1340  0.4621
 1897SOL    HW117324   4.665   1.543  15.737 -1.8694 -1.6137 -0.3600
 1897SOL    HW217325   4.617   1.541  15.874 -0.2344 -0.6620  0.6007
 1898SOL     OW17326   1.861   0.480  16.786  0.4971 -0.3735  0.0236
 1898SOL    HW117327   1.814   0.435  16.856 -0.0122  1.0576  0.6055
 1898SOL    HW217328   1.825   0.440  16.706  1.2587 -3.4478  1.2019
 1899SOL     OW17329   3.824   0.653   3.157  0.1979  0.0221  0.6340
 1899SOL    HW117330   3.839   0.598   3.234 -0.4415 -1.9077 -0.6317
 1899SOL    HW217331   3.898   0.713   3.162 -0.6685  1.2474 -1.0498
 1900SOL     OW17332   4.626   2.767   4.935 -0.1846 -0.4633 -0.7430
 1900SOL    HW117333   4.703   2.734   4.981  0.7434  1.8489 -0.6070
 1900SOL    HW217334   4.593   2.833   4.996 -2.0621 -0.9995 -1.2048
 1901SOL     OW17335   0.635   3.063   8.225  0.6484 -0.3257 -0.0307
 1901SOL    HW117336   0.652   3.155   8.206 -1.1550 -0.2545 -1.3020
 1901SOL    HW217337   0.652   3.058   8.319 -1.0481 -1.6787  0.2029
 1902SOL     OW17338   1.459   1.491   7.139  0.4578 -0.1243  0.1751
 1902SOL    HW117339   1.385   1.498   7.199  1.1371  2.4711  0.6834
 1902SOL    HW217340   1.417   1.420   7.090  1.4935  0.3053 -1.3648
 1903SOL     OW17341   1.805   4.559   8.347 -0.2551  0.0258 -0.3691
 1903SOL    HW117342   1.787   4.583   8.256 -0.7835  0.0126 -0.2674
 1903SOL    HW217343   1.883   4.506   8.332  1.6035  3.0234 -1.3890
 1904SOL     OW17344   3.232   3.583   0.608 -0.1285  0.0891 -0.1801
 1904SOL    HW117345   3.162   3.522   0.585  0.1845 -0.0008 -0.8824
 1904SOL    HW217346   3.302   3.518   0.616  1.7203  2.2896  1.4013
 1905SOL     OW17347   2.740   0.311   9.995  0.2048  0.2067  0.4790
 1905SOL    HW117348   2.728   0.405   9.986 -0.5797  0.0196 -0.4815
 1905SOL    HW217349   2.661   0.290  10.044 -0.1856  0.4616 -0.0426
 1906SOL     OW17350   1.444   0.298  15.172 -1.0059 -0.2306 -0.2290
 1906SOL    HW117351   1.445   0.393  15.165 -0.0836 -0.5080 -3.9647
 1906SOL    HW217352   1.438   0.284  15.078  2.1800  0.3985 -0.5261
 1907SOL     OW17353   3.407   0.739   1.323 -0.3749  0.0451  0.2107
 1907SOL    HW117354   3.387   0.798   1.396 -0.1579  0.8411 -0.3727
 1907SOL    HW217355   3.497   0.756   1.295 -0.9524  3.7676  0.6435
 1908SOL     OW17356   3.224   3.070   5.168 -0.0644  0.6543 -0.2959
 1908SOL    HW117357   3.264   3.145   5.212 -0.2657  1.1809 -1.0066
 1908SOL    HW217358   3.296   3.007   5.159 -1.1822 -0.4804 -1.2978
 1909SOL     OW17359   3.632   4.454  15.060 -0.6657  0.2735  0.4539
 1909SOL    HW117360   3.538   4.462  15.045 -0.7086 -1.0369  0.0669
 1909SOL    HW217361   3.661   4.424  14.974 -1.8880 -0.1150  0.1769
 1910SOL     OW17362   1.655   2.046   8.484  0.5462 -0.2918  0.6445
 1910SOL    HW117363   1.743   2.031   8.450  0.2942  1.5524 -0.8257
 1910SOL    HW217364   1.658   2.125   8.538 -2.0910 -0.2003  0.6770
 1911SOL     OW17365   4.030   3.937  16.968  0.0289  0.0147 -0.3790
 1911SOL    HW117366   3.943   3.971  16.944  0.4291  0.9800 -0.4581
 1911SOL    HW217367   4.055   3.871  16.903  0.3087 -0.4924  0.2497
 1912SOL     OW17368   3.098   2.493   8.198 -0.7083  0.3738 -0.3079
 1912SOL    HW117369   3.034   2.545   8.148 -1.2333 -1.3258 -1.3891
 1912SOL    HW217370   3.076   2.408   8.161  0.2834  0.3972 -0.9416
 1913SOL     OW17371   1.086   1.531   3.237  0.0452  0.2732 -0.2091
 1913SOL    HW117372   1.161   1.510   3.293  1.7007  1.4672 -1.9971
 1913SOL    HW217373   1.026   1.572   3.299 -1.3273 -0.3889 -1.1052
 1914SOL     OW17374   1.842   2.310  13.711  0.2358 -0.4680  0.6874
 1914SOL    HW117375   1.904   2.238  13.724 -0.3754 -1.3362 -1.1915
 1914SOL    HW217376   1.880   2.365  13.780 -0.6180 -0.3237  1.0395
 1915SOL     OW17377   4.533   1.404   8.183  0.5676  0.8067  0.4923
 1915SOL    HW117378   4.535   1.433   8.092  0.6062  0.5653  0.4167
 1915SOL    HW217379   4.517   1.310   8.184  1.3704  0.6681  0.1788
 1916SOL     OW17380   4.559   2.899   1.161 -0.0617 -0.4455 -0.5925
 1916SOL    HW117381   4.465   2.915   1.167  0.3516  1.4864  0.7619
 1916SOL    HW217382   4.585   2.838   1.229 -0.2211 -1.1195 -1.1283
 1917SOL     OW17383   2.190   0.462   3.259 -0.2322 -0.1704 -0.1579
 1917SOL    HW117384   2.217   0.391   3.201  2.4360  1.7404 -1.2317
 1917SOL    HW217385   2.154   0.412   3.332 -0.0215 -0.6584 -0.3908
 1918SOL     OW17386   2.889   4.059   7.986 -0.1690 -0.1051  0.6022
 1918SOL    HW117387   2.891   4.013   8.070 -2.6971  0.6181  1.0540
 1918SOL    HW217388   2.908   3.992   7.920 -1.2375 -0.7189  0.9251
 1919SOL     OW17389   3.523   1.976  17.512  0.1120 -0.1673 -0.2546
 1919SOL    HW117390   3.549   2.023  17.433  1.2058  1.5840  1.1474
 1919SOL    HW217391   3.595   1.914  17.522  0.3820  0.4485  1.5885
 1920SOL     OW17392   3.567   0.632  13.083 -0.4862 -0.0126  0.2132
 1920SOL    HW117393   3.541   0.716  13.046 -3.0695 -1.7898 -1.9583
 1920SOL    HW217394   3.604   0.595  13.003 -1.3611  1.0362 -0.6776
 1921SOL     OW17395   0.077   0.986   2.703 -0.4075  0.0257 -0.0820
 1921SOL    HW117396   4.729   1.008   2.735 -0.4282 -0.5716  0.2650
 1921SOL    HW217397   0.120   1.042   2.767 -0.2723  1.1579 -1.1544
 1922SOL     OW17398   2.907   1.592   1.998  0.0380  0.4236 -0.3416
 1922SOL    HW117399   2.866   1.668   1.957  1.7304  1.6907  0.3105
 1922SOL    HW217400   2.831   1.541   2.026 -1.7458  3.0391 -0.4659
 1923SOL     OW17401   2.049   0.726   7.646 -0.4877 -0.3012  0.2253
 1923SOL    HW117402   1.966   0.681   7.663 -0.0889 -1.9470 -2.2756
 1923SOL    HW217403   2.058   0.782   7.724  1.6885 -2.0899  1.2184
 1924SOL     OW17404   0.213   3.527  11.839 -0.4675 -0.3120  0.0152
 1924SOL    HW117405   0.151   3.486  11.899 -0.5144  1.5479  1.2170
 1924SOL    HW217406   0.176   3.497  11.757 -1.2533 -3.0301  1.3642
 1925SOL     OW17407   2.809   2.633   1.094 -0.1771 -0.2002  0.5294
 1925SOL    HW117408   2.800   2.577   1.016 -2.3778 -0.6074  1.0746
 1925SOL    HW217409   2.776   2.574   1.162  0.1575 -0.7424  0.2231
 1926SOL     OW17410   4.498   2.512   1.226  0.4108 -0.4032 -0.1896
 1926SOL    HW117411   4.420   2.505   1.279 -0.6333  0.1190 -1.6571
 1926SOL    HW217412   4.546   2.575   1.279 -0.6232  0.0964  0.1403
 1927SOL     OW17413   0.207   4.103   8.842  0.1292 -0.8191  0.0050
 1927SOL    HW117414   0.261   4.176   8.811 -0.0429  0.0145  1.6579
 1927SOL    HW217415   0.127   4.123   8.793  0.3661 -2.5894 -1.0713
 1928SOL     OW17416   1.953   2.851   5.064 -0.2418 -0.0287  0.1677
 1928SOL    HW117417   1.918   2.888   5.146  2.6745  0.5888  1.1577
 1928SOL    HW217418   1.963   2.759   5.088 -2.2339 -0.5664 -1.0759
 1929SOL     OW17419   3.480   4.578  10.344  0.0000  0.3369 -0.3436
 1929SOL    HW117420   3.448   4.577  10.435 -0.0927 -3.1742 -0.4431
 1929SOL    HW217421   3.441   4.657  10.306  1.2299 -0.3270 -2.9799
 1930SOL     OW17422   4.263   1.325   4.052  0.3853  0.0402  0.2160
 1930SOL    HW117423   4.310   1.261   3.998  1.3678  1.9814 -1.2249
 1930SOL    HW217424   4.241   1.265   4.124  1.7883 -0.7738 -0.0460
 1931SOL     OW17425   1.726   1.011   4.472 -0.3183 -0.0438  0.1351
 1931SOL    HW117426   1.760   1.064   4.400 -2.0887  1.1283  0.1357
 1931SOL    HW217427   1.634   1.008   4.447 -0.2325  0.8319 -0.3045
 1932SOL     OW17428   1.544   3.358  17.181  0.3231  0.4439 -0.1832
 1932SOL    HW117429   1.511   3.281  17.135 -1.0729  0.5138  0.7239
 1932SOL    HW217430   1.538   3.428  17.115  2.4147  0.6221 -0.1944
 1933SOL     OW17431   3.999   0.834  15.137 -0.4145  0.2174 -0.6144
 1933SOL    HW117432   3.983   0.752  15.183  2.7715  0.1102  0.2733
 1933SOL    HW217433   4.066   0.807  15.075  1.0026 -1.9514  1.8761
 1934SOL     OW17434   2.157   4.738  13.971 -0.4866 -0.1480 -0.3650
 1934SOL    HW117435   2.069   0.028  13.946 -0.2053 -0.0461 -1.2412
 1934SOL    HW217436   2.191   0.072  14.022  1.9474  0.0940 -2.3160
 1935SOL     OW17437   0.223   1.814   7.194  0.4511  0.0846 -0.6663
 1935SOL    HW117438   0.248   1.843   7.106 -1.0000  0.2323 -1.0169
 1935SOL    HW217439   0.129   1.825   7.181 -0.4498 -4.2261  2.1577
 1936SOL     OW17440   2.397   1.762   3.454 -0.0128 -0.4361 -0.2808
 1936SOL    HW117441   2.415   1.774   3.547 -0.7644 -1.9550  0.0509
 1936SOL    HW217442   2.481   1.802   3.429 -0.0652 -1.4657 -2.0866
 1937SOL     OW17443   0.547   3.389   7.291  0.3787 -0.1841  0.1341
 1937SOL    HW117444   0.477   3.423   7.347 -1.1303 -2.6130 -0.2680
 1937SOL    HW217445   0.508   3.427   7.213  1.1128 -0.4648 -0.3700
 1938SOL     OW17446   2.095   4.239   1.406  0.3281  0.3831  0.7780
 1938SOL    HW117447   2.069   4.329   1.424  2.0035  0.4255  2.8771
 1938SOL    HW217448   2.180   4.265   1.370  0.5547  0.1119  1.1219
 1939SOL     OW17449   4.420   3.506   6.245 -0.0598  0.3064 -0.2370
 1939SOL    HW117450   4.436   3.415   6.270 -0.4898  0.3013  0.0288
 1939SOL    HW217451   4.478   3.516   6.170  1.6392 -0.1261  1.0244
 1940SOL     OW17452   1.949   1.729   3.340  0.0185 -0.6191 -0.0951
 1940SOL    HW117453   2.036   1.719   3.301  0.7939  0.2905  1.3518
 1940SOL    HW217454   1.963   1.776   3.423  0.2371 -2.5452  0.9702
 1941SOL     OW17455   3.122   0.258   8.331 -0.0744  0.0703 -0.0524
 1941SOL    HW117456   3.076   0.279   8.249  0.1962 -0.4877 -0.3493
 1941SOL    HW217457   3.079   0.307   8.401  1.1825 -0.7906  1.3106
 1942SOL     OW17458   4.164   2.814   0.958 -0.5747 -1.2904 -0.6014
 1942SOL    HW117459   4.241   2.758   0.970  0.1859 -0.5709 -2.1180
 1942SOL    HW217460   4.142   2.805   0.865 -0.0124 -2.3681 -0.6264
 1943SOL     OW17461   1.739   1.913   3.671  0.2544 -0.0355  0.0141
 1943SOL    HW117462   1.808   1.937   3.609  0.9802 -1.1004  0.3983
 1943SOL    HW217463   1.768   1.958   3.750 -0.0393 -0.2143  0.2234
 1944SOL     OW17464   3.900   4.293   4.537 -0.0044  1.0910 -0.1718
 1944SOL    HW117465   3.942   4.213   4.568 -0.1466  0.8402 -0.6276
 1944SOL    HW217466   3.984   4.335   4.517  0.4963  0.4462  0.5570
 1945SOL     OW17467   1.275   2.284   4.956  0.0618 -0.4169  0.0035
 1945SOL    HW117468   1.225   2.326   4.886 -0.5800 -0.6737  0.3060
 1945SOL    HW217469   1.342   2.232   4.912  0.1753 -1.8984  1.9104
 1946SOL     OW17470   4.487   0.532   8.643  0.7902 -0.6622 -0.4418
 1946SOL    HW117471   4.551   0.601   8.628 -0.7408  1.3328  2.0912
 1946SOL    HW217472   4.511   0.496   8.728 -0.7093 -0.2491  0.1632
 1947SOL     OW17473   2.772   4.095   5.207  0.2779 -0.2760  0.0315
 1947SOL    HW117474   2.758   4.178   5.252 -1.0831 -1.3343  1.5483
 1947SOL    HW217475   2.853   4.067   5.251 -0.4982 -3.0114 -0.2445
 1948SOL     OW17476   4.124   4.616  15.846  0.1778  0.1796  0.5509
 1948SOL    HW117477   4.032   4.642  15.845  0.5072  1.3144 -0.3141
 1948SOL    HW217478   4.116   4.553  15.918  0.7520  1.2154  1.5269
 1949SOL     OW17479   4.035   3.555   3.428 -0.1627  0.5545 -0.0286
 1949SOL    HW117480   4.016   3.503   3.350  2.9846  0.1583 -0.5230
 1949SOL    HW217481   4.125   3.524   3.426 -0.6979 -1.0421  0.6082
 1950SOL     OW17482   4.520   4.016   4.060  0.5752  0.3846  0.2791
 1950SOL    HW117483   4.581   3.990   3.991  0.4544  0.8316  0.0016
 1950SOL    HW217484   4.521   4.111   4.052 -1.8729  0.3241 -0.7110
 1951SOL     OW17485   3.323   2.074   3.986 -0.4646  0.2025 -0.3680
 1951SOL    HW117486   3.241   2.122   3.973 -1.2022 -1.3826 -1.4890
 1951SOL    HW217487   3.393   2.140   3.991 -1.8498  1.5066  1.9553
 1952SOL     OW17488   2.916   4.344   4.310 -0.0178 -0.1745 -0.3982
 1952SOL    HW117489   2.890   4.434   4.292 -1.3764 -0.7505 -1.2622
 1952SOL    HW217490   2.828   4.307   4.303  0.1427 -0.6779  0.2441
 1953SOL     OW17491   3.250   0.657   2.506 -0.0471 -0.0406  0.0280
 1953SOL    HW117492   3.311   0.627   2.438 -0.5044  0.8856 -0.7959
 1953SOL    HW217493   3.274   0.602   2.580  0.0450  0.8640  0.6691
 1954SOL     OW17494   1.849   0.536  14.641  0.0297 -0.1459  0.3868
 1954SOL    HW117495   1.798   0.573  14.713  0.1987 -2.7010  1.8263
 1954SOL    HW217496   1.860   0.617  14.592  0.2730 -0.7108 -0.4976
 1955SOL     OW17497   1.785   4.100   7.849 -0.1356 -0.2893 -0.1413
 1955SOL    HW117498   1.866   4.055   7.874 -0.1753  0.2182  0.8928
 1955SOL    HW217499   1.818   4.170   7.793 -0.7178  1.6957  2.0108
 1956SOL     OW17500   3.703   0.488   1.243 -0.4327  0.1127  0.1782
 1956SOL    HW117501   3.665   0.575   1.258  0.4792  0.6584 -0.6869
 1956SOL    HW217502   3.632   0.428   1.267 -2.5279  1.9243 -1.4341
 1957SOL     OW17503   1.882   3.756   1.571  0.1238 -0.4539  0.1014
 1957SOL    HW117504   1.891   3.850   1.555 -1.2170 -0.1272  1.3024
 1957SOL    HW217505   1.924   3.744   1.656  1.1324  2.3995  0.0107
 1958SOL     OW17506   3.168   4.305  14.198  0.4400  0.3496  0.5378
 1958SOL    HW117507   3.225   4.370  14.238  1.9086  0.8829 -2.4732
 1958SOL    HW217508   3.123   4.347  14.124  2.4264  1.2110 -0.1643
 1959SOL     OW17509   2.052   1.792   3.608  0.3399 -0.1934 -0.5442
 1959SOL    HW117510   2.019   1.804   3.697 -2.2722 -0.0993 -1.5267
 1959SOL    HW217511   2.096   1.707   3.619 -2.7508 -1.9887 -1.8018
 1960SOL     OW17512   4.067   2.485   3.545 -0.1866  0.2255 -0.0080
 1960SOL    HW117513   4.038   2.575   3.563  4.1532  0.9209  3.3769
 1960SOL    HW217514   4.144   2.501   3.490 -1.6779  0.0138 -2.1558
 1961SOL     OW17515   1.917   0.964  10.246  0.6557 -0.2189  0.2866
 1961SOL    HW117516   1.906   0.887  10.301  1.3355 -1.0143 -0.6998
 1961SOL    HW217517   1.944   1.034  10.305  1.0451 -0.7008  0.6748
 1962SOL     OW17518   1.946   1.908   7.748  0.7172  0.2520  0.1440
 1962SOL    HW117519   1.963   1.875   7.660  1.3227  3.1599 -0.8410
 1962SOL    HW217520   1.952   1.825   7.795 -0.5760  1.1767  1.9647
 1963SOL     OW17521   4.711   1.650   2.087 -0.1293  0.3203  0.3317
 1963SOL    HW117522   4.717   1.700   2.169  1.2546 -2.0876  1.7059
 1963SOL    HW217523   4.700   1.561   2.122 -2.0321  0.3114 -0.2783
 1964SOL     OW17524   4.104   1.744   7.412 -0.2099 -0.1416  0.4258
 1964SOL    HW117525   4.018   1.777   7.388 -0.3254  0.3430  1.5064
 1964SOL    HW217526   4.078   1.672   7.470  2.8687 -2.1494 -0.6904
 1965SOL     OW17527   1.401   3.300   5.678 -0.4269  0.0173  0.2270
 1965SOL    HW117528   1.455   3.266   5.606  1.0874 -1.5072  2.1094
 1965SOL    HW217529   1.343   3.226   5.692 -0.0613 -0.4265 -0.5391
 1966SOL     OW17530   4.420   1.209   5.735 -0.0942  0.3762  0.0973
 1966SOL    HW117531   4.481   1.142   5.705 -0.4597 -0.4080  1.1218
 1966SOL    HW217532   4.445   1.278   5.673 -0.1896  0.8294  0.5578
 1967SOL     OW17533   3.575   2.099  11.635  0.0472 -0.5156 -0.3698
 1967SOL    HW117534   3.641   2.091  11.566  1.5749 -0.6481  1.1154
 1967SOL    HW217535   3.553   2.191  11.623 -1.9810 -1.2172 -1.9877
 1968SOL     OW17536   3.793   2.244   6.467 -0.0633 -0.0821 -0.0140
 1968SOL    HW117537   3.805   2.149   6.463 -1.5651 -0.2714 -0.1639
 1968SOL    HW217538   3.849   2.273   6.395 -0.1801  0.4338  0.1034
 1969SOL     OW17539   2.345   3.774  11.311  0.6160  0.3520  0.4740
 1969SOL    HW117540   2.259   3.754  11.348  0.3976  1.1843  0.4089
 1969SOL    HW217541   2.337   3.859  11.269 -1.2159  0.9330  1.9840
 1970SOL     OW17542   0.281   2.206   7.811  0.1317 -0.7198 -0.0441
 1970SOL    HW117543   0.271   2.233   7.719 -0.8117  1.3249  0.6634
 1970SOL    HW217544   0.253   2.283   7.860 -0.1090  0.5988 -2.2522
 1971SOL     OW17545   4.568   2.748   5.728 -0.5055  0.1089 -0.0323
 1971SOL    HW117546   4.539   2.759   5.819  1.2589  0.2806  0.5236
 1971SOL    HW217547   4.511   2.813   5.689  0.1736  1.5110  1.2796
 1972SOL     OW17548   2.253   0.732  13.410 -0.3376 -0.0639  0.0976
 1972SOL    HW117549   2.260   0.680  13.490  1.1427  0.5783  0.3944
 1972SOL    HW217550   2.341   0.725  13.373 -0.9922 -0.6998 -1.3501
 1973SOL     OW17551   2.871   2.159   3.843  0.6393 -0.1051 -0.1500
 1973SOL    HW117552   2.898   2.078   3.800  1.2807  0.6295 -1.1341
 1973SOL    HW217553   2.874   2.218   3.767  2.3365  1.6887  1.3104
 1974SOL     OW17554   1.018   2.862   4.004  0.0215 -0.3280 -0.0652
 1974SOL    HW117555   1.084   2.825   4.063  1.7066 -0.8076 -2.2633
 1974SOL    HW217556   0.963   2.910   4.066 -2.6622 -0.5340 -2.2639
 1975SOL     OW17557   3.084   2.248  10.417 -0.0254  0.8888  0.5502
 1975SOL    HW117558   3.050   2.180  10.358 -0.6691  0.4950  1.3864
 1975SOL    HW217559   3.114   2.309  10.348  0.8254 -1.4415 -1.1638
 1976SOL     OW17560   2.268   0.043   7.085 -0.2093 -0.7735 -0.3852
 1976SOL    HW117561   2.351   0.052   7.039 -0.4906  2.0351 -0.3131
 1976SOL    HW217562   2.205   0.015   7.018  0.6691  0.9445 -1.9347
 1977SOL     OW17563   0.526   1.447  12.976  0.5632 -0.5611  0.4269
 1977SOL    HW117564   0.465   1.376  12.999  1.3595 -1.3185  0.2165
 1977SOL    HW217565   0.559   1.423  12.889 -0.6084 -1.3313  0.1901
 1978SOL     OW17566   0.918   1.939  11.236  0.0796  0.3890  0.9534
 1978SOL    HW117567   0.887   1.949  11.146  2.0956  1.1131  0.3499
 1978SOL    HW217568   1.012   1.939  11.221 -0.0493 -1.2452  0.1468
 1979SOL     OW17569   1.565   1.507   4.547 -0.3456  0.5387 -0.0246
 1979SOL    HW117570   1.482   1.490   4.503 -1.2517  0.2671  1.8161
 1979SOL    HW217571   1.531   1.544   4.628 -0.4739 -0.3715  0.3303
 1980SOL     OW17572   0.326   3.081  13.858  0.4307  1.0053 -0.0984
 1980SOL    HW117573   0.303   3.059  13.948  1.9002 -0.0375  0.0153
 1980SOL    HW217574   0.316   3.176  13.853 -0.6167  0.9212  0.4212
 1981SOL     OW17575   1.503   1.648   4.781  0.2291  0.2106 -0.4491
 1981SOL    HW117576   1.467   1.579   4.838 -0.3100  0.5920 -0.3310
 1981SOL    HW217577   1.517   1.712   4.850 -2.3899  1.5089 -1.1515
 1982SOL     OW17578   1.831   4.234   9.048  0.2720 -0.1827 -0.0955
 1982SOL    HW117579   1.850   4.166   9.112  1.5518 -1.1286 -1.4656
 1982SOL    HW217580   1.739   4.239   9.074  0.1125 -0.6010 -0.5740
 1983SOL     OW17581   3.391   1.960   1.927  0.0809  0.0040 -0.4736
 1983SOL    HW117582   3.467   2.002   1.887  1.9026 -1.8055  1.1050
 1983SOL    HW217583   3.372   2.010   2.006  0.0645 -0.1054 -0.4083
 1984SOL     OW17584   2.132   2.932   4.857  0.0325  0.0033  0.6650
 1984SOL    HW117585   2.065   2.902   4.918  0.6832 -0.1059  1.3281
 1984SOL    HW217586   2.143   2.857   4.798  0.0662  2.3324 -2.2615
 1985SOL     OW17587   1.024   1.155   0.268  0.3899  0.1542 -0.1186
 1985SOL    HW117588   1.014   1.147   0.363  0.4573 -1.2206 -0.2146
 1985SOL    HW217589   1.112   1.120   0.254 -0.1896 -0.9788 -1.0088
 1986SOL     OW17590   3.133   2.165   5.993 -0.7308  0.6713  0.0878
 1986SOL    HW117591   3.163   2.220   6.065  0.1571 -2.6585  2.2668
 1986SOL    HW217592   3.171   2.211   5.917 -0.3431  1.7279  0.9249
 1987SOL     OW17593   3.838   4.107  17.587  0.3088 -0.8221  0.8520
 1987SOL    HW117594   3.904   4.082  17.522 -1.3000 -0.4782 -0.9127
 1987SOL    HW217595   3.878   4.167  17.650 -1.0427  2.7886 -1.7401
 1988SOL     OW17596   0.012   0.449   4.455  0.1144 -0.3297  0.5318
 1988SOL    HW117597   0.078   0.396   4.499  1.6192  0.4813 -0.7564
 1988SOL    HW217598   4.726   0.526   4.505 -1.0853  2.2781 -4.0466
 1989SOL     OW17599   2.207   0.479   4.300 -0.1030  0.4619 -0.1591
 1989SOL    HW117600   2.206   0.387   4.326  1.1969  0.8594  1.3561
 1989SOL    HW217601   2.255   0.474   4.217 -0.4572 -0.1735 -0.3236
 1990SOL     OW17602   0.310   4.259   6.205 -0.2590 -0.0295  0.2634
 1990SOL    HW117603   0.378   4.240   6.270  1.6413  0.2209 -1.6504
 1990SOL    HW217604   0.283   4.343   6.244 -2.1733 -1.1346  1.2952
 1991SOL     OW17605   3.284   0.920   7.076 -0.3293 -0.1250  0.1109
 1991SOL    HW117606   3.308   0.859   7.146 -1.6095  0.2504  0.8848
 1991SOL    HW217607   3.220   0.973   7.124 -1.5433 -1.7849  0.3091
 1992SOL     OW17608   1.931   2.194   4.789 -0.4851 -0.1982 -0.2131
 1992SOL    HW117609   1.949   2.240   4.707 -2.0700 -0.5785 -0.7624
 1992SOL    HW217610   1.885   2.116   4.758  1.4084 -1.4143  0.0024
 1993SOL     OW17611   4.573   3.447   8.672 -0.2773 -0.2519  0.1842
 1993SOL    HW117612   4.630   3.484   8.740  1.8551 -1.3984 -0.9794
 1993SOL    HW217613   4.526   3.386   8.729 -0.4698  1.7552  2.1385
 1994SOL     OW17614   0.572   0.538   6.437  0.0640 -0.1851 -0.0442
 1994SOL    HW117615   0.510   0.604   6.469  1.7203  0.5159  1.7297
 1994SOL    HW217616   0.639   0.597   6.401  1.8709 -1.0353  1.9851
 1995SOL     OW17617   3.924   2.361   3.757 -0.2450  0.0632  0.1472
 1995SOL    HW117618   3.832   2.336   3.748 -0.0874 -0.9381  1.3541
 1995SOL    HW217619   3.941   2.391   3.667 -1.0355  1.1055  0.3480
 1996SOL     OW17620   4.614   3.121   4.510 -0.7125  0.1697  0.3109
 1996SOL    HW117621   4.567   3.041   4.488 -0.6613  0.4944 -1.0133
 1996SOL    HW217622   4.605   3.120   4.605  1.0414 -1.6279  0.4607
 1997SOL     OW17623   2.291   0.984  17.019  0.9233  0.1440 -0.3265
 1997SOL    HW117624   2.359   1.016  16.960  2.0440 -2.9238 -0.6813
 1997SOL    HW217625   2.270   0.902  16.973  1.6078  0.4056 -1.1037
 1998SOL     OW17626   3.086   3.560   5.362 -0.8198 -0.7024  0.0452
 1998SOL    HW117627   3.060   3.471   5.389  1.6386 -1.2568  0.6069
 1998SOL    HW217628   3.166   3.556   5.309 -1.9120  1.9706 -1.8019
 1999SOL     OW17629   3.963   2.212   6.765 -0.1540  0.0175  0.9424
 1999SOL    HW117630   3.868   2.222   6.773 -0.2666  0.0426 -0.5103
 1999SOL    HW217631   4.003   2.220   6.852  0.6683 -1.8889  0.7231
 2000SOL     OW17632   1.927   0.058   7.392 -0.7918  0.5974  0.2714
 2000SOL    HW117633   1.894   4.710   7.412 -2.2099  1.5860  2.2191
 2000SOL    HW217634   2.021   0.048   7.402 -0.5409  0.5581 -2.1571
 2001SOL     OW17635   4.099   4.258  13.399  0.2138  0.6795 -0.1748
 2001SOL    HW117636   4.126   4.329  13.340 -1.0699  0.6243 -0.8264
 2001SOL    HW217637   4.167   4.194  13.379  0.9285  1.3810  0.0086
 2002SOL     OW17638   3.599   0.134   9.639 -0.3617  0.5502  0.2729
 2002SOL    HW117639   3.682   0.132   9.591 -0.6135 -0.7930 -0.1086
 2002SOL    HW217640   3.611   0.052   9.686  1.4047 -0.4734 -1.9462
 2003SOL     OW17641   2.971   0.417  17.477  0.2384 -0.2017  0.5703
 2003SOL    HW117642   2.992   0.392  17.387  0.4428  1.8376  0.0449
 2003SOL    HW217643   3.010   0.340  17.518  0.0313 -0.6295 -0.0373
 2004SOL     OW17644   3.996   2.470   5.860 -0.9514  0.3820 -0.0938
 2004SOL    HW117645   3.921   2.410   5.851 -0.5210 -0.3106  0.8828
 2004SOL    HW217646   4.066   2.406   5.846 -1.7551  0.2129 -3.3298
 2005SOL     OW17647   2.297   3.096   0.644  0.2548 -0.9005 -0.4242
 2005SOL    HW117648   2.298   3.137   0.557  1.2677 -2.9354 -1.3618
 2005SOL    HW217649   2.300   3.003   0.624  0.7563 -1.3304  1.7250
 2006SOL     OW17650   4.627   1.678   6.895 -0.3151 -0.1223 -0.3526
 2006SOL    HW117651   4.587   1.745   6.839 -2.1379 -0.8130  0.1132
 2006SOL    HW217652   4.604   1.595   6.853 -2.3540  0.9980 -1.4236
 2007SOL     OW17653   4.677   2.588   9.461 -0.1129 -0.2159  0.4613
 2007SOL    HW117654   4.706   2.643   9.388  1.6216 -0.1320  1.2261
 2007SOL    HW217655   4.665   2.505   9.414 -1.0022 -0.7105  1.5647
 2008SOL     OW17656   3.183   3.944  17.142  0.2872  0.1320  0.5361
 2008SOL    HW117657   3.151   4.033  17.151  2.2279  0.7258  1.5105
 2008SOL    HW217658   3.133   3.904  17.213  3.2573 -1.3939  1.7446
 2009SOL     OW17659   3.147   4.491   7.880  0.0211  0.0049 -0.4667
 2009SOL    HW117660   3.084   4.440   7.831  0.6556 -0.9157 -0.3271
 2009SOL    HW217661   3.089   4.522   7.949  1.1457  1.1057 -0.0000
 2010SOL     OW17662   4.058   3.427  12.590  0.8852 -0.2042 -0.1695
 2010SOL    HW117663   4.005   3.421  12.669 -0.3412  0.4461 -0.9362
 2010SOL    HW217664   4.019   3.502  12.545  1.8805  1.5114  1.8558
 2011SOL     OW17665   0.145   1.744   3.982  0.2516  0.2323 -0.0774
 2011SOL    HW117666   0.066   1.695   4.003  0.2469 -0.1171 -0.8979
 2011SOL    HW217667   0.201   1.727   4.057 -0.0452  1.6485  0.4583
 2012SOL     OW17668   3.631   2.846   4.346  0.0892 -0.2237 -0.2872
 2012SOL    HW117669   3.670   2.886   4.268  0.2533  0.5226  0.1729
 2012SOL    HW217670   3.671   2.902   4.413 -0.4560 -1.3602  0.9774
 2013SOL     OW17671   1.131   3.089   2.778 -0.1290 -0.0367  0.0766
 2013SOL    HW117672   1.122   3.022   2.710  1.5377 -1.4486  1.2391
 2013SOL    HW217673   1.200   3.148   2.745 -1.1878  0.2917 -1.5245
 2014SOL     OW17674   1.722   3.570  13.604  0.1982  0.7347  0.0299
 2014SOL    HW117675   1.627   3.559  13.595  0.3674  1.5923 -2.7354
 2014SOL    HW217676   1.750   3.546  13.516  0.7407 -0.5168  0.5329
 2015SOL     OW17677   2.899   2.244  11.774  0.4015 -0.3682  0.1882
 2015SOL    HW117678   2.930   2.316  11.829  0.3674 -0.4737  0.3455
 2015SOL    HW217679   2.974   2.206  11.728  0.8965  0.1131  0.6039
 2016SOL     OW17680   2.091   1.052   6.511  0.1110 -0.1267 -0.2428
 2016SOL    HW117681   2.120   1.137   6.476 -1.4773 -0.2046 -1.7506
 2016SOL    HW217682   2.104   1.072   6.603 -1.3891  1.8018 -0.4486
 2017SOL     OW17683   4.733   2.074   7.661 -0.4590 -0.4485  0.3467
 2017SOL    HW117684   4.694   2.087   7.575  0.6027  3.9099  0.5061
 2017SOL    HW217685   0.087   2.070   7.643 -0.4939 -0.3262  0.1461
 2018SOL     OW17686   0.540   1.254   0.783 -0.6755  0.2006  0.4974
 2018SOL    HW117687   0.489   1.324   0.823 -0.4419 -0.1971  1.4927
 2018SOL    HW217688   0.470   1.210   0.735  0.4869  1.0608 -1.9570
 2019SOL     OW17689   2.924   1.549   8.664 -0.2027 -0.0884  0.4016
 2019SOL    HW117690   3.017   1.571   8.673 -0.3364  1.1503 -1.4711
 2019SOL    HW217691   2.914   1.461   8.701  0.5266  0.4614  1.9036
 2020SOL     OW17692   3.849   2.880  13.534 -0.3104  0.2902 -0.1880
 2020SOL    HW117693   3.794   2.929  13.595 -1.1713 -0.0923 -0.6615
 2020SOL    HW217694   3.901   2.957  13.511  0.4771 -0.4560 -0.9376
 2021SOL     OW17695   1.431   2.239   2.839  0.3210 -0.0688 -0.5348
 2021SOL    HW117696   1.526   2.250   2.850  0.4804 -0.8508 -1.1127
 2021SOL    HW217697   1.405   2.281   2.920  2.4258  0.2278 -0.0140
 2022SOL     OW17698   0.524   2.455  16.424  0.2268 -0.3925  0.2920
 2022SOL    HW117699   0.600   2.506  16.396  1.7905 -1.8874  1.7997
 2022SOL    HW217700   0.517   2.489  16.513  0.4223  1.9424 -0.5959
 2023SOL     OW17701   0.199   3.591   6.873  0.2296  0.4397  0.3412
 2023SOL    HW117702   0.172   3.559   6.787 -0.9148  0.6847  0.6168
 2023SOL    HW217703   0.272   3.644   6.841 -0.9184  0.5848 -2.0448
 2024SOL     OW17704   4.130   0.131   8.769  0.1623  0.1797  0.0330
 2024SOL    HW117705   4.150   0.038   8.763 -0.6879  0.1432 -2.3931
 2024SOL    HW217706   4.179   0.163   8.693 -0.0733  1.8621  0.5776
 2025SOL     OW17707   3.873   2.295   3.403  0.0565  0.1487 -0.3887
 2025SOL    HW117708   3.928   2.372   3.390  2.0210 -1.2597 -0.4610
 2025SOL    HW217709   3.929   2.217   3.405  0.5645  0.5739  2.3000
 2026SOL     OW17710   3.534   2.892   4.805  0.2095 -0.1187 -0.2795
 2026SOL    HW117711   3.459   2.953   4.804  0.5324  0.2724 -0.7278
 2026SOL    HW217712   3.601   2.959   4.816 -1.6935  1.2879  2.8429
 2027SOL     OW17713   0.796   2.118   8.937 -0.2377  0.6503 -0.1225
 2027SOL    HW117714   0.761   2.117   9.027 -0.1611  0.0763 -0.0995
 2027SOL    HW217715   0.728   2.065   8.896  0.1606 -0.3450  0.5056
 2028SOL     OW17716   3.608   0.624  10.150  0.1763  0.0796  0.0041
 2028SOL    HW117717   3.629   0.716  10.168 -1.7140  0.6981 -0.9612
 2028SOL    HW217718   3.521   0.638  10.113 -0.3148  1.9910  1.8518
 2029SOL     OW17719   4.068   0.521   8.173  0.4357 -0.0575 -0.4136
 2029SOL    HW117720   4.064   0.601   8.120  0.0138 -0.3212 -0.7796
 2029SOL    HW217721   4.070   0.537   8.267 -1.6554  0.2389 -0.4155
 2030SOL     OW17722   0.241   0.349   1.974 -0.1934  0.2159 -0.2954
 2030SOL    HW117723   0.182   0.383   2.042 -1.6009 -0.6593 -1.0722
 2030SOL    HW217724   0.202   0.367   1.888 -0.4262 -1.1222 -0.4732
 2031SOL     OW17725   3.205   0.702   5.009  0.0427  0.2842  0.6120
 2031SOL    HW117726   3.256   0.734   4.934  1.1749  1.0191  1.6963
 2031SOL    HW217727   3.137   0.769   5.012  0.8375  1.1041 -0.0099
 2032SOL     OW17728   3.459   3.891   2.710 -0.1202 -0.1839  0.9068
 2032SOL    HW117729   3.437   3.983   2.725 -2.1472 -0.2991 -1.3947
 2032SOL    HW217730   3.544   3.902   2.667  0.2955 -1.8373  1.2924
 2033SOL     OW17731   4.316   0.687   1.209  0.3761  0.1121 -0.0242
 2033SOL    HW117732   4.348   0.680   1.299  0.1691 -2.0684 -0.1216
 2033SOL    HW217733   4.382   0.744   1.168 -0.3168 -0.3165 -1.7153
 2034SOL     OW17734   4.058   0.880   8.061 -0.2708  0.1537  0.4999
 2034SOL    HW117735   4.092   0.903   8.148  1.6531  0.1188 -0.2446
 2034SOL    HW217736   4.051   0.965   8.016  1.6207 -0.2765 -0.5997
 2035SOL     OW17737   1.536   2.589  16.502  0.2957  0.3206 -0.1829
 2035SOL    HW117738   1.510   2.664  16.448 -0.6900 -0.4892 -0.8285
 2035SOL    HW217739   1.464   2.527  16.493 -0.8629  1.7158 -0.4767
 2036SOL     OW17740   1.468   3.713  13.321  0.6477 -0.1448  0.3917
 2036SOL    HW117741   1.419   3.792  13.298  1.9782  0.2476 -1.0908
 2036SOL    HW217742   1.554   3.724  13.281  0.5468 -0.8563 -0.0017
 2037SOL     OW17743   0.481   4.489   6.649  0.7277 -0.1739  0.5463
 2037SOL    HW117744   0.531   4.411   6.626  1.1763  0.7145 -1.5041
 2037SOL    HW217745   0.436   4.457   6.727  0.2076  1.2798  0.8479
 2038SOL     OW17746   3.998   0.572   6.026  0.0909 -0.7245  0.3301
 2038SOL    HW117747   4.049   0.498   5.991  1.3475  0.2702  0.0469
 2038SOL    HW217748   3.906   0.546   6.026 -0.1398  0.0871 -0.9686
 2039SOL     OW17749   2.535   1.293   4.685 -0.3843 -0.1945 -0.0542
 2039SOL    HW117750   2.556   1.207   4.721 -0.5631 -0.0363  0.4290
 2039SOL    HW217751   2.501   1.338   4.763  2.5647  0.6196  0.7659
 2040SOL     OW17752   0.949   3.848  16.778 -0.1001  0.2799  0.1719
 2040SOL    HW117753   0.936   3.783  16.709 -0.7773  1.6332 -0.9626
 2040SOL    HW217754   1.038   3.878  16.762  1.0169 -2.4654  1.1505
 2041SOL     OW17755   2.824   3.316   2.850  0.2605  0.4025 -0.6220
 2041SOL    HW117756   2.752   3.340   2.791 -0.4720  2.4220  1.1097
 2041SOL    HW217757   2.893   3.307   2.785 -0.7505 -2.7763 -1.2543
 2042SOL     OW17758   1.952   2.104   5.388 -0.3686  0.1859  0.4446
 2042SOL    HW117759   2.035   2.101   5.340  0.6898  0.3519  2.2893
 2042SOL    HW217760   1.914   2.019   5.366  1.0957 -0.5644  0.7998
 2043SOL     OW17761   3.620   2.943  17.415 -0.7674 -0.1462 -0.5004
 2043SOL    HW117762   3.580   2.856  17.414 -0.0295 -0.5146  0.8924
 2043SOL    HW217763   3.615   2.966  17.508 -1.2129  1.7837 -1.0026
 2044SOL     OW17764   2.898   3.009   1.755 -0.1229 -0.1441  0.6135
 2044SOL    HW117765   2.987   3.043   1.758 -1.2485  2.7255  1.5091
 2044SOL    HW217766   2.904   2.943   1.686 -0.0968  0.9987 -0.4756
 2045SOL     OW17767   2.700   4.388   6.997 -0.1008  0.1409  0.2162
 2045SOL    HW117768   2.696   4.449   7.071 -0.4456  0.8630 -0.3961
 2045SOL    HW217769   2.610   4.357   6.994  0.4614 -1.7076  2.7329
 2046SOL     OW17770   1.560   3.397  12.320  0.6452  0.2155  0.1391
 2046SOL    HW117771   1.495   3.333  12.291  0.8822  0.3042 -0.6143
 2046SOL    HW217772   1.508   3.431  12.392  0.3166 -2.0475  0.9488
 2047SOL     OW17773   0.099   0.696   0.443  0.2285 -0.0906 -0.4727
 2047SOL    HW117774   0.084   0.637   0.369 -0.3512 -1.1250  0.4798
 2047SOL    HW217775   0.171   0.753   0.416  0.7229 -0.0760  0.8875
 2048SOL     OW17776   4.711   2.923   7.795  0.3630 -0.0329  0.1474
 2048SOL    HW117777   4.639   2.971   7.837 -0.1500 -0.1964 -0.5563
 2048SOL    HW217778   0.040   2.990   7.786  0.0049 -0.1806 -3.5025
 2049SOL     OW17779   1.421   2.551  11.983 -0.1649 -0.8155  0.5624
 2049SOL    HW117780   1.348   2.556  11.921  0.3977  0.5145  0.0115
 2049SOL    HW217781   1.440   2.457  11.990  0.6594 -0.5804  1.4902
 2050SOL     OW17782   0.640   2.245   4.605  0.2910 -0.1688  0.4420
 2050SOL    HW117783   0.642   2.153   4.631 -0.2609 -0.5240 -0.7998
 2050SOL    HW217784   0.732   2.259   4.628  0.8261 -1.5869 -0.8668
 2051SOL     OW17785   3.650   2.160   9.045  0.1248 -0.3593 -0.2321
 2051SOL    HW117786   3.658   2.111   8.964  1.5807 -0.3496 -0.1015
 2051SOL    HW217787   3.663   2.249   9.012 -0.5909 -0.8355 -1.7669
 2052SOL     OW17788   2.381   1.963   6.052  0.1139  0.1406  0.3834
 2052SOL    HW117789   2.457   1.914   6.018 -1.5542 -1.5939 -0.8223
 2052SOL    HW217790   2.349   1.896   6.112  0.9433  1.8441  2.7193
 2053SOL     OW17791   1.703   2.502   7.528 -0.2403 -0.1693 -0.5406
 2053SOL    HW117792   1.608   2.510   7.515 -0.2373 -0.2857 -0.6362
 2053SOL    HW217793   1.736   2.591   7.541  2.3517 -0.7751 -2.9323
 2054SOL     OW17794   2.618   0.576   9.080 -0.2555  0.0299  0.1509
 2054SOL    HW117795   2.582   0.525   9.007 -2.0339 -0.5746  1.4604
 2054SOL    HW217796   2.611   0.667   9.050  1.3194 -0.7589 -2.6706
 2055SOL     OW17797   4.435   3.344  11.800  0.3257 -0.2448 -0.1540
 2055SOL    HW117798   4.344   3.372  11.785  0.4866  0.3466 -0.0172
 2055SOL    HW217799   4.478   3.378  11.721 -0.8722 -1.1476 -1.2107
 2056SOL     OW17800   1.464   2.138   7.522  0.2736 -0.1211 -0.0929
 2056SOL    HW117801   1.404   2.135   7.447 -0.1255 -0.8099  0.2623
 2056SOL    HW217802   1.527   2.069   7.504 -0.7681 -1.1872  0.3710
 2057SOL     OW17803   0.967   3.625   5.911  0.4690  0.5457 -0.5811
 2057SOL    HW117804   0.898   3.617   5.977  3.2154 -0.8842  2.0946
 2057SOL    HW217805   1.045   3.635   5.965  1.2682 -2.5299 -1.1806
 2058SOL     OW17806   1.968   1.262   8.984 -0.5327  0.1529  0.1737
 2058SOL    HW117807   1.919   1.255   9.066 -2.6062  2.1842 -0.8845
 2058SOL    HW217808   1.896   1.269   8.921  0.0218  0.1800 -0.4495
 2059SOL     OW17809   0.336   2.068   9.374 -0.2024 -0.1873  0.3348
 2059SOL    HW117810   0.317   2.137   9.310 -0.6603 -0.6467 -0.0331
 2059SOL    HW217811   0.263   2.088   9.432 -2.5428 -1.0247 -2.3171
 2060SOL     OW17812   3.004   0.906   9.346 -0.4006 -0.1554 -0.1038
 2060SOL    HW117813   3.043   0.946   9.423 -1.2939  0.4339  0.0456
 2060SOL    HW217814   2.942   0.852   9.396 -0.0486 -2.5564 -2.2171
 2061SOL     OW17815   1.508   2.453   9.660  0.0329 -0.0654 -0.1794
 2061SOL    HW117816   1.422   2.459   9.620 -0.4233  0.3994  0.8750
 2061SOL    HW217817   1.521   2.358   9.656  1.1086  0.0318  0.9189
 2062SOL     OW17818   4.374   1.930  11.703  0.0754  0.7041 -0.2655
 2062SOL    HW117819   4.438   1.859  11.711  0.3845  1.0642  0.3956
 2062SOL    HW217820   4.297   1.883  11.669  0.5798 -0.3444  0.0331
 2063SOL     OW17821   2.593   1.263   9.166  0.0470 -0.4137  0.2599
 2063SOL    HW117822   2.632   1.332   9.113 -0.1656 -0.7867 -0.3828
 2063SOL    HW217823   2.529   1.314   9.216  0.2038  1.6181 -1.6261
 2064SOL     OW17824   3.723   3.266  13.952  0.0282  0.1291 -0.1910
 2064SOL    HW117825   3.699   3.176  13.933  1.3026 -0.2310 -0.0834
 2064SOL    HW217826   3.676   3.307  13.879  0.2241  0.2420 -0.2531
 2065SOL     OW17827   3.816   1.685   7.336  0.2788  0.6129  0.0989
 2065SOL    HW117828   3.751   1.745   7.297 -1.6394 -0.5596  1.4767
 2065SOL    HW217829   3.795   1.601   7.296 -0.2454  1.2789 -1.0515
 2066SOL     OW17830   4.346   1.021   8.043 -0.0535 -0.4736 -0.1758
 2066SOL    HW117831   4.390   1.020   7.958  2.1242  0.4735  0.9413
 2066SOL    HW217832   4.288   1.097   8.036 -1.0353 -1.2444 -0.3956
 2067SOL     OW17833   2.127   2.258  16.748  0.0156 -0.2057 -0.8329
 2067SOL    HW117834   2.178   2.326  16.793  2.5633 -2.3083 -0.5610
 2067SOL    HW217835   2.135   2.279  16.655  0.7248  1.0962 -0.4762
 2068SOL     OW17836   0.285   0.803   7.381 -0.6714 -0.1167  0.0618
 2068SOL    HW117837   0.312   0.878   7.327  1.8942 -1.8604 -1.0638
 2068SOL    HW217838   0.299   0.835   7.471 -2.0945  0.0974  0.2059
 2069SOL     OW17839   0.892   1.842  16.253  0.7873  0.4268  0.1900
 2069SOL    HW117840   0.910   1.772  16.190 -1.0732  1.6910 -1.7690
 2069SOL    HW217841   0.946   1.809  16.324 -0.6235  1.8807  1.9335
 2070SOL     OW17842   2.266   0.130   4.610  0.7864  0.6983  0.1795
 2070SOL    HW117843   2.357   0.109   4.592  0.5238  0.3423 -0.7457
 2070SOL    HW217844   2.241   0.057   4.667  2.6426  0.1867  0.3365
 2071SOL     OW17845   0.227   1.582   2.395  0.3632 -0.3699  0.2627
 2071SOL    HW117846   0.140   1.620   2.388  0.3268 -0.1714  1.6548
 2071SOL    HW217847   0.279   1.639   2.339  1.9247 -1.0486  1.0052
 2072SOL     OW17848   3.810   2.756  14.643  0.7615  0.2830  0.0154
 2072SOL    HW117849   3.887   2.793  14.687  0.6527  2.0142 -1.2517
 2072SOL    HW217850   3.855   2.707  14.575 -0.4535 -1.2369  0.3166
 2073SOL     OW17851   2.964   2.113   7.068 -0.4128  0.4570  0.2977
 2073SOL    HW117852   3.039   2.126   7.010 -0.5509 -0.4284 -0.0723
 2073SOL    HW217853   2.940   2.203   7.093  0.1670  0.6535  0.1600
 2074SOL     OW17854   4.201   1.890   6.214 -0.1519 -0.1035  0.2611
 2074SOL    HW117855   4.252   1.809   6.220 -0.8175 -0.3721  2.1322
 2074SOL    HW217856   4.192   1.901   6.308  0.9218 -0.1949  0.3713
 2075SOL     OW17857   0.111   1.606   3.225  0.4405  0.1867 -0.4064
 2075SOL    HW117858   0.076   1.589   3.137  2.1605 -0.1457 -1.0113
 2075SOL    HW217859   0.160   1.688   3.226  0.4764  0.1582  0.1782
 2076SOL     OW17860   1.862   2.176   2.028  0.7697 -0.6853 -0.3650
 2076SOL    HW117861   1.818   2.129   2.099  0.3259  0.9370  0.4246
 2076SOL    HW217862   1.807   2.154   1.953  0.7500 -0.2916 -0.4671
 2077SOL     OW17863   1.919   3.739   4.133 -0.2203  0.2198  0.4325
 2077SOL    HW117864   1.923   3.652   4.094 -0.4913  0.1220  0.6258
 2077SOL    HW217865   2.013   3.755   4.146 -0.6687  2.0365  1.4633
 2078SOL     OW17866   1.104   1.367  17.141 -0.5755  0.0651  0.0475
 2078SOL    HW117867   1.097   1.430  17.070  1.8781  0.1857 -0.0654
 2078SOL    HW217868   1.054   1.296  17.101 -0.6232 -1.2078  2.3480
 2079SOL     OW17869   3.367   4.022   3.439  0.3888  0.8348  0.6232
 2079SOL    HW117870   3.375   3.940   3.390 -0.5681  1.8750 -1.2618
 2079SOL    HW217871   3.457   4.054   3.435  0.4035  0.7781  0.5074
 2080SOL     OW17872   3.728   2.356   9.469 -0.2344 -0.4895 -0.0981
 2080SOL    HW117873   3.731   2.261   9.457  0.6474 -0.2651 -1.7676
 2080SOL    HW217874   3.802   2.368   9.528  1.2086 -0.9397 -1.7927
 2081SOL     OW17875   1.550   4.630   2.663  0.1876 -0.5138  0.0866
 2081SOL    HW117876   1.508   4.676   2.591  3.4419 -0.3748 -1.7021
 2081SOL    HW217877   1.630   4.682   2.667  0.6734 -1.1521 -1.3476
 2082SOL     OW17878   2.813   4.695   2.878  0.0681  0.4781 -0.4695
 2082SOL    HW117879   2.827   4.653   2.963 -0.5311  2.2137  0.4984
 2082SOL    HW217880   2.786   0.041   2.913  0.4229  0.4491 -0.1247
 2083SOL     OW17881   1.362   0.459   9.328  0.0189 -0.7720  0.4913
 2083SOL    HW117882   1.396   0.548   9.318 -1.5303 -0.4327 -1.9391
 2083SOL    HW217883   1.429   0.410   9.375  3.1817 -0.7023 -3.9359
 2084SOL     OW17884   1.101   2.456   3.840  0.1219 -0.7938  0.5810
 2084SOL    HW117885   1.081   2.547   3.816  0.6138 -0.8833 -0.1495
 2084SOL    HW217886   1.035   2.431   3.905  0.4245 -2.8360  0.0982
 2085SOL     OW17887   3.929   4.118  13.192  0.5789 -0.2297  0.1631
 2085SOL    HW117888   4.002   4.152  13.244  0.3147 -1.1726  1.1487
 2085SOL    HW217889   3.926   4.024  13.205  0.0615 -0.3921 -1.0859
 2086SOL     OW17890   2.643   3.214  14.861  0.2421 -0.0179 -0.3146
 2086SOL    HW117891   2.709   3.271  14.901  0.3725  0.3173 -1.0236
 2086SOL    HW217892   2.572   3.213  14.925  0.6743  1.6624  0.1890
 2087SOL     OW17893   4.051   3.402   5.527 -0.3197  0.0360  0.3615
 2087SOL    HW117894   3.971   3.441   5.492 -0.2737  0.3878  0.6599
 2087SOL    HW217895   4.083   3.484   5.563 -1.6593  0.3644  0.8092
 2088SOL     OW17896   2.635   2.236   5.534 -0.2705  0.0445 -0.7565
 2088SOL    HW117897   2.612   2.219   5.625  2.1657  0.1420 -0.1309
 2088SOL    HW217898   2.713   2.290   5.542 -0.2687  0.0400 -0.7434
 2089SOL     OW17899   1.504   2.478   0.314  0.3080  0.3829 -0.2299
 2089SOL    HW117900   1.469   2.566   0.326 -2.0961 -0.7645  1.1803
 2089SOL    HW217901   1.575   2.485   0.377  1.0229  1.1276 -1.1245
 2090SOL     OW17902   0.222   0.868   6.034  0.4475  0.0206  0.2505
 2090SOL    HW117903   0.307   0.906   6.054  0.7480  0.4031 -1.7134
 2090SOL    HW217904   0.190   0.832   6.117  0.4822 -0.1272  0.1995
 2091SOL     OW17905   2.699   0.165   3.006 -0.7444 -0.4412  0.6171
 2091SOL    HW117906   2.705   0.259   3.019  2.7932 -0.4623 -0.7737
 2091SOL    HW217907   2.732   0.127   3.087  2.7539 -0.8458 -0.9871
 2092SOL     OW17908   1.499   3.914   8.192 -0.4181  0.2340  0.2766
 2092SOL    HW117909   1.517   3.826   8.158  2.1480  0.9491 -0.2897
 2092SOL    HW217910   1.507   3.959   8.107 -2.9519  1.6995  0.8432
 2093SOL     OW17911   0.920   0.300   5.594 -0.2449  0.3640  0.3483
 2093SOL    HW117912   0.895   0.223   5.542  0.9242  0.6991 -0.7229
 2093SOL    HW217913   1.000   0.265   5.633 -0.0442 -0.2993 -0.6509
 2094SOL     OW17914   4.113   0.291   7.198  0.1139  0.4713 -0.6277
 2094SOL    HW117915   4.103   0.295   7.293  1.0355  1.5260 -0.5704
 2094SOL    HW217916   4.077   0.206   7.174 -0.9330  0.7818 -0.1483
 2095SOL     OW17917   1.016   0.626   7.094  0.1511  0.0696 -0.3732
 2095SOL    HW117918   0.956   0.571   7.144 -0.3333  0.1425 -0.8769
 2095SOL    HW217919   1.050   0.686   7.161 -1.3643  0.7817 -0.2560
 2096SOL     OW17920   0.101   4.082   8.197  0.8178  0.1529 -0.3360
 2096SOL    HW117921   0.009   4.054   8.198  0.2579  2.0650  1.1089
 2096SOL    HW217922   0.089   4.157   8.139 -1.0067 -0.2505 -0.4989
 2097SOL     OW17923   2.474   1.490  15.481  0.3087 -0.6652  0.1425
 2097SOL    HW117924   2.416   1.432  15.530 -1.0688  0.5760 -0.0154
 2097SOL    HW217925   2.414   1.535  15.422 -0.7130 -1.1797  0.7817
 2098SOL     OW17926   3.854   2.029  12.956 -0.4195  0.5654  0.2377
 2098SOL    HW117927   3.931   2.043  12.900  0.1987  0.3414  1.0432
 2098SOL    HW217928   3.892   2.054  13.040  0.2512 -0.5693  0.2640
 2099SOL     OW17929   3.760   3.190  13.042  0.2716  0.0290 -0.0396
 2099SOL    HW117930   3.826   3.166  12.977  0.8504  2.0647 -0.2179
 2099SOL    HW217931   3.679   3.173  12.993  0.5426  1.1375 -0.8977
 2100SOL     OW17932   4.119   4.419  17.530  0.3241  0.1123  0.2437
 2100SOL    HW117933   4.049   4.419  17.465  0.5958 -2.4649 -0.0525
 2100SOL    HW217934   4.192   4.421  17.469  0.0572  1.0864 -0.0434
 2101SOL     OW17935   3.076   2.068  17.744 -0.1343  0.3684  0.7619
 2101SOL    HW117936   3.165   2.073  17.709 -0.4434 -1.6815 -0.3150
 2101SOL    HW217937   3.096   2.033   0.075 -0.0495  2.0122  1.4168
 2102SOL     OW17938   4.279   3.721   6.371  0.4350 -0.0109  0.7259
 2102SOL    HW117939   4.299   3.720   6.465 -0.8060  0.6810  0.9985
 2102SOL    HW217940   4.335   3.650   6.340  1.8703  1.4332  0.0419
 2103SOL     OW17941   1.020   0.587   3.577  1.1196  0.7165  0.4350
 2103SOL    HW117942   0.997   0.636   3.498  0.0228  1.7823  1.4076
 2103SOL    HW217943   1.104   0.629   3.595  1.5778  0.8706 -2.0374
 2104SOL     OW17944   3.796   3.893   9.492 -0.2698 -0.1248  0.1674
 2104SOL    HW117945   3.871   3.938   9.454 -0.3103 -0.3811 -0.2201
 2104SOL    HW217946   3.752   3.960   9.543 -0.2700 -0.1726  0.2303
 2105SOL     OW17947   4.183   2.512   6.978  0.0370 -0.3857  0.1454
 2105SOL    HW117948   4.161   2.578   7.044 -0.2580  0.5906 -0.9156
 2105SOL    HW217949   4.101   2.462   6.976 -1.2532  1.8346 -2.9194
 2106SOL     OW17950   4.391   1.983   9.118  0.3412 -0.1368 -0.1551
 2106SOL    HW117951   4.383   2.078   9.115 -2.0412 -0.2709  1.7646
 2106SOL    HW217952   4.486   1.970   9.117  0.1013 -1.8208 -0.6552
 2107SOL     OW17953   1.258   2.373   4.672  0.1978 -0.0949 -0.5499
 2107SOL    HW117954   1.248   2.302   4.608  0.3618  0.1654 -0.8612
 2107SOL    HW217955   1.336   2.419   4.641 -0.5662 -0.2466 -2.6800
 2108SOL     OW17956   2.935   3.964   7.480  0.7782  0.6154  0.1463
 2108SOL    HW117957   3.022   4.000   7.496  0.9960  0.2229 -0.1613
 2108SOL    HW217958   2.938   3.881   7.527 -1.2399  0.1185 -0.5519
 2109SOL     OW17959   2.197   3.881   9.436  0.5840 -0.1449  0.2210
 2109SOL    HW117960   2.232   3.795   9.459  1.4579  0.0759 -0.2771
 2109SOL    HW217961   2.106   3.863   9.457  0.4452  3.3942  2.6511
 2110SOL     OW17962   2.448   4.120   6.334  0.5034 -0.1808 -0.5560
 2110SOL    HW117963   2.515   4.158   6.390 -0.4422  1.5001 -0.5893
 2110SOL    HW217964   2.394   4.198   6.326 -0.5864 -0.8523  0.2396
 2111SOL     OW17965   1.979   2.606   8.263  0.0034  0.4331  0.0304
 2111SOL    HW117966   1.931   2.531   8.229  1.1659  0.5275 -1.8143
 2111SOL    HW217967   1.937   2.618   8.348  0.1243  0.7699  0.0439
 2112SOL     OW17968   4.040   2.395   2.881 -0.2860  0.2435 -0.2154
 2112SOL    HW117969   3.969   2.378   2.943 -0.4234  0.0578 -0.4243
 2112SOL    HW217970   4.046   2.490   2.869  2.5070 -0.0160 -0.9543
 2113SOL     OW17971   1.213   0.929   1.500  0.0415 -0.1130  0.0968
 2113SOL    HW117972   1.234   0.965   1.414  0.3106 -3.0713 -1.0757
 2113SOL    HW217973   1.139   0.870   1.484  1.2840 -1.4008 -0.9424
 2114SOL     OW17974   1.511   1.077  16.051  0.4910  0.1647  0.1578
 2114SOL    HW117975   1.440   1.141  16.043  0.6987  0.3161 -0.4401
 2114SOL    HW217976   1.459   0.999  16.032  1.0182  0.1255 -1.0711
 2115SOL     OW17977   0.315   1.953  13.602 -0.3803  0.4567 -0.2290
 2115SOL    HW117978   0.256   1.945  13.677 -0.4087 -1.5606 -0.4655
 2115SOL    HW217979   0.266   2.013  13.546 -0.5998  0.3899 -0.1078
 2116SOL     OW17980   2.432   3.263   2.195 -0.5547  0.2178  0.3612
 2116SOL    HW117981   2.369   3.319   2.240 -1.7849 -1.2389  0.4535
 2116SOL    HW217982   2.483   3.327   2.146  0.3492 -0.8688 -0.1163
 2117SOL     OW17983   3.572   0.206   1.941  0.6134  1.0588  0.6749
 2117SOL    HW117984   3.601   0.120   1.909 -3.5942 -0.2701  0.4390
 2117SOL    HW217985   3.604   0.252   1.864 -1.7140 -1.4978 -1.8483
 2118SOL     OW17986   3.142   4.313   4.695 -0.9163  0.4082  0.3533
 2118SOL    HW117987   3.221   4.356   4.726 -2.1056  0.0082  3.8690
 2118SOL    HW217988   3.142   4.362   4.612  1.3837  0.9731  0.6899
 2119SOL     OW17989   1.052   4.240   5.189  0.2459  0.2205 -0.6297
 2119SOL    HW117990   1.112   4.294   5.138 -1.0424  0.5602 -1.8122
 2119SOL    HW217991   1.108   4.199   5.255  0.4269  0.7703 -0.4457
 2120SOL     OW17992   3.429   1.300   4.511  0.3250 -0.6614 -1.0907
 2120SOL    HW117993   3.507   1.348   4.482  0.6646  0.1798  1.2381
 2120SOL    HW217994   3.399   1.251   4.435  2.1051 -1.3030 -1.3844
 2121SOL     OW17995   3.923   0.755   2.151 -0.3678 -0.4819  0.2925
 2121SOL    HW117996   3.877   0.822   2.100 -1.2308 -0.5767  0.9481
 2121SOL    HW217997   3.996   0.802   2.191 -0.2975 -0.6828  0.4017
 2122SOL     OW17998   2.937   2.439   2.857 -0.0118 -0.3893  0.0414
 2122SOL    HW117999   2.977   2.362   2.899  3.1931  0.0512 -2.2272
 2122SOL    HW218000   2.982   2.456   2.775  1.8506  0.0037  1.1422
 2123SOL     OW18001   3.493   1.570   1.339 -0.2945 -0.2384 -0.1007
 2123SOL    HW118002   3.529   1.519   1.267  1.0489 -0.6416  0.8515
 2123SOL    HW218003   3.403   1.586   1.311  0.3792  0.4259 -1.8749
 2124SOL     OW18004   1.424   3.240  13.288 -0.1806  0.0300  0.5759
 2124SOL    HW118005   1.383   3.325  13.270 -1.9119 -1.0995 -0.9119
 2124SOL    HW218006   1.487   3.251  13.217  0.1285  1.1667  1.0335
 2125SOL     OW18007   0.151   2.101  15.129  0.0322  0.3747 -0.5263
 2125SOL    HW118008   0.107   2.055  15.200 -0.5250  1.9039  0.1117
 2125SOL    HW218009   0.243   2.098  15.156  0.8699 -0.0097 -3.4238
 2126SOL     OW18010   0.625   0.129   5.385  0.1468  0.3497 -0.8170
 2126SOL    HW118011   0.608   0.037   5.366 -0.4961 -0.0619  1.7104
 2126SOL    HW218012   0.555   0.176   5.338 -0.3433  1.1587  0.7233
 2127SOL     OW18013   2.678   4.347   3.877  0.0991  0.1645 -0.2883
 2127SOL    HW118014   2.755   4.372   3.929  0.9672 -1.2995 -0.8440
 2127SOL    HW218015   2.702   4.403   3.803 -1.2992  1.7974  0.4903
 2128SOL     OW18016   1.450   3.372   3.558 -0.5665 -0.1442 -0.7688
 2128SOL    HW118017   1.460   3.458   3.598  1.7531  0.8284 -3.4505
 2128SOL    HW218018   1.449   3.317   3.637 -0.3994 -0.8616 -1.2688
 2129SOL     OW18019   0.414   1.231  15.918  0.4832  0.4753 -0.3044
 2129SOL    HW118020   0.500   1.221  15.878 -0.0653  1.3339 -1.7157
 2129SOL    HW218021   0.417   1.151  15.970  0.3478  1.0306  0.5469
 2130SOL     OW18022   2.019   1.200  13.025 -0.5920  0.0214  0.3377
 2130SOL    HW118023   2.006   1.294  13.014 -1.4595 -0.3756 -1.9766
 2130SOL    HW218024   2.007   1.175  13.117 -0.7385  1.7765  0.7905
 2131SOL     OW18025   1.731   0.227   1.616  0.2726 -0.1032 -0.4927
 2131SOL    HW118026   1.794   0.184   1.673 -0.7811 -2.2270 -0.8998
 2131SOL    HW218027   1.684   0.281   1.679 -0.2816  1.2471 -2.0511
 2132SOL     OW18028   2.491   1.832  14.996  0.3532 -0.7953 -0.3308
 2132SOL    HW118029   2.511   1.918  15.033  2.1853 -0.4935 -2.0593
 2132SOL    HW218030   2.460   1.865  14.911  0.0210  1.9707  0.8414
 2133SOL     OW18031   1.024   2.438   7.674  0.0199  0.0604 -0.0692
 2133SOL    HW118032   1.044   2.406   7.586  1.7934  1.6361 -0.2495
 2133SOL    HW218033   1.057   2.368   7.729  1.9550  0.1798 -1.0456
 2134SOL     OW18034   3.105   0.197   4.943  0.3703  0.0939 -0.1856
 2134SOL    HW118035   3.093   0.219   4.850 -0.9836  3.3396  0.7490
 2134SOL    HW218036   3.183   0.251   4.955  1.5825 -1.3762 -1.4457
 2135SOL     OW18037   4.602   3.971  14.574 -0.1058 -0.2285 -0.0992
 2135SOL    HW118038   4.543   4.020  14.517 -0.4162  2.1405  2.2632
 2135SOL    HW218039   4.677   3.970  14.514  1.7302 -1.2688  2.2048
 2136SOL     OW18040   3.710   0.034   7.333 -0.0590  0.2968 -0.2395
 2136SOL    HW118041   3.712   4.733   7.246  0.7100  1.0236 -0.5634
 2136SOL    HW218042   3.617   0.051   7.350  0.4528  2.3529  0.5326
 2137SOL     OW18043   0.356   3.037   8.244 -0.3824  0.0618 -0.2045
 2137SOL    HW118044   0.319   3.020   8.157  0.8964 -0.8293 -0.5668
 2137SOL    HW218045   0.449   3.040   8.223  0.0036 -0.6334  1.4419
 2138SOL     OW18046   3.434   0.130   4.254 -0.2676 -0.3565 -0.0830
 2138SOL    HW118047   3.488   0.119   4.176  0.3842  0.0592  0.3069
 2138SOL    HW218048   3.493   0.189   4.302 -2.8578  1.8405  0.3738
 2139SOL     OW18049   1.213   1.999   9.389 -0.4752  0.1667  0.4199
 2139SOL    HW118050   1.162   1.924   9.420 -0.4238 -0.3987 -0.8835
 2139SOL    HW218051   1.142   2.063   9.378 -0.6633 -0.4632 -1.8903
 2140SOL     OW18052   0.452   2.127  12.563  0.2839  0.2042 -0.0286
 2140SOL    HW118053   0.535   2.102  12.522  1.7128  1.2400  2.2129
 2140SOL    HW218054   0.478   2.206  12.611 -1.1617 -0.5022  1.9485
 2141SOL     OW18055   2.470   4.111  13.149 -0.6318  0.4047  0.0984
 2141SOL    HW118056   2.391   4.100  13.095 -0.8441  3.0975 -0.1456
 2141SOL    HW218057   2.522   4.174  13.099  2.1018 -1.3170  0.7879
 2142SOL     OW18058   3.166   0.517   9.780  0.6914 -0.3609 -0.4236
 2142SOL    HW118059   3.187   0.538   9.689 -2.6723 -0.1899 -1.1477
 2142SOL    HW218060   3.206   0.431   9.795 -0.4594 -0.6498  0.9884
 2143SOL     OW18061   0.655   1.201   3.023  0.0230 -0.3746  0.7824
 2143SOL    HW118062   0.746   1.197   3.052 -0.4391 -1.2842  2.1340
 2143SOL    HW218063   0.652   1.277   2.965 -0.2639 -0.4154  0.7446
 2144SOL     OW18064   2.731   2.850   2.340  0.2711  0.6568 -0.3254
 2144SOL    HW118065   2.664   2.915   2.317 -0.2769  0.2498  0.1412
 2144SOL    HW218066   2.672   2.776   2.326 -0.7593  1.8562 -2.3154
 2145SOL     OW18067   3.806   3.900   5.960 -0.5401  0.3049 -0.0671
 2145SOL    HW118068   3.796   3.829   6.023 -1.9184  0.2580 -0.3385
 2145SOL    HW218069   3.830   3.967   6.024  1.0208 -2.2074  1.9690
 2146SOL     OW18070   1.952   3.941   2.738 -0.2740  0.0347  0.7024
 2146SOL    HW118071   1.933   3.899   2.654 -0.3468 -0.2861  0.8777
 2146SOL    HW218072   1.864   3.958   2.774 -0.3291 -0.7473  0.9375
 2147SOL     OW18073   2.092   4.117   4.428  0.1538 -0.0899 -0.5196
 2147SOL    HW118074   2.071   4.186   4.365 -1.2237  1.5610  1.7400
 2147SOL    HW218075   2.022   4.054   4.412 -0.6754  0.9615 -1.0656
 2148SOL     OW18076   1.112   3.226   3.200  0.1261  0.0371 -0.3478
 2148SOL    HW118077   1.160   3.182   3.270 -4.1583 -0.5368  2.2705
 2148SOL    HW218078   1.033   3.241   3.252  0.8335 -0.9146  1.0196
 2149SOL     OW18079   0.309   0.104   7.135 -0.0358 -0.0440 -0.1964
 2149SOL    HW118080   0.223   0.116   7.174 -0.3548 -2.4546 -0.1308
 2149SOL    HW218081   0.330   0.196   7.117  2.3654 -0.8547 -1.6459
 2150SOL     OW18082   1.684   3.337   3.827 -0.1415 -0.3063  0.9016
 2150SOL    HW118083   1.617   3.387   3.874 -1.0291 -1.6072  1.0104
 2150SOL    HW218084   1.746   3.410   3.824 -0.7270  0.0040 -2.9629
 2151SOL     OW18085   3.279   1.790   3.291  0.0048 -0.8993  0.7383
 2151SOL    HW118086   3.355   1.816   3.240 -1.9088  0.7165 -1.2897
 2151SOL    HW218087   3.314   1.777   3.379  0.7704  1.4081  0.7713
 2152SOL     OW18088   3.787   0.560  11.511  0.1045 -0.0427 -0.4711
 2152SOL    HW118089   3.791   0.578  11.605 -1.4135 -1.3816 -0.1410
 2152SOL    HW218090   3.867   0.598  11.475  1.8269 -0.1469  3.2534
 2153SOL     OW18091   0.034   2.804  12.553  0.1488 -0.2598  0.2432
 2153SOL    HW118092   0.114   2.760  12.580  1.6577  0.5814 -2.8456
 2153SOL    HW218093   4.725   2.729  12.518  1.5906 -1.1310  0.1460
 2154SOL     OW18094   2.462   4.685   7.620  0.3637  0.0985 -0.3782
 2154SOL    HW118095   2.524   4.675   7.548 -0.2552 -0.2066 -0.8717
 2154SOL    HW218096   2.497   0.015   7.676 -1.5221  0.7816 -0.0401
 2155SOL     OW18097   0.200   3.466  17.140  0.0912  0.4084 -0.0451
 2155SOL    HW118098   0.293   3.454  17.122 -0.1716 -2.5119  0.4465
 2155SOL    HW218099   0.219   3.549  17.183  0.2438 -0.3380  1.3232
 2156SOL     OW18100   3.445   0.174   5.108  0.4673 -0.0271 -0.4673
 2156SOL    HW118101   3.434   0.165   5.014  0.8810 -1.9673 -0.3193
 2156SOL    HW218102   3.540   0.187   5.118  0.6858 -0.9272 -1.4312
 2157SOL     OW18103   2.363   3.483   7.171  0.3733 -1.0089 -0.0721
 2157SOL    HW118104   2.282   3.449   7.209  1.4792 -0.8843  2.3809
 2157SOL    HW218105   2.321   3.528   7.098  3.6051  0.2776 -1.1292
 2158SOL     OW18106   1.704   0.107   8.970  0.5384  0.3663 -0.1106
 2158SOL    HW118107   1.778   0.057   8.935 -0.6860 -1.8764  0.5124
 2158SOL    HW218108   1.634   0.091   8.907 -0.5408 -0.4089  1.2651
 2159SOL     OW18109   3.251   2.596  13.847  0.3073  0.5002  0.4505
 2159SOL    HW118110   3.221   2.686  13.846  2.9019  1.3734  0.5481
 2159SOL    HW218111   3.191   2.558  13.783  1.0003 -2.2877  1.4303
 2160SOL     OW18112   2.347   0.536   1.560 -0.2896  0.2081 -0.4079
 2160SOL    HW118113   2.440   0.531   1.539 -0.5222  1.7580 -1.8287
 2160SOL    HW218114   2.296   0.530   1.480 -0.1118 -2.7698 -0.2860
 2161SOL     OW18115   3.845   4.604   5.510  0.4671  0.6192  0.5161
 2161SOL    HW118116   3.916   4.657   5.547  0.4088  1.1735 -0.1661
 2161SOL    HW218117   3.882   4.524   5.471 -2.0579 -1.7160  2.9208
 2162SOL     OW18118   0.500   2.978  17.243  0.6978 -0.2715 -0.6483
 2162SOL    HW118119   0.489   2.931  17.160 -2.0602 -0.7283 -0.0377
 2162SOL    HW218120   0.595   2.977  17.253  0.8543 -2.4143 -2.4142
 2163SOL     OW18121   3.800   0.103   3.215  0.1531  0.1510  0.8390
 2163SOL    HW118122   3.758   0.027   3.176 -0.3389  1.5107 -1.2428
 2163SOL    HW218123   3.800   0.151   3.132 -1.1820 -3.1933 -1.0863
 2164SOL     OW18124   0.583   0.924   9.065 -0.0149  0.2680 -0.3075
 2164SOL    HW118125   0.547   0.954   9.148  1.8533  0.8719  0.2852
 2164SOL    HW218126   0.639   1.001   9.051  1.1204 -0.6885 -1.0160
 2165SOL     OW18127   3.987   2.943   7.144 -0.0999  0.0501 -0.9283
 2165SOL    HW118128   4.030   2.927   7.228  0.3956  2.5229 -0.7381
 2165SOL    HW218129   3.927   3.008   7.182  0.2606  1.5502 -2.9757
 2166SOL     OW18130   3.157   2.108  11.691 -0.2735  0.5304 -0.2006
 2166SOL    HW118131   3.173   2.199  11.666  2.3115 -0.6088 -2.6905
 2166SOL    HW218132   3.228   2.060  11.649  0.3055 -0.3806  1.8240
 2167SOL     OW18133   1.986   0.526   4.700 -0.2390  0.2365 -0.3200
 2167SOL    HW118134   2.058   0.574   4.660 -0.0419  1.3066  1.3270
 2167SOL    HW218135   2.022   0.439   4.685  1.8820  1.1089 -0.1769
 2168SOL     OW18136   4.513   3.633   2.661  0.5907  0.0318 -0.5118
 2168SOL    HW118137   4.445   3.676   2.609  0.2777 -0.2596 -0.3445
 2168SOL    HW218138   4.522   3.551   2.613 -1.5426  0.1060 -1.0413
 2169SOL     OW18139   2.917   1.364   6.965  0.0173 -0.0673 -0.4744
 2169SOL    HW118140   2.920   1.281   6.917 -0.7935  0.0672 -0.7478
 2169SOL    HW218141   2.826   1.382   6.987  0.1302 -0.4298  0.2898
 2170SOL     OW18142   2.551   1.734   4.386  0.1947  0.3109 -0.0037
 2170SOL    HW118143   2.498   1.655   4.395  1.9529 -0.9399 -0.6333
 2170SOL    HW218144   2.480   1.793   4.412  1.3330  2.5340 -1.8406
 2171SOL     OW18145   2.478   1.041   9.460 -0.3117 -0.1162  0.0645
 2171SOL    HW118146   2.571   1.032   9.439  0.2045  0.9474  1.8576
 2171SOL    HW218147   2.455   1.112   9.399 -0.5222 -1.3603 -1.3028
 2172SOL     OW18148   2.592   0.635   6.678  0.4463 -0.1847 -0.0759
 2172SOL    HW118149   2.642   0.567   6.724  0.2856 -1.8948 -2.4467
 2172SOL    HW218150   2.593   0.713   6.735 -2.3403  0.0623 -0.3497
 2173SOL     OW18151   2.041   4.321  15.701 -0.4650 -0.2980 -0.3349
 2173SOL    HW118152   2.081   4.405  15.680 -1.4915  0.3405  0.2969
 2173SOL    HW218153   1.955   4.328  15.659  1.1649 -0.4766 -3.6710
 2174SOL     OW18154   2.598   4.661  16.789  0.7257  0.4176 -0.4343
 2174SOL    HW118155   2.508   4.637  16.811  1.7397 -1.1131  2.0079
 2174SOL    HW218156   2.588   4.675  16.695  1.8607  1.2122 -0.4318
 2175SOL     OW18157   2.003   1.161   8.291 -0.1162  0.2140  0.2111
 2175SOL    HW118158   1.922   1.212   8.296  1.5861  2.8264  0.8567
 2175SOL    HW218159   2.041   1.178   8.377 -0.7999 -0.3288  0.6207
 2176SOL     OW18160   4.096   3.259   7.251 -0.0313  0.0067 -0.0191
 2176SOL    HW118161   4.161   3.328   7.270  0.4565 -0.7156  0.9348
 2176SOL    HW218162   4.128   3.206   7.178 -2.5093 -1.4911 -0.0063
 2177SOL     OW18163   3.784   4.244   3.838  0.3299  0.0716 -0.2679
 2177SOL    HW118164   3.822   4.165   3.800  0.7416  0.8503 -1.4610
 2177SOL    HW218165   3.704   4.205   3.874 -1.4235  2.0775 -2.0397
 2178SOL     OW18166   2.455   1.884   7.433 -0.3263 -0.4444 -0.1682
 2178SOL    HW118167   2.499   1.820   7.377 -2.0622 -2.9223  1.2942
 2178SOL    HW218168   2.528   1.939   7.462 -1.1737 -0.1407  1.4213
 2179SOL     OW18169   0.360   0.576   2.722  0.2955  0.2123 -0.3196
 2179SOL    HW118170   0.441   0.527   2.709 -0.5062 -0.1240 -3.9593
 2179SOL    HW218171   0.407   0.659   2.734 -0.0701  0.6080 -1.5987
 2180SOL     OW18172   2.287   0.210   3.153  0.2953  0.0458  0.0988
 2180SOL    HW118173   2.328   0.185   3.236  1.9343 -1.4376 -1.1777
 2180SOL    HW218174   2.246   0.129   3.122 -0.1512 -0.1354  1.1741
 2181SOL     OW18175   1.738   1.801  15.580 -0.2867 -0.1494  0.3950
 2181SOL    HW118176   1.714   1.723  15.532  1.7408 -1.6805  1.8585
 2181SOL    HW218177   1.793   1.768  15.651 -0.1574  0.1206  0.4234
 2182SOL     OW18178   0.636   2.047   7.836  0.3046  0.4250  0.1160
 2182SOL    HW118179   0.670   2.049   7.925  0.0091 -1.8752  0.2725
 2182SOL    HW218180   0.546   2.018   7.848  0.7865 -1.0012  0.1977
 2183SOL     OW18181   2.933   2.184  16.749  0.7776 -1.2070  0.0204
 2183SOL    HW118182   2.914   2.264  16.699  0.4127 -0.2380  1.7197
 2183SOL    HW218183   2.903   2.113  16.692  0.9182 -0.0388 -1.5061
 2184SOL     OW18184   1.921   3.098  10.852 -0.5468 -0.0077  0.8429
 2184SOL    HW118185   1.967   3.107  10.769 -0.3910  0.3310  0.9683
 2184SOL    HW218186   1.957   3.173  10.900 -0.5565  1.2282 -1.1164
 2185SOL     OW18187   3.873   1.550  17.637  0.8313 -0.2456 -0.4101
 2185SOL    HW118188   3.947   1.552  17.576  0.0355  2.3781 -1.2905
 2185SOL    HW218189   3.924   1.539  17.718 -0.9729 -0.8661  0.6270
 2186SOL     OW18190   2.845   0.800   5.567 -0.5599 -0.7781  0.6038
 2186SOL    HW118191   2.818   0.868   5.628  1.3533 -0.5306  1.1587
 2186SOL    HW218192   2.897   0.840   5.498  0.7668  0.6230  2.4199
 2187SOL     OW18193   3.522   3.519   3.824  0.5813  0.7797 -0.1167
 2187SOL    HW118194   3.579   3.532   3.748 -1.8591  0.6413 -1.9625
 2187SOL    HW218195   3.471   3.600   3.824  0.9729  1.0207  0.7448
 2188SOL     OW18196   0.159   0.996   6.440 -0.5300 -0.1542  0.2842
 2188SOL    HW118197   0.150   1.011   6.534  1.1997  0.5851  0.3289
 2188SOL    HW218198   0.130   0.904   6.441  1.2653 -0.7395 -1.5751
 2189SOL     OW18199   3.260   3.924   8.761  0.0734 -0.0163 -0.1793
 2189SOL    HW118200   3.246   3.916   8.856 -0.1843 -0.9205 -0.2944
 2189SOL    HW218201   3.324   3.855   8.743 -2.4630 -2.8685  1.7304
 2190SOL     OW18202   2.389   4.371  13.305 -0.1104 -0.0480  0.1642
 2190SOL    HW118203   2.345   4.292  13.335 -0.3770  0.1987  0.4154
 2190SOL    HW218204   2.460   4.369  13.368  0.1485  1.6179 -0.0852
 2191SOL     OW18205   1.148   4.182  14.464 -0.3038 -0.1279  0.3748
 2191SOL    HW118206   1.208   4.112  14.491  1.8978  2.2662  1.6864
 2191SOL    HW218207   1.112   4.145  14.383 -2.7211  1.3930  0.7422
 2192SOL     OW18208   3.298   4.356   9.055 -0.1351 -0.2535 -0.3822
 2192SOL    HW118209   3.289   4.265   9.082  2.3084 -0.2428  0.4137
 2192SOL    HW218210   3.385   4.378   9.088 -0.3946  2.1385 -1.2678
 2193SOL     OW18211   0.260   1.431   7.701 -0.6145 -0.1165  0.2754
 2193SOL    HW118212   0.345   1.476   7.704 -0.3837 -0.8126  3.9305
 2193SOL    HW218213   0.259   1.400   7.610  2.0935 -0.2222  0.2861
 2194SOL     OW18214   2.081   3.501   6.463 -0.3390 -0.7132  0.0992
 2194SOL    HW118215   2.141   3.495   6.537  1.9009 -0.4657 -1.6958
 2194SOL    HW218216   2.099   3.592   6.441 -0.2979 -0.6922  0.2224
 2195SOL     OW18217   2.183   2.097   5.257  0.3789  0.5407  0.3424
 2195SOL    HW118218   2.270   2.136   5.247  1.2264 -1.1942  0.9646
 2195SOL    HW218219   2.172   2.083   5.163  0.8109  1.5994  0.1311
 2196SOL     OW18220   0.327   1.452  16.648 -0.2055 -0.1228 -0.2034
 2196SOL    HW118221   0.339   1.467  16.554 -0.4441  0.6281 -0.1155
 2196SOL    HW218222   0.290   1.536  16.676 -0.3080 -0.0883 -0.4412
 2197SOL     OW18223   3.791   3.835   7.504 -0.2787 -0.6305 -0.7906
 2197SOL    HW118224   3.785   3.865   7.413  1.8468 -0.5346 -0.8966
 2197SOL    HW218225   3.821   3.920   7.537 -1.5179 -0.6066  0.2802
 2198SOL     OW18226   2.407   3.239   3.556  0.5289  0.0943 -0.3295
 2198SOL    HW118227   2.384   3.182   3.483  1.6074 -0.8175  0.0488
 2198SOL    HW218228   2.387   3.326   3.521 -0.6691 -0.6592 -1.5467
 2199SOL     OW18229   4.662   2.282   1.612  0.1112  0.1590  0.4165
 2199SOL    HW118230   4.690   2.205   1.661 -0.2987 -1.0270 -1.2133
 2199SOL    HW218231   4.698   2.274   1.524  0.8082 -0.3287  0.7494
 2200SOL     OW18232   3.730   0.340   7.337 -0.2302 -1.0876  0.4526
 2200SOL    HW118233   3.795   0.388   7.389 -1.9552  1.4344  0.2640
 2200SOL    HW218234   3.765   0.252   7.350 -1.8591 -1.6512  1.0618
 2201SOL     OW18235   4.700   0.390   5.352  0.3644 -0.0408  0.5537
 2201SOL    HW118236   4.652   0.460   5.307  0.4833 -0.4378 -0.1926
 2201SOL    HW218237   4.632   0.332   5.386  1.2357 -2.8587 -2.4779
 2202SOL     OW18238   1.789   0.410   6.928  0.3467  0.2240  0.2533
 2202SOL    HW118239   1.830   0.398   6.842  0.5864 -1.5960  0.6177
 2202SOL    HW218240   1.811   0.329   6.973  0.7563  0.3904  0.3551
 2203SOL     OW18241   2.344   1.333  17.371  0.8108  0.2109 -0.9952
 2203SOL    HW118242   2.353   1.247  17.331  0.6232  0.3879 -1.4161
 2203SOL    HW218243   2.318   1.377  17.290  1.1326 -2.4688 -2.5667
 2204SOL     OW18244   0.258   3.532  16.247  0.2413  0.0240 -0.0405
 2204SOL    HW118245   0.269   3.498  16.158 -1.1468 -0.0921 -0.1600
 2204SOL    HW218246   0.238   3.622  16.219  1.6752 -0.3279 -2.2504
 2205SOL     OW18247   3.595   3.441   6.369 -0.1134 -0.5136 -0.1444
 2205SOL    HW118248   3.677   3.392   6.375  0.1512  0.1496  1.8416
 2205SOL    HW218249   3.597   3.473   6.460 -0.1613 -2.3017  0.4895
 2206SOL     OW18250   2.302   1.453  13.939 -0.4967 -0.2403 -0.4545
 2206SOL    HW118251   2.304   1.361  13.965 -0.1573 -0.3976 -1.0566
 2206SOL    HW218252   2.391   1.481  13.920  0.7493 -2.8203  1.5803
 2207SOL     OW18253   4.169   3.460   6.190 -0.2840 -0.2655  0.3454
 2207SOL    HW118254   4.247   3.503   6.224  0.8672 -0.9683 -1.3836
 2207SOL    HW218255   4.207   3.434   6.106 -1.1793  0.5042 -0.2937
 2208SOL     OW18256   3.686   2.365   0.494 -0.1261  0.0901 -0.2714
 2208SOL    HW118257   3.708   2.281   0.534 -0.4337  0.0156 -0.2561
 2208SOL    HW218258   3.594   2.369   0.521 -0.4857  0.9105 -1.5984
 2209SOL     OW18259   0.663   0.963  16.471  0.2714  0.0224 -0.0178
 2209SOL    HW118260   0.597   0.934  16.408  1.0735  1.0348 -1.3048
 2209SOL    HW218261   0.725   0.892  16.454  1.2843  0.8444  0.2344
 2210SOL     OW18262   4.469   2.242  13.754  0.2311  0.3845 -0.3881
 2210SOL    HW118263   4.461   2.170  13.816  0.6620  1.5102  0.9946
 2210SOL    HW218264   4.400   2.300  13.786 -0.7384 -0.2834 -1.2914
 2211SOL     OW18265   2.546   3.236   2.721  0.0850  0.1055  0.1333
 2211SOL    HW118266   2.455   3.237   2.751 -0.5275 -3.0938 -1.4972
 2211SOL    HW218267   2.532   3.280   2.638  2.5086 -0.6184 -0.6690
 2212SOL     OW18268   2.150   3.485  10.159 -0.0636 -0.2071 -0.7888
 2212SOL    HW118269   2.224   3.444  10.203 -0.5063  1.1592  1.2570
 2212SOL    HW218270   2.082   3.479  10.226  0.7715 -3.0644 -0.2317
 2213SOL     OW18271   1.507   0.449  13.001  0.2144 -1.0958  0.2225
 2213SOL    HW118272   1.515   0.366  12.953  0.8307  0.4629 -2.3586
 2213SOL    HW218273   1.496   0.434  13.095  2.7728 -2.1653  0.3494
 2214SOL     OW18274   3.728   2.695   6.348  0.0926  0.4429 -0.8016
 2214SOL    HW118275   3.709   2.700   6.255 -1.3252  4.0331 -0.3080
 2214SOL    HW218276   3.802   2.635   6.337  0.9463  1.0740  1.4943
 2215SOL     OW18277   3.115   3.188  10.945 -0.1550  0.0992  0.6323
 2215SOL    HW118278   3.081   3.153  11.027  0.0328 -1.1284  0.1786
 2215SOL    HW218279   3.057   3.260  10.921  2.1957  1.5177 -0.8172
 2216SOL     OW18280   1.629   1.090   2.444  0.1336  1.2681  0.2470
 2216SOL    HW118281   1.672   1.124   2.366  0.4759 -0.2504 -0.2202
 2216SOL    HW218282   1.650   1.147   2.518 -0.1350 -0.8994  2.0026
 2217SOL     OW18283   1.854   1.951  10.829  0.0124 -0.0403  0.2368
 2217SOL    HW118284   1.941   1.924  10.859 -0.2195 -0.3602  0.6235
 2217SOL    HW218285   1.853   1.920  10.739  1.3759 -0.7564  0.4601
 2218SOL     OW18286   4.602   3.420   3.744  0.1509 -0.0013 -1.0757
 2218SOL    HW118287   4.688   3.462   3.747 -0.1523  0.3054  2.2800
 2218SOL    HW218288   4.549   3.499   3.741  0.0955  0.0731  1.8602
 2219SOL     OW18289   3.703   2.398  14.958  0.1007  0.0518  0.0732
 2219SOL    HW118290   3.611   2.381  14.982 -0.5971  1.2515 -1.7570
 2219SOL    HW218291   3.696   2.465  14.891 -0.3208  1.5879  1.6538
 2220SOL     OW18292   4.521   3.727  16.923  0.1958 -0.4644 -0.1064
 2220SOL    HW118293   4.522   3.631  16.926 -2.1807 -0.5843 -2.6499
 2220SOL    HW218294   4.611   3.754  16.904  0.4814  0.2819  2.4153
 2221SOL     OW18295   2.965   4.320   7.757 -0.2499  0.0902 -0.7386
 2221SOL    HW118296   2.890   4.305   7.814 -0.4162  0.4422 -0.8708
 2221SOL    HW218297   2.931   4.302   7.669  0.4536  0.0273 -1.0003
 2222SOL     OW18298   1.723   2.832   4.859 -0.2180  0.3843 -0.3757
 2222SOL    HW118299   1.755   2.900   4.800  1.0834  1.0065  1.0764
 2222SOL    HW218300   1.761   2.849   4.945 -0.7709  2.7422 -0.6076
 2223SOL     OW18301   3.100   4.051   4.635 -0.4175  0.4992 -0.1864
 2223SOL    HW118302   3.183   4.028   4.595 -1.2986 -0.3973 -1.5045
 2223SOL    HW218303   3.113   4.145   4.651 -4.7253  1.1351 -0.4188
 2224SOL     OW18304   1.416   4.585   9.085  0.7055  0.4404  0.1403
 2224SOL    HW118305   1.497   4.567   9.037 -0.4723 -1.6906 -1.0436
 2224SOL    HW218306   1.368   4.628   9.015 -2.5009 -1.3009  1.2931
 2225SOL     OW18307   1.091   3.444   2.856  0.0432 -0.4117  0.2562
 2225SOL    HW118308   1.061   3.494   2.932 -1.1210 -0.4215 -0.2012
 2225SOL    HW218309   1.061   3.356   2.878 -0.9522 -0.0931  0.1716
 2226SOL     OW18310   4.048   0.021   7.046 -0.0637 -0.2007 -0.1767
 2226SOL    HW118311   4.064   0.054   6.957  0.7517  0.7405  0.3247
 2226SOL    HW218312   3.960   4.727   7.026  0.1686 -0.9873  0.1453
 2227SOL     OW18313   1.058   4.303   3.381  0.9140 -0.1595 -0.4051
 2227SOL    HW118314   1.055   4.323   3.287  2.1244  0.5861 -0.2966
 2227SOL    HW218315   1.150   4.318   3.405  0.6978  0.2054  0.1776
 2228SOL     OW18316   1.859   0.840   9.237 -0.0774  0.2939  0.2889
 2228SOL    HW118317   1.859   0.818   9.144 -2.2058 -1.0898  0.6065
 2228SOL    HW218318   1.794   0.910   9.226 -0.0048  0.1830 -0.8898
 2229SOL     OW18319   0.893   3.229  11.367 -0.1772 -0.3436 -0.5768
 2229SOL    HW118320   0.927   3.151  11.322  0.3169 -0.2002 -0.4460
 2229SOL    HW218321   0.968   3.274  11.403  2.1852 -2.5761 -2.6824
 2230SOL     OW18322   1.998   4.541   6.577  0.3980  0.2445 -0.8366
 2230SOL    HW118323   2.092   4.537   6.592 -0.3926 -0.8532  3.9543
 2230SOL    HW218324   1.983   4.497   6.494 -0.9194 -1.1168  0.1255
 2231SOL     OW18325   0.249   2.096   7.530  0.3138  0.4544  0.2345
 2231SOL    HW118326   0.264   2.191   7.539 -0.8980  0.5332  1.4508
 2231SOL    HW218327   0.264   2.074   7.438  0.7538  1.3566  0.0851
 2232SOL     OW18328   1.727   4.089   9.598  0.0159 -0.0133  0.4243
 2232SOL    HW118329   1.817   4.067   9.625  0.3632  0.4312 -0.3780
 2232SOL    HW218330   1.747   4.166   9.546 -3.9190 -0.4702 -1.7527
 2233SOL     OW18331   0.626   2.559   1.851  0.4047 -0.4629  0.0384
 2233SOL    HW118332   0.710   2.606   1.859 -0.1069  0.5571 -0.5589
 2233SOL    HW218333   0.629   2.511   1.768  0.5809 -1.7731  0.8015
 2234SOL     OW18334   4.256   1.688  11.619  0.0851  0.2016  0.1413
 2234SOL    HW118335   4.297   1.639  11.548 -0.3586 -1.3955  0.9774
 2234SOL    HW218336   4.211   1.616  11.663  0.1460  1.1809  1.7953
 2235SOL     OW18337   4.165   4.598   1.628 -0.1529 -0.0422  0.4722
 2235SOL    HW118338   4.143   4.519   1.679  2.0386  0.1416  1.6941
 2235SOL    HW218339   4.077   4.632   1.609  0.8501  1.0242 -2.2043
 2236SOL     OW18340   2.441   3.298   7.916 -0.3351 -0.3725  0.3150
 2236SOL    HW118341   2.402   3.358   7.852 -1.0813 -0.3646  0.7673
 2236SOL    HW218342   2.466   3.238   7.846 -0.8277 -0.3056  0.0790
 2237SOL     OW18343   0.366   0.478   1.528 -0.2478 -0.5065  0.2321
 2237SOL    HW118344   0.409   0.435   1.454  2.2582 -2.3362  2.7670
 2237SOL    HW218345   0.368   0.565   1.488 -1.2846 -0.6402 -0.1223
 2238SOL     OW18346   3.462   0.131   2.857  0.3706 -1.0710  0.2088
 2238SOL    HW118347   3.412   0.146   2.777  1.1050  1.4945  0.2431
 2238SOL    HW218348   3.475   0.218   2.893  1.4103 -1.0054 -0.3039
 2239SOL     OW18349   2.466   4.283  16.061  0.1717  0.4700 -0.4583
 2239SOL    HW118350   2.494   4.292  16.152 -0.6352  1.5288 -0.3094
 2239SOL    HW218351   2.410   4.206  16.062  0.4227  0.3200  3.2852
 2240SOL     OW18352   3.496   2.482   6.773 -0.0765 -0.1862  0.0234
 2240SOL    HW118353   3.448   2.414   6.726 -0.9442  0.4650 -0.0514
 2240SOL    HW218354   3.531   2.538   6.704 -0.5784 -0.4116 -0.4088
 2241SOL     OW18355   2.367   1.741   1.749  0.0699 -0.5312  0.4142
 2241SOL    HW118356   2.354   1.820   1.800  0.9785  0.0473 -0.2478
 2241SOL    HW218357   2.429   1.781   1.688  1.1534 -1.5525  0.8412
 2242SOL     OW18358   2.705   0.422   6.828  0.1704 -0.3340 -0.1444
 2242SOL    HW118359   2.686   0.330   6.847 -1.0981  0.0568  0.4456
 2242SOL    HW218360   2.646   0.465   6.890 -0.7532  0.6856 -1.7623
 2243SOL     OW18361   0.393   2.444   1.234 -0.4222 -0.3529  0.0245
 2243SOL    HW118362   0.352   2.374   1.183 -0.9470 -0.4427  0.5550
 2243SOL    HW218363   0.414   2.507   1.166  0.9184 -1.3112 -0.4359
 2244SOL     OW18364   3.797   1.842   4.851  0.2519  0.4850 -0.2018
 2244SOL    HW118365   3.778   1.920   4.904  0.2915  0.1243  0.3524
 2244SOL    HW218366   3.892   1.828   4.851  0.2123  0.2698 -1.8504
 2245SOL     OW18367   4.609   3.525  13.102  0.0655 -0.6374 -0.1949
 2245SOL    HW118368   4.690   3.489  13.138  1.8627  2.0453 -1.5581
 2245SOL    HW218369   4.618   3.515  13.008  1.5721 -1.0456 -0.0012
 2246SOL     OW18370   2.041   1.432   7.385  0.3375 -0.4549 -0.4341
 2246SOL    HW118371   1.976   1.455   7.451  0.6077  2.1095 -1.0644
 2246SOL    HW218372   1.991   1.437   7.304 -0.3485 -0.1855  0.0101
 2247SOL     OW18373   4.576   0.560  14.908  0.0058 -0.4595  0.2282
 2247SOL    HW118374   4.501   0.619  14.897  0.6464  0.3163 -0.0054
 2247SOL    HW218375   4.631   0.579  14.832 -0.7913  0.8137 -0.0266
 2248SOL     OW18376   0.870   3.859   6.518  0.0830 -0.3406  0.1206
 2248SOL    HW118377   0.918   3.838   6.598 -2.6357 -3.1104  1.0097
 2248SOL    HW218378   0.904   3.947   6.502  0.8998 -0.6344  0.2604
 2249SOL     OW18379   4.526   2.746  17.220 -0.0751 -0.8808  0.5185
 2249SOL    HW118380   4.561   2.797  17.147 -2.1143 -2.7166 -1.7469
 2249SOL    HW218381   4.434   2.751  17.191  0.5433  1.4977 -1.0758
 2250SOL     OW18382   2.138   1.272   8.537  0.1785  0.1631 -0.4860
 2250SOL    HW118383   2.151   1.362   8.507 -1.4464  0.5088 -0.1419
 2250SOL    HW218384   2.150   1.286   8.631  1.2152 -0.9404 -0.4432
 2251SOL     OW18385   1.093   2.863   7.938 -0.1700  0.3146 -0.2607
 2251SOL    HW118386   1.134   2.901   7.860  1.1750  1.6022  1.0504
 2251SOL    HW218387   1.057   2.939   7.983 -1.9868 -0.7066  0.0124
 2252SOL     OW18388   0.200   4.029   5.063  0.1164  0.3002  0.4133
 2252SOL    HW118389   0.234   3.943   5.088 -0.0118 -0.4830 -2.1292
 2252SOL    HW218390   0.162   4.010   4.978  0.0759  2.3288 -0.0210
 2253SOL     OW18391   1.123   4.615   8.555 -0.0171 -0.1451  0.1680
 2253SOL    HW118392   1.215   4.623   8.531  0.0768  0.5128  0.7708
 2253SOL    HW218393   1.117   4.648   8.645  3.7936 -0.3059  0.4660
 2254SOL     OW18394   4.105   1.909   9.168  0.5421  0.3434 -0.0206
 2254SOL    HW118395   4.198   1.917   9.144  0.7627  0.7330  0.9191
 2254SOL    HW218396   4.060   1.838   9.123 -0.5244  1.3174 -0.4864
 2255SOL     OW18397   3.165   2.094   3.122  0.0845 -0.0952  0.1395
 2255SOL    HW118398   3.070   2.084   3.127  0.1614 -0.7848  0.1707
 2255SOL    HW218399   3.167   2.156   3.195 -1.7377 -1.3051  1.1896
 2256SOL     OW18400   2.080   1.620   6.392  0.0280 -0.1895  0.6318
 2256SOL    HW118401   2.105   1.561   6.321 -2.5797 -1.8754  1.0979
 2256SOL    HW218402   2.107   1.568   6.468 -0.0256 -2.7308 -1.0677
 2257SOL     OW18403   4.007   2.327   4.728 -0.2505  0.1716  0.9418
 2257SOL    HW118404   3.958   2.262   4.779 -1.1128 -0.4612 -0.6794
 2257SOL    HW218405   4.045   2.368   4.806 -0.3515  0.9774  0.5557
 2258SOL     OW18406   1.990   4.539  15.518 -0.4901 -0.1102 -0.0542
 2258SOL    HW118407   1.972   4.525  15.426 -1.6015 -0.2076  0.1796
 2258SOL    HW218408   2.051   4.612  15.524 -0.3936 -0.0941 -1.2597
 2259SOL     OW18409   3.414   0.825   2.752 -0.3344 -0.4701  0.3799
 2259SOL    HW118410   3.343   0.881   2.784  0.9416  0.1451  2.1421
 2259SOL    HW218411   3.403   0.843   2.659 -2.1320 -1.1106  0.4713
 2260SOL     OW18412   0.684   3.196  10.733 -0.1090  0.3545  0.1007
 2260SOL    HW118413   0.655   3.281  10.699  1.0158  0.4465 -0.6449
 2260SOL    HW218414   0.731   3.223  10.812  0.6358 -0.8532  0.0614
 2261SOL     OW18415   0.683   4.212  12.928 -0.0810 -0.7267  0.7510
 2261SOL    HW118416   0.604   4.254  12.961  0.8442  0.7727  1.1021
 2261SOL    HW218417   0.657   4.167  12.848  0.8618 -0.0734  0.0644
 2262SOL     OW18418   1.373   2.868   9.153  0.0373  0.7791 -0.4644
 2262SOL    HW118419   1.468   2.867   9.148 -0.0203 -2.4738 -1.0720
 2262SOL    HW218420   1.350   2.928   9.224 -0.0317  0.7861 -0.4918
 2263SOL     OW18421   2.565   2.217   3.155  0.4025  0.3892  0.1177
 2263SOL    HW118422   2.485   2.257   3.190  0.1225 -0.5735  0.5827
 2263SOL    HW218423   2.566   2.258   3.068  0.1284 -1.6859 -0.8611
 2264SOL     OW18424   1.972   1.947  11.666  0.0721  0.3898  0.4327
 2264SOL    HW118425   1.922   1.954  11.747 -0.8274  0.1614 -0.0980
 2264SOL    HW218426   1.933   2.018  11.616 -2.4899 -0.9715  0.5199
 2265SOL     OW18427   2.471   1.438  14.964  0.0611  0.2272  0.2545
 2265SOL    HW118428   2.401   1.375  14.946  1.9285 -1.5618 -0.7516
 2265SOL    HW218429   2.419   1.505  15.008  0.5624  0.9057 -0.2012
 2266SOL     OW18430   0.709   3.252   5.346 -0.0909 -0.8259  0.4876
 2266SOL    HW118431   0.789   3.200   5.344  0.7527  0.5203 -0.9927
 2266SOL    HW218432   0.744   3.330   5.301 -2.5319 -0.5767 -0.9772
 2267SOL     OW18433   3.900   1.114   1.222 -0.2591  0.4705  0.2110
 2267SOL    HW118434   3.836   1.181   1.198 -2.6752 -1.9669 -0.1167
 2267SOL    HW218435   3.907   1.140   1.314 -0.4990  1.4418 -0.0395
 2268SOL     OW18436   2.788   0.478  13.595  0.1914 -0.2833  0.1526
 2268SOL    HW118437   2.796   0.416  13.522  1.4191  0.5775 -0.4388
 2268SOL    HW218438   2.870   0.527  13.589  0.3242 -0.5883 -0.5482
 2269SOL     OW18439   3.805   1.181  14.658  0.7380 -0.1208  0.2136
 2269SOL    HW118440   3.713   1.156  14.669  0.7541 -1.4601 -2.5401
 2269SOL    HW218441   3.833   1.096  14.623  1.3868 -0.4402  1.5010
 2270SOL     OW18442   3.552   4.158   0.134  0.0996  0.3773 -0.4581
 2270SOL    HW118443   3.590   4.183   0.218 -0.7065 -1.6885  0.5114
 2270SOL    HW218444   3.585   4.069   0.139 -1.2567 -0.2290 -2.3334
 2271SOL     OW18445   4.047   3.291  17.640 -0.3173 -0.4564  0.1314
 2271SOL    HW118446   4.091   3.366  17.600  0.5861 -0.5451  0.9550
 2271SOL    HW218447   4.028   3.342  17.720 -1.4960 -0.6827 -0.0002
 2272SOL     OW18448   0.499   0.631   3.785 -0.7705  0.3904 -0.1042
 2272SOL    HW118449   0.544   0.656   3.705 -0.8759 -0.9383 -0.5932
 2272SOL    HW218450   0.426   0.580   3.749 -2.1390  1.1582  1.5927
 2273SOL     OW18451   2.452   0.053   5.532 -0.1068  0.5415 -0.8252
 2273SOL    HW118452   2.431   0.115   5.462  1.1748  1.7067 -0.1928
 2273SOL    HW218453   2.506   0.109   5.587 -1.9061  0.3639  1.1235
 2274SOL     OW18454   1.892   4.448  13.995  0.2047 -0.0116  0.0501
 2274SOL    HW118455   1.815   4.486  13.952  2.5932  3.8329 -0.8556
 2274SOL    HW218456   1.861   4.357  13.992 -2.8963  0.9442  3.6240
 2275SOL     OW18457   3.332   2.604   6.295  0.1522 -0.3084 -0.0567
 2275SOL    HW118458   3.267   2.674   6.293 -0.8855 -1.2664  0.3968
 2275SOL    HW218459   3.353   2.587   6.203  1.5568 -1.6897  0.5199
 2276SOL     OW18460   2.996   1.546  17.535 -0.6970 -0.9490  0.1559
 2276SOL    HW118461   3.059   1.491  17.487 -0.2674  1.3713 -1.9029
 2276SOL    HW218462   3.057   1.603  17.582 -2.6631  1.3178 -0.0450
 2277SOL     OW18463   2.264   2.393   3.829 -0.4731 -0.5723  0.1845
 2277SOL    HW118464   2.327   2.328   3.858 -0.4665 -0.8055 -0.3596
 2277SOL    HW218465   2.225   2.340   3.760 -0.0281  0.2214 -0.6781
 2278SOL     OW18466   2.139   0.700   6.142 -0.3815 -0.2175 -0.0404
 2278SOL    HW118467   2.143   0.686   6.047 -0.4980 -2.1318  0.2387
 2278SOL    HW218468   2.122   0.618   6.189  0.2206  0.5280  1.4717
 2279SOL     OW18469   2.625   3.280   5.743 -0.0208  0.2393  0.0460
 2279SOL    HW118470   2.594   3.333   5.669 -2.2207  0.0533  0.8540
 2279SOL    HW218471   2.605   3.195   5.705  0.5146 -0.9693  2.4582
 2280SOL     OW18472   0.192   2.439  17.544 -0.0958  0.4825  0.3983
 2280SOL    HW118473   0.285   2.418  17.532 -0.7191 -0.7673 -2.2061
 2280SOL    HW218474   0.176   2.440  17.638  1.4097 -1.4222  0.6875
 2281SOL     OW18475   2.750   2.141  15.106 -0.5133 -0.3309  0.2482
 2281SOL    HW118476   2.743   2.051  15.139  3.6545 -1.3000 -1.4981
 2281SOL    HW218477   2.833   2.164  15.148 -0.5580 -0.7737  0.5818
 2282SOL     OW18478   3.123   1.736  17.087  0.2996  0.1635 -0.4715
 2282SOL    HW118479   3.060   1.665  17.093  0.3383  0.3139  1.6633
 2282SOL    HW218480   3.145   1.709  16.998  2.5426  1.6061 -0.3474
 2283SOL     OW18481   3.340   3.052   5.477  0.9655 -0.0281 -0.0040
 2283SOL    HW118482   3.303   3.125   5.528 -0.1232 -0.5308 -0.0802
 2283SOL    HW218483   3.360   3.097   5.395  1.1977  1.5531  0.9097
 2284SOL     OW18484   0.765   4.076  10.847 -0.0546 -0.0114 -0.2348
 2284SOL    HW118485   0.759   3.983  10.869 -0.0483 -0.0806 -0.5330
 2284SOL    HW218486   0.739   4.115  10.931 -0.1066  0.9971 -0.7114
 2285SOL     OW18487   3.051   2.680   0.018 -0.0363  0.7622  0.3760
 2285SOL    HW118488   3.004   2.681  17.690  0.9445 -1.5411 -0.2091
 2285SOL    HW218489   3.060   2.773   0.034  0.4311  0.8274 -0.2828
 2286SOL     OW18490   0.260   3.654   4.314  0.1343 -0.2184  0.4469
 2286SOL    HW118491   0.242   3.571   4.358 -1.1343 -0.8502 -1.2785
 2286SOL    HW218492   0.322   3.628   4.246  1.2404 -1.9782  2.1526
 2287SOL     OW18493   2.859   3.369  14.958  0.0636  0.4799  0.1487
 2287SOL    HW118494   2.952   3.366  14.937 -0.3667 -2.0866 -1.2994
 2287SOL    HW218495   2.837   3.457  14.927  0.1849  0.4943  0.1033
 2288SOL     OW18496   2.373   1.922  10.199  0.1904 -0.1643 -0.9742
 2288SOL    HW118497   2.280   1.933  10.178  0.1902  1.7623  0.0068
 2288SOL    HW218498   2.423   1.963  10.129 -1.2158  0.4741 -1.6013
 2289SOL     OW18499   1.744   1.661   1.016 -0.3240 -0.2893 -0.6765
 2289SOL    HW118500   1.697   1.735   1.056 -0.5045 -0.4180 -0.6473
 2289SOL    HW218501   1.690   1.586   1.040 -1.3325 -0.2695 -2.8704
 2290SOL     OW18502   1.881   4.131   6.687  0.3392  0.3098  0.4985
 2290SOL    HW118503   1.903   4.055   6.741 -0.0496  0.3265  0.6792
 2290SOL    HW218504   1.892   4.199   6.754  0.2945  0.7585  0.0514
 2291SOL     OW18505   3.786   0.793   9.291 -0.4630  0.8259 -0.3387
 2291SOL    HW118506   3.870   0.763   9.255 -0.7670  0.3753 -0.6775
 2291SOL    HW218507   3.806   0.820   9.380 -1.2564 -0.0110  0.0800
 2292SOL     OW18508   0.757   1.745   3.922 -0.2005  0.0911 -0.1649
 2292SOL    HW118509   0.733   1.837   3.934  3.1449  1.1490 -1.4495
 2292SOL    HW218510   0.808   1.743   3.841 -2.7820 -2.1672 -1.7162
 2293SOL     OW18511   0.376   2.649  13.279  0.2067  0.3003  0.3190
 2293SOL    HW118512   0.422   2.684  13.355  0.7712  1.3793 -0.5015
 2293SOL    HW218513   0.290   2.623  13.311  0.8100 -1.1883  0.7459
 2294SOL     OW18514   1.408   0.605  14.154 -0.0402  0.1045 -0.0494
 2294SOL    HW118515   1.477   0.649  14.105  0.0708  0.0700  0.0759
 2294SOL    HW218516   1.335   0.666  14.164 -2.1499 -2.2012 -1.4583
 2295SOL     OW18517   4.646   1.748   9.388 -0.2728 -0.3067 -0.2027
 2295SOL    HW118518   4.657   1.724   9.296 -0.4314  0.2936 -0.3789
 2295SOL    HW218519   4.701   1.680   9.425  1.4646  1.4397  0.4367
 2296SOL     OW18520   4.705   1.228   5.531 -0.4521  0.0068  0.5411
 2296SOL    HW118521   0.009   1.197   5.451  1.1184 -0.5185  1.5869
 2296SOL    HW218522   4.669   1.149   5.571 -1.6595 -1.1728 -2.9144
 2297SOL     OW18523   0.799   4.258  14.502  0.3973 -0.1580 -1.0049
 2297SOL    HW118524   0.743   4.327  14.467  0.6301 -0.4853 -1.9993
 2297SOL    HW218525   0.783   4.200  14.428 -0.2294  0.3256 -1.2489
 2298SOL     OW18526   1.992   2.633  14.034 -0.4716 -0.2910  0.1413
 2298SOL    HW118527   1.973   2.616  14.126 -2.0516  1.2338  0.1042
 2298SOL    HW218528   1.987   2.549  13.989  0.2902 -0.7799  0.9641
 2299SOL     OW18529   1.008   0.160   8.756  0.5311 -0.3137  0.5423
 2299SOL    HW118530   1.098   0.142   8.784  0.9485 -0.0828 -0.6533
 2299SOL    HW218531   1.032   0.200   8.673  2.6166 -0.7725  0.9183
 2300SOL     OW18532   4.654   4.657  14.312  0.6900 -0.7383  0.4336
 2300SOL    HW118533   4.628   4.572  14.347  1.3959 -1.1906 -0.1359
 2300SOL    HW218534   4.633   4.661  14.218  0.1721 -0.2019  0.5702
 2301SOL     OW18535   4.561   2.081   5.199  0.4741  0.4062 -0.1987
 2301SOL    HW118536   4.656   2.076   5.184  0.3687  1.3135 -1.1271
 2301SOL    HW218537   4.553   2.067   5.294  2.9101  0.0399 -0.0505
 2302SOL     OW18538   3.242   1.306   3.360 -0.0718  0.0100  0.0206
 2302SOL    HW118539   3.304   1.365   3.404 -0.0064 -0.3851  0.4548
 2302SOL    HW218540   3.181   1.289   3.431  1.4059 -0.6476  1.1173
 2303SOL     OW18541   1.723   4.542   4.856 -0.0493 -0.1282  0.5393
 2303SOL    HW118542   1.786   4.480   4.890  0.3996  0.5988  1.0344
 2303SOL    HW218543   1.641   4.519   4.900  0.2778 -0.9687  0.7074
 2304SOL     OW18544   0.137   3.375   3.594  0.0625  0.3969 -0.3687
 2304SOL    HW118545   0.118   3.448   3.653  0.2283 -1.0008  1.4026
 2304SOL    HW218546   0.049   3.339   3.583  0.1808  0.9267 -2.9037
 2305SOL     OW18547   4.488   0.588   3.145  0.2579 -0.0287 -0.1794
 2305SOL    HW118548   4.571   0.565   3.103 -0.4405 -0.4037 -1.3529
 2305SOL    HW218549   4.519   0.674   3.173  1.6789  0.3624 -2.9411
 2306SOL     OW18550   1.419   4.318  15.381 -0.1857 -1.1995  0.4588
 2306SOL    HW118551   1.455   4.393  15.332 -0.5205 -0.2346  1.6963
 2306SOL    HW218552   1.498   4.288  15.425  0.7936  0.8807  0.1238
 2307SOL     OW18553   1.761   1.204  17.403 -0.1259 -0.1988  0.7611
 2307SOL    HW118554   1.825   1.222  17.335  1.0815  1.4338  2.3204
 2307SOL    HW218555   1.680   1.207  17.353 -1.1224 -1.6410  2.2626
 2308SOL     OW18556   4.409   1.037   8.460  0.1301 -0.0467 -1.1179
 2308SOL    HW118557   4.454   1.082   8.532  0.7312 -3.7339  0.7697
 2308SOL    HW218558   4.404   0.947   8.490  0.3002  0.0816 -0.6940
 2309SOL     OW18559   3.929   3.817   8.817  0.1192  0.1147  0.2845
 2309SOL    HW118560   3.973   3.794   8.898 -1.4390  0.6477  1.2849
 2309SOL    HW218561   3.966   3.903   8.793  0.2455  0.6048  2.2498
 2310SOL     OW18562   1.461   2.818  16.357  0.3458 -0.4079  0.4158
 2310SOL    HW118563   1.486   2.870  16.434  1.0934  1.2793 -0.9623
 2310SOL    HW218564   1.455   2.887  16.290 -1.1339 -0.1022  0.8407
 2311SOL     OW18565   2.049   2.527   2.408 -0.1689  0.2270 -0.3516
 2311SOL    HW118566   2.040   2.461   2.478 -1.4293  0.3829 -0.3822
 2311SOL    HW218567   1.965   2.522   2.364  0.6454 -0.0859 -1.8811
 2312SOL     OW18568   2.406   2.819   2.136 -0.1133 -0.3140  0.0655
 2312SOL    HW118569   2.317   2.794   2.160 -0.2588  2.0528  2.0060
 2312SOL    HW218570   2.448   2.738   2.106 -0.9018 -1.0112  0.8352
 2313SOL     OW18571   3.169   2.824   0.281 -0.2742  0.0619  0.1050
 2313SOL    HW118572   3.250   2.863   0.248 -0.2894  0.4906  0.5762
 2313SOL    HW218573   3.133   2.902   0.322  1.7762  0.5820  0.9330
 2314SOL     OW18574   4.185   4.297   3.566 -0.2905 -0.4798  0.0021
 2314SOL    HW118575   4.192   4.300   3.471 -1.6166  1.3308 -0.0433
 2314SOL    HW218576   4.243   4.369   3.590 -0.7615 -1.1511  3.2027
 2315SOL     OW18577   0.665   3.778   4.831 -0.0366 -0.0495  0.0905
 2315SOL    HW118578   0.660   3.683   4.845  2.0427 -0.1238  0.3731
 2315SOL    HW218579   0.645   3.772   4.738 -0.8346 -0.3574  0.2858
 2316SOL     OW18580   4.604   1.418   0.165  0.3751  0.0338  0.0377
 2316SOL    HW118581   4.619   1.367   0.086  1.4992  1.3732 -0.6178
 2316SOL    HW218582   4.645   1.371   0.237 -0.0116  4.9089  3.4594
 2317SOL     OW18583   3.263   4.637   7.088 -0.4103  0.1960 -0.5087
 2317SOL    HW118584   3.229   4.560   7.041  1.4750 -0.9498  0.0080
 2317SOL    HW218585   3.207   4.707   7.055 -0.2303 -0.0192 -1.2635
 2318SOL     OW18586   0.971   4.715   8.087  0.0291  0.2233  0.5288
 2318SOL    HW118587   0.996   4.627   8.060  0.9389  0.7258 -0.2605
 2318SOL    HW218588   0.939   4.696   8.175 -0.5467 -0.8957  0.0785
 2319SOL     OW18589   3.214   1.064  10.123  0.0907  0.2787 -0.4399
 2319SOL    HW118590   3.132   1.098  10.085 -0.4200 -0.1689  0.2536
 2319SOL    HW218591   3.190   0.972  10.117  0.8717  0.0789 -0.3568
 2320SOL     OW18592   0.785   3.495   6.738 -0.3369 -0.8018 -0.4480
 2320SOL    HW118593   0.741   3.422   6.694 -5.5495  0.3162  2.8134
 2320SOL    HW218594   0.851   3.438   6.777 -0.2037  0.8340  1.7378
 2321SOL     OW18595   3.241   1.250  13.994 -0.3592 -0.0155  0.0930
 2321SOL    HW118596   3.161   1.199  14.007 -0.0618  0.0245  2.0256
 2321SOL    HW218597   3.197   1.317  13.941 -0.1494 -0.9722 -1.2904
 2322SOL     OW18598   1.535   0.235   1.419  0.6239 -0.0045  0.1389
 2322SOL    HW118599   1.617   0.224   1.468  1.4264 -0.3002 -1.2603
 2322SOL    HW218600   1.513   0.324   1.446 -3.6447 -1.0042 -0.0382
 2323SOL     OW18601   1.645   1.506   8.814  0.2571  0.5524 -0.4127
 2323SOL    HW118602   1.554   1.483   8.794 -0.1801  1.4078  0.6270
 2323SOL    HW218603   1.663   1.436   8.877 -1.8444  1.1301  0.8056
 2324SOL     OW18604   1.559   2.570  13.232  0.0676  0.5135  0.0695
 2324SOL    HW118605   1.614   2.492  13.234 -1.7466 -0.7815 -0.4608
 2324SOL    HW218606   1.544   2.574  13.138  2.0387  0.9380 -0.2085
 2325SOL     OW18607   3.832   3.075  12.410  0.1298  0.1860  0.1520
 2325SOL    HW118608   3.812   3.126  12.488 -1.5163 -1.5498  0.8654
 2325SOL    HW218609   3.922   3.105  12.399  0.6969 -1.6925 -0.4536
 2326SOL     OW18610   0.427   0.916   2.461 -0.0999  0.0630 -0.3174
 2326SOL    HW118611   0.384   0.837   2.428  0.4598 -0.7191  0.8186
 2326SOL    HW218612   0.517   0.913   2.427 -0.7937  0.5093 -2.1876
 2327SOL     OW18613   0.870   4.655   5.711 -0.7070  0.8080 -0.1732
 2327SOL    HW118614   0.899   4.711   5.783 -1.0125  0.9730 -0.1748
 2327SOL    HW218615   0.897   4.568   5.740  0.6545  0.8527 -1.3430
 2328SOL     OW18616   1.982   0.295   6.717  0.0910 -0.4689 -0.3596
 2328SOL    HW118617   1.913   0.314   6.653  2.1307  0.3521 -2.3182
 2328SOL    HW218618   2.041   0.260   6.650 -0.3945 -2.5101  0.2699
 2329SOL     OW18619   4.258   2.088   3.988 -0.1110 -0.0630 -0.6272
 2329SOL    HW118620   4.187   2.109   4.048  0.7464 -1.3521  0.8259
 2329SOL    HW218621   4.205   2.053   3.917  0.6343 -1.3970 -0.5179
 2330SOL     OW18622   0.262   2.125   6.195  0.3965  0.4201  0.3706
 2330SOL    HW118623   0.306   2.073   6.127  0.1995  0.9250 -0.1481
 2330SOL    HW218624   0.342   2.164   6.230 -0.5562  1.2289  1.6438
 2331SOL     OW18625   3.082   3.127   0.932  0.4733 -0.4196 -0.8669
 2331SOL    HW118626   3.164   3.154   0.891 -0.3956  1.5754 -1.2668
 2331SOL    HW218627   3.032   3.207   0.917  0.3975 -0.5591 -1.3720
 2332SOL     OW18628   4.496   3.646   6.028  0.2035  0.4137  0.7112
 2332SOL    HW118629   4.572   3.703   6.019  0.8611 -1.3927 -5.1000
 2332SOL    HW218630   4.427   3.713   6.035 -0.9479 -0.5348 -1.5528
 2333SOL     OW18631   4.124   1.222  16.328 -0.2118 -0.3766  0.0665
 2333SOL    HW118632   4.160   1.137  16.302  0.7977 -0.8538  3.0155
 2333SOL    HW218633   4.193   1.281  16.295 -1.8675  1.8911  0.6310
 2334SOL     OW18634   3.124   0.912   2.400  0.3491  0.5243 -0.1624
 2334SOL    HW118635   3.151   0.822   2.420  0.2601  0.7066  0.7342
 2334SOL    HW218636   3.112   0.916   2.305 -0.2640 -3.6710 -0.2512
 2335SOL     OW18637   2.258   1.048   4.493  0.3063 -0.2993 -0.1831
 2335SOL    HW118638   2.299   1.047   4.406 -0.3853  1.1847 -0.5236
 2335SOL    HW218639   2.178   1.000   4.469 -0.5129  1.5050 -1.0244
 2336SOL     OW18640   1.419   0.935  12.682  0.1093 -0.5279 -0.2451
 2336SOL    HW118641   1.512   0.953  12.695  0.3520 -0.6999 -1.7224
 2336SOL    HW218642   1.414   0.881  12.603 -0.1339 -0.8940  0.0221
 2337SOL     OW18643   2.037   0.153   8.455  0.3482  0.2249 -0.0687
 2337SOL    HW118644   1.944   0.173   8.439  0.1512 -1.7872 -1.2856
 2337SOL    HW218645   2.046   0.060   8.438  1.8777  0.0346  1.7377
 2338SOL     OW18646   3.432   0.847   9.579  0.0818  0.0060 -0.2768
 2338SOL    HW118647   3.412   0.941   9.573 -0.6406 -0.0833  0.6142
 2338SOL    HW218648   3.412   0.831   9.671 -1.8449  0.9359 -0.5335
 2339SOL     OW18649   0.586   1.124  11.354 -0.5081 -0.5991  0.1867
 2339SOL    HW118650   0.526   1.108  11.426 -0.4958 -0.6646  0.1827
 2339SOL    HW218651   0.603   1.218  11.360 -0.1382 -0.6754  0.3607
 2340SOL     OW18652   3.913   4.597  16.233 -0.0551  0.2814 -0.9004
 2340SOL    HW118653   3.962   4.533  16.181  1.0845 -1.3881  2.2694
 2340SOL    HW218654   3.850   4.638  16.173 -0.5026  1.9959  0.7539
 2341SOL     OW18655   0.611   0.344   9.456  0.0107  0.1910  0.1195
 2341SOL    HW118656   0.606   0.355   9.551  2.9727  1.2493  0.1524
 2341SOL    HW218657   0.577   0.255   9.442 -1.5776  0.6467  1.0797
 2342SOL     OW18658   0.489   3.821  12.722  0.7715 -0.7807 -0.2494
 2342SOL    HW118659   0.530   3.906  12.707 -0.7826 -0.0355 -0.2296
 2342SOL    HW218660   0.436   3.798  12.646  1.2563 -1.1381 -0.4797
 2343SOL     OW18661   4.458   2.787   6.895 -0.3722 -0.4534 -0.3861
 2343SOL    HW118662   4.437   2.721   6.830  0.7311 -1.4603  0.2614
 2343SOL    HW218663   4.381   2.793   6.952 -0.7630 -0.6423 -0.9031
 2344SOL     OW18664   2.168   3.444   8.794 -1.1134  0.3252  0.2843
 2344SOL    HW118665   2.106   3.409   8.858 -0.9480 -2.6049 -1.1486
 2344SOL    HW218666   2.243   3.467   8.849 -0.5375  1.0893 -0.8235
 2345SOL     OW18667   0.914   1.228   8.542  0.0605 -0.0179 -0.6748
 2345SOL    HW118668   0.946   1.141   8.521  1.9454 -0.1128  2.6710
 2345SOL    HW218669   0.904   1.222   8.637  1.8899 -3.6873 -0.7082
 2346SOL     OW18670   2.967   3.441  16.269 -0.6495  0.9736 -0.2694
 2346SOL    HW118671   2.912   3.481  16.202  0.0727  0.2210 -1.3062
 2346SOL    HW218672   2.908   3.432  16.344 -0.2652 -2.4320 -0.3968
 2347SOL     OW18673   0.217   3.835   7.840 -0.2260 -0.1197 -0.0004
 2347SOL    HW118674   0.148   3.849   7.776  0.6926  1.9472 -0.5388
 2347SOL    HW218675   0.277   3.909   7.831  0.6937 -0.8495  0.1253
 2348SOL     OW18676   0.195   1.311   2.158 -0.3329  0.1608 -0.4425
 2348SOL    HW118677   0.255   1.306   2.084  0.9280 -2.0006  0.7253
 2348SOL    HW218678   0.256   1.278   2.224 -0.0981 -0.1125 -0.7973
 2349SOL     OW18679   0.828   1.939   5.980  0.4021  0.1566 -0.4637
 2349SOL    HW118680   0.833   1.993   6.060 -0.2855  1.3451 -1.2249
 2349SOL    HW218681   0.856   1.852   6.007  1.8151  1.1734  1.3718
 2350SOL     OW18682   1.239   2.806   3.200 -0.1535  0.1693 -0.5402
 2350SOL    HW118683   1.281   2.728   3.236  1.0311  0.7546 -0.6672
 2350SOL    HW218684   1.311   2.850   3.157 -1.4067  1.5582 -1.2097
 2351SOL     OW18685   3.084   0.254  14.025  0.4055 -0.2532  0.5175
 2351SOL    HW118686   3.095   0.293  13.938  1.0097  0.7750  1.0460
 2351SOL    HW218687   3.145   0.302  14.082 -0.2049  0.0088  0.9431
 2352SOL     OW18688   1.717   2.913  15.404  0.3935  0.2051 -0.5580
 2352SOL    HW118689   1.808   2.913  15.435  0.3427 -2.0281 -0.4001
 2352SOL    HW218690   1.660   2.884  15.474  0.0181  0.4820 -0.7443
 2353SOL     OW18691   4.142   1.478   9.480  0.1785  0.2630  0.4340
 2353SOL    HW118692   4.080   1.482   9.552  0.0586 -0.4308  0.3627
 2353SOL    HW218693   4.208   1.541   9.509  0.2431  0.6853 -0.6225
 2354SOL     OW18694   3.260   1.804  12.609  0.4620 -0.2087  0.5391
 2354SOL    HW118695   3.295   1.717  12.594 -0.8745 -0.5668 -0.4297
 2354SOL    HW218696   3.345   1.842  12.633  0.0171  0.8970  0.3730
 2355SOL     OW18697   0.085   0.280   5.670  0.1739  0.3866 -0.0805
 2355SOL    HW118698   4.732   0.293   5.690 -0.2188 -0.4871 -1.3302
 2355SOL    HW218699   0.123   0.360   5.705  1.2555 -1.6135  3.3604
 2356SOL     OW18700   1.557   0.849   9.014 -0.7627  0.3633  0.1090
 2356SOL    HW118701   1.588   0.886   9.097  3.3760  1.6123 -1.9986
 2356SOL    HW218702   1.463   0.866   9.017 -0.4110  2.4532 -1.0250
 2357SOL     OW18703   3.860   1.845  13.267 -0.2079  0.7077  0.3640
 2357SOL    HW118704   3.847   1.795  13.347 -2.3227  0.4390 -0.1332
 2357SOL    HW218705   3.889   1.929  13.303 -1.1120  0.6731  1.1692
 2358SOL     OW18706   3.525   1.155   6.147  0.2299 -0.1015 -0.4848
 2358SOL    HW118707   3.489   1.073   6.114 -1.0200  0.4624 -0.4996
 2358SOL    HW218708   3.444   1.175   6.194  1.5331 -0.1514  1.7495
 2359SOL     OW18709   1.982   1.389  11.206 -0.0601  0.2444 -0.3227
 2359SOL    HW118710   1.989   1.311  11.151  1.7970  0.4785 -0.4102
 2359SOL    HW218711   2.032   1.364  11.284  0.0830 -0.8686 -0.7640
 2360SOL     OW18712   2.125   4.100   7.136  0.0115 -0.5707 -0.1388
 2360SOL    HW118713   2.218   4.099   7.161 -0.0538 -1.2206  0.0809
 2360SOL    HW218714   2.123   4.139   7.049 -0.8259  0.5435  0.3782
 2361SOL     OW18715   0.496   2.521   2.315 -0.2682 -0.5400  0.2930
 2361SOL    HW118716   0.435   2.595   2.316  0.0721 -0.2932  4.5114
 2361SOL    HW218717   0.498   2.490   2.225 -2.5233  1.1901 -0.3570
 2362SOL     OW18718   3.868   1.390   2.323  0.2816 -0.0285  0.4116
 2362SOL    HW118719   3.842   1.322   2.261  2.5204  0.6893 -1.3103
 2362SOL    HW218720   3.791   1.445   2.315  0.1055 -0.5875 -1.7929
 2363SOL     OW18721   1.596   3.821  16.386  0.2905 -0.5830  0.0746
 2363SOL    HW118722   1.530   3.832  16.454  1.3268 -0.0174  0.9800
 2363SOL    HW218723   1.537   3.809  16.311 -0.2471 -0.2943  0.4483
 2364SOL     OW18724   2.298   1.896   7.046  0.0585  0.0269 -0.0406
 2364SOL    HW118725   2.213   1.903   7.089  0.1735 -0.7748  0.3180
 2364SOL    HW218726   2.305   1.988   7.020  1.1875 -0.4027 -1.3065
 2365SOL     OW18727   4.351   2.875  13.451 -0.1817 -0.4369  0.5655
 2365SOL    HW118728   4.321   2.794  13.493  0.8744 -0.8036  0.6131
 2365SOL    HW218729   4.285   2.881  13.382 -0.7156  3.4484  1.4377
 2366SOL     OW18730   2.542   4.112  17.245  0.1564  0.0982  0.0298
 2366SOL    HW118731   2.580   4.107  17.332 -1.4891  1.0953  0.7986
 2366SOL    HW218732   2.604   4.172  17.204 -1.1465 -0.3969 -2.6590
 2367SOL     OW18733   0.442   3.924  11.070  0.4380 -0.1794  0.3173
 2367SOL    HW118734   0.456   3.874  11.151 -0.5558  0.2319  0.7538
 2367SOL    HW218735   0.421   4.010  11.106  2.7168 -0.2478  1.8159
 2368SOL     OW18736   1.529   3.537   9.731 -0.0204  0.1931 -0.7012
 2368SOL    HW118737   1.602   3.479   9.749  1.7851  2.9523  0.9295
 2368SOL    HW218738   1.578   3.619   9.721  0.1190  0.4317  1.9384
 2369SOL     OW18739   4.576   0.979   6.357 -0.2088 -0.0749 -0.4410
 2369SOL    HW118740   4.485   0.960   6.335  0.0418 -0.4728 -1.1317
 2369SOL    HW218741   4.572   1.046   6.426 -1.8200  0.3689 -0.9769
 2370SOL     OW18742   1.671   2.007   0.068  0.1275 -0.2096 -0.0844
 2370SOL    HW118743   1.727   1.997  17.747 -1.1348  1.9756 -1.2617
 2370SOL    HW218744   1.682   1.922   0.112 -0.3838 -0.2839 -0.1093
 2371SOL     OW18745   1.241   2.648   6.838 -0.1284  0.4366  0.4221
 2371SOL    HW118746   1.245   2.740   6.865  2.2625  0.8381 -1.3449
 2371SOL    HW218747   1.314   2.638   6.776 -0.1558 -0.7328  0.5731
 2372SOL     OW18748   0.175   2.138   3.235 -0.2006  0.1058  0.5506
 2372SOL    HW118749   0.128   2.069   3.281  0.3482  0.3808  1.5223
 2372SOL    HW218750   0.261   2.130   3.275  0.1109 -2.6870 -0.6606
 2373SOL     OW18751   2.208   2.958  12.951 -0.1280  0.4932 -0.4900
 2373SOL    HW118752   2.154   3.004  13.016  1.5268  1.5916  0.1129
 2373SOL    HW218753   2.294   2.952  12.992 -0.2030  2.0725 -0.0769
 2374SOL     OW18754   2.403   2.296   5.343 -0.1112 -0.7458 -0.2870
 2374SOL    HW118755   2.469   2.283   5.411 -0.7775 -0.2180  0.4578
 2374SOL    HW218756   2.356   2.370   5.381 -1.0644 -2.3863  1.7113
 2375SOL     OW18757   0.602   3.197  14.869  0.5155  0.0287  0.7124
 2375SOL    HW118758   0.578   3.174  14.779 -1.0632 -0.9669  1.3838
 2375SOL    HW218759   0.531   3.155  14.918  0.5776 -1.2962 -0.3167
 2376SOL     OW18760   2.452   1.476   4.488  0.0151  0.4618  0.0122
 2376SOL    HW118761   2.492   1.425   4.559  0.9717 -2.2037 -2.4766
 2376SOL    HW218762   2.373   1.427   4.466  0.0603  0.0112  0.8606
 2377SOL     OW18763   4.595   0.802   5.921  0.1411  0.3224 -0.1748
 2377SOL    HW118764   4.665   0.846   5.873  0.6712 -0.4443 -0.1054
 2377SOL    HW218765   4.529   0.872   5.927 -1.1047 -0.9545  1.0162
 2378SOL     OW18766   0.108   2.508   6.651  0.6279 -1.0105  0.0843
 2378SOL    HW118767   0.032   2.508   6.593  0.0912  3.5424  0.7898
 2378SOL    HW218768   0.064   2.474   6.729  0.3158 -0.1709  0.2734
 2379SOL     OW18769   0.295   1.732  14.569 -0.1051 -0.2060 -0.0983
 2379SOL    HW118770   0.363   1.790  14.604 -1.6107  1.1723  0.5470
 2379SOL    HW218771   0.309   1.655  14.625  0.0299 -1.2537 -1.5757
 2380SOL     OW18772   2.710   0.931   2.717  0.1692 -0.0969  0.2213
 2380SOL    HW118773   2.775   0.947   2.648 -1.3230  0.2449 -1.1022
 2380SOL    HW218774   2.753   0.965   2.796 -0.5732 -1.2742  1.1368
 2381SOL     OW18775   0.352   0.349   6.898 -0.2395 -0.3322  0.2449
 2381SOL    HW118776   0.264   0.324   6.928 -0.2883 -1.3612 -0.7094
 2381SOL    HW218777   0.326   0.386   6.813  0.4197 -1.5901 -0.5156
 2382SOL     OW18778   0.188   0.078  16.849 -0.0177 -0.3140 -0.0099
 2382SOL    HW118779   0.149   4.730  16.841  0.1354 -0.4297  0.4785
 2382SOL    HW218780   0.242   0.068  16.928  0.0448  2.8739  0.3689
 2383SOL     OW18781   4.324   3.103   5.859 -0.2455  0.0573  0.0297
 2383SOL    HW118782   4.387   3.087   5.929  1.8436 -1.0326 -2.1311
 2383SOL    HW218783   4.366   3.075   5.778  2.2572  0.2425  1.2636
 2384SOL     OW18784   3.386   2.913  11.709 -0.3786 -0.3765 -0.2670
 2384SOL    HW118785   3.463   2.860  11.730 -0.3221 -0.0456  0.3437
 2384SOL    HW218786   3.410   2.959  11.629  0.3920 -0.9006 -0.3340
 2385SOL     OW18787   2.853   2.086   6.501 -0.1004 -0.5680  0.5769
 2385SOL    HW118788   2.919   2.155   6.492 -1.9599  1.0439 -0.6056
 2385SOL    HW218789   2.853   2.069   6.595 -0.4947 -1.8882  0.3418
 2386SOL     OW18790   4.410   3.210   7.861 -0.0503  0.3971 -0.4749
 2386SOL    HW118791   4.496   3.203   7.818 -0.1842  2.2880 -1.0682
 2386SOL    HW218792   4.392   3.123   7.897 -2.2381  1.2402  0.4333
 2387SOL     OW18793   1.218   2.883   5.877  0.3945 -0.0617 -0.4123
 2387SOL    HW118794   1.256   2.800   5.907  0.6932  0.5202  0.8552
 2387SOL    HW218795   1.154   2.903   5.945 -1.0806 -1.0903 -1.4975
 2388SOL     OW18796   2.715   4.524   6.377  0.1126  0.3104 -0.0166
 2388SOL    HW118797   2.681   4.505   6.290  1.1186  0.5938 -0.4745
 2388SOL    HW218798   2.803   4.486   6.371 -0.3918 -0.6335 -1.3366
 2389SOL     OW18799   2.538   1.175   5.513 -0.1128  0.3206 -0.0630
 2389SOL    HW118800   2.619   1.137   5.546  0.5745  1.6407 -0.2313
 2389SOL    HW218801   2.480   1.144   5.583  0.2320  1.3955  0.7020
 2390SOL     OW18802   0.952   0.326  11.696  0.7802  0.5900  0.4326
 2390SOL    HW118803   1.010   0.392  11.659  0.4452 -0.1378 -1.3829
 2390SOL    HW218804   0.890   0.307  11.626 -2.2990  1.0700  3.0331
 2391SOL     OW18805   0.771   3.455   6.023 -0.5223  0.3751  0.1205
 2391SOL    HW118806   0.749   3.530   6.078 -1.6623  0.5907 -0.6295
 2391SOL    HW218807   0.755   3.376   6.075  1.0123 -1.4168 -2.1233
 2392SOL     OW18808   2.492   3.529   1.786 -0.5626  0.5067 -0.7243
 2392SOL    HW118809   2.564   3.592   1.781 -0.8547  0.7942 -1.3549
 2392SOL    HW218810   2.428   3.560   1.722 -1.8475  0.7291  0.6610
 2393SOL     OW18811   3.698   0.728  14.790  0.0386  0.9214 -0.1254
 2393SOL    HW118812   3.627   0.681  14.746 -0.2885  1.6322 -0.3594
 2393SOL    HW218813   3.730   0.659  14.848 -0.0920 -1.0735 -2.4570
 2394SOL     OW18814   2.674   2.561   4.038  0.1990 -0.3895 -0.5279
 2394SOL    HW118815   2.675   2.512   3.956 -0.8796  0.8514 -1.2705
 2394SOL    HW218816   2.628   2.500   4.096  2.6728 -0.8777  0.9346
 2395SOL     OW18817   4.511   0.139   9.809  0.0675 -0.1770 -0.0876
 2395SOL    HW118818   4.582   0.129   9.873  1.6843  0.1124 -1.8388
 2395SOL    HW218819   4.520   0.232   9.790 -1.8879 -0.0029 -0.1320
 2396SOL     OW18820   2.889   4.184   6.939 -0.6971 -0.4281  0.3103
 2396SOL    HW118821   2.828   4.119   6.972  0.3752 -1.7250 -0.2682
 2396SOL    HW218822   2.829   4.258   6.926  3.0306  2.5714  0.0858
 2397SOL     OW18823   1.145   0.695   5.726  0.2592  0.1938  0.1774
 2397SOL    HW118824   1.091   0.769   5.697 -1.1629 -0.4351  1.2157
 2397SOL    HW218825   1.088   0.647   5.785 -0.5187  2.5489  1.3439
 2398SOL     OW18826   0.350   1.746   2.202  0.3731 -0.9170  0.1045
 2398SOL    HW118827   0.345   1.833   2.161 -2.1576 -2.0780 -2.0509
 2398SOL    HW218828   0.444   1.732   2.218  0.9540  2.7602  0.1463
 2399SOL     OW18829   0.221   3.308  14.515 -0.2352  0.1371 -0.2596
 2399SOL    HW118830   0.142   3.255  14.524  1.1412 -1.8712  0.1341
 2399SOL    HW218831   0.197   3.382  14.571 -0.3300  0.9561 -1.3976
 2400SOL     OW18832   3.452   1.404   0.851  0.4270  0.5588 -0.3989
 2400SOL    HW118833   3.375   1.359   0.887 -0.7097 -0.0832 -3.6191
 2400SOL    HW218834   3.415   1.490   0.832  2.6720  1.9440  1.5502
 2401SOL     OW18835   3.726   0.842  15.419  0.0170 -0.4975  0.4751
 2401SOL    HW118836   3.645   0.824  15.465 -1.1502 -1.1271 -1.8146
 2401SOL    HW218837   3.712   0.791  15.339 -0.7249  0.7402 -0.2023
 2402SOL     OW18838   2.708   1.770   1.904  0.0261 -0.4811 -0.6752
 2402SOL    HW118839   2.677   1.860   1.897 -0.9777 -0.7551  0.2279
 2402SOL    HW218840   2.651   1.737   1.974  0.2134  2.6069  0.9225
 2403SOL     OW18841   3.250   1.003   7.844 -0.0997 -0.8638 -0.0043
 2403SOL    HW118842   3.321   0.960   7.891  0.9501  0.7478 -0.1155
 2403SOL    HW218843   3.272   1.096   7.844 -1.0434 -0.6366  0.6022
 2404SOL     OW18844   3.824   3.117   0.095 -0.2709 -0.3765 -0.9187
 2404SOL    HW118845   3.757   3.049   0.086  1.1261 -1.7349 -1.1087
 2404SOL    HW218846   3.887   3.086   0.029  0.6637 -0.7800  0.1656
 2405SOL     OW18847   4.424   2.233   2.643  0.3812 -0.3564  1.0053
 2405SOL    HW118848   4.366   2.174   2.595 -1.4032  0.2932  2.3600
 2405SOL    HW218849   4.383   2.257   2.726  0.4673 -0.0228  0.9513
 2406SOL     OW18850   0.253   2.084   2.551 -0.0013  0.0160  0.2873
 2406SOL    HW118851   0.260   2.162   2.605  1.5389 -0.1623  0.3324
 2406SOL    HW218852   0.341   2.085   2.515  0.2407 -0.6515  0.8571
 2407SOL     OW18853   2.743   3.094   4.432 -0.1671  0.0345  0.3965
 2407SOL    HW118854   2.737   3.093   4.528 -0.4865  0.2194  0.3782
 2407SOL    HW218855   2.700   3.179   4.419 -1.1506 -0.4385  0.5088
 2408SOL     OW18856   3.050   2.465   4.381  0.3694 -0.0898  0.0175
 2408SOL    HW118857   3.089   2.517   4.452 -0.5340  3.3737 -2.0147
 2408SOL    HW218858   3.007   2.529   4.324  2.9330  1.2482 -0.4422
 2409SOL     OW18859   2.615   0.685   4.016 -0.0463 -0.7945 -0.0156
 2409SOL    HW118860   2.648   0.649   3.934  0.8098  0.8618 -0.3917
 2409SOL    HW218861   2.689   0.730   4.057 -0.5709 -0.3005  0.3883
 2410SOL     OW18862   4.151   3.604   1.693  0.2069 -0.1811  0.2550
 2410SOL    HW118863   4.135   3.529   1.636  1.0499 -1.0337  1.1297
 2410SOL    HW218864   4.241   3.585   1.721  0.3481  1.1074  0.7001
 2411SOL     OW18865   2.102   3.841  10.997  0.6971 -0.3204 -0.0630
 2411SOL    HW118866   2.092   3.917  11.054 -2.4840 -0.0881 -0.9543
 2411SOL    HW218867   2.022   3.793  11.019  1.2120 -1.2155 -0.1241
 2412SOL     OW18868   1.335   4.169  12.229 -0.1297  0.0918  0.0564
 2412SOL    HW118869   1.285   4.200  12.154  1.4316  1.2348 -0.5288
 2412SOL    HW218870   1.344   4.077  12.204 -2.9717 -0.9550  2.8272
 2413SOL     OW18871   4.013   2.975   3.963  0.2125 -0.1882 -0.0904
 2413SOL    HW118872   4.012   3.024   3.880  1.6456 -1.2040 -0.7079
 2413SOL    HW218873   4.045   3.044   4.021 -0.6565  0.6803 -0.6273
 2414SOL     OW18874   4.405   1.394   3.462  0.6052 -0.4349  1.0666
 2414SOL    HW118875   4.321   1.391   3.507  0.3057 -0.0392  0.5395
 2414SOL    HW218876   4.438   1.479   3.490  1.5861 -0.3260 -0.3897
 2415SOL     OW18877   2.411   0.065   1.495  0.0378  0.5519  0.2390
 2415SOL    HW118878   2.329   0.101   1.460  0.3103 -0.0988 -1.0624
 2415SOL    HW218879   2.474   0.099   1.432  0.1964  0.0703  0.1339
 2416SOL     OW18880   3.868   4.730  17.525 -0.0167 -0.0495 -0.0910
 2416SOL    HW118881   3.804   4.688  17.468 -0.0687  0.0255 -0.0871
 2416SOL    HW218882   3.944   4.735  17.466  2.3505 -1.9577  2.7758
 2417SOL     OW18883   3.719   1.034  11.738  0.5740  0.1682  0.5327
 2417SOL    HW118884   3.662   1.082  11.799 -0.7395  1.3189 -1.5781
 2417SOL    HW218885   3.655   1.000  11.675  1.8730 -0.3567 -0.5083
 2418SOL     OW18886   3.726   2.028  11.396 -0.3413  0.2520 -0.2271
 2418SOL    HW118887   3.720   2.107  11.343 -0.0084 -0.3319 -1.1391
 2418SOL    HW218888   3.686   1.962  11.339 -1.5434 -0.0530  0.9534
 2419SOL     OW18889   2.629   2.716   7.957  0.4151 -0.5380 -0.4517
 2419SOL    HW118890   2.641   2.730   7.863 -2.1913 -2.6973 -1.0755
 2419SOL    HW218891   2.537   2.691   7.953 -0.1773  1.1117  2.2741
 2420SOL     OW18892   2.569   1.324   3.260 -0.2364  0.6166  0.1792
 2420SOL    HW118893   2.482   1.311   3.222  0.6361 -1.0048 -1.3052
 2420SOL    HW218894   2.551   1.345   3.352 -0.2664 -0.9604  0.5441
 2421SOL     OW18895   4.668   3.021   9.853  0.2731  0.6678  0.4780
 2421SOL    HW118896   4.662   3.113   9.880 -0.5112  0.4464  1.0485
 2421SOL    HW218897   4.736   3.029   9.786  0.2957  0.9029  0.5282
 2422SOL     OW18898   0.645   1.459   2.891  0.6831  0.1566 -0.2126
 2422SOL    HW118899   0.709   1.530   2.892  2.8507 -1.7933 -0.0035
 2422SOL    HW218900   0.564   1.509   2.880  0.4701  0.1008  1.1546
 2423SOL     OW18901   3.509   3.746  15.915 -0.5759 -0.2962 -0.4382
 2423SOL    HW118902   3.551   3.664  15.941  0.3075  0.5606  0.8223
 2423SOL    HW218903   3.419   3.720  15.894 -1.2217  1.9684 -0.5087
 2424SOL     OW18904   4.091   4.312   6.812  0.1341  0.2074 -0.5978
 2424SOL    HW118905   4.134   4.386   6.856  0.6149  0.1249 -0.9297
 2424SOL    HW218906   4.030   4.281   6.880  0.5694  1.7842  0.5087
 2425SOL     OW18907   3.601   1.462  15.323 -0.1856  0.7331  0.1423
 2425SOL    HW118908   3.607   1.512  15.404 -2.7204 -0.5592  1.1076
 2425SOL    HW218909   3.679   1.496  15.278  1.1837 -0.7434  1.4019
 2426SOL     OW18910   0.477   1.528   8.368 -0.0796 -0.4600  0.2333
 2426SOL    HW118911   0.533   1.600   8.339  0.8658 -1.9053 -1.5375
 2426SOL    HW218912   0.424   1.518   8.289 -1.2647 -1.1157  1.1168
 2427SOL     OW18913   0.623   1.024   8.227 -0.1349 -0.2692 -0.3532
 2427SOL    HW118914   0.575   0.960   8.279 -1.4116  1.5780  0.7381
 2427SOL    HW218915   0.626   0.982   8.141  0.6616  1.3305 -1.1158
 2428SOL     OW18916   3.740   0.154   5.111 -0.2138 -0.0977 -0.8249
 2428SOL    HW118917   3.801   0.083   5.131  0.8800  0.6663 -1.4764
 2428SOL    HW218918   3.776   0.179   5.026 -1.3483  0.9355 -0.9960
 2429SOL     OW18919   2.249   1.840   1.325 -0.0147  0.0137 -0.1915
 2429SOL    HW118920   2.183   1.907   1.306  0.4783  0.1326 -1.4934
 2429SOL    HW218921   2.208   1.763   1.286  0.7262 -0.5442  0.1434
 2430SOL     OW18922   3.807   1.174   9.188 -0.1189  0.1013 -0.0866
 2430SOL    HW118923   3.850   1.257   9.208 -1.4349  0.4589  1.2824
 2430SOL    HW218924   3.742   1.178   9.258  0.3779 -0.0302  0.3744
 2431SOL     OW18925   1.209   2.106  15.242  0.1431 -0.0159 -0.0845
 2431SOL    HW118926   1.290   2.156  15.256 -1.2066  2.3463 -0.6414
 2431SOL    HW218927   1.155   2.182  15.220 -0.9765 -0.2807  1.7971
 2432SOL     OW18928   4.073   3.612   4.001 -0.5002  0.1650 -0.3119
 2432SOL    HW118929   4.163   3.618   3.968 -0.2021  2.5066  0.9131
 2432SOL    HW218930   4.024   3.588   3.923  0.2470 -1.5829 -0.2468
 2433SOL     OW18931   3.937   4.681   5.136 -0.1038  0.3821  0.2019
 2433SOL    HW118932   4.001   4.654   5.201  2.3898  1.5808 -1.7450
 2433SOL    HW218933   3.985   0.003   5.080  0.5898  0.9019  1.3661
 2434SOL     OW18934   2.754   2.613   3.250  0.7673  0.0095 -0.3820
 2434SOL    HW118935   2.750   2.627   3.156 -1.4037 -0.1274 -0.3102
 2434SOL    HW218936   2.687   2.667   3.292  3.6333  2.6599  0.8211
 2435SOL     OW18937   2.291   4.533  14.748  0.8448  0.5142 -0.1926
 2435SOL    HW118938   2.236   4.585  14.689  0.2368  0.4863  0.3467
 2435SOL    HW218939   2.246   4.449  14.739 -0.0727  1.1058 -1.2860
 2436SOL     OW18940   1.436   0.197   8.172  0.1211  0.1749  0.1185
 2436SOL    HW118941   1.526   0.223   8.150  0.0084 -0.1115 -0.7118
 2436SOL    HW218942   1.387   0.235   8.099 -0.6913 -1.7342 -0.3346
 2437SOL     OW18943   0.922   1.961  10.179 -0.0723 -1.0342  0.0857
 2437SOL    HW118944   0.839   1.977  10.136 -0.3589 -0.1192  0.9889
 2437SOL    HW218945   0.946   1.878  10.136  0.5887 -1.3890  1.1404
 2438SOL     OW18946   2.896   0.069   7.941 -0.4574  0.9388  0.1471
 2438SOL    HW118947   2.815   0.054   7.990 -2.7413  1.1216 -3.5891
 2438SOL    HW218948   2.890   0.028   7.855  1.0743  2.9201 -0.8842
 2439SOL     OW18949   2.442   1.332  14.620  0.6504  0.0502  0.3674
 2439SOL    HW118950   2.525   1.285  14.611  0.6175 -0.2158  1.4103
 2439SOL    HW218951   2.396   1.314  14.538 -2.8419  0.2377  2.2988
 2440SOL     OW18952   3.545   0.624  11.714  0.0844 -0.3072  0.0408
 2440SOL    HW118953   3.501   0.645  11.796 -2.6355  1.2000 -1.7602
 2440SOL    HW218954   3.504   0.694  11.662  0.3692  1.4230  2.1434
 2441SOL     OW18955   1.272   4.325   8.529 -0.1456 -0.3270  0.0932
 2441SOL    HW118956   1.291   4.415   8.504 -0.8427 -0.6758 -1.6772
 2441SOL    HW218957   1.208   4.297   8.463  2.1751  0.3406 -2.4377
 2442SOL     OW18958   1.276   3.633  12.081 -0.7198  0.0612  0.3569
 2442SOL    HW118959   1.184   3.634  12.058 -0.8137 -0.0564  0.7215
 2442SOL    HW218960   1.311   3.557  12.036  1.3494  1.6297 -0.6912
 2443SOL     OW18961   2.198   1.420   8.128  0.0900 -0.1881  0.0400
 2443SOL    HW118962   2.276   1.475   8.136 -0.3168  0.0306  2.3904
 2443SOL    HW218963   2.160   1.442   8.213  0.6915  0.5932  0.1064
 2444SOL     OW18964   2.322   2.234   4.633 -0.2728  0.3099  0.4008
 2444SOL    HW118965   2.376   2.223   4.554  0.8775  0.6745  1.1452
 2444SOL    HW218966   2.258   2.297   4.599  0.7412 -0.1176 -2.3337
 2445SOL     OW18967   4.407   2.361   5.573 -0.4105 -0.6489  0.3476
 2445SOL    HW118968   4.316   2.348   5.546 -1.2861  0.9976  2.4773
 2445SOL    HW218969   4.395   2.353   5.668 -0.5302 -0.4834  0.3480
 2446SOL     OW18970   0.221   4.723   5.232  0.4636 -0.2512  0.7437
 2446SOL    HW118971   0.190   0.053   5.290 -0.5635  0.0159 -0.1216
 2446SOL    HW218972   0.145   4.709   5.176  0.0635  2.0644  0.6931
 2447SOL     OW18973   1.977   0.726   8.754 -0.5681  0.5174 -0.2985
 2447SOL    HW118974   1.965   0.716   8.848 -1.7662 -1.4530 -0.6486
 2447SOL    HW218975   1.936   0.812   8.746 -0.9841  0.4738  1.3772
 2448SOL     OW18976   4.093   3.590   7.170 -0.6674 -0.1951  0.2270
 2448SOL    HW118977   4.100   3.665   7.230  0.8861  0.1316 -0.3717
 2448SOL    HW218978   4.162   3.531   7.198 -1.6594 -1.9700 -1.0588
 2449SOL     OW18979   3.979   2.723  17.223 -0.4162 -0.1659  0.1641
 2449SOL    HW118980   3.951   2.674  17.146  0.4793  1.5377 -1.2411
 2449SOL    HW218981   3.919   2.681  17.285  0.5866  0.9972  1.9391
 2450SOL     OW18982   3.626   1.181   7.981 -0.0040 -0.0295 -0.7059
 2450SOL    HW118983   3.608   1.138   7.897  1.3039 -1.0914 -0.4526
 2450SOL    HW218984   3.722   1.184   7.983 -0.0670  1.1278  0.2206
 2451SOL     OW18985   3.284   1.739   3.768 -0.0401  0.1185 -0.1853
 2451SOL    HW118986   3.249   1.819   3.807 -0.8324  0.6975 -2.1066
 2451SOL    HW218987   3.334   1.717   3.847  1.4706 -1.2721 -1.5254
 2452SOL     OW18988   1.794   4.025   2.206  0.2954 -0.5985 -0.1174
 2452SOL    HW118989   1.813   4.044   2.298 -1.6893 -1.4145  0.4541
 2452SOL    HW218990   1.836   4.102   2.168 -0.2760  1.3182  3.0869
 2453SOL     OW18991   1.563   4.216   3.250  0.1381  0.0726 -0.0607
 2453SOL    HW118992   1.569   4.276   3.176 -1.3884 -1.5414 -1.4961
 2453SOL    HW218993   1.627   4.256   3.308 -1.4472  1.6239  0.6196
 2454SOL     OW18994   3.120   2.637   1.323  0.2550  0.2549 -0.3583
 2454SOL    HW118995   3.044   2.690   1.298  1.6785  1.2583 -2.5438
 2454SOL    HW218996   3.187   2.644   1.255  0.9055 -2.4484 -0.0161
 2455SOL     OW18997   2.740   4.552   8.504 -0.5428  0.1051 -0.4078
 2455SOL    HW118998   2.823   4.533   8.548 -0.7473  1.2196  0.4509
 2455SOL    HW218999   2.755   4.645   8.492  2.5949 -0.3090  0.2498
 2456SOL     OW19000   0.295   0.978   4.896  0.3438 -0.0831 -0.1351
 2456SOL    HW119001   0.317   1.033   4.971 -0.2111  0.1872 -0.1677
 2456SOL    HW219002   0.233   0.922   4.942 -0.9246  2.0900  0.8082
 2457SOL     OW19003   1.467   1.219  12.890  0.2331  0.5222  0.5011
 2457SOL    HW119004   1.411   1.142  12.898  0.4959  0.1845 -0.8011
 2457SOL    HW219005   1.546   1.198  12.940  0.7218  2.7854  0.6582
 2458SOL     OW19006   4.156   2.145   2.262 -1.0424  0.3698  0.0736
 2458SOL    HW119007   4.063   2.139   2.239 -0.5126 -2.3036 -1.4122
 2458SOL    HW219008   4.156   2.107   2.350  0.3276  1.8241  0.7089
 2459SOL     OW19009   0.592   2.467  10.534 -0.1546 -0.3315  0.3889
 2459SOL    HW119010   0.560   2.462  10.624  1.4377  1.2924  1.0399
 2459SOL    HW219011   0.635   2.382  10.525 -1.3088 -0.8316 -0.4616
 2460SOL     OW19012   4.301   2.093   0.739  0.1891 -0.0496  1.0580
 2460SOL    HW119013   4.266   2.067   0.824  0.6653 -2.0945  0.6173
 2460SOL    HW219014   4.319   2.003   0.712  1.6087  0.0992  1.5147
 2461SOL     OW19015   1.472   4.493   4.547  0.6910  0.2442 -0.6172
 2461SOL    HW119016   1.424   4.411   4.559 -0.3044  0.5533 -2.4875
 2461SOL    HW219017   1.439   4.539   4.624 -1.3923 -0.3361 -1.1549
 2462SOL     OW19018   2.352   2.122   6.918  0.2567  0.4687 -0.4059
 2462SOL    HW119019   2.332   2.104   6.826 -1.2517 -0.2436  0.0540
 2462SOL    HW219020   2.438   2.161   6.904  0.1379  1.3244  1.2773
 2463SOL     OW19021   3.694   1.666   1.933 -0.4035 -0.4500 -0.2960
 2463SOL    HW119022   3.685   1.578   1.969  2.2091 -0.7192 -0.2414
 2463SOL    HW219023   3.625   1.709   1.983  0.1979 -0.1163  0.2619
 2464SOL     OW19024   1.323   1.228   8.988  0.3015 -0.5450 -0.3328
 2464SOL    HW119025   1.402   1.257   9.033  0.3527  0.2556 -0.9343
 2464SOL    HW219026   1.318   1.139   9.023  1.3761 -0.0097  1.1715
 2465SOL     OW19027   1.194   2.897   6.973 -0.3465 -0.6271  0.1910
 2465SOL    HW119028   1.113   2.873   7.019 -2.3289  0.9290 -2.4701
 2465SOL    HW219029   1.170   2.976   6.924  3.6282 -0.1644 -0.9626
 2466SOL     OW19030   1.887   3.499   4.014  0.1553  0.1443 -0.3951
 2466SOL    HW119031   1.884   3.543   3.929 -0.6700  1.2951  0.2280
 2466SOL    HW219032   1.943   3.426   3.986  1.4029  0.7239  0.5454
 2467SOL     OW19033   1.416   0.396   4.249 -0.3340  0.3498 -0.4677
 2467SOL    HW119034   1.399   0.413   4.342 -2.6316  0.4885 -0.9200
 2467SOL    HW219035   1.358   0.453   4.198 -1.3109 -0.8271 -0.6656
 2468SOL     OW19036   1.260   4.084   9.564 -0.3614 -0.5037 -0.0704
 2468SOL    HW119037   1.241   3.999   9.525  2.2658 -0.6183 -1.0873
 2468SOL    HW219038   1.342   4.061   9.607 -0.1442 -1.1176 -0.8169
 2469SOL     OW19039   2.848   4.603   4.264 -0.2870 -0.5334 -0.2087
 2469SOL    HW119040   2.875   4.631   4.177  0.3279  2.9768  1.1390
 2469SOL    HW219041   2.758   4.636   4.261 -0.4675 -1.0795 -0.8221
 2470SOL     OW19042   4.571   4.349   7.863 -0.7730  0.4885 -1.0217
 2470SOL    HW119043   4.490   4.367   7.816 -1.4363  0.6740  0.2090
 2470SOL    HW219044   4.543   4.330   7.952 -2.9315 -0.3409 -1.8898
 2471SOL     OW19045   0.555   0.401  12.144 -0.0000  0.6028 -0.4486
 2471SOL    HW119046   0.637   0.413  12.192 -0.2684  2.3992 -0.4588
 2471SOL    HW219047   0.547   0.305  12.141 -3.2610  0.8158  0.8569
 2472SOL     OW19048   4.533   2.738   6.036  0.5484  0.4192  0.0817
 2472SOL    HW119049   4.525   2.720   6.130 -1.3425  0.4515 -0.0673
 2472SOL    HW219050   4.465   2.677   6.007  0.9022 -0.4106  1.0018
 2473SOL     OW19051   3.454   0.789   6.593 -0.0298  0.1851 -0.0789
 2473SOL    HW119052   3.507   0.852   6.544  0.2278  0.8594  1.0698
 2473SOL    HW219053   3.472   0.815   6.683  0.0554 -4.2349  1.1720
 2474SOL     OW19054   1.167   2.644   5.062 -0.2946 -0.1564 -0.1532
 2474SOL    HW119055   1.100   2.608   5.120 -1.2649  0.0826 -1.1276
 2474SOL    HW219056   1.146   2.593   4.984  2.2705 -2.5594  0.7243
 2475SOL     OW19057   1.008   1.616   4.396 -0.0958  0.1342  0.5684
 2475SOL    HW119058   1.002   1.689   4.457  0.4681  1.3417 -0.8154
 2475SOL    HW219059   0.946   1.626   4.324 -0.9145 -0.1096  1.2411
 2476SOL     OW19060   4.435   4.275   8.656  0.0803 -0.0656 -0.1169
 2476SOL    HW119061   4.353   4.309   8.693  0.5522  1.7379 -0.7452
 2476SOL    HW219062   4.417   4.181   8.661  1.5789 -0.2162  2.2142
 2477SOL     OW19063   4.696   0.253   9.401  0.4056 -0.2463 -0.1533
 2477SOL    HW119064   0.011   0.203   9.462  2.2312  1.4903 -0.3855
 2477SOL    HW219065   4.622   0.278   9.456  1.7135  1.6327  0.7659
 2478SOL     OW19066   1.670   0.756   6.765  0.6442 -0.7971 -0.0331
 2478SOL    HW119067   1.731   0.818   6.805  0.0689 -0.2506 -0.0222
 2478SOL    HW219068   1.633   0.719   6.845  1.7452 -0.3081  0.7061
 2479SOL     OW19069   4.697   4.313   5.805 -0.4278  0.0103  0.5401
 2479SOL    HW119070   4.731   4.278   5.723  0.7142 -1.6742  1.7532
 2479SOL    HW219071   4.606   4.330   5.780  0.6764  1.2726 -2.6879
 2480SOL     OW19072   0.806   3.061   5.563  0.1474 -0.0252  0.0561
 2480SOL    HW119073   0.835   2.985   5.513  0.3205 -0.0073  0.1321
 2480SOL    HW219074   0.711   3.051   5.570  0.2166 -1.7569 -1.4740
 2481SOL     OW19075   2.738   3.886   3.259 -0.0390 -0.1358 -0.3678
 2481SOL    HW119076   2.706   3.876   3.349 -0.4037 -1.1368 -0.6018
 2481SOL    HW219077   2.659   3.855   3.214  0.5448  0.1252 -1.5616
 2482SOL     OW19078   2.612   2.744   9.228 -0.4705  0.0421  0.3342
 2482SOL    HW119079   2.604   2.670   9.288 -3.1948  0.6434  0.6760
 2482SOL    HW219080   2.652   2.818   9.273  0.4609  0.8509 -1.8128
 2483SOL     OW19081   3.867   4.561   2.339  0.3956  0.1573  0.0680
 2483SOL    HW119082   3.833   4.505   2.409  0.8196  0.8392  0.8169
 2483SOL    HW219083   3.809   4.637   2.346 -0.2151 -0.1808 -1.1639
 2484SOL     OW19084   2.025   2.759   7.437  0.5093  0.5288  0.2367
 2484SOL    HW119085   2.084   2.833   7.452  1.1632  0.0580 -0.0112
 2484SOL    HW219086   2.054   2.744   7.347 -2.0386 -1.8318 -0.1796
 2485SOL     OW19087   0.485   0.459  11.462 -0.3854  0.2817 -0.1505
 2485SOL    HW119088   0.423   0.499  11.401  1.8875  2.3360 -1.1047
 2485SOL    HW219089   0.568   0.478  11.418 -1.5162  1.5955 -1.7031
 2486SOL     OW19090   0.078   3.895   7.098  0.0659  0.2719 -0.0661
 2486SOL    HW119091   0.159   3.847   7.082 -1.5406 -2.3032 -0.4606
 2486SOL    HW219092   0.056   3.857   7.183 -0.0054 -0.5808 -0.4647
 2487SOL     OW19093   3.921   1.939   1.424 -0.3782  0.1582 -0.0230
 2487SOL    HW119094   3.924   2.011   1.488  2.6906  0.1778 -0.1908
 2487SOL    HW219095   3.834   1.946   1.386  0.1759  1.0825 -1.1174
 2488SOL     OW19096   2.965   3.628   3.136  0.3772 -0.1076  0.0289
 2488SOL    HW119097   3.030   3.676   3.187  0.1456 -1.0165  1.1788
 2488SOL    HW219098   3.027   3.583   3.079  0.0488  0.8825 -1.1014
 2489SOL     OW19099   4.334   1.386  16.862  0.1373  0.1145 -0.1089
 2489SOL    HW119100   4.423   1.367  16.891  1.1871  0.6581 -2.9820
 2489SOL    HW219101   4.348   1.416  16.772 -0.1845 -0.6528 -0.4160
 2490SOL     OW19102   0.352   3.583   5.406 -0.6279 -0.3641  0.0067
 2490SOL    HW119103   0.293   3.512   5.432  1.1538 -1.3432  1.3962
 2490SOL    HW219104   0.412   3.541   5.344  0.1010  2.0720 -0.9322
 2491SOL     OW19105   4.014   2.597  17.680  0.5119 -0.2304  0.1631
 2491SOL    HW119106   3.939   2.633  17.633  2.2911  0.8256 -1.9156
 2491SOL    HW219107   3.975   2.520  17.722  2.4357 -0.9550  0.6079
 2492SOL     OW19108   2.035   3.690   9.041  0.3050 -0.3064  0.2851
 2492SOL    HW119109   2.083   3.625   8.989  0.5212 -0.9223  1.2617
 2492SOL    HW219110   2.008   3.639   9.117 -1.1757 -1.3244 -0.9310
 2493SOL     OW19111   4.123   4.612   5.343 -0.9269 -1.1111  0.0014
 2493SOL    HW119112   4.114   4.669   5.420  0.0119 -3.1100  1.5906
 2493SOL    HW219113   4.144   4.523   5.372  2.4083  0.0961  1.2057
 2494SOL     OW19114   4.591   4.162   0.824 -0.1501 -0.4500 -0.1593
 2494SOL    HW119115   4.661   4.223   0.803  0.6943 -1.2134  0.4624
 2494SOL    HW219116   4.522   4.222   0.852  3.5901  3.3302  0.7647
 2495SOL     OW19117   3.046   1.687   6.601 -0.0255  0.6393  0.1190
 2495SOL    HW119118   3.037   1.596   6.630 -0.0551  0.2541 -1.1073
 2495SOL    HW219119   2.993   1.738   6.662 -1.5459 -2.0587  1.0607
 2496SOL     OW19120   3.357   1.232   4.158  0.0002 -0.0161 -0.5126
 2496SOL    HW119121   3.305   1.210   4.080  0.2813 -0.5180 -0.5576
 2496SOL    HW219122   3.299   1.295   4.201  1.7415  0.0151  1.7581
 2497SOL     OW19123   2.755   0.682   1.734  0.0763  0.1494  0.4134
 2497SOL    HW119124   2.762   0.641   1.647 -0.2326  1.5777 -0.2860
 2497SOL    HW219125   2.676   0.643   1.771  1.1883 -1.0887  1.4566
 2498SOL     OW19126   1.071   1.782   9.477  0.7727  0.9059  0.4494
 2498SOL    HW119127   0.981   1.797   9.448  0.1010  1.6297  2.9348
 2498SOL    HW219128   1.111   1.739   9.402 -0.6759 -0.6343  0.5281
 2499SOL     OW19129   1.712   1.018   6.582  0.3205  0.1654 -0.0032
 2499SOL    HW119130   1.627   0.985   6.553  0.8748 -0.6315 -0.6909
 2499SOL    HW219131   1.733   0.977   6.666  0.5504 -1.7314 -0.9919
 2500SOL     OW19132   3.400   2.131   5.010 -0.0291  0.4138 -0.5929
 2500SOL    HW119133   3.449   2.054   5.041 -1.0160 -0.4416 -1.1662
 2500SOL    HW219134   3.311   2.096   5.016  0.4603 -0.8646 -0.6849
 2501SOL     OW19135   2.213   3.306   6.762  0.0425 -0.0620 -0.4842
 2501SOL    HW119136   2.228   3.313   6.856  2.2587  0.1638 -0.8374
 2501SOL    HW219137   2.205   3.401   6.751 -2.0898 -0.1936 -0.1028
 2502SOL     OW19138   1.648   0.454   2.603  0.2239  0.2658 -0.2162
 2502SOL    HW119139   1.616   0.427   2.689  1.6151 -1.0948 -0.1391
 2502SOL    HW219140   1.602   0.537   2.589 -0.6751 -0.1622  0.1460
 2503SOL     OW19141   4.661   2.476   3.938 -0.7946  0.2256 -0.3610
 2503SOL    HW119142   4.609   2.396   3.934 -2.0738  1.0289  0.3391
 2503SOL    HW219143   4.595   2.538   3.968  1.6394  2.1684  1.0587
 2504SOL     OW19144   3.112   1.194   5.161 -0.3630  0.2448 -0.0383
 2504SOL    HW119145   3.154   1.246   5.093  0.2250  2.0425  1.6831
 2504SOL    HW219146   3.125   1.246   5.241  2.4842 -0.0374 -0.3036
 2505SOL     OW19147   2.979   2.481   9.085 -0.6010 -0.0247  0.3188
 2505SOL    HW119148   3.029   2.401   9.076 -2.3046 -1.4678  3.4761
 2505SOL    HW219149   2.916   2.475   9.013 -0.5926 -3.2455  0.5931
 2506SOL     OW19150   0.781   4.551   3.194 -0.1792 -0.5906  0.2326
 2506SOL    HW119151   0.822   4.634   3.217  0.5650 -1.0843  0.6864
 2506SOL    HW219152   0.771   4.515   3.282 -0.8643 -3.9241 -1.2434
 2507SOL     OW19153   2.976   3.775  13.225 -0.1802  0.4064  0.2602
 2507SOL    HW119154   2.904   3.753  13.283 -0.2765 -1.1470 -0.4444
 2507SOL    HW219155   2.940   3.857  13.191  0.0602  0.3232 -0.2035
 2508SOL     OW19156   2.671   4.279  16.782 -0.3136 -0.5622  0.0115
 2508SOL    HW119157   2.748   4.328  16.810 -1.5444  1.6014 -0.4450
 2508SOL    HW219158   2.672   4.219  16.857 -2.4392  2.5149  2.4939
 2509SOL     OW19159   3.450   4.040   0.473  0.2061 -0.1357 -0.1755
 2509SOL    HW119160   3.411   3.999   0.550  0.2262 -0.1480 -0.1717
 2509SOL    HW219161   3.533   4.071   0.509 -1.3066  4.0077 -0.2236
 2510SOL     OW19162   2.614   2.999   1.672  0.3190 -0.0402 -0.3020
 2510SOL    HW119163   2.700   2.979   1.636  1.0632 -0.2510  1.5505
 2510SOL    HW219164   2.613   3.095   1.662  1.1623  0.0790  0.7602
 2511SOL     OW19165   3.268   0.887   5.277 -0.3541  0.3056  0.1265
 2511SOL    HW119166   3.250   0.796   5.298 -1.1536  0.0720 -1.5944
 2511SOL    HW219167   3.259   0.888   5.182  2.7017 -0.5087 -0.1663
 2512SOL     OW19168   4.633   2.367   8.336 -0.1780 -0.7109 -0.4657
 2512SOL    HW119169   4.609   2.459   8.329 -0.0480 -0.6886 -0.6192
 2512SOL    HW219170   4.664   2.349   8.247 -0.7593  0.4037 -0.8919
 2513SOL     OW19171   3.666   3.064  10.521 -0.5947 -0.4243 -0.0735
 2513SOL    HW119172   3.740   3.006  10.502 -0.7516 -1.3168  2.0147
 2513SOL    HW219173   3.660   3.061  10.616 -1.5095  2.1517 -0.0588
 2514SOL     OW19174   1.938   1.860   5.669 -0.6307 -0.2870  0.5372
 2514SOL    HW119175   1.895   1.944   5.679 -2.0853 -1.4342  3.6490
 2514SOL    HW219176   2.031   1.877   5.653 -0.6490  0.4375  1.2439
 2515SOL     OW19177   4.634   3.444   0.270  0.5513 -0.5322 -0.4901
 2515SOL    HW119178   4.644   3.360   0.225  1.1309 -1.3464  1.1598
 2515SOL    HW219179   4.714   3.445   0.323 -0.4030 -0.4349  0.9471
 2516SOL     OW19180   4.653   1.608   6.581 -0.0544  0.0039 -0.0485
 2516SOL    HW119181   4.643   1.609   6.485  2.1588  0.0462 -0.2868
 2516SOL    HW219182   0.007   1.592   6.593 -0.0518 -0.0484 -0.1380
 2517SOL     OW19183   3.883   0.558   7.614 -0.3566 -0.0272  0.6229
 2517SOL    HW119184   3.939   0.563   7.691  3.3782  0.9552 -2.1763
 2517SOL    HW219185   3.827   0.484   7.638  0.2201  0.3175  3.0129
 2518SOL     OW19186   3.119   2.754   4.332 -0.4343  0.1688  0.1092
 2518SOL    HW119187   3.100   2.769   4.424 -0.5468  0.4020  0.0472
 2518SOL    HW219188   3.214   2.745   4.338 -0.5451 -0.9350  0.2604
 2519SOL     OW19189   3.567   1.359  10.743  0.1178 -0.5259 -0.5422
 2519SOL    HW119190   3.628   1.433  10.745 -1.9973  1.2858 -3.1975
 2519SOL    HW219191   3.484   1.401  10.764  0.2495 -0.3903 -0.3002
 2520SOL     OW19192   4.372   0.698   4.664 -0.5402  0.0983 -0.0851
 2520SOL    HW119193   4.387   0.607   4.689 -2.0865 -0.5503 -1.4933
 2520SOL    HW219194   4.340   0.725   4.750 -1.9527 -1.7099 -0.0468
 2521SOL     OW19195   1.319   0.509   3.476 -0.1432  0.5576  0.5112
 2521SOL    HW119196   1.312   0.510   3.381  0.4709  2.1701  0.4759
 2521SOL    HW219197   1.241   0.457   3.496  0.3245  0.1893  1.3637
 2522SOL     OW19198   4.367   0.354   8.285 -0.0656  0.0930  0.1471
 2522SOL    HW119199   4.292   0.376   8.341 -0.1012  1.4400 -0.4407
 2522SOL    HW219200   4.329   0.357   8.197  2.0663  1.7936 -0.6936
 2523SOL     OW19201   0.882   0.889   4.738  0.4130  0.6845  0.4978
 2523SOL    HW119202   0.943   0.847   4.798 -0.9360 -0.7717  0.8625
 2523SOL    HW219203   0.939   0.931   4.674  1.4658 -1.3615  0.1017
 2524SOL     OW19204   0.560   0.902   6.742  0.4581 -0.3163  0.0787
 2524SOL    HW119205   0.565   0.810   6.768 -2.4300 -0.2670  0.8000
 2524SOL    HW219206   0.591   0.943   6.823 -0.8785  1.9559 -0.5735
 2525SOL     OW19207   3.308   1.479  10.903  0.0807 -0.5166  0.1446
 2525SOL    HW119208   3.265   1.406  10.859 -1.2522 -0.9131  2.0889
 2525SOL    HW219209   3.236   1.543  10.903 -0.2265 -0.8649  2.8155
 2526SOL     OW19210   0.054   3.405   7.360 -0.1875 -0.4301 -0.4531
 2526SOL    HW119211   0.022   3.379   7.274 -0.8026 -0.5330 -0.1933
 2526SOL    HW219212   4.719   3.402   7.420  1.6607 -1.4750  1.7993
 2527SOL     OW19213   1.975   0.128   8.013  0.0463  0.5217  0.5655
 2527SOL    HW119214   1.944   0.193   7.949 -1.7135 -2.0719 -1.2194
 2527SOL    HW219215   2.003   0.178   8.090 -0.6272 -0.1581  1.2399
 2528SOL     OW19216   3.905   0.655  10.010  0.1283 -0.1694 -0.4020
 2528SOL    HW119217   3.861   0.651  10.095  1.0975 -0.1580  0.0964
 2528SOL    HW219218   3.832   0.630   9.953 -1.5077 -0.2924  1.7499
 2529SOL     OW19219   1.218   2.301   5.235  0.2918  0.0031  0.2351
 2529SOL    HW119220   1.236   2.275   5.144  1.3395  2.5324 -0.2688
 2529SOL    HW219221   1.166   2.379   5.219  0.8591  0.1274 -0.9857
 2530SOL     OW19222   3.511   0.396  14.905  0.3025 -0.1888  0.5734
 2530SOL    HW119223   3.428   0.412  14.861  0.0569  0.4382  1.2552
 2530SOL    HW219224   3.520   0.488  14.931  0.2049  0.5979 -2.1956
 2531SOL     OW19225   1.859   1.242   5.926  0.2487  0.2375 -0.4617
 2531SOL    HW119226   1.836   1.215   6.015  0.4908  1.4749 -0.0273
 2531SOL    HW219227   1.914   1.319   5.940  0.8137 -0.5635  1.7035
 2532SOL     OW19228   2.315   0.354   2.197  0.0220  0.0385 -0.5843
 2532SOL    HW119229   2.265   0.393   2.268 -0.9751  0.2225 -1.3742
 2532SOL    HW219230   2.405   0.353   2.228  0.1435 -0.1080 -0.9343
 2533SOL     OW19231   3.553   2.624  13.473 -0.2181 -0.5703  0.2991
 2533SOL    HW119232   3.632   2.613  13.421 -1.1180  0.5428 -1.3268
 2533SOL    HW219233   3.521   2.535  13.486 -1.6062  0.0792  1.3573
 2534SOL     OW19234   0.050   3.148   8.246  0.1531  0.0676 -0.3860
 2534SOL    HW119235   0.081   3.152   8.336  3.9431  1.7059 -1.7966
 2534SOL    HW219236   0.091   3.230   8.220 -1.8918  1.2698  0.1860
 2535SOL     OW19237   0.658   1.260   2.636 -0.5031 -0.2690  0.0323
 2535SOL    HW119238   0.642   1.267   2.542 -4.1601  0.1701  0.6930
 2535SOL    HW219239   0.673   1.352   2.659 -1.0138 -0.5167  1.3418
 2536SOL     OW19240   0.890   0.795   0.939  0.0288 -0.3643  0.0228
 2536SOL    HW119241   0.802   0.797   0.901  0.5529  0.0662 -1.1657
 2536SOL    HW219242   0.944   0.793   0.859 -0.1322 -0.1681 -0.0887
 2537SOL     OW19243   3.328   3.280  12.686 -0.2685 -0.0148  0.3426
 2537SOL    HW119244   3.258   3.229  12.726  0.5475 -1.2122  0.2422
 2537SOL    HW219245   3.400   3.220  12.665 -0.7715 -0.0598 -1.2592
 2538SOL     OW19246   3.372   1.395   2.609  0.0152  0.3264 -0.0505
 2538SOL    HW119247   3.339   1.469   2.558 -0.1106  1.1914  1.2938
 2538SOL    HW219248   3.309   1.325   2.590  0.0130 -0.2488  2.0926
 2539SOL     OW19249   1.321   3.660  11.733  0.6317  0.1395  0.0926
 2539SOL    HW119250   1.252   3.689  11.793  1.5451 -0.9619  1.6911
 2539SOL    HW219251   1.320   3.566  11.751  1.7174 -0.2013 -1.6884
 2540SOL     OW19252   2.443   2.485   4.334 -0.9287 -0.3888 -0.7792
 2540SOL    HW119253   2.418   2.575   4.355 -3.3459 -0.4212 -3.5802
 2540SOL    HW219254   2.469   2.440   4.414 -1.1051  1.3986  0.2810
 2541SOL     OW19255   2.426   1.659   4.070  0.0162 -0.4002  0.2747
 2541SOL    HW119256   2.385   1.577   4.096  0.0021 -0.4715  0.0343
 2541SOL    HW219257   2.368   1.727   4.104  0.2457 -0.7270  1.3111
 2542SOL     OW19258   3.109   0.379  13.781  0.2697 -0.2461  0.0528
 2542SOL    HW119259   3.076   0.456  13.736  1.1901  0.5579  0.7576
 2542SOL    HW219260   3.147   0.331  13.708  0.6099  3.3819 -2.1055
 2543SOL     OW19261   0.128   2.594   4.484  0.4291  0.0337  0.4814
 2543SOL    HW119262   0.058   2.589   4.549  1.8512  0.1555  2.0311
 2543SOL    HW219263   0.190   2.633   4.546  0.1864 -1.6526  1.7652
 2544SOL     OW19264   1.969   3.634   4.598  0.3176 -0.0057  0.1141
 2544SOL    HW119265   2.015   3.689   4.662  0.5552 -2.3456  1.9527
 2544SOL    HW219266   1.900   3.696   4.574  1.2896  1.4050  0.9228
 2545SOL     OW19267   2.181   3.258   7.036  0.6187 -0.3151  0.1419
 2545SOL    HW119268   2.217   3.170   7.048  1.4365  0.1650  1.1583
 2545SOL    HW219269   2.167   3.283   7.127  0.5511  1.2076 -0.2850
 2546SOL     OW19270   3.119   0.259   5.260 -0.0887  0.2746 -0.1621
 2546SOL    HW119271   3.077   0.261   5.346 -0.9682 -3.1498 -0.5411
 2546SOL    HW219272   3.045   0.283   5.204 -0.9177  1.6617  1.4940
 2547SOL     OW19273   4.169   1.466   6.216  0.0850 -0.0383  0.1239
 2547SOL    HW119274   4.155   1.470   6.311 -1.9734 -1.8253 -0.0887
 2547SOL    HW219275   4.079   1.461   6.183 -0.2812  1.2987  0.9080
 2548SOL     OW19276   2.753   2.247  17.438 -0.1390 -0.1568  0.0568
 2548SOL    HW119277   2.843   2.277  17.424 -0.7598  1.3901 -0.6398
 2548SOL    HW219278   2.728   2.289  17.520 -0.2289  0.3360 -0.2192
 2549SOL     OW19279   4.187   3.251   0.623 -0.2035 -0.2831  0.0762
 2549SOL    HW119280   4.205   3.345   0.624 -0.3124 -0.2655  0.9381
 2549SOL    HW219281   4.104   3.250   0.576  0.5248 -0.3836 -1.1926
 2550SOL     OW19282   1.532   0.730   0.659  0.2625  0.7803 -0.2568
 2550SOL    HW119283   1.565   0.743   0.570  0.8029 -1.0071 -0.3269
 2550SOL    HW219284   1.610   0.701   0.707 -0.7427  0.9762  1.4768
 2551SOL     OW19285   2.743   0.831  16.068  0.7360 -0.9263 -0.0669
 2551SOL    HW119286   2.807   0.760  16.080  0.3321 -1.2472  0.1843
 2551SOL    HW219287   2.784   0.874  15.993  0.9763 -0.5648  0.2733
 2552SOL     OW19288   1.332   3.121  15.938 -0.2105  0.1666  0.2624
 2552SOL    HW119289   1.287   3.204  15.926 -0.0183  0.3562  0.8326
 2552SOL    HW219290   1.420   3.150  15.914  0.7778 -3.7188 -0.7776
 2553SOL     OW19291   1.985   0.391   5.303 -0.0142 -0.7467  0.6378
 2553SOL    HW119292   2.072   0.367   5.273 -0.2760 -1.7928  0.6948
 2553SOL    HW219293   1.925   0.327   5.264  1.2309 -1.9734  0.7609
 2554SOL     OW19294   1.914   2.022   6.027 -0.3366 -0.0691 -0.1917
 2554SOL    HW119295   1.997   2.044   5.985 -1.3361  1.3605 -1.4249
 2554SOL    HW219296   1.932   1.952   6.090 -2.5281 -0.2236  0.2829
 2555SOL     OW19297   1.054   1.928   7.699 -0.6071  0.3393  0.0491
 2555SOL    HW119298   1.034   1.954   7.608  0.0407 -0.6122 -0.3542
 2555SOL    HW219299   1.060   1.834   7.687  2.0128  0.6713 -1.2017
 2556SOL     OW19300   0.634   3.420   6.999  0.4093  0.0792 -0.2246
 2556SOL    HW119301   0.594   3.505   7.017 -0.8045 -0.4345 -0.5115
 2556SOL    HW219302   0.727   3.437   7.017  0.1800  0.3367  0.7384
 2557SOL     OW19303   0.459   3.004  16.801  0.0759 -0.0739 -0.3845
 2557SOL    HW119304   0.461   2.969  16.890  0.0800 -1.2919 -0.8609
 2557SOL    HW219305   0.448   3.096  16.822 -0.0834 -0.3610  0.8124
 2558SOL     OW19306   3.767   1.871   9.161 -0.7759  0.1352  0.1422
 2558SOL    HW119307   3.845   1.823   9.134 -1.3145  0.1502 -1.4575
 2558SOL    HW219308   3.710   1.868   9.084 -3.3874  0.9296  2.0524
 2559SOL     OW19309   3.558   4.566  14.249 -0.0292 -0.0049 -0.1961
 2559SOL    HW119310   3.642   4.595  14.283 -0.3499  1.8163 -0.9362
 2559SOL    HW219311   3.568   4.472  14.260  1.2219 -0.1525 -2.6427
 2560SOL     OW19312   3.773   3.082   6.267  0.2328  0.5048 -0.0104
 2560SOL    HW119313   3.689   3.049   6.298 -0.1004  1.7281  0.3547
 2560SOL    HW219314   3.784   3.160   6.321 -1.0526  0.0854  0.8473
 2561SOL     OW19315   3.295   1.083   1.782 -0.7358  0.9407  0.1139
 2561SOL    HW119316   3.267   1.160   1.731  0.9992  0.6344 -1.2762
 2561SOL    HW219317   3.263   1.101   1.871 -0.7226 -1.1584  0.5420
 2562SOL     OW19318   3.845   4.182   9.270  0.6142 -0.2052 -0.0781
 2562SOL    HW119319   3.890   4.173   9.186  1.2603  0.1251  0.2353
 2562SOL    HW219320   3.911   4.154   9.332 -0.0991  1.1933  1.3169
 2563SOL     OW19321   3.017   2.832  11.967 -0.6175  0.3978  0.0100
 2563SOL    HW119322   3.053   2.848  12.054  1.2791  1.0690 -0.9187
 2563SOL    HW219323   2.926   2.851  11.991 -0.3840 -1.7146  2.5378
 2564SOL     OW19324   1.739   3.069   4.721 -0.0735  0.3773  0.4768
 2564SOL    HW119325   1.765   3.101   4.635  1.8325  1.3785  1.4415
 2564SOL    HW219326   1.656   3.115   4.730 -0.5904 -0.5311  0.4142
 2565SOL     OW19327   4.042   2.937   8.601 -0.2093  0.2096 -0.2703
 2565SOL    HW119328   3.961   2.899   8.568 -1.5456  2.6463  0.2356
 2565SOL    HW219329   4.039   2.903   8.691 -1.1074 -2.1172 -1.1680
 2566SOL     OW19330   0.939   0.294  10.796 -0.0034 -0.0838 -0.4620
 2566SOL    HW119331   0.894   0.341  10.726 -1.1843  1.5542  1.3793
 2566SOL    HW219332   0.964   0.213  10.752 -0.6079  0.9447 -2.6927
 2567SOL     OW19333   2.525   3.794   5.907  0.1060 -0.5200 -0.1995
 2567SOL    HW119334   2.612   3.755   5.900  1.2165  2.0831 -1.1654
 2567SOL    HW219335   2.534   3.842   5.989 -2.0709  1.7222 -1.2696
 2568SOL     OW19336   2.359   4.160   5.480  0.6654 -0.2950  0.2523
 2568SOL    HW119337   2.426   4.107   5.437 -0.6735 -1.5590 -0.2331
 2568SOL    HW219338   2.317   4.102   5.543  1.6689 -1.3162 -0.0201
 2569SOL     OW19339   1.940   3.753   9.453 -0.5089  0.4009  0.3524
 2569SOL    HW119340   1.913   3.759   9.544  1.4258  1.6254  0.8435
 2569SOL    HW219341   1.857   3.771   9.409 -0.7343 -0.7336  0.3311
 2570SOL     OW19342   4.642   3.903   0.922  0.3138 -0.2392 -0.5100
 2570SOL    HW119343   4.729   3.863   0.923  0.2925 -0.2658  0.6288
 2570SOL    HW219344   4.653   3.996   0.902 -0.1900 -0.0845 -0.0843
 2571SOL     OW19345   1.437   3.352   3.043  0.4690 -0.3013 -0.5372
 2571SOL    HW119346   1.425   3.431   3.096 -1.6483 -0.4104 -0.8416
 2571SOL    HW219347   1.409   3.285   3.105  0.7483 -0.9071 -1.0637
 2572SOL     OW19348   3.338   3.905   0.250  0.4203 -0.1694  0.2604
 2572SOL    HW119349   3.363   3.935   0.337 -2.1044 -0.1437  0.9666
 2572SOL    HW219350   3.268   3.849   0.283  2.0222 -2.1998  0.1984
 2573SOL     OW19351   4.086   0.069  15.231 -0.3400 -0.4820 -0.3863
 2573SOL    HW119352   4.019   0.008  15.261 -1.2752  0.0588 -1.3680
 2573SOL    HW219353   4.157   0.054  15.293  0.9411  0.3608 -1.6520
 2574SOL     OW19354   1.609   2.617  11.715  0.1978 -0.2897  0.3759
 2574SOL    HW119355   1.536   2.556  11.727  1.3817 -2.0896 -1.4425
 2574SOL    HW219356   1.614   2.661  11.800 -0.5206  1.8487 -0.6952
 2575SOL     OW19357   1.984   0.058   4.445 -0.3517  0.2263  0.5262
 2575SOL    HW119358   2.003   4.721   4.498  0.2875 -0.8481 -1.2341
 2575SOL    HW219359   1.925   0.022   4.379  0.8207  0.1796 -0.5171
 2576SOL     OW19360   4.702   3.483   7.856 -0.2775  0.0984 -0.3171
 2576SOL    HW119361   4.734   3.564   7.817 -0.9117  1.2357  1.5371
 2576SOL    HW219362   4.629   3.516   7.907  0.0560  0.4232 -0.0543
 2577SOL     OW19363   1.514   0.139  10.540 -0.4097 -0.1800 -0.1846
 2577SOL    HW119364   1.478   0.090  10.614  0.6224 -1.4612 -0.5310
 2577SOL    HW219365   1.456   0.114  10.468  0.7752 -1.7582 -0.5783
 2578SOL     OW19366   2.913   4.084   9.038  0.0244 -0.9832  0.1053
 2578SOL    HW119367   2.858   4.105   9.113 -3.0704 -4.0955 -1.3352
 2578SOL    HW219368   2.945   4.174   9.026 -0.4297 -0.4260  3.0717
 2579SOL     OW19369   2.302   2.049   9.825  0.0398 -0.5864 -0.6032
 2579SOL    HW119370   2.263   1.966   9.852  0.8064 -1.3429 -1.8157
 2579SOL    HW219371   2.242   2.065   9.752  0.8975 -0.9060 -1.3801
 2580SOL     OW19372   3.648   4.317   7.764  0.2267 -0.3217 -0.0862
 2580SOL    HW119373   3.644   4.222   7.754 -0.9228 -0.2724 -0.0969
 2580SOL    HW219374   3.661   4.338   7.671 -0.7009 -1.5658 -0.5100
 2581SOL     OW19375   1.967   4.578  15.126  0.3833  0.7429  0.2157
 2581SOL    HW119376   2.020   4.499  15.112  3.3287  2.1884  3.0188
 2581SOL    HW219377   1.946   4.605  15.037 -0.9393 -1.7336 -0.2133
 2582SOL     OW19378   1.665   3.316   9.332  0.2164 -0.3534  0.7759
 2582SOL    HW119379   1.704   3.242   9.286  0.9215  0.5386 -0.0734
 2582SOL    HW219380   1.573   3.292   9.336  0.1433 -0.2031 -0.0949
 2583SOL     OW19381   1.715   1.479  17.086  0.3049  0.1119 -0.2462
 2583SOL    HW119382   1.738   1.402  17.138 -0.5374  0.2358  0.3227
 2583SOL    HW219383   1.763   1.549  17.130 -0.2591  2.3665 -3.2251
 2584SOL     OW19384   1.795   0.395   3.612 -0.3365 -0.0070  0.2806
 2584SOL    HW119385   1.799   0.340   3.534 -1.0368 -0.0685  0.2877
 2584SOL    HW219386   1.754   0.474   3.577 -0.2531 -0.4642 -0.8408
 2585SOL     OW19387   0.890   0.668   9.033  0.6137  0.3464 -0.0810
 2585SOL    HW119388   0.828   0.682   9.105  1.5383  1.8509  0.4112
 2585SOL    HW219389   0.958   0.614   9.072  0.0437 -0.6647 -0.4705
 2586SOL     OW19390   2.151   2.499  10.777 -0.1185 -0.0116 -0.3554
 2586SOL    HW119391   2.111   2.551  10.848 -1.4752 -0.6617 -0.6370
 2586SOL    HW219392   2.239   2.496  10.815  0.0331 -1.7125 -0.8812
 2587SOL     OW19393   2.326   1.652   8.208 -0.0138  0.1684 -0.0372
 2587SOL    HW119394   2.308   1.716   8.276  2.5925 -0.7747  1.5137
 2587SOL    HW219395   2.399   1.702   8.172  0.1096 -0.1459 -0.2284
 2588SOL     OW19396   3.480   1.672   8.498  0.4068  0.5101  0.0943
 2588SOL    HW119397   3.511   1.582   8.500  2.1435  1.1422  1.7186
 2588SOL    HW219398   3.467   1.694   8.406 -3.1569  1.1598  0.7323
 2589SOL     OW19399   3.723   2.909   7.508 -0.2842  0.3475  0.0530
 2589SOL    HW119400   3.669   2.924   7.586  0.7997  1.7111  0.5295
 2589SOL    HW219401   3.796   2.966   7.529  0.7302 -0.9655  0.0744
 2590SOL     OW19402   1.010   2.812   6.605  0.2086  0.4010 -0.3318
 2590SOL    HW119403   0.948   2.864   6.554  0.3361  1.2578  0.3732
 2590SOL    HW219404   1.033   2.866   6.681 -0.7812  0.2303  0.0831
 2591SOL     OW19405   3.949   1.598   0.141  0.3655  0.3900 -0.0805
 2591SOL    HW119406   3.913   1.625   0.226 -0.9174 -1.7409  0.0339
 2591SOL    HW219407   4.026   1.655   0.141 -1.1158  2.4136  0.9555
 2592SOL     OW19408   1.685   3.651   4.308 -0.7753  0.0791 -0.2424
 2592SOL    HW119409   1.703   3.612   4.394  1.0699 -3.8009 -2.4283
 2592SOL    HW219410   1.737   3.598   4.247 -0.3006 -1.8109  1.8053
 2593SOL     OW19411   0.397   2.448   5.189 -0.0497  0.6266  0.0815
 2593SOL    HW119412   0.428   2.538   5.201 -0.6522  0.8112  0.2361
 2593SOL    HW219413   0.355   2.446   5.103 -0.3915 -0.0157  0.2626
 2594SOL     OW19414   3.978   0.515   1.790  0.3492  0.0769  0.1765
 2594SOL    HW119415   4.017   0.501   1.704  0.2541  1.8023 -0.1443
 2594SOL    HW219416   4.045   0.569   1.832  0.2858  0.4629 -0.2154
 2595SOL     OW19417   1.029   1.415   7.108 -0.3479  0.6371 -0.1900
 2595SOL    HW119418   1.012   1.371   7.191 -0.3955  0.8749 -0.0740
 2595SOL    HW219419   1.119   1.386   7.092 -0.4857 -0.5561  1.2293
 2596SOL     OW19420   2.370   2.441   2.492 -0.0102  0.7735 -0.0241
 2596SOL    HW119421   2.444   2.421   2.435  0.1537  0.1690  0.3958
 2596SOL    HW219422   2.292   2.430   2.437 -0.2122 -2.6640  0.9373
 2597SOL     OW19423   4.601   1.022   5.672 -0.6136  0.3980  0.0076
 2597SOL    HW119424   4.588   0.973   5.591  0.6131 -2.6021  1.6375
 2597SOL    HW219425   4.677   0.993   5.722 -2.0727 -1.1540  1.3284
 2598SOL     OW19426   0.185   2.281  12.195  0.1143  0.4160 -0.1204
 2598SOL    HW119427   0.197   2.186  12.196 -0.8179  0.3114  1.7377
 2598SOL    HW219428   0.187   2.293  12.290 -1.1464  0.8270 -0.1509
 2599SOL     OW19429   0.832   3.472   4.206 -0.0351 -0.1054 -0.0985
 2599SOL    HW119430   0.859   3.471   4.298  1.2485 -1.6207 -0.4902
 2599SOL    HW219431   0.856   3.381   4.192 -1.1392 -0.3435 -0.4654
 2600SOL     OW19432   3.221   1.622   8.645 -0.4235 -0.6639  0.1109
 2600SOL    HW119433   3.278   1.645   8.572  1.5646  1.0815  2.2121
 2600SOL    HW219434   3.272   1.551   8.683  2.1901  0.9650 -0.3625
 2601SOL     OW19435   0.440   4.117   6.805  0.0808  0.3729 -0.2912
 2601SOL    HW119436   0.493   4.156   6.736 -0.5304  1.4324 -0.1582
 2601SOL    HW219437   0.415   4.032   6.768  0.4918  0.5105 -0.8725
 2602SOL     OW19438   3.507   1.110  10.683 -0.3271 -0.0869 -0.2645
 2602SOL    HW119439   3.518   1.191  10.732 -0.4296  0.0709 -0.5051
 2602SOL    HW219440   3.473   1.059  10.757 -0.0437 -1.0226 -0.7721
 2603SOL     OW19441   0.374   1.267   4.105  0.0010 -0.1063  0.2267
 2603SOL    HW119442   0.379   1.285   4.011  0.5757 -1.9646 -0.0995
 2603SOL    HW219443   0.460   1.234   4.128 -0.6489 -1.3265  0.9024
 2604SOL     OW19444   0.466   3.514   8.321 -0.1807  0.2271 -0.5297
 2604SOL    HW119445   0.393   3.569   8.351 -0.8370 -1.3320  0.7177
 2604SOL    HW219446   0.536   3.578   8.334 -0.5051  0.5389 -0.3280
 2605SOL     OW19447   0.793   2.514   7.318  0.0710 -0.0011  0.0248
 2605SOL    HW119448   0.720   2.574   7.332 -0.4645 -0.8422  0.8721
 2605SOL    HW219449   0.866   2.572   7.340 -1.8216  1.4235  2.5233
 2606SOL     OW19450   1.585   4.644   9.737  0.5524 -0.1870 -0.0855
 2606SOL    HW119451   1.617   4.592   9.810  0.5832 -1.3969 -0.9646
 2606SOL    HW219452   1.579   4.580   9.667 -2.4804  0.4018 -0.3573
 2607SOL     OW19453   2.260   3.051   7.399 -0.1091  0.1342 -0.6776
 2607SOL    HW119454   2.217   3.135   7.414  2.2212  1.3595 -0.8138
 2607SOL    HW219455   2.261   3.054   7.304  0.2870 -0.1784 -0.6839
 2608SOL     OW19456   4.137   3.215   8.588  0.4486  0.1470 -0.5347
 2608SOL    HW119457   4.091   3.131   8.597  0.0570  0.4837  0.6929
 2608SOL    HW219458   4.158   3.212   8.495 -0.9730 -1.0184 -0.8274
 2609SOL     OW19459   1.653   2.407   5.027  0.2548 -0.1126 -0.0683
 2609SOL    HW119460   1.702   2.354   5.090 -0.7272 -1.3896 -0.3835
 2609SOL    HW219461   1.623   2.332   4.974 -0.4067  0.1786 -0.1060
 2610SOL     OW19462   3.922   1.839   8.448 -0.4255 -0.5566 -0.1497
 2610SOL    HW119463   4.004   1.847   8.398  0.3771 -1.0188  1.0935
 2610SOL    HW219464   3.863   1.806   8.380  0.4002 -1.1517 -0.5849
 2611SOL     OW19465   0.014   2.410   5.792 -0.0737 -0.1176  1.0491
 2611SOL    HW119466   0.015   2.477   5.724  1.3463 -1.0647  0.1500
 2611SOL    HW219467   0.023   2.479   5.858 -0.9737 -0.1999  1.2568
 2612SOL     OW19468   4.144   3.551   6.862  0.6537 -0.0538  0.6523
 2612SOL    HW119469   4.218   3.590   6.816  1.4327 -1.8197  0.3874
 2612SOL    HW219470   4.094   3.629   6.886  0.8866 -0.1974  1.6237
 2613SOL     OW19471   2.545   3.296   1.618 -0.1781 -0.3744  0.0766
 2613SOL    HW119472   2.568   3.350   1.694  1.3693 -0.7784 -0.0956
 2613SOL    HW219473   2.452   3.273   1.616 -0.4740  0.9117 -1.2026
 2614SOL     OW19474   1.252   2.252   7.950 -0.5334  0.3117 -0.0773
 2614SOL    HW119475   1.327   2.196   7.929 -0.5684 -0.3599  1.5560
 2614SOL    HW219476   1.181   2.201   7.911 -1.2665 -0.2243  1.9478
 2615SOL     OW19477   3.182   0.730   6.615  0.5905 -0.1068  0.4321
 2615SOL    HW119478   3.181   0.785   6.693 -1.1088 -2.0583  1.7777
 2615SOL    HW219479   3.276   0.727   6.597  0.9284 -0.2840  2.2208
 2616SOL     OW19480   4.508   0.471  14.387  0.2965  0.8642 -0.3245
 2616SOL    HW119481   4.452   0.544  14.361  2.5472  2.6514 -0.1438
 2616SOL    HW219482   4.443   0.416  14.430  0.3455 -0.1226 -1.5115
 2617SOL     OW19483   4.249   2.380   6.757  0.0096 -0.0647 -0.0749
 2617SOL    HW119484   4.159   2.357   6.735 -0.9925  1.9485  1.9199
 2617SOL    HW219485   4.240   2.426   6.841  0.4853 -0.1427  0.0168
 2618SOL     OW19486   4.656   3.215   7.756  0.2264  0.1636  0.2308
 2618SOL    HW119487   4.671   3.306   7.783 -0.4472 -0.0054  1.1524
 2618SOL    HW219488   4.731   3.198   7.699 -0.9989 -0.4006 -1.2228
 2619SOL     OW19489   3.609   3.848   3.310 -0.5079 -0.4318  0.3943
 2619SOL    HW119490   3.674   3.795   3.263 -1.1763 -2.1449  1.4405
 2619SOL    HW219491   3.535   3.825   3.253  0.3951  0.8347 -1.3073
 2620SOL     OW19492   1.680   3.815   4.055 -0.1093 -0.0382  0.0425
 2620SOL    HW119493   1.637   3.768   4.126  1.0886 -2.0877 -0.5997
 2620SOL    HW219494   1.770   3.797   4.082 -0.5422  0.0176  1.4872
 2621SOL     OW19495   2.245   4.135  16.255  0.2802 -0.3698 -0.5115
 2621SOL    HW119496   2.271   4.113  16.344  2.6954  0.3520 -1.0282
 2621SOL    HW219497   2.249   4.047  16.219  3.8582 -0.1420 -0.7155
 2622SOL     OW19498   1.373   3.064   0.417 -0.0384 -0.2108  0.1063
 2622SOL    HW119499   1.447   3.068   0.357 -0.3681  1.5926 -0.1908
 2622SOL    HW219500   1.383   2.975   0.450 -3.3342 -0.5345  0.3143
 2623SOL     OW19501   0.570   0.215   3.107 -0.4557  0.2062  0.3765
 2623SOL    HW119502   0.613   0.176   3.031 -0.5754 -2.6079  1.7760
 2623SOL    HW219503   0.569   0.140   3.166  0.2825 -0.5247 -0.5529
 2624SOL     OW19504   1.347   3.895   6.111  0.0401  0.0590  0.2497
 2624SOL    HW119505   1.375   3.956   6.178  0.0442 -1.2295  1.4236
 2624SOL    HW219506   1.431   3.874   6.069  0.2659 -0.3649  0.9159
 2625SOL     OW19507   2.360   3.607   3.919  0.0391 -0.3873 -0.8154
 2625SOL    HW119508   2.339   3.622   3.826  1.6996  0.4691 -1.0350
 2625SOL    HW219509   2.409   3.526   3.902  0.4949 -0.0563 -1.0823
 2626SOL     OW19510   0.865   3.229   3.310 -0.3295  1.1751 -0.1743
 2626SOL    HW119511   0.779   3.254   3.344 -0.0991  1.7168  0.0201
 2626SOL    HW219512   0.840   3.248   3.220  1.6693  0.8246 -0.8104
 2627SOL     OW19513   2.973   0.033   9.151 -0.0080 -0.4954  0.1407
 2627SOL    HW119514   3.000   4.703   9.212 -0.7343  0.8667  2.0221
 2627SOL    HW219515   2.878   0.021   9.158 -0.5524  3.1392 -0.9884
 2628SOL     OW19516   0.953   1.923   8.311 -0.3814 -0.0662 -0.1325
 2628SOL    HW119517   0.959   1.828   8.304 -1.9667 -0.1584 -0.2758
 2628SOL    HW219518   0.973   1.931   8.404 -0.8318  0.8302 -0.1107
 2629SOL     OW19519   0.048   3.446  11.516  0.3693  0.5180  0.4848
 2629SOL    HW119520   0.045   3.535  11.551  1.2407  0.7979 -0.1427
 2629SOL    HW219521   4.695   3.428  11.496 -0.0755  0.4430  2.5483
 2630SOL     OW19522   2.872   1.053   8.810  0.5857 -0.0947  0.0146
 2630SOL    HW119523   2.966   1.054   8.827  0.3046  0.6672  1.4506
 2630SOL    HW219524   2.855   1.022   8.899  2.8205  0.2572  0.5742
 2631SOL     OW19525   0.585   0.690   4.499 -0.1175 -0.1283  0.3393
 2631SOL    HW119526   0.599   0.679   4.405  0.8364 -1.9721  0.7074
 2631SOL    HW219527   0.521   0.762   4.500  0.4355  0.3586  1.0794
 2632SOL     OW19528   3.148   4.354   3.590  0.4346 -0.1158 -0.0869
 2632SOL    HW119529   3.152   4.259   3.593 -2.6168 -0.1752  1.2423
 2632SOL    HW219530   3.239   4.379   3.607  0.4991 -1.7863  1.9607
 2633SOL     OW19531   1.554   2.901   6.057  0.0499  0.3283 -0.2023
 2633SOL    HW119532   1.527   2.888   5.966 -1.5994 -0.3362  0.3842
 2633SOL    HW219533   1.472   2.939   6.087 -0.7828 -2.3818  1.0177
 2634SOL     OW19534   2.894   2.196   2.557  0.5437 -0.1667  0.1924
 2634SOL    HW119535   2.921   2.285   2.579 -2.0112  0.2504  1.5821
 2634SOL    HW219536   2.801   2.214   2.545  1.2453  2.6457 -1.1130
 2635SOL     OW19537   3.741   0.665   1.834 -0.6171  0.0465 -0.4108
 2635SOL    HW119538   3.697   0.686   1.751  1.0112  1.3274 -0.9540
 2635SOL    HW219539   3.819   0.619   1.804 -0.7695 -0.3933 -0.1313
 2636SOL     OW19540   2.431   4.229   4.311  0.4596  0.6988  0.3021
 2636SOL    HW119541   2.360   4.292   4.325  0.7104  0.7947  1.1643
 2636SOL    HW219542   2.491   4.256   4.381 -0.8466  0.4967  1.5123
 2637SOL     OW19543   2.952   4.356   5.624 -0.7133 -0.0850  0.0490
 2637SOL    HW119544   3.003   4.323   5.550 -0.2877  1.5263 -0.3792
 2637SOL    HW219545   2.996   4.327   5.704 -1.7233 -2.8920 -0.4377
 2638SOL     OW19546   4.424   2.541   5.857  0.1402 -0.0477  0.8872
 2638SOL    HW119547   4.489   2.561   5.790 -0.3877  2.3549  1.1048
 2638SOL    HW219548   4.463   2.462   5.895 -0.3939 -0.5586  0.3791
 2639SOL     OW19549   1.144   0.169   3.589  0.0788 -0.0422  0.2462
 2639SOL    HW119550   1.059   0.208   3.611  0.8155  1.4142  0.5792
 2639SOL    HW219551   1.175   0.141   3.676  1.1844 -0.4006 -0.2572
 2640SOL     OW19552   4.483   3.549   7.157  0.2633 -0.2305  0.2651
 2640SOL    HW119553   4.440   3.558   7.242 -0.5988 -1.0271 -0.0931
 2640SOL    HW219554   4.576   3.536   7.176  0.7275  0.6311 -1.3813
 2641SOL     OW19555   0.231   3.502  14.829 -0.1827 -0.4335  0.3877
 2641SOL    HW119556   0.228   3.408  14.846 -1.8682 -0.2695  0.9890
 2641SOL    HW219557   0.141   3.519  14.802  0.4564 -0.0081 -1.4428
 2642SOL     OW19558   0.349   4.120   4.285  0.0583  0.2715 -0.5560
 2642SOL    HW119559   0.379   4.070   4.209 -2.2448 -0.6949 -0.8410
 2642SOL    HW219560   0.353   4.207   4.246  1.5205  0.0383 -0.9491
 2643SOL     OW19561   2.105   3.221   3.146 -0.3103  0.1639 -0.0496
 2643SOL    HW119562   2.063   3.159   3.086 -0.4700 -0.1174  0.3512
 2643SOL    HW219563   2.035   3.278   3.179  1.9272  3.5619 -1.1225
 2644SOL     OW19564   1.930   2.943   6.792 -0.1590 -0.1451 -0.4931
 2644SOL    HW119565   2.024   2.961   6.783  0.2649 -1.4217  1.3429
 2644SOL    HW219566   1.907   2.926   6.701  1.3610 -1.9149 -0.5429
 2645SOL     OW19567   2.107   0.997  12.852  0.3946 -0.2350 -0.1016
 2645SOL    HW119568   2.047   1.022  12.782 -0.9577 -1.5217  0.6201
 2645SOL    HW219569   2.095   1.063  12.921 -0.0201  0.8434 -1.2067
 2646SOL     OW19570   3.292   2.348   2.362 -0.1551  0.2021  0.4922
 2646SOL    HW119571   3.254   2.395   2.436 -1.8742 -1.9724  1.0130
 2646SOL    HW219572   3.229   2.276   2.363  0.3397 -0.2393 -0.1406
 2647SOL     OW19573   1.687   4.225   5.973 -0.0345 -0.5875 -0.8696
 2647SOL    HW119574   1.760   4.286   5.983 -0.8467 -0.1169  2.1017
 2647SOL    HW219575   1.623   4.279   5.928  0.6370  1.9257  1.2188
 2648SOL     OW19576   3.531   3.487   9.508 -0.3593  0.1813 -0.2015
 2648SOL    HW119577   3.464   3.537   9.460 -0.5009  2.4045  2.3123
 2648SOL    HW219578   3.600   3.553   9.513  1.3711 -1.4823 -2.2087
 2649SOL     OW19579   3.341   2.882  13.777 -0.5401  0.0421  0.0007
 2649SOL    HW119580   3.362   2.865  13.685 -2.2517  1.2958 -0.6306
 2649SOL    HW219581   3.426   2.856  13.812 -1.0954 -0.2879  1.0765
 2650SOL     OW19582   3.728   3.916   8.543 -0.0364 -0.0339  0.5039
 2650SOL    HW119583   3.689   3.950   8.462  1.2666  2.2869  0.8448
 2650SOL    HW219584   3.673   3.956   8.610 -1.5666 -0.8118 -0.3005
 2651SOL     OW19585   2.333   3.596   5.889  0.4691  0.1985  0.7073
 2651SOL    HW119586   2.388   3.669   5.861 -1.3513  0.3341 -2.5243
 2651SOL    HW219587   2.248   3.609   5.846  1.0031 -0.6299 -0.5897
 2652SOL     OW19588   1.241   2.551   7.243 -0.5366 -0.6646 -0.1733
 2652SOL    HW119589   1.314   2.527   7.300 -0.0144  0.2347 -0.4701
 2652SOL    HW219590   1.219   2.468   7.202 -0.6854 -0.2565 -0.9208
 2653SOL     OW19591   4.149   0.651   3.606 -0.3330 -0.7745 -0.1363
 2653SOL    HW119592   4.227   0.602   3.633  1.7155  1.9353 -1.1733
 2653SOL    HW219593   4.134   0.698   3.688 -0.9986  0.4418 -0.9702
 2654SOL     OW19594   0.164   0.431   1.284  0.1536  0.2185  0.0455
 2654SOL    HW119595   0.142   0.500   1.221 -0.0050  0.6896  0.6089
 2654SOL    HW219596   0.079   0.438   1.328  0.3884 -1.0629  0.7054
 2655SOL     OW19597   0.201   2.336   4.439  0.4538  0.1952  0.3194
 2655SOL    HW119598   0.262   2.358   4.510 -1.1452  0.5235  1.5976
 2655SOL    HW219599   0.173   2.425   4.421  1.1213  0.6847  1.6685
 2656SOL     OW19600   1.191   3.207   4.375  0.1607 -0.0071  0.1681
 2656SOL    HW119601   1.107   3.214   4.331  0.5896  1.6708 -0.3765
 2656SOL    HW219602   1.195   3.111   4.383  1.8917  0.0011 -0.5692
 2657SOL     OW19603   1.180   4.567  10.408  0.8288  0.3190 -0.1503
 2657SOL    HW119604   1.187   4.483  10.363  4.8046  1.0735 -0.9203
 2657SOL    HW219605   1.247   4.570  10.476  0.1480  0.7251  0.5032
 2658SOL     OW19606   0.455   1.129   5.556  0.4589 -0.6139 -0.8917
 2658SOL    HW119607   0.543   1.098   5.577  0.1764 -0.6411  0.2619
 2658SOL    HW219608   0.408   1.079   5.623  2.0110  0.4068  0.9695
 2659SOL     OW19609   1.536   3.042  10.190  0.1025  0.0767 -0.1992
 2659SOL    HW119610   1.507   2.986  10.262  0.9621  0.4674  0.4527
 2659SOL    HW219611   1.545   2.974  10.124 -1.3054 -0.7470  0.4641
 2660SOL     OW19612   1.280   0.113   8.822 -0.2273 -0.8530 -0.4224
 2660SOL    HW119613   1.316   0.201   8.814  3.0891 -2.1879 -0.0029
 2660SOL    HW219614   1.353   0.059   8.793 -0.4592 -0.1642 -2.3201
 2661SOL     OW19615   2.005   4.366   4.745  0.2760  0.2342  0.2438
 2661SOL    HW119616   1.967   4.334   4.826 -1.8732 -0.9273 -1.2131
 2661SOL    HW219617   2.097   4.350   4.767  0.3127 -0.0453 -0.1237
 2662SOL     OW19618   3.904   1.488  16.013  0.5865  0.2749  0.4043
 2662SOL    HW119619   3.854   1.517  15.937  0.3905  2.3636  1.3215
 2662SOL    HW219620   3.848   1.500  16.090  0.2895  0.2369  0.1943
 2663SOL     OW19621   4.584   1.821   2.802 -0.0173  0.1748  0.4885
 2663SOL    HW119622   4.506   1.851   2.847  0.1034 -2.5493  2.5373
 2663SOL    HW219623   4.624   1.903   2.774  0.6293  0.0119  0.9413
 2664SOL     OW19624   4.679   3.491  12.839  0.3294 -0.0640 -0.0505
 2664SOL    HW119625   4.705   3.404  12.811  0.0628 -0.4336  0.8452
 2664SOL    HW219626   4.683   3.536  12.755 -4.3574  0.5022  0.0498
 2665SOL     OW19627   3.334   1.074   2.546  0.3391 -0.1540 -0.7699
 2665SOL    HW119628   3.248   1.034   2.529  0.5841 -2.3101  2.9979
 2665SOL    HW219629   3.385   1.006   2.500  0.2594 -0.5674 -0.2447
 2666SOL     OW19630   0.801   1.989   8.072  0.4291  0.2808 -0.3343
 2666SOL    HW119631   0.821   1.995   8.165  1.7957 -2.3795 -0.4549
 2666SOL    HW219632   0.891   2.008   8.046 -0.2137  0.8895 -2.1460
 2667SOL     OW19633   2.961   0.539   7.483 -0.1986 -0.0178 -0.0009
 2667SOL    HW119634   2.991   0.466   7.429  0.7503  1.5863 -1.6518
 2667SOL    HW219635   2.867   0.541   7.466 -0.2726  1.6937  0.6359
 2668SOL     OW19636   2.086   3.964  16.853  0.3315 -0.1540 -0.8117
 2668SOL    HW119637   2.058   4.046  16.811  1.2067  0.3245 -0.4605
 2668SOL    HW219638   2.042   3.972  16.938  1.6996 -1.7729  0.0385
 2669SOL     OW19639   3.802   3.840  13.312 -0.1926  0.5241  0.0210
 2669SOL    HW119640   3.723   3.886  13.282 -0.1823  0.9553  0.6699
 2669SOL    HW219641   3.768   3.813  13.397  0.3793 -0.9431 -0.2188
 2670SOL     OW19642   2.253   0.922  10.341  0.6712  0.1805  0.4245
 2670SOL    HW119643   2.195   0.922  10.418  1.4617 -1.2526  1.0100
 2670SOL    HW219644   2.190   0.970  10.288  1.5850  1.5113  0.5364
 2671SOL     OW19645   3.672   0.319   5.339  0.1376 -0.3783  0.4861
 2671SOL    HW119646   3.699   0.257   5.271 -1.9361 -1.8494  1.0445
 2671SOL    HW219647   3.717   0.402   5.319 -0.6051  0.3657  1.9436
 2672SOL     OW19648   4.494   3.620   7.516  0.2977  0.5708  0.6831
 2672SOL    HW119649   4.419   3.678   7.503  0.3452  0.5471  0.2870
 2672SOL    HW219650   4.450   3.556   7.573  0.4155  0.0234  0.1674
 2673SOL     OW19651   2.254   3.000   7.120 -0.2740 -0.4333  0.1184
 2673SOL    HW119652   2.319   2.980   7.053  0.2463  0.3991  0.3791
 2673SOL    HW219653   2.222   2.913   7.143  0.3135 -0.8254 -0.5599
 2674SOL     OW19654   1.176   1.911  12.517 -0.1765 -0.1118 -0.0072
 2674SOL    HW119655   1.201   1.848  12.585 -0.2892  0.8945  0.9432
 2674SOL    HW219656   1.221   1.872  12.441 -0.5086  0.7929 -0.6647
 2675SOL     OW19657   0.416   3.739   0.178  0.0343  0.2786 -0.1548
 2675SOL    HW119658   0.439   3.817   0.127  2.3186 -0.3369 -0.1105
 2675SOL    HW219659   0.391   3.679   0.107 -0.3146 -0.3496  0.5040
 2676SOL     OW19660   4.252   2.361   1.010  0.1018 -0.7510  0.1127
 2676SOL    HW119661   4.253   2.408   0.927  2.1078 -0.9062  0.0350
 2676SOL    HW219662   4.193   2.422   1.054 -1.7868 -1.7361 -1.0834
 2677SOL     OW19663   0.266   4.581   0.277 -0.0666 -0.0419  0.1078
 2677SOL    HW119664   0.191   4.585   0.336  0.3238  2.4251  0.4026
 2677SOL    HW219665   0.212   4.576   0.198  0.8953  1.2919 -0.6270
 2678SOL     OW19666   1.641   0.798  10.503 -0.2498  0.6485  0.6970
 2678SOL    HW119667   1.557   0.787  10.458 -0.5489  0.9070  1.1889
 2678SOL    HW219668   1.694   0.771  10.429  1.1318 -1.6233  2.5017
 2679SOL     OW19669   2.741   2.388   2.362 -0.1611  0.1258  0.1841
 2679SOL    HW119670   2.675   2.358   2.424  0.1976  0.3349  0.6635
 2679SOL    HW219671   2.780   2.453   2.420 -0.5555  0.6668 -0.1553
 2680SOL     OW19672   0.210   3.565   5.864 -0.2429  0.3374 -0.1544
 2680SOL    HW119673   0.141   3.632   5.862 -0.1950  0.4263  1.2426
 2680SOL    HW219674   0.235   3.569   5.956  0.4250  0.0169 -0.3278
 2681SOL     OW19675   1.354   2.937   3.627  0.3527 -0.1096 -0.3396
 2681SOL    HW119676   1.396   2.909   3.708  0.4033 -0.1304 -0.3732
 2681SOL    HW219677   1.380   3.029   3.623 -0.6336  0.2351  0.8918
 2682SOL     OW19678   3.738   0.730  13.908  0.0994 -0.3170 -0.1363
 2682SOL    HW119679   3.665   0.693  13.958 -0.5142  1.5999  0.4158
 2682SOL    HW219680   3.807   0.688  13.959 -1.3816 -4.0928 -1.2369
 2683SOL     OW19681   4.733   4.587  15.836  0.1579 -0.0516  0.6061
 2683SOL    HW119682   0.040   4.653  15.783  1.3993 -0.4970  1.1620
 2683SOL    HW219683   0.053   4.513  15.838  0.0370 -0.1436  0.7674
 2684SOL     OW19684   1.943   2.872   2.668  0.1210  0.0325  0.1945
 2684SOL    HW119685   1.876   2.816   2.630 -0.1645 -0.3652  1.2898
 2684SOL    HW219686   2.026   2.847   2.627  0.9893  2.1801  0.6659
 2685SOL     OW19687   2.394   3.395  10.284  0.1971  0.7378  0.2369
 2685SOL    HW119688   2.371   3.366  10.372 -1.3339  1.5699  0.0982
 2685SOL    HW219689   2.440   3.477  10.303  0.7321 -0.1978  3.0350
 2686SOL     OW19690   4.595   3.357  14.462 -0.1106  0.4228 -0.0888
 2686SOL    HW119691   4.646   3.398  14.392 -0.5904  1.8972  0.4054
 2686SOL    HW219692   4.575   3.439  14.509 -3.2201  0.2037 -1.0236
 2687SOL     OW19693   0.512   3.621  17.380 -0.0423 -0.2706  0.2071
 2687SOL    HW119694   0.435   3.624  17.323 -0.7020 -0.5927  1.0849
 2687SOL    HW219695   0.490   3.535  17.417 -1.1409 -0.0132  0.1618
 2688SOL     OW19696   3.142   4.581   6.807  0.7036  0.0780 -0.0962
 2688SOL    HW119697   3.142   4.666   6.850 -3.0282  1.0406 -2.0513
 2688SOL    HW219698   3.068   4.588   6.746 -2.1392 -0.9916  3.2265
 2689SOL     OW19699   2.001   2.314   3.053 -0.2883  0.3805 -0.6685
 2689SOL    HW119700   1.968   2.230   3.086 -0.7407  0.8412  0.0479
 2689SOL    HW219701   1.974   2.368   3.127 -2.1097 -0.8987 -0.3693
 2690SOL     OW19702   4.737   0.376   9.672 -0.8763  0.3460  0.1864
 2690SOL    HW119703   4.737   0.320   9.750 -0.8719 -1.0392 -0.8016
 2690SOL    HW219704   0.088   0.405   9.666 -1.2341  0.9760 -2.3511
 2691SOL     OW19705   3.177   4.365   8.459 -0.4511 -0.3003  0.3862
 2691SOL    HW119706   3.196   4.284   8.505  0.1210  0.3621  1.3130
 2691SOL    HW219707   3.260   4.408   8.482 -0.4980 -1.0092  1.8953
 2692SOL     OW19708   4.668   1.585   5.751 -0.0248 -0.2034 -0.2334
 2692SOL    HW119709   4.587   1.574   5.702 -0.2343  0.4957 -0.0512
 2692SOL    HW219710   4.689   1.492   5.761  1.5885  0.0207 -1.4890
 2693SOL     OW19711   4.189   0.667  17.535 -0.0731  0.2689 -0.5765
 2693SOL    HW119712   4.212   0.592  17.590 -2.5518  0.4577  0.7060
 2693SOL    HW219713   4.237   0.653  17.453 -0.0902 -3.5513  0.0657
 2694SOL     OW19714   2.685   3.077   3.767 -0.7890 -0.4122 -0.7173
 2694SOL    HW119715   2.773   3.042   3.778 -0.4512  0.4828 -0.5631
 2694SOL    HW219716   2.693   3.086   3.672 -1.1788 -0.0817 -0.7175
 2695SOL     OW19717   0.678   0.737   3.007 -0.1693  0.0443  0.3151
 2695SOL    HW119718   0.694   0.663   3.066  0.1296 -0.6955 -0.7060
 2695SOL    HW219719   0.742   0.797   3.045  1.3329 -2.2156  1.3575
 2696SOL     OW19720   2.066   0.772   7.110 -0.1604 -0.3904  0.4749
 2696SOL    HW119721   2.044   0.769   7.203  0.0400  0.3366  0.5420
 2696SOL    HW219722   2.033   0.858   7.084  2.5874  0.8878  1.2671
 2697SOL     OW19723   2.997   4.460   8.283  0.4994  0.2908  0.7663
 2697SOL    HW119724   3.033   4.548   8.283  0.9609  0.1091  2.0851
 2697SOL    HW219725   3.068   4.413   8.326  1.5278  0.2711 -0.9923
 2698SOL     OW19726   3.571   3.465   0.619 -0.2313 -1.0020  0.1488
 2698SOL    HW119727   3.640   3.524   0.589 -2.6841 -0.1689 -3.8988
 2698SOL    HW219728   3.611   3.379   0.632  1.0860 -0.1142  1.9479
 2699SOL     OW19729   1.441   2.715  11.494 -0.3289 -0.4462 -0.3140
 2699SOL    HW119730   1.438   2.623  11.468  1.2860 -0.9053  1.1323
 2699SOL    HW219731   1.468   2.709  11.586  0.5985 -0.3307 -0.5706
 2700SOL     OW19732   0.465   2.823  15.152 -0.1202 -0.8153 -0.1108
 2700SOL    HW119733   0.403   2.765  15.196 -0.3969 -0.7416 -0.4046
 2700SOL    HW219734   0.510   2.851  15.232 -0.8097 -0.0695  0.0298
 2701SOL     OW19735   3.408   0.639   6.338  0.4818  0.0242  0.0285
 2701SOL    HW119736   3.321   0.647   6.300  0.4427 -0.1294  0.0839
 2701SOL    HW219737   3.407   0.677   6.426  1.7988 -3.3372  1.5248
 2702SOL     OW19738   2.236   0.356   1.753  0.9080  0.0954 -0.4733
 2702SOL    HW119739   2.194   0.276   1.720 -1.4411 -0.6146  4.1359
 2702SOL    HW219740   2.217   0.418   1.683 -0.1265 -1.2780 -1.4199
 2703SOL     OW19741   1.857   2.060   3.155  0.0938  0.1431  0.2194
 2703SOL    HW119742   1.908   1.996   3.204 -1.0113 -0.1185  1.0330
 2703SOL    HW219743   1.791   2.078   3.223  1.0245  1.8795  0.6732
 2704SOL     OW19744   4.318   1.410  12.685  0.4624 -0.0581 -0.3934
 2704SOL    HW119745   4.244   1.471  12.680  0.9185  0.4753 -0.6086
 2704SOL    HW219746   4.296   1.335  12.629  0.3736 -0.2698 -0.0763
 2705SOL     OW19747   2.907   2.870   7.468  0.2773 -0.1476 -0.2223
 2705SOL    HW119748   2.893   2.936   7.401  2.9875  0.1924 -0.4337
 2705SOL    HW219749   3.002   2.879   7.473  0.0358  2.5707 -0.5003
 2706SOL     OW19750   0.550   2.664   5.722 -0.8376 -0.4002 -0.8569
 2706SOL    HW119751   0.456   2.648   5.727 -0.3076 -2.8809  0.9635
 2706SOL    HW219752   0.558   2.710   5.639  0.3447 -2.0638 -1.6669
 2707SOL     OW19753   1.674   2.803   2.843  0.6976 -0.7230  0.0802
 2707SOL    HW119754   1.711   2.832   2.760 -0.6547 -0.1990 -0.3339
 2707SOL    HW219755   1.633   2.883   2.876  0.3068 -0.7483 -0.3447
 2708SOL     OW19756   1.472   1.930  10.582 -0.2671  0.0679  0.5285
 2708SOL    HW119757   1.451   1.840  10.607 -0.9596  0.0261 -0.2032
 2708SOL    HW219758   1.477   1.982  10.662  1.8308  1.8479 -0.7345
 2709SOL     OW19759   1.815   2.838  13.150  0.3080 -0.5038 -0.2609
 2709SOL    HW119760   1.816   2.774  13.079  0.1018 -0.9914  0.1714
 2709SOL    HW219761   1.906   2.868  13.152  0.2700 -0.4373  0.5422
 2710SOL     OW19762   3.703   4.548   5.940 -1.4236  0.2573 -0.9509
 2710SOL    HW119763   3.797   4.562   5.927 -0.9106 -1.3369  1.0711
 2710SOL    HW219764   3.668   4.558   5.852  0.5039 -1.3609 -1.9131
 2711SOL     OW19765   2.058   4.300  14.655  0.0103 -0.2070  0.8109
 2711SOL    HW119766   2.060   4.221  14.602 -0.0266 -0.5730  1.3502
 2711SOL    HW219767   2.096   4.366  14.597  2.9607 -0.5334  2.3991
 2712SOL     OW19768   3.640   4.528   7.983 -0.5607  0.4663  0.2602
 2712SOL    HW119769   3.634   4.460   7.916 -0.3354  0.2787  0.4311
 2712SOL    HW219770   3.547   4.533   8.005  0.0450  0.5480  2.7191
 2713SOL     OW19771   3.672   2.267   0.133 -0.6609  0.3170  0.4255
 2713SOL    HW119772   3.581   2.268   0.163 -0.9179  1.3031 -0.4192
 2713SOL    HW219773   3.669   2.182   0.089  2.5333  1.3486 -1.7672
 2714SOL     OW19774   3.054   1.712   6.344 -0.3703 -0.2678  0.0904
 2714SOL    HW119775   3.059   1.696   6.438  1.9626 -0.1754 -0.0138
 2714SOL    HW219776   2.985   1.777   6.344 -0.3908 -0.2971 -1.7855
 2715SOL     OW19777   3.215   4.285   0.595 -0.2698  0.6718 -0.5743
 2715SOL    HW119778   3.129   4.325   0.604 -1.7233 -2.5614  0.0702
 2715SOL    HW219779   3.196   4.191   0.599  0.1416  0.6764  1.5619
 2716SOL     OW19780   4.551   0.629   2.581 -0.3089  0.5357 -0.3024
 2716SOL    HW119781   4.512   0.699   2.634 -0.1144  1.5102 -1.4473
 2716SOL    HW219782   4.597   0.587   2.653  0.8362  0.5979 -1.0100
 2717SOL     OW19783   2.058   4.113   1.938 -0.4556 -0.0010 -0.2549
 2717SOL    HW119784   2.056   4.161   2.020  2.2460  1.1321 -0.8747
 2717SOL    HW219785   1.968   4.119   1.905 -1.3104 -0.6582  1.9707
 2718SOL     OW19786   2.920   1.499   4.770 -0.2159  0.5143 -0.5490
 2718SOL    HW119787   3.008   1.478   4.801 -0.2734 -0.2938 -0.9137
 2718SOL    HW219788   2.909   1.453   4.687 -1.5992 -0.5781  0.2241
 2719SOL     OW19789   4.431   0.179   4.397 -0.1029  0.4641 -0.1392
 2719SOL    HW119790   4.369   0.250   4.380 -1.1671 -0.3604  0.3143
 2719SOL    HW219791   4.513   0.212   4.360  0.2887  0.5488  0.7799
 2720SOL     OW19792   1.359   0.589   8.455 -0.2802 -0.6998 -0.1094
 2720SOL    HW119793   1.370   0.683   8.470 -1.7108 -0.4994 -0.3072
 2720SOL    HW219794   1.328   0.585   8.364  1.0673 -0.5986 -0.5822
 2721SOL     OW19795   1.343   3.813   9.668  0.1675  0.0379 -0.1903
 2721SOL    HW119796   1.380   3.885   9.718 -1.5759  1.1248 -0.4884
 2721SOL    HW219797   1.259   3.789   9.708  0.8620  0.8369  1.7128
 2722SOL     OW19798   3.779   2.917   8.652  0.3828  0.5503 -0.0366
 2722SOL    HW119799   3.688   2.895   8.633  0.0336  1.8002  0.1925
 2722SOL    HW219800   3.778   2.925   8.747 -1.9713 -1.0089  0.0742
 2723SOL     OW19801   3.834   2.217  16.628  0.0552  0.2213 -0.0040
 2723SOL    HW119802   3.922   2.217  16.591 -0.3796 -1.3628 -1.0152
 2723SOL    HW219803   3.781   2.244  16.553 -1.7644  1.5303  1.7482
 2724SOL     OW19804   2.553   3.300   4.950 -0.0063  0.7623  0.2583
 2724SOL    HW119805   2.570   3.394   4.961 -0.7295  0.8331  0.7510
 2724SOL    HW219806   2.616   3.259   5.009  0.3270 -0.3768 -0.8905
 2725SOL     OW19807   1.671   1.178   1.057 -0.4100  0.4097  0.0258
 2725SOL    HW119808   1.728   1.218   0.992  0.1797 -0.1152  0.2259
 2725SOL    HW219809   1.627   1.260   1.081  0.5998  1.4184 -1.5931
 2726SOL     OW19810   0.404   1.159   2.687  0.1690 -0.0881  0.3999
 2726SOL    HW119811   0.399   1.092   2.618 -1.6047  1.1843 -0.6974
 2726SOL    HW219812   0.492   1.195   2.684  0.4095 -0.7491 -0.8643
 2727SOL     OW19813   2.077   2.274  10.103  0.3273  0.3533 -0.0330
 2727SOL    HW119814   2.026   2.354  10.097 -0.2961 -0.1549 -1.5490
 2727SOL    HW219815   2.151   2.287  10.044  0.2920  0.2970 -0.0895
 2728SOL     OW19816   0.548   1.371  15.268  0.2881  0.1684 -0.1132
 2728SOL    HW119817   0.641   1.389  15.282  0.1194  2.3671 -1.9146
 2728SOL    HW219818   0.543   1.276  15.254  1.2629 -0.0949  1.2966
 2729SOL     OW19819   4.053   1.585   5.331  0.5262  0.5074 -0.3489
 2729SOL    HW119820   4.060   1.522   5.259  3.9574  0.2637  0.1576
 2729SOL    HW219821   3.963   1.563   5.355  1.3970 -1.1039  1.4467
 2730SOL     OW19822   4.601   1.094   8.970 -0.1851  0.0334 -0.2961
 2730SOL    HW119823   4.533   1.118   8.906 -1.7387  2.1564  2.1681
 2730SOL    HW219824   4.547   1.046   9.033 -0.8247 -0.2698 -1.0728
 2731SOL     OW19825   2.596   1.746   2.723  0.0786 -0.3667 -0.3094
 2731SOL    HW119826   2.676   1.694   2.708 -0.5259 -1.0093 -1.2791
 2731SOL    HW219827   2.620   1.803   2.796 -0.3802  1.6767 -1.7647
 2732SOL     OW19828   1.671   1.430   4.297  0.2996  0.0860  0.0392
 2732SOL    HW119829   1.631   1.473   4.372 -2.7166 -0.1025 -1.4898
 2732SOL    HW219830   1.766   1.440   4.309  0.5090 -0.1352 -1.3742
 2733SOL     OW19831   2.918   4.686   7.710 -0.2523  0.0582  0.2440
 2733SOL    HW119832   2.998   4.709   7.662  0.6051  0.6589  1.9495
 2733SOL    HW219833   2.866   4.621   7.663  0.5401  0.3104 -0.9833
 2734SOL     OW19834   0.714   0.378   1.823 -0.3665 -0.2645  0.0303
 2734SOL    HW119835   0.641   0.329   1.785  1.5876 -1.9337 -1.5933
 2734SOL    HW219836   0.693   0.467   1.795 -0.4741  0.7070  3.2248
 2735SOL     OW19837   4.593   3.324  12.020 -0.0496 -0.0248  0.0794
 2735SOL    HW119838   4.528   3.267  12.060  0.3640 -0.4275  0.1751
 2735SOL    HW219839   4.542   3.350  11.943 -0.1325 -1.1294 -0.2394
 2736SOL     OW19840   2.610   2.427  12.759  0.2092 -0.6561  0.5175
 2736SOL    HW119841   2.540   2.451  12.698  1.2317  2.3819  0.5547
 2736SOL    HW219842   2.658   2.357  12.715  0.7205  0.8167 -1.2717
 2737SOL     OW19843   4.359   3.591   5.291  0.7346 -0.3462  0.2682
 2737SOL    HW119844   4.295   3.557   5.353 -0.4287 -0.7731 -1.1575
 2737SOL    HW219845   4.430   3.588   5.354 -0.4969 -1.8832  1.6005
 2738SOL     OW19846   1.547   3.721   7.110  0.3836 -0.2543  0.2692
 2738SOL    HW119847   1.516   3.761   7.028 -2.8676 -2.1551  0.5627
 2738SOL    HW219848   1.513   3.786   7.172 -0.7280 -0.6511  0.0646
 2739SOL     OW19849   3.885   1.169   5.090 -0.0601 -0.1616  0.3633
 2739SOL    HW119850   3.963   1.154   5.037 -0.3720  1.5435 -0.5624
 2739SOL    HW219851   3.822   1.157   5.019  0.4752 -1.5266  0.1159
 2740SOL     OW19852   2.528   4.008   5.360  0.6973 -0.1132 -0.0049
 2740SOL    HW119853   2.581   4.031   5.284  1.0396 -1.5383 -0.1981
 2740SOL    HW219854   2.579   3.932   5.387  0.7582 -0.3049 -0.6678
 2741SOL     OW19855   3.068   3.249   3.151  0.5002  0.4121  0.3022
 2741SOL    HW119856   3.091   3.309   3.080  1.7823 -2.2618 -1.5272
 2741SOL    HW219857   3.026   3.179   3.102 -2.6926  2.4118  0.1629
 2742SOL     OW19858   3.214   2.468   1.533 -0.6516 -0.3109  0.2879
 2742SOL    HW119859   3.296   2.517   1.532 -1.8585  1.7290  0.5561
 2742SOL    HW219860   3.162   2.500   1.459 -0.2547 -0.0655  0.1175
 2743SOL     OW19861   2.409   3.080   5.965 -0.2594 -0.0009 -0.4505
 2743SOL    HW119862   2.409   3.175   5.952  0.7273 -0.0131 -0.5015
 2743SOL    HW219863   2.370   3.059   5.880  0.3520  2.2579 -1.2992
 2744SOL     OW19864   3.000   3.301   4.589  0.7274 -0.0229  0.1894
 2744SOL    HW119865   2.995   3.208   4.568  2.2509 -0.1606  0.4880
 2744SOL    HW219866   3.046   3.343   4.516  0.6333 -0.4632 -0.1245
 2745SOL     OW19867   2.208   3.258  11.552 -0.3411  0.2142  0.2758
 2745SOL    HW119868   2.247   3.324  11.495  2.5060 -0.7808  1.0378
 2745SOL    HW219869   2.115   3.275  11.537 -0.1857  0.1252 -0.7685
 2746SOL     OW19870   2.536   3.117  11.159 -0.6708  0.2432 -0.2103
 2746SOL    HW119871   2.621   3.141  11.197 -0.1948 -2.2356  0.2787
 2746SOL    HW219872   2.543   3.027  11.127 -0.6910 -0.7100  2.4444
 2747SOL     OW19873   0.715   1.150   1.388 -0.1527  0.3952 -0.0730
 2747SOL    HW119874   0.707   1.098   1.308 -0.7614 -2.0417  1.5579
 2747SOL    HW219875   0.809   1.166   1.383 -0.0638  0.2047  0.9274
 2748SOL     OW19876   3.716   0.059   7.905 -0.1887 -0.2892  0.3180
 2748SOL    HW119877   3.705   4.711   7.942 -1.9910 -0.8975 -1.6419
 2748SOL    HW219878   3.747   0.118   7.974 -0.8847 -1.2216  1.4119
 2749SOL     OW19879   3.861   1.873   2.769  0.1387 -0.1240 -0.4709
 2749SOL    HW119880   3.796   1.802   2.775 -1.1648  1.0589 -0.5452
 2749SOL    HW219881   3.799   1.942   2.791 -1.8414 -1.9340 -0.3341
 2750SOL     OW19882   3.817   2.528   3.946 -0.3874  0.2070  0.3015
 2750SOL    HW119883   3.872   2.493   3.876  0.2733 -0.6078  1.2537
 2750SOL    HW219884   3.849   2.480   4.021  0.3841 -0.1887 -0.2824
 2751SOL     OW19885   2.717   2.069   6.038 -1.0294  0.3436 -0.5843
 2751SOL    HW119886   2.761   2.092   5.956  2.1012 -0.3536  0.8962
 2751SOL    HW219887   2.700   1.975   6.030  0.2968  0.1511 -1.1724
 2752SOL     OW19888   4.240   2.026   2.576 -0.0827  0.1936  0.2488
 2752SOL    HW119889   4.158   1.982   2.557  0.2409  0.1300 -1.0073
 2752SOL    HW219890   4.313   1.965   2.565  0.1356  0.4548  0.2296
 2753SOL     OW19891   1.239   1.285   2.421 -0.0802  0.3837 -0.6616
 2753SOL    HW119892   1.224   1.228   2.346  1.1900 -1.6903  0.6593
 2753SOL    HW219893   1.154   1.325   2.439 -0.2503 -0.6610  0.8392
 2754SOL     OW19894   1.736   3.016  11.824  0.0843 -0.1186  0.0984
 2754SOL    HW119895   1.761   3.013  11.917 -0.7648 -0.3944  0.3244
 2754SOL    HW219896   1.820   3.016  11.779  0.1166  2.6117  0.1130
 2755SOL     OW19897   2.990   0.701  17.507  0.4057 -0.2454 -0.6484
 2755SOL    HW119898   2.962   0.609  17.510  0.5379 -0.3445 -2.6417
 2755SOL    HW219899   3.085   0.689  17.497  0.5554  1.9069 -1.7358
 2756SOL     OW19900   3.680   1.601   6.865  0.6756 -0.2671  0.3366
 2756SOL    HW119901   3.607   1.559   6.819  1.6033 -1.7651  0.2376
 2756SOL    HW219902   3.728   1.530   6.908  1.5266  0.5338  0.7036
 2757SOL     OW19903   3.251   0.594  12.239  0.0396 -0.0533 -0.2310
 2757SOL    HW119904   3.280   0.555  12.322  1.4633  0.1878 -0.6201
 2757SOL    HW219905   3.166   0.552  12.226  0.2261  0.4377 -3.0293
 2758SOL     OW19906   3.193   2.373  11.006 -0.0851 -0.1438 -0.0406
 2758SOL    HW119907   3.114   2.368  10.952 -0.7934 -2.9781  1.2475
 2758SOL    HW219908   3.160   2.334  11.087  1.8097 -1.6573  0.0039
 2759SOL     OW19909   0.215   2.459   8.813  0.4108 -0.3909 -0.0481
 2759SOL    HW119910   0.148   2.408   8.768  0.1040  0.0661 -0.1083
 2759SOL    HW219911   0.239   2.522   8.745  0.7372  1.5807  1.8714
 2760SOL     OW19912   3.198   2.756   4.888 -0.3523 -0.7985  0.0866
 2760SOL    HW119913   3.108   2.735   4.866 -1.2832  2.5955  0.5566
 2760SOL    HW219914   3.250   2.716   4.819 -0.2355 -0.1869 -0.1793
 2761SOL     OW19915   2.515   3.815   6.695  0.0408  0.3963 -0.3958
 2761SOL    HW119916   2.564   3.745   6.739 -1.9008 -0.2074  0.8027
 2761SOL    HW219917   2.564   3.822   6.613  0.6363 -2.1711 -0.2732
 2762SOL     OW19918   0.281   3.895   2.930 -0.3198 -0.3289  0.0373
 2762SOL    HW119919   0.309   3.881   2.839  1.8581  0.5331  0.5741
 2762SOL    HW219920   0.324   3.820   2.971  0.3649 -0.0833 -0.2232
 2763SOL     OW19921   1.492   3.490   3.957  0.3251 -0.0372 -0.1101
 2763SOL    HW119922   1.418   3.551   3.953 -1.4092 -2.1565 -0.2025
 2763SOL    HW219923   1.487   3.482   4.053 -1.8329  0.5135 -0.1647
 2764SOL     OW19924   0.118   0.691   9.373 -0.1650  0.0829 -1.1693
 2764SOL    HW119925   0.195   0.721   9.422  0.5623 -4.0717  0.2278
 2764SOL    HW219926   0.051   0.741   9.419  1.2671  0.9349  0.0038
 2765SOL     OW19927   3.911   1.118   2.774  0.2133  0.3199 -0.4475
 2765SOL    HW119928   3.984   1.162   2.731  0.5465  1.2433  1.0407
 2765SOL    HW219929   3.926   1.145   2.865 -0.1842 -1.1904  0.0789
 2766SOL     OW19930   1.096   1.296   8.308 -0.2267 -0.0289 -0.2370
 2766SOL    HW119931   1.045   1.348   8.246  0.5644  1.8421  0.6794
 2766SOL    HW219932   1.030   1.243   8.352  2.0691 -1.1973  1.8422
 2767SOL     OW19933   2.516   3.663   6.951 -0.6229  0.5380  0.5795
 2767SOL    HW119934   2.487   3.593   6.893  2.5502  0.6035 -1.1179
 2767SOL    HW219935   2.582   3.623   7.008  0.6271  2.7792  0.7048
 2768SOL     OW19936   3.334   2.375   2.723 -0.4426 -0.4550  0.3296
 2768SOL    HW119937   3.389   2.325   2.663 -0.6951 -0.5854  0.2052
 2768SOL    HW219938   3.304   2.453   2.677 -2.2026  0.7840  3.5963
 2769SOL     OW19939   4.450   3.913   2.722 -0.3605 -0.0417 -0.3173
 2769SOL    HW119940   4.521   3.953   2.772 -1.8524 -0.3205  2.0319
 2769SOL    HW219941   4.430   3.842   2.784  1.0108 -1.4057 -1.4456
 2770SOL     OW19942   1.205   4.633   3.557 -0.0912  0.3718  0.6206
 2770SOL    HW119943   1.146   4.599   3.624 -0.4648 -0.2113  0.0016
 2770SOL    HW219944   1.204   4.728   3.568 -2.4513  0.5722 -1.2841
 2771SOL     OW19945   4.417   0.248   8.594 -0.1056  0.4010 -0.3040
 2771SOL    HW119946   4.432   0.266   8.501 -4.9125 -1.4291 -1.4174
 2771SOL    HW219947   4.410   0.339   8.624 -0.0526  0.3062 -0.0015
 2772SOL     OW19948   4.540   0.264   8.017 -0.2420 -0.1626 -0.3410
 2772SOL    HW119949   4.561   0.232   7.929 -3.6903 -0.6314 -0.9706
 2772SOL    HW219950   4.446   0.249   8.022  0.3280 -2.7172  2.6515
 2773SOL     OW19951   2.149   4.038  14.648  0.1201  0.0378  0.1542
 2773SOL    HW119952   2.088   4.006  14.714 -2.1296  2.7896 -0.6236
 2773SOL    HW219953   2.167   3.954  14.606 -0.6581 -0.9233  1.7422
 2774SOL     OW19954   0.905   3.842  17.032  0.5312 -0.2339  0.3363
 2774SOL    HW119955   0.913   3.844  16.937 -2.0766 -1.5772  0.0914
 2774SOL    HW219956   0.827   3.892  17.055  0.4695 -0.0362 -0.3048
 2775SOL     OW19957   2.295   0.736   3.716 -0.3787  0.1091 -0.3433
 2775SOL    HW119958   2.285   0.654   3.666  0.0684 -1.9343  2.9299
 2775SOL    HW219959   2.387   0.754   3.700 -0.1421  0.7543  1.7253
 2776SOL     OW19960   0.701   3.654   8.171  0.7690  0.4972  0.4859
 2776SOL    HW119961   0.706   3.656   8.076 -3.1362 -2.3692  0.1861
 2776SOL    HW219962   0.712   3.749   8.177  1.5455  0.4934 -0.8734
 2777SOL     OW19963   4.420   4.232   5.365 -0.2250  0.1400  0.2389
 2777SOL    HW119964   4.359   4.200   5.431 -1.1632  0.3202 -0.5439
 2777SOL    HW219965   4.508   4.235   5.403  0.5661 -1.7800 -1.4613
 2778SOL     OW19966   0.009   1.933   8.062 -0.7381 -0.6871 -0.0773
 2778SOL    HW119967   0.047   2.011   8.021 -0.5511 -0.9438 -0.3952
 2778SOL    HW219968   0.088   1.904   8.109 -0.3678 -0.5932 -0.6431
 2779SOL     OW19969   1.250   0.880  10.267 -0.1168 -0.2878  0.9025
 2779SOL    HW119970   1.180   0.899  10.329  0.3915  0.3304  1.2853
 2779SOL    HW219971   1.217   0.897  10.179  1.6736 -2.3338 -0.1721
 2780SOL     OW19972   0.631   0.056   3.442 -0.0912  0.1767  0.0427
 2780SOL    HW119973   0.725   0.075   3.438  0.2870 -2.1505 -2.4365
 2780SOL    HW219974   0.618   4.724   3.505  2.2359 -0.5394 -0.2721
 2781SOL     OW19975   4.235   0.317   5.137  0.2409 -0.2725 -0.3854
 2781SOL    HW119976   4.235   0.231   5.094  2.0938  0.2693 -1.5167
 2781SOL    HW219977   4.328   0.339   5.124 -0.4223  2.2276 -0.9194
 2782SOL     OW19978   2.872   2.278   5.110  0.0867  0.4848 -0.0793
 2782SOL    HW119979   2.851   2.243   5.023 -0.9936  0.8902  0.0161
 2782SOL    HW219980   2.821   2.232   5.177  1.5723 -0.7044  0.2205
 2783SOL     OW19981   2.251   0.630   8.250 -0.0198  0.3652  0.1269
 2783SOL    HW119982   2.220   0.699   8.308  0.0715 -0.3148  0.9995
 2783SOL    HW219983   2.214   0.554   8.296  1.0214 -0.0421  0.3073
 2784SOL     OW19984   2.736   3.563   3.029  0.2412  0.5907 -0.5061
 2784SOL    HW119985   2.819   3.575   3.074 -0.5846 -0.1104  1.2067
 2784SOL    HW219986   2.746   3.470   3.010 -3.1763  0.3188 -1.1386
 2785SOL     OW19987   3.036   1.546   0.917 -0.7593 -0.0248 -0.1961
 2785SOL    HW119988   2.975   1.501   0.976 -0.2569 -1.4367 -0.7663
 2785SOL    HW219989   2.992   1.540   0.832 -1.2624  0.1785  0.0518
 2786SOL     OW19990   0.023   2.321  15.060  0.7091 -0.3096 -0.1275
 2786SOL    HW119991   0.070   2.363  15.132 -0.4430  0.3408  0.2614
 2786SOL    HW219992   0.031   2.230  15.089 -2.6501 -0.4148  0.5288
 2787SOL     OW19993   0.200   3.170   2.810 -0.0874  0.3942  0.1056
 2787SOL    HW119994   0.213   3.254   2.766 -1.0433  0.3069 -0.3469
 2787SOL    HW219995   0.226   3.209   2.893  1.0548  0.6444 -0.3783
 2788SOL     OW19996   1.441   0.330   4.685  0.7257  0.7151  0.0331
 2788SOL    HW119997   1.357   0.284   4.686  0.9885  0.1763 -1.5436
 2788SOL    HW219998   1.417   0.414   4.646 -0.2876  0.0190 -0.8395
 2789SOL     OW19999   1.813   1.427   7.518  0.0452  0.2017  0.1639
 2789SOL    HW120000   1.759   1.387   7.450 -1.1199 -1.7467  2.2234
 2789SOL    HW220001   1.742   1.474   7.562 -0.8898 -2.2799  1.2818
 2790SOL     OW20002   2.631   3.596  14.008  0.2273 -0.2594 -0.0871
 2790SOL    HW120003   2.611   3.503  14.020  1.2880 -0.4897 -0.0996
 2790SOL    HW220004   2.653   3.618  14.099 -0.2785 -0.8433  0.1780
 2791SOL     OW20005   0.773   2.216   7.686 -0.2865  1.1111  0.4218
 2791SOL    HW120006   0.705   2.155   7.713  0.1987  1.1474  1.7134
 2791SOL    HW220007   0.722   2.290   7.720 -2.4931 -0.5889  0.7575
 2792SOL     OW20008   3.806   1.206  12.366 -0.0222 -0.2521 -0.4031
 2792SOL    HW120009   3.790   1.290  12.409  2.4241 -0.5644  1.0940
 2792SOL    HW220010   3.740   1.155  12.413  0.4858 -0.1466  0.4194
 2793SOL     OW20011   1.072   4.099   3.620  0.5466  0.1075  0.2164
 2793SOL    HW120012   1.057   4.162   3.550  0.4674  0.8281  0.8736
 2793SOL    HW220013   1.075   4.155   3.698 -1.3865 -0.4934  0.7173
 2794SOL     OW20014   4.261   2.921   8.886  0.0944  0.1203  0.0754
 2794SOL    HW120015   4.191   2.871   8.843 -1.4646  1.6126  0.8705
 2794SOL    HW220016   4.221   2.991   8.937  0.8696  0.4713  0.1858
 2795SOL     OW20017   1.754   0.047   2.622  0.0112  0.0343  0.1070
 2795SOL    HW120018   1.825   0.080   2.677 -1.7746  0.9067  1.8918
 2795SOL    HW220019   1.754   0.114   2.553 -0.6970 -0.9978 -0.9012
 2796SOL     OW20020   0.613   4.588   6.270  0.0999 -0.3207  0.3746
 2796SOL    HW120021   0.599   4.683   6.270 -0.1966 -0.3631  0.8383
 2796SOL    HW220022   0.529   4.562   6.307  0.0502  0.4839  0.8321
 2797SOL     OW20023   2.666   1.297   6.468 -0.4170  0.0751 -0.1546
 2797SOL    HW120024   2.694   1.238   6.397  1.1049  0.2531  0.2926
 2797SOL    HW220025   2.739   1.291   6.529  0.8504 -2.6430 -1.9199
 2798SOL     OW20026   3.147   2.123   8.771 -0.2030 -0.0869 -0.0499
 2798SOL    HW120027   3.079   2.093   8.710  1.9018 -0.3160 -2.2975
 2798SOL    HW220028   3.219   2.064   8.749 -1.4610 -2.4096  2.1126
 2799SOL     OW20029   3.290   0.665  11.137  0.0624 -0.1064  0.0312
 2799SOL    HW120030   3.350   0.738  11.122  0.5506 -0.2693  1.1791
 2799SOL    HW220031   3.361   0.602  11.122 -1.4535 -2.1067  1.3214
 2800SOL     OW20032   2.346   2.168  10.924  0.4358 -0.6820  0.5999
 2800SOL    HW120033   2.313   2.178  10.834 -1.6725  0.0854  1.4497
 2800SOL    HW220034   2.285   2.223  10.973  2.0752  3.6905 -2.2787
 2801SOL     OW20035   1.039   0.862  15.979  0.1404 -0.8781 -0.3575
 2801SOL    HW120036   1.068   0.782  16.022  1.3450  0.1572  0.7223
 2801SOL    HW220037   1.109   0.887  15.919  0.0306 -1.8637 -0.8884
 2802SOL     OW20038   2.177   1.009  11.891  0.5714 -0.2388 -0.1044
 2802SOL    HW120039   2.160   0.994  11.984  2.4717  0.6619  0.3935
 2802SOL    HW220040   2.245   1.076  11.898  0.6134 -0.3818  0.8387
 2803SOL     OW20041   0.595   3.263  12.042 -0.3909 -0.5684 -0.3686
 2803SOL    HW120042   0.577   3.178  12.081 -0.6139  0.8938  2.6910
 2803SOL    HW220043   0.628   3.236  11.956  0.6153 -1.7819  0.3907
 2804SOL     OW20044   3.893   1.038  10.751  0.1585  0.0678  0.4394
 2804SOL    HW120045   3.839   0.959  10.751  0.3944 -0.0895 -0.4280
 2804SOL    HW220046   3.837   1.107  10.716  0.1663 -0.9268 -1.5015
 2805SOL     OW20047   1.355   0.679  10.003 -0.2198 -0.1249 -0.5840
 2805SOL    HW120048   1.407   0.630   9.940  1.3330  0.5774  0.1665
 2805SOL    HW220049   1.336   0.755   9.950  1.5321 -0.1971 -1.3031
 2806SOL     OW20050   3.811   2.623   4.356  0.6093  0.1962 -0.2106
 2806SOL    HW120051   3.791   2.530   4.364  1.0259  0.0653 -0.6911
 2806SOL    HW220052   3.726   2.657   4.326  1.0182  1.7116  0.3222
 2807SOL     OW20053   3.897   2.172   4.957  0.0320  0.3328  0.0599
 2807SOL    HW120054   3.934   2.151   5.043  0.8372  0.7346 -0.1919
 2807SOL    HW220055   3.806   2.182   4.985  0.5119  1.5217  1.2034
 2808SOL     OW20056   3.410   3.916   4.115  0.2121 -0.3108 -0.4095
 2808SOL    HW120057   3.333   3.865   4.092  0.0372 -0.4737  0.5429
 2808SOL    HW220058   3.422   3.886   4.205  1.0285  0.2383 -0.3263
 2809SOL     OW20059   2.883   3.420   7.676 -0.8286  0.1128 -0.0340
 2809SOL    HW120060   2.895   3.506   7.635  0.1071  0.0752  0.1616
 2809SOL    HW220061   2.811   3.382   7.626  0.6292 -0.7787 -1.4360
 2810SOL     OW20062   3.223   3.662   2.337  0.2810 -0.0646 -0.9168
 2810SOL    HW120063   3.308   3.665   2.293  0.5213 -0.1860 -0.4670
 2810SOL    HW220064   3.245   3.666   2.430  1.1906  2.0711 -1.2330
 2811SOL     OW20065   0.429   1.687   5.939  0.6312 -0.1587 -0.3769
 2811SOL    HW120066   0.388   1.608   5.905 -2.8331  0.2743  2.7313
 2811SOL    HW220067   0.506   1.650   5.982  0.2424  1.5629  1.7897
 2812SOL     OW20068   1.515   4.005   9.091  0.5662 -0.8362 -0.0402
 2812SOL    HW120069   1.598   3.958   9.097  0.6620 -1.0665 -3.3908
 2812SOL    HW220070   1.468   3.957   9.023  0.1173 -0.1740 -0.2003
 2813SOL     OW20071   0.811   0.200   1.482  0.1137  0.1951 -0.2685
 2813SOL    HW120072   0.787   0.265   1.416 -1.9703  0.0001  0.3043
 2813SOL    HW220073   0.907   0.207   1.487  0.0141  1.3323 -0.0473
 2814SOL     OW20074   4.245   2.209   2.887 -0.2955  0.1931 -0.6452
 2814SOL    HW120075   4.158   2.235   2.918  0.1725 -0.7961  1.4920
 2814SOL    HW220076   4.285   2.296   2.888  0.0564  0.0368 -1.5093
 2815SOL     OW20077   3.499   1.559   7.498 -0.1456 -0.2664 -0.3341
 2815SOL    HW120078   3.455   1.572   7.414  2.6319  1.2906 -1.5420
 2815SOL    HW220079   3.446   1.609   7.560  1.4970  3.1995 -1.7204
 2816SOL     OW20080   1.710   4.069   2.827  0.0778 -0.4850  0.3634
 2816SOL    HW120081   1.667   4.066   2.742 -0.4868  1.8207  0.5692
 2816SOL    HW220082   1.780   4.130   2.804 -2.3825  1.2551 -2.4655
 2817SOL     OW20083   3.573   1.211   5.181  1.0014 -0.3700 -0.3982
 2817SOL    HW120084   3.662   1.183   5.160  1.0267 -2.3372  2.3125
 2817SOL    HW220085   3.521   1.148   5.131  1.6171 -1.3595  0.1910
 2818SOL     OW20086   3.959   3.593   2.511 -0.4008  0.1595  0.2581
 2818SOL    HW120087   3.997   3.550   2.588  0.2844 -1.0963 -0.7748
 2818SOL    HW220088   4.001   3.678   2.523 -0.6415  0.5601 -1.7816
 2819SOL     OW20089   0.137   2.297   3.561  0.7991 -0.1288  0.4335
 2819SOL    HW120090   0.062   2.263   3.611  1.5360  1.0457  2.3086
 2819SOL    HW220091   0.101   2.305   3.473 -2.4941 -1.9856  1.6219
 2820SOL     OW20092   1.119   2.987   7.490 -0.8204  0.1393 -0.1650
 2820SOL    HW120093   1.161   2.953   7.569  0.0828  1.8098  0.0668
 2820SOL    HW220094   1.118   3.082   7.498 -2.6783  0.0347  0.8023
 2821SOL     OW20095   1.180   1.600   0.636 -0.5089  0.0782  0.2831
 2821SOL    HW120096   1.090   1.624   0.660 -1.3519  2.1053 -4.7439
 2821SOL    HW220097   1.208   1.668   0.574 -0.6348 -0.3996 -0.2964
 2822SOL     OW20098   3.804   1.490  16.269  0.4731 -0.5329  0.1627
 2822SOL    HW120099   3.797   1.498  16.364  0.3826 -2.5067  0.3285
 2822SOL    HW220100   3.720   1.450  16.247 -0.5564  2.4003 -1.2198
 2823SOL     OW20101   0.674   1.577  16.924 -0.0938  0.2219  0.5001
 2823SOL    HW120102   0.679   1.610  16.834  0.3412  0.4727  0.6151
 2823SOL    HW220103   0.623   1.498  16.907 -1.0854  1.3451 -1.8227
 2824SOL     OW20104   3.194   1.950  13.586  0.0210  0.5515 -0.0501
 2824SOL    HW120105   3.248   2.029  13.579 -1.7701  1.7589 -0.3153
 2824SOL    HW220106   3.146   1.969  13.505  1.8623 -0.1125 -1.2933
 2825SOL     OW20107   4.398   0.754  14.836 -0.0280 -0.3584  0.4948
 2825SOL    HW120108   4.404   0.840  14.796 -1.5074 -0.6869 -0.4608
 2825SOL    HW220109   4.355   0.709  14.763 -1.8477  2.5873 -0.2128
 2826SOL     OW20110   2.093   0.689  10.086 -0.4460  0.2810 -0.2556
 2826SOL    HW120111   2.117   0.767  10.035  1.2286  1.0168  1.6024
 2826SOL    HW220112   1.998   0.695  10.079 -0.5692 -1.5135  0.0295
 2827SOL     OW20113   0.666   2.947  14.340 -0.3122 -0.3086 -0.1776
 2827SOL    HW120114   0.604   3.002  14.292  0.0806 -0.0822 -0.4209
 2827SOL    HW220115   0.610   2.881  14.382  1.3258 -0.4532  1.7809
 2828SOL     OW20116   0.149   0.422   4.752  0.0545 -0.0960  0.3016
 2828SOL    HW120117   0.158   0.331   4.724 -0.6031  0.1938 -0.8907
 2828SOL    HW220118   0.230   0.455   4.715  1.5465 -4.1691 -0.1015
 2829SOL     OW20119   2.191   1.347   9.516 -0.1663 -0.2237 -0.3690
 2829SOL    HW120120   2.244   1.357   9.595 -1.0337  2.6645 -0.1571
 2829SOL    HW220121   2.231   1.274   9.468  0.4141  0.1509 -0.4622
 2830SOL     OW20122   3.187   2.414   7.079 -0.0405 -0.3043  0.5705
 2830SOL    HW120123   3.183   2.490   7.137  0.1539 -0.9366  1.4029
 2830SOL    HW220124   3.158   2.451   6.995  0.2716 -1.4639 -0.0509
 2831SOL     OW20125   1.558   2.630   5.165  0.6184  0.5282  0.0968
 2831SOL    HW120126   1.574   2.714   5.121  1.0916 -0.7405 -2.1727
 2831SOL    HW220127   1.598   2.567   5.105  0.2586  0.4948 -0.1119
 2832SOL     OW20128   2.057   4.651   9.427  0.4845 -0.0885 -0.4311
 2832SOL    HW120129   2.084   4.709   9.499 -0.4696 -0.5561  0.3055
 2832SOL    HW220130   2.026   4.706   9.356  1.3373  0.9299 -0.0170
 2833SOL     OW20131   2.682   3.238  16.106  0.0806 -0.1942 -0.2409
 2833SOL    HW120132   2.775   3.224  16.088 -0.1402 -1.6133 -0.3077
 2833SOL    HW220133   2.655   3.175  16.174 -0.9553 -0.0658 -0.5380
 2834SOL     OW20134   3.109   4.125   5.760  0.0488  0.2984  0.5152
 2834SOL    HW120135   3.079   4.127   5.851  0.1388 -0.6802  0.5648
 2834SOL    HW220136   3.198   4.157   5.778  0.4730 -0.2345 -0.6587
 2835SOL     OW20137   1.987   2.448   2.809  0.4714  0.3835  0.1332
 2835SOL    HW120138   2.008   2.406   2.892  0.6304  0.3100  0.0562
 2835SOL    HW220139   1.927   2.518   2.834  0.6476 -0.0623  1.7813
 2836SOL     OW20140   3.823   2.593   1.501  0.0386  0.4398 -0.1804
 2836SOL    HW120141   3.885   2.520   1.509 -0.2657  0.4546  2.2343
 2836SOL    HW220142   3.861   2.634   1.424 -0.4604 -1.0129 -1.2028
 2837SOL     OW20143   1.381   1.347   6.420 -0.4525  0.0248 -0.4239
 2837SOL    HW120144   1.386   1.437   6.452  0.2305 -0.4798  0.8820
 2837SOL    HW220145   1.453   1.311   6.472  1.8704 -0.0958 -3.6760
 2838SOL     OW20146   3.324   4.559   0.172  0.1541  0.1136  0.0901
 2838SOL    HW120147   3.322   4.540   0.265  1.2225  0.3478  0.1633
 2838SOL    HW220148   3.419   4.554   0.163  0.3327  2.5989  0.6811
 2839SOL     OW20149   3.984   3.886   5.223 -0.4464  0.0396  0.0104
 2839SOL    HW120150   3.918   3.916   5.162 -0.7620 -0.2409  0.2114
 2839SOL    HW220151   4.061   3.882   5.165  0.5268 -2.4023  1.4446
 2840SOL     OW20152   1.942   0.391   5.564  0.6533 -0.3210 -0.7714
 2840SOL    HW120153   1.951   0.412   5.471  2.3622 -0.2560 -0.5877
 2840SOL    HW220154   1.933   0.295   5.563  2.4845 -0.4961  0.1620
 2841SOL     OW20155   2.754   4.458  11.406 -0.1866 -0.0391 -0.1072
 2841SOL    HW120156   2.664   4.490  11.398 -0.1744 -0.3964 -1.5006
 2841SOL    HW220157   2.753   4.408  11.325  1.8432  0.0862 -0.1936
 2842SOL     OW20158   3.118   4.734   8.292 -0.3501  0.2692 -0.4462
 2842SOL    HW120159   3.079   4.736   8.379  0.4118  2.5739 -0.1617
 2842SOL    HW220160   3.131   0.088   8.280  0.2175  0.2972  0.3576
 2843SOL     OW20161   2.246   3.671   2.883 -0.5962 -0.0489  0.4166
 2843SOL    HW120162   2.153   3.667   2.860  0.0482  0.6673 -2.3539
 2843SOL    HW220163   2.251   3.587   2.928 -1.0644 -0.8808 -1.0505
 2844SOL     OW20164   3.137   1.320  17.370 -0.2365 -0.2463  0.3295
 2844SOL    HW120165   3.066   1.302  17.309  0.5905  0.1458 -0.7626
 2844SOL    HW220166   3.210   1.356  17.319  0.2987  0.7511  1.8062
 2845SOL     OW20167   4.052   3.327   4.769  0.3473  0.1152  0.1123
 2845SOL    HW120168   4.106   3.387   4.821 -0.5680  0.9687  0.0786
 2845SOL    HW220169   3.961   3.342   4.795  0.3388 -0.2067  0.2691
 2846SOL     OW20170   2.027   4.400   8.307  0.3632  0.2109 -0.7463
 2846SOL    HW120171   1.969   4.338   8.263 -0.4379 -0.8735  1.8520
 2846SOL    HW220172   2.110   4.357   8.285  0.7212  0.8220 -0.5873
 2847SOL     OW20173   2.579   2.505   5.069 -0.2786 -0.2520  0.3578
 2847SOL    HW120174   2.520   2.546   5.006 -0.6439 -2.9387 -1.0304
 2847SOL    HW220175   2.524   2.428   5.085 -1.7466  0.8114  0.4102
 2848SOL     OW20176   0.468   3.569   0.613  0.4198  0.0725 -0.3876
 2848SOL    HW120177   0.545   3.588   0.560  0.9651 -0.0150  0.3687
 2848SOL    HW220178   0.471   3.474   0.606  3.3015  0.1568 -0.4385
 2849SOL     OW20179   3.004   0.733   7.073 -0.0928 -0.2300  0.0168
 2849SOL    HW120180   2.984   0.734   7.166  1.9838  0.2435  0.4541
 2849SOL    HW220181   2.926   0.770   7.030  0.5628  1.5869  0.4128
 2850SOL     OW20182   3.754   0.527   5.932  0.1842 -0.6361  0.2277
 2850SOL    HW120183   3.732   0.462   5.865 -0.4803 -0.4753  0.2888
 2850SOL    HW220184   3.669   0.571   5.939  0.1638 -0.7098  0.4369
 2851SOL     OW20185   2.232   1.696   5.075 -0.1522 -0.1288 -0.5676
 2851SOL    HW120186   2.154   1.732   5.117  0.9402  1.8398 -0.2239
 2851SOL    HW220187   2.271   1.780   5.051 -0.1285 -0.4331 -1.6222
 2852SOL     OW20188   0.901   0.148   9.603  0.7259 -0.3300  0.1700
 2852SOL    HW120189   0.859   0.070   9.567 -1.3400  1.0133 -0.3518
 2852SOL    HW220190   0.967   0.168   9.537  0.1939  0.7301 -0.0312
 2853SOL     OW20191   0.131   1.995   3.887  0.3951  0.6922  0.4245
 2853SOL    HW120192   0.072   2.015   3.960 -0.7925 -2.1782  0.2509
 2853SOL    HW220193   0.155   1.903   3.898  1.0755  1.1497  2.6257
 2854SOL     OW20194   3.151   1.724   7.320  0.6576  0.2615  0.4183
 2854SOL    HW120195   3.107   1.756   7.398  0.6392 -1.2565  1.0339
 2854SOL    HW220196   3.159   1.629   7.326 -0.3326  0.0984 -0.8519
 2855SOL     OW20197   3.160   2.027   5.067  0.0609 -0.0555  0.3288
 2855SOL    HW120198   3.107   1.996   4.994 -2.4245  3.9182  0.4049
 2855SOL    HW220199   3.104   2.008   5.142  0.6026  0.1577  0.7888
 2856SOL     OW20200   4.439   3.669  11.220 -0.2894  0.2281 -0.0447
 2856SOL    HW120201   4.387   3.621  11.285  1.0244  1.1216  1.6665
 2856SOL    HW220202   4.451   3.756  11.258  0.1890 -0.8047  2.2058
 2857SOL     OW20203   0.461   4.062   3.998 -0.0142  0.0271 -0.2942
 2857SOL    HW120204   0.485   4.155   3.987  0.2555 -0.0781 -0.6056
 2857SOL    HW220205   0.438   4.058   3.906 -0.8189 -0.5233 -0.0638
 2858SOL     OW20206   1.797   3.782   7.207 -0.1321  0.2261  0.5536
 2858SOL    HW120207   1.709   3.761   7.177  1.7464 -0.4065 -4.4612
 2858SOL    HW220208   1.807   3.726   7.284  0.0171  0.6626  0.8579
 2859SOL     OW20209   4.415   0.033   6.519 -0.0006  0.4693 -0.3211
 2859SOL    HW120210   4.503   0.068   6.506  0.0045  0.0655 -1.3918
 2859SOL    HW220211   4.361   0.112   6.516  0.4076  0.7193 -1.1091
 2860SOL     OW20212   1.173   4.201   8.808 -0.4326  0.5584  0.0823
 2860SOL    HW120213   1.224   4.248   8.743 -3.5710 -0.2239 -2.9235
 2860SOL    HW220214   1.161   4.275   8.868  2.3387  1.2723 -0.2566
 2861SOL     OW20215   1.273   3.157   7.166  0.3482  0.7372 -1.0185
 2861SOL    HW120216   1.266   3.092   7.096  0.1493  0.2193 -0.5155
 2861SOL    HW220217   1.184   3.190   7.168 -0.5392 -1.6583 -0.5119
 2862SOL     OW20218   2.714   2.973   6.490 -0.6250  0.0456 -0.8488
 2862SOL    HW120219   2.731   2.918   6.414 -1.8273 -1.8288  0.2372
 2862SOL    HW220220   2.637   2.924   6.518  0.1186 -0.5873  0.1264
 2863SOL     OW20221   0.901   3.006   2.941  0.0554 -0.1696 -0.5727
 2863SOL    HW120222   0.968   3.043   2.883 -0.4286  0.5996 -0.6360
 2863SOL    HW220223   0.946   2.925   2.963 -2.3728 -2.4801 -4.0284
 2864SOL     OW20224   2.024   4.570  13.078  0.8185 -0.0840 -0.3127
 2864SOL    HW120225   1.963   4.597  13.146 -2.3882  0.2946 -3.3338
 2864SOL    HW220226   2.066   4.654  13.062  2.0055 -0.7628 -0.7272
 2865SOL     OW20227   1.414   3.186   7.467  0.2044 -0.1439 -0.1429
 2865SOL    HW120228   1.347   3.232   7.517  0.4691  2.8096 -2.4881
 2865SOL    HW220229   1.387   3.097   7.491 -2.2095  0.7423  0.4335
 2866SOL     OW20230   1.709   2.475  11.312  0.2484  0.2574 -0.3982
 2866SOL    HW120231   1.687   2.533  11.240 -1.0829 -0.0284 -0.2240
 2866SOL    HW220232   1.747   2.532  11.380 -1.3410  0.5806  0.2255
 2867SOL     OW20233   3.071   1.642   1.343  0.0654 -0.0472  0.2326
 2867SOL    HW120234   2.986   1.603   1.364 -1.3230  2.7652 -0.2476
 2867SOL    HW220235   3.043   1.731   1.322 -0.1175 -0.6131 -1.8765
 2868SOL     OW20236   2.275   3.629   9.548  0.0904  0.1279  0.8578
 2868SOL    HW120237   2.225   3.556   9.511  0.7160 -0.2897  0.8443
 2868SOL    HW220238   2.362   3.604   9.519  0.1959  1.1461  0.3208
 2869SOL     OW20239   3.096   3.691  12.980 -0.4849 -0.4159  0.5543
 2869SOL    HW120240   3.181   3.649  12.988 -0.5632 -0.8953 -1.2320
 2869SOL    HW220241   3.077   3.705  13.073 -0.9649 -1.5953  0.6333
 2870SOL     OW20242   4.473   3.288   2.775  0.2355  0.0809  0.6237
 2870SOL    HW120243   4.403   3.244   2.726 -0.3348  0.5746  0.9839
 2870SOL    HW220244   4.549   3.256   2.727 -2.4392  0.0159 -3.5907
 2871SOL     OW20245   0.762   1.754   0.433  0.1715  0.2060 -0.0406
 2871SOL    HW120246   0.833   1.814   0.409  0.4228 -0.1179 -0.1060
 2871SOL    HW220247   0.812   1.693   0.488 -0.8221 -0.4693  0.1051
 2872SOL     OW20248   3.953   1.036   8.996 -0.0708  0.1798 -0.0172
 2872SOL    HW120249   3.871   1.008   8.955 -1.2748  1.4392  1.4871
 2872SOL    HW220250   3.914   1.064   9.079 -0.9962 -1.7501  0.1846
 2873SOL     OW20251   0.821   2.808   9.622  0.1337  0.0682 -0.1351
 2873SOL    HW120252   0.776   2.727   9.647 -0.9021  0.3379 -1.1433
 2873SOL    HW220253   0.879   2.829   9.696  0.3107 -1.4024  0.1585
 2874SOL     OW20254   1.401   3.803  11.247 -0.3816 -0.0687  0.3754
 2874SOL    HW120255   1.325   3.799  11.188 -0.2252  2.6995  0.0036
 2874SOL    HW220256   1.381   3.730  11.306 -0.6586 -1.4443 -1.4171
 2875SOL     OW20257   0.827   1.128   9.124  0.1007 -0.0335  0.5131
 2875SOL    HW120258   0.845   1.065   9.194  1.4040  0.9070  1.0504
 2875SOL    HW220259   0.899   1.107   9.064 -1.5340  0.9998 -1.7967
 2876SOL     OW20260   3.825   2.523   3.043 -0.6015  0.0372 -0.0559
 2876SOL    HW120261   3.903   2.512   3.097  1.3626 -0.0424 -2.8768
 2876SOL    HW220262   3.822   2.619   3.040  1.1586  0.0337 -1.9892
 2877SOL     OW20263   4.573   4.407   2.957  0.0684  0.1102 -0.0705
 2877SOL    HW120264   4.503   4.411   2.892  0.0540  1.2565  0.0243
 2877SOL    HW220265   4.530   4.400   3.042 -1.0595 -0.5193 -0.6872
 2878SOL     OW20266   3.857   3.615   5.134  0.1599 -0.3408  0.4782
 2878SOL    HW120267   3.907   3.674   5.190 -0.3975  0.5596  0.0345
 2878SOL    HW220268   3.775   3.662   5.116  0.6815 -0.4950 -2.3187
 2879SOL     OW20269   2.331   4.240  14.794 -0.4994 -0.2522  0.1586
 2879SOL    HW120270   2.354   4.147  14.803  0.5390  0.2137  2.2328
 2879SOL    HW220271   2.258   4.229  14.733 -1.4619 -1.3117  1.4931
 2880SOL     OW20272   4.325   2.430  14.906 -0.0033 -0.0654  0.2619
 2880SOL    HW120273   4.262   2.460  14.840  1.3831  0.3532 -0.8815
 2880SOL    HW220274   4.266   2.370  14.952  1.9601 -1.6977  0.6413
 2881SOL     OW20275   2.029   3.742   5.065 -0.3024 -0.1858  0.4000
 2881SOL    HW120276   1.982   3.668   5.104  0.8307 -1.2415 -0.2122
 2881SOL    HW220277   2.024   3.725   4.971  2.1645  0.6041  0.1180
 2882SOL     OW20278   2.651   2.346   3.861  0.1298  0.1885 -0.0443
 2882SOL    HW120279   2.640   2.314   3.951  1.6103 -0.2077  0.0128
 2882SOL    HW220280   2.718   2.281   3.837 -0.3140  0.1984 -1.3069
 2883SOL     OW20281   4.240   0.761   5.217 -0.4516 -0.0942  0.4608
 2883SOL    HW120282   4.237   0.814   5.297 -2.5962  1.3873 -0.6041
 2883SOL    HW220283   4.331   0.739   5.199 -0.3609 -1.2643  2.3768
 2884SOL     OW20284   3.416   2.709   2.374  0.6633  0.4833 -0.2472
 2884SOL    HW120285   3.438   2.648   2.303  1.5232 -1.7379  1.9070
 2884SOL    HW220286   3.408   2.784   2.316 -0.4921  0.3315 -0.2924
 2885SOL     OW20287   0.340   0.558  11.236  0.6130  0.2339 -0.1272
 2885SOL    HW120288   0.318   0.525  11.149 -0.9909  1.0021 -0.0172
 2885SOL    HW220289   0.414   0.615  11.217  1.8736 -1.5996 -0.7623
 2886SOL     OW20290   0.811   2.396  13.233 -0.1127 -0.2652  0.1019
 2886SOL    HW120291   0.906   2.389  13.217  0.2218  2.7100  0.7034
 2886SOL    HW220292   0.764   2.328  13.185  0.3719 -0.3294 -0.2847
 2887SOL     OW20293   4.474   0.967   6.780 -0.3196 -0.0893  0.0293
 2887SOL    HW120294   4.504   1.008   6.699  0.9362  0.2873  0.6935
 2887SOL    HW220295   4.539   0.900   6.799  0.9724  1.1560  0.0076
 2888SOL     OW20296   4.147   1.507   7.533  0.0465 -0.1752  0.2537
 2888SOL    HW120297   4.186   1.559   7.603  1.3367  1.3472 -1.5959
 2888SOL    HW220298   4.226   1.494   7.481  0.3208 -0.8090  0.8217
 2889SOL     OW20299   3.378   1.276   7.961  0.1649  0.1852  0.1381
 2889SOL    HW120300   3.335   1.244   8.041  2.0989 -2.1932  0.2111
 2889SOL    HW220301   3.470   1.252   7.969  0.2138 -0.2426 -1.7382
 2890SOL     OW20302   2.575   0.855   4.885  0.0834 -0.1428  0.1361
 2890SOL    HW120303   2.592   0.821   4.973 -1.6953 -0.4423  0.3558
 2890SOL    HW220304   2.487   0.819   4.878  0.5630 -1.8342  2.5779
 2891SOL     OW20305   1.834   4.259   6.274  0.0344 -0.0611  0.1598
 2891SOL    HW120306   1.835   4.346   6.236 -0.8646  0.1672  0.6646
 2891SOL    HW220307   1.898   4.267   6.345 -2.1574  0.4505  2.0668
 2892SOL     OW20308   2.114   1.779  16.737 -0.2517  0.4895  0.2957
 2892SOL    HW120309   2.051   1.850  16.745  1.4401  2.1819 -1.3275
 2892SOL    HW220310   2.193   1.832  16.753  0.6232 -1.2371  1.6658
 2893SOL     OW20311   2.214   4.424   2.629 -0.3846  0.0311 -0.0929
 2893SOL    HW120312   2.183   4.515   2.627 -0.5892 -0.0145  0.9005
 2893SOL    HW220313   2.223   4.410   2.723 -0.5425  1.1968  0.0976
 2894SOL     OW20314   1.111   3.162   9.472 -0.0451 -0.0592  0.6557
 2894SOL    HW120315   1.158   3.244   9.488 -1.8145  1.1681 -0.4018
 2894SOL    HW220316   1.029   3.187   9.430 -0.6449  1.1728  2.5673
 2895SOL     OW20317   1.378   3.114   1.907  0.1178  0.0367  0.1632
 2895SOL    HW120318   1.385   3.165   1.988 -1.3322  1.5330 -0.6482
 2895SOL    HW220319   1.403   3.029   1.942  0.0935 -0.6071 -1.3872
 2896SOL     OW20320   2.273   0.180  16.471 -0.4233  0.8590 -0.3824
 2896SOL    HW120321   2.280   0.231  16.390  0.0354  0.8729 -0.3382
 2896SOL    HW220322   2.204   0.228  16.516 -1.6837 -1.3006 -0.0397
 2897SOL     OW20323   1.911   0.617   2.932 -0.3555  0.3849 -0.5201
 2897SOL    HW120324   1.940   0.576   3.013 -1.0040 -0.7444 -0.8517
 2897SOL    HW220325   1.860   0.691   2.965 -0.1767 -0.1130  0.8738
 2898SOL     OW20326   3.774   3.613   3.270  0.1328  0.1078  0.4326
 2898SOL    HW120327   3.756   3.538   3.213 -0.4842  1.0249 -0.5862
 2898SOL    HW220328   3.869   3.612   3.278  0.3288 -0.2916 -1.9423
 2899SOL     OW20329   4.452   0.798  13.478 -0.1214 -0.0586 -0.0763
 2899SOL    HW120330   4.409   0.719  13.443 -1.2821  0.6721 -0.3053
 2899SOL    HW220331   4.379   0.858  13.493 -0.1720  0.0808 -0.8659
 2900SOL     OW20332   1.348   1.538  14.916 -0.3976 -0.2058 -0.5754
 2900SOL    HW120333   1.376   1.476  14.983 -0.5477 -0.2775 -0.5767
 2900SOL    HW220334   1.326   1.476  14.846  1.1290 -0.7342 -0.5811
 2901SOL     OW20335   2.576   4.550   4.823  0.1861 -0.2213  0.1288
 2901SOL    HW120336   2.585   4.456   4.838  2.6232 -0.4060 -2.5445
 2901SOL    HW220337   2.664   4.572   4.854  0.7196 -0.3844 -1.2592
 2902SOL     OW20338   2.220   3.387  10.788  0.5172 -0.0440  0.0476
 2902SOL    HW120339   2.261   3.301  10.797  1.0646  0.1484 -0.6683
 2902SOL    HW220340   2.143   3.379  10.845  0.6839  0.9529  0.3997
 2903SOL     OW20341   0.254   3.392  16.013 -0.6066  0.0939 -0.0271
 2903SOL    HW120342   0.184   3.328  15.997 -0.3354 -0.3399  0.5446
 2903SOL    HW220343   0.312   3.379  15.938  1.3723  0.8277  1.4006
 2904SOL     OW20344   0.786   0.752   8.305  0.6508 -0.1900  0.2048
 2904SOL    HW120345   0.752   0.832   8.345  0.4312  0.5802 -1.5413
 2904SOL    HW220346   0.709   0.704   8.275 -0.0657  1.8004 -1.1459
 2905SOL     OW20347   1.203   3.605   2.663  0.2132 -0.0256 -0.7745
 2905SOL    HW120348   1.182   3.561   2.745 -0.9808  2.4248  0.2478
 2905SOL    HW220349   1.115   3.624   2.631 -0.6068  0.0860  1.4810
 2906SOL     OW20350   1.014   2.086   7.016  0.1407  0.5139  0.0392
 2906SOL    HW120351   0.958   2.163   7.031 -0.6815  0.0682 -0.7044
 2906SOL    HW220352   0.956   2.024   7.059 -0.2708 -0.4943 -1.9699
 2907SOL     OW20353   0.429   3.337  15.786 -0.0381  0.6205 -0.0673
 2907SOL    HW120354   0.524   3.328  15.796  0.0819  3.0591  0.9746
 2907SOL    HW220355   0.425   3.371  15.697 -1.8111 -1.0329 -0.6343
 2908SOL     OW20356   3.809   3.127   5.151  0.0193 -0.2079  0.2249
 2908SOL    HW120357   3.780   3.141   5.241 -2.7892 -1.0857 -0.5189
 2908SOL    HW220358   3.827   3.219   5.134  1.8923 -0.4604  0.9401
 2909SOL     OW20359   0.472   0.787   5.396 -0.5291 -0.4867 -0.1698
 2909SOL    HW120360   0.498   0.698   5.420 -1.1879 -0.0953  1.9618
 2909SOL    HW220361   0.551   0.824   5.356 -0.5303 -1.7088 -1.3360
 2910SOL     OW20362   2.339   2.108   4.060  0.2039  0.6391 -0.4211
 2910SOL    HW120363   2.330   2.132   3.968  0.3600  0.6059 -0.4452
 2910SOL    HW220364   2.304   2.188   4.099  1.4074  1.4035 -0.9188
 2911SOL     OW20365   4.692   2.634   2.622 -0.1189 -0.0211  0.3146
 2911SOL    HW120366   4.732   2.591   2.698  1.2769 -0.7439 -0.8174
 2911SOL    HW220367   4.646   2.563   2.576 -0.2425  0.1401  0.1903
 2912SOL     OW20368   2.219   4.549  11.825 -0.6794 -0.1765  0.6074
 2912SOL    HW120369   2.253   4.461  11.808 -1.9255 -0.2637 -1.4600
 2912SOL    HW220370   2.291   4.590  11.873 -0.1504 -0.3878 -0.0173
 2913SOL     OW20371   3.738   3.483  13.035 -0.1797  0.2460  0.0126
 2913SOL    HW120372   3.657   3.477  12.986 -1.1593  0.1234  1.6443
 2913SOL    HW220373   3.758   3.392  13.054  4.4323  0.9883 -1.3303
 2914SOL     OW20374   4.517   3.619   8.038 -0.0883  0.1166 -0.2558
 2914SOL    HW120375   4.436   3.655   8.002 -1.9037  1.1577  4.8928
 2914SOL    HW220376   4.491   3.570   8.116 -0.8278 -0.1025 -0.6364
 2915SOL     OW20377   0.794   4.268   7.658  0.0195  0.3405  0.1116
 2915SOL    HW120378   0.699   4.274   7.664 -0.1302 -0.0312 -2.0696
 2915SOL    HW220379   0.809   4.362   7.668  0.2668  0.4725 -1.5725
 2916SOL     OW20380   4.271   1.223   9.817  0.4240 -0.6855 -0.3428
 2916SOL    HW120381   4.254   1.237   9.724 -3.2354 -1.2601  0.2666
 2916SOL    HW220382   4.291   1.315   9.832 -0.2627 -0.5820 -0.0829
 2917SOL     OW20383   1.332   1.054   3.251 -0.2538  0.5906 -0.2460
 2917SOL    HW120384   1.353   0.961   3.248 -0.9201  0.4189  0.4630
 2917SOL    HW220385   1.411   1.085   3.206 -0.2696  1.5984  0.4096
 2918SOL     OW20386   3.733   4.055   6.542 -0.1195 -0.5495  0.3694
 2918SOL    HW120387   3.720   4.122   6.475  3.3549  0.1132  0.3474
 2918SOL    HW220388   3.829   4.051   6.533 -0.1235  1.0000 -0.3083
 2919SOL     OW20389   1.591   2.207   6.465  0.3770 -0.1800 -0.2315
 2919SOL    HW120390   1.594   2.198   6.560 -1.4827 -2.3964 -0.3589
 2919SOL    HW220391   1.554   2.123   6.438  0.3490 -0.5255  0.8854
 2920SOL     OW20392   4.220   1.220   9.539 -0.6813  0.0817 -0.3774
 2920SOL    HW120393   4.309   1.234   9.507 -0.6928  0.4481 -0.2414
 2920SOL    HW220394   4.184   1.305   9.514 -1.4358 -1.6031 -5.0824
 2921SOL     OW20395   0.177   3.236   4.910  0.2560 -0.6527  0.2803
 2921SOL    HW120396   0.256   3.217   4.961  1.5319  0.4026 -1.3090
 2921SOL    HW220397   0.218   3.237   4.824  0.3555  0.8205  0.3280
 2922SOL     OW20398   3.899   2.223  15.013  0.1595  0.4594  0.3547
 2922SOL    HW120399   3.818   2.275  15.013 -1.1812 -1.6178 -2.3247
 2922SOL    HW220400   3.917   2.203  14.921  1.9859  0.9759  0.6111
 2923SOL     OW20401   4.525   3.014   5.050  0.3569  0.3989 -0.6013
 2923SOL    HW120402   4.519   3.053   4.963  1.3179  1.8055 -0.0413
 2923SOL    HW220403   4.496   3.080   5.113 -0.7648  0.3372 -1.0638
 2924SOL     OW20404   3.271   4.085   0.034  0.1223 -0.0410  0.6871
 2924SOL    HW120405   3.315   4.018   0.086 -0.5158 -0.1440  1.0961
 2924SOL    HW220406   3.338   4.153   0.042 -0.4666  0.6924 -0.5650
 2925SOL     OW20407   0.886   0.016  11.464 -0.0867 -0.7048 -0.0070
 2925SOL    HW120408   0.950   4.701  11.419  0.2951 -0.1906 -0.0962
 2925SOL    HW220409   0.807   4.713  11.431 -1.0853  0.4033  0.9608
 2926SOL     OW20410   3.176   3.105  11.913 -1.0675 -0.0827  0.8897
 2926SOL    HW120411   3.208   3.193  11.891 -1.3007 -0.0263  0.7775
 2926SOL    HW220412   3.098   3.135  11.959 -0.8817 -1.6673  2.2001
 2927SOL     OW20413   3.725   0.088   4.216 -0.4201  0.0723 -0.2444
 2927SOL    HW120414   3.782   0.086   4.138  3.3459 -0.0980  2.5174
 2927SOL    HW220415   3.754   0.010   4.264 -0.8042 -0.6284 -1.1467
 2928SOL     OW20416   3.786   3.142   7.229 -0.2179  0.1742  0.1486
 2928SOL    HW120417   3.842   3.214   7.257 -1.5751  0.3252  2.3936
 2928SOL    HW220418   3.700   3.180   7.217 -0.3342 -0.0998  0.1107
 2929SOL     OW20419   2.779   2.119  11.053  0.3800 -0.3189 -0.6606
 2929SOL    HW120420   2.762   2.213  11.044  0.7630  0.0910  2.8554
 2929SOL    HW220421   2.873   2.126  11.039  0.8689 -1.5579  1.9200
 2930SOL     OW20422   2.407   1.186  11.637 -0.1643  0.0232 -0.1162
 2930SOL    HW120423   2.334   1.244  11.657  0.2180  0.8812 -1.2167
 2930SOL    HW220424   2.383   1.143  11.555  0.7837  0.1118 -0.4447
 2931SOL     OW20425   1.249   1.759   6.283 -0.2814 -0.0823 -0.3192
 2931SOL    HW120426   1.313   1.697   6.318 -0.8075  0.0846  0.9636
 2931SOL    HW220427   1.164   1.717   6.297 -0.3045 -0.0067 -0.2317
 2932SOL     OW20428   3.994   4.377   0.207  0.0553 -0.7722  0.2805
 2932SOL    HW120429   3.972   4.459   0.164  1.2465 -0.2843  0.5884
 2932SOL    HW220430   4.069   4.403   0.261  0.8814 -0.2545 -1.1121
 2933SOL     OW20431   2.943   0.297   5.483  0.0738 -0.4025 -0.0847
 2933SOL    HW120432   2.891   0.359   5.535 -0.2264 -1.0872  0.4373
 2933SOL    HW220433   2.888   0.220   5.496  0.5646 -0.8286 -0.5651
 2934SOL     OW20434   0.222   0.204   7.867 -0.4134 -0.1791 -0.2748
 2934SOL    HW120435   0.176   0.242   7.941 -2.4927 -2.4515 -0.4035
 2934SOL    HW220436   0.289   0.153   7.913 -1.4824 -0.4501  0.9544
 2935SOL     OW20437   4.168   1.936  15.610  0.6472  0.0745  0.4309
 2935SOL    HW120438   4.247   1.986  15.631  0.4355 -0.0515  1.5772
 2935SOL    HW220439   4.201   1.869  15.550 -1.4567 -1.0961  0.5826
 2936SOL     OW20440   0.808   2.987   0.932 -0.6462  0.4933  0.6408
 2936SOL    HW120441   0.848   2.969   1.017 -1.1343  0.3456  0.8408
 2936SOL    HW220442   0.869   3.046   0.888  0.7804 -1.2649  0.2761
 2937SOL     OW20443   1.939   1.546   3.008 -0.0146 -0.5950 -0.6096
 2937SOL    HW120444   2.023   1.592   3.013 -1.6635  2.3003  0.3751
 2937SOL    HW220445   1.927   1.513   3.097 -1.0622 -1.7739 -1.1837
 2938SOL     OW20446   1.727   3.789   9.279 -0.5936 -0.3488  0.2487
 2938SOL    HW120447   1.650   3.796   9.336 -1.6511  0.9106 -1.3289
 2938SOL    HW220448   1.752   3.700   9.253 -0.5891  0.1195 -1.3507
 2939SOL     OW20449   2.991   4.307   2.579 -0.0853 -0.1334 -0.4509
 2939SOL    HW120450   2.952   4.395   2.582  0.6613  0.1327  1.1500
 2939SOL    HW220451   3.030   4.299   2.665 -1.5021  0.7763  0.2815
 2940SOL     OW20452   1.475   0.263  10.094  0.0892  0.0230 -0.0675
 2940SOL    HW120453   1.394   0.313  10.085  0.1967  0.4000  1.0548
 2940SOL    HW220454   1.476   0.214  10.012 -0.0160 -1.5203  0.8476
 2941SOL     OW20455   4.631   0.261   6.189 -0.3288  0.2408  0.2162
 2941SOL    HW120456   4.700   0.324   6.173  0.6637 -1.2121 -1.1639
 2941SOL    HW220457   4.670   0.191   6.138 -1.9913  0.0136 -0.7402
 2942SOL     OW20458   3.258   0.398  14.809 -0.7517 -0.1657  0.1043
 2942SOL    HW120459   3.167   0.382  14.835 -1.0511 -1.7849 -2.0013
 2942SOL    HW220460   3.233   0.458  14.739  0.0341  0.7490  0.6020
 2943SOL     OW20461   3.498   1.921  14.578 -0.3958 -0.0770  0.3200
 2943SOL    HW120462   3.503   1.988  14.646 -1.3504 -0.0627  0.3772
 2943SOL    HW220463   3.589   1.893  14.588 -0.3948 -0.3873 -0.5011
 2944SOL     OW20464   2.905   3.331   8.221 -0.2375  0.9811 -0.1471
 2944SOL    HW120465   2.878   3.393   8.289 -0.1352 -2.0292  2.6528
 2944SOL    HW220466   2.874   3.369   8.138 -3.2630 -0.5237  0.3061
 2945SOL     OW20467   0.740   4.064   4.480 -0.3972 -0.3759 -0.3227
 2945SOL    HW120468   0.789   4.058   4.562 -0.0188  1.6967 -0.4087
 2945SOL    HW220469   0.664   4.011   4.502 -2.4853  3.3162  1.2567
 2946SOL     OW20470   1.238   0.962  15.802  0.2059 -1.0171  0.2899
 2946SOL    HW120471   1.325   0.980  15.764 -0.9842  1.1468 -1.4272
 2946SOL    HW220472   1.192   1.018  15.739  0.4415 -0.7417  0.3622
 2947SOL     OW20473   3.277   1.141   8.528  0.0421 -0.1049 -0.5255
 2947SOL    HW120474   3.299   1.227   8.492 -1.7166  0.7481  0.4532
 2947SOL    HW220475   3.255   1.095   8.447  0.8196  1.5309 -1.6559
 2948SOL     OW20476   2.331   0.723   2.578  0.0829  0.0967 -0.8140
 2948SOL    HW120477   2.407   0.701   2.632  1.5574  2.3419 -2.0010
 2948SOL    HW220478   2.272   0.653   2.607 -0.8505  1.0348 -0.4223
 2949SOL     OW20479   1.184   0.348   5.879  0.6999  0.0626 -0.4261
 2949SOL    HW120480   1.194   0.275   5.817 -0.4603 -1.0342  0.6649
 2949SOL    HW220481   1.186   0.423   5.819 -0.8777  0.7526  0.3951
 2950SOL     OW20482   4.055   1.474   1.881 -0.1988  0.1875  0.1389
 2950SOL    HW120483   4.040   1.384   1.911 -0.7699  0.1952 -0.1182
 2950SOL    HW220484   4.132   1.469   1.824  0.3393  0.1163  0.8742
 2951SOL     OW20485   4.357   4.705  11.241 -0.6478  0.0318  0.0348
 2951SOL    HW120486   4.387   0.033  11.301  0.8321  1.1010 -1.9136
 2951SOL    HW220487   4.428   4.712  11.177 -1.0602  1.7180 -0.2182
 2952SOL     OW20488   4.602   2.671   4.644  0.6579  0.5213 -0.3146
 2952SOL    HW120489   4.621   2.581   4.620 -0.7117 -0.1582  1.1141
 2952SOL    HW220490   4.604   2.667   4.740  0.1397 -1.4145 -0.3974
 2953SOL     OW20491   0.797   3.009  13.679  0.0505  0.2146 -0.4505
 2953SOL    HW120492   0.750   3.056  13.747  2.9513  0.2157  1.5600
 2953SOL    HW220493   0.748   2.927  13.671  0.2066  0.3469 -2.8570
 2954SOL     OW20494   2.617   3.865  13.728 -0.0272 -0.0112  0.3358
 2954SOL    HW120495   2.689   3.884  13.668 -0.4208  1.6672  0.3932
 2954SOL    HW220496   2.596   3.953  13.760 -0.1644  0.4477 -1.0303
 2955SOL     OW20497   2.841   0.648  17.039  0.4888 -0.3074 -0.4402
 2955SOL    HW120498   2.895   0.583  17.083 -1.2643 -0.5352  1.3756
 2955SOL    HW220499   2.822   0.697  17.119  1.7129 -2.2659  1.0464
 2956SOL     OW20500   0.112   1.323  15.924  0.1007 -0.4987  0.1715
 2956SOL    HW120501   0.046   1.384  15.889  2.2158  0.3658 -2.2294
 2956SOL    HW220502   0.084   1.248  15.872  3.3116 -0.6809 -1.2513
 2957SOL     OW20503   3.936   2.334   6.143 -0.2886  0.0415 -0.3168
 2957SOL    HW120504   3.961   2.244   6.161 -2.2300 -0.4059  0.1530
 2957SOL    HW220505   3.841   2.326   6.141 -0.0733 -2.0912 -1.8195
 2958SOL     OW20506   0.660   2.870   2.855  0.1402  0.3977 -0.2729
 2958SOL    HW120507   0.665   2.788   2.904 -0.1743 -0.4547 -1.6740
 2958SOL    HW220508   0.750   2.902   2.864  0.6702 -1.5955  1.4560
 2959SOL     OW20509   4.096   2.639   0.373  0.6290 -0.0142 -0.1713
 2959SOL    HW120510   4.068   2.729   0.387 -0.7578 -0.7348  1.7460
 2959SOL    HW220511   4.022   2.597   0.417  1.7516  0.3548  2.0569
 2960SOL     OW20512   0.908   1.143   4.977 -0.3502  0.0372  0.3519
 2960SOL    HW120513   0.908   1.050   4.958 -1.4439  0.2616 -0.7615
 2960SOL    HW220514   0.878   1.143   5.068  1.9825 -0.7381  1.1018
 2961SOL     OW20515   3.568   3.153  17.590  0.1405  1.0099 -0.7324
 2961SOL    HW120516   3.537   3.240  17.613 -1.5865  0.5552 -1.3697
 2961SOL    HW220517   3.648   3.174  17.541  0.2057 -1.3090 -1.6694
 2962SOL     OW20518   2.058   3.272   2.320 -0.2711  0.5189  0.9411
 2962SOL    HW120519   2.097   3.201   2.269  1.4691  2.0938  0.0704
 2962SOL    HW220520   1.999   3.313   2.257  0.2946 -1.4450 -0.8929
 2963SOL     OW20521   2.323   0.022   9.276  0.5320 -0.0096 -0.0108
 2963SOL    HW120522   2.312   0.088   9.345  3.6482 -1.2688  1.6680
 2963SOL    HW220523   2.351   4.682   9.320 -1.0485 -0.4328  0.2444
 2964SOL     OW20524   1.374   2.483  11.720 -0.3403  0.6311  0.4997
 2964SOL    HW120525   1.298   2.495  11.777 -0.1035 -0.2634  0.9948
 2964SOL    HW220526   1.340   2.413  11.664  0.0751  1.9658 -1.4374
 2965SOL     OW20527   3.348   1.506   6.034 -0.3065 -0.0876 -0.3313
 2965SOL    HW120528   3.267   1.519   6.084 -0.1931  0.1808 -0.2139
 2965SOL    HW220529   3.371   1.598   6.022 -0.1455 -0.1787 -0.7293
 2966SOL     OW20530   2.257   2.183   2.282 -0.2571 -0.1206  0.1340
 2966SOL    HW120531   2.289   2.187   2.192 -0.0564 -2.8583  0.0915
 2966SOL    HW220532   2.163   2.196   2.267 -0.3548  0.4785  1.2284
 2967SOL     OW20533   1.229   0.856   1.775  0.3184 -0.2273  0.4910
 2967SOL    HW120534   1.197   0.874   1.687  1.4006 -2.8944 -0.4492
 2967SOL    HW220535   1.304   0.915   1.780  1.1768 -1.2426 -0.1721
 2968SOL     OW20536   0.802   1.248   5.494  0.4908 -0.1426 -0.1624
 2968SOL    HW120537   0.880   1.195   5.475  0.7618  0.3797 -0.5235
 2968SOL    HW220538   0.790   1.292   5.409 -1.4579 -1.8374 -0.7638
 2969SOL     OW20539   4.503   2.217   3.118  0.5073  0.3695  0.2740
 2969SOL    HW120540   4.452   2.137   3.127 -1.6996  2.0930  2.9959
 2969SOL    HW220541   4.451   2.257   3.048  0.9865  2.4014  1.0669
 2970SOL     OW20542   1.420   3.746   2.747  0.8546  0.0657 -0.3279
 2970SOL    HW120543   1.418   3.730   2.841  2.0498  0.7743 -0.1720
 2970SOL    HW220544   1.355   3.684   2.716 -0.0988  1.2261 -0.6266
 2971SOL     OW20545   4.101   0.032   8.158  0.1864 -0.9750  0.0265
 2971SOL    HW120546   4.147   0.049   8.076  1.7335  0.3638  1.1802
 2971SOL    HW220547   4.050   4.696   8.127  0.3551 -0.1382 -2.3034
 2972SOL     OW20548   1.325   1.521   4.419  0.1370 -0.0738  0.3441
 2972SOL    HW120549   1.338   1.533   4.324 -0.4692  2.5116  0.6088
 2972SOL    HW220550   1.234   1.547   4.432  0.6593  1.8414  0.1583
 2973SOL     OW20551   1.289   0.412   9.083  0.1711  0.4226 -0.2949
 2973SOL    HW120552   1.322   0.418   9.173 -3.3173  1.5644  0.9046
 2973SOL    HW220553   1.239   0.493   9.076 -1.7096 -0.7930 -0.9100
 2974SOL     OW20554   2.076   1.523   9.852  0.4972 -0.0703 -0.0702
 2974SOL    HW120555   2.149   1.498   9.795 -1.4859 -1.6267 -1.9073
 2974SOL    HW220556   2.126   1.530   9.934  0.8362  0.3869 -0.3176
 2975SOL     OW20557   4.126   2.500  13.141 -0.2680  0.0048 -0.2013
 2975SOL    HW120558   4.108   2.422  13.193  1.7192 -0.2154  0.1545
 2975SOL    HW220559   4.080   2.484  13.059 -1.1328  0.9379  0.0970
 2976SOL     OW20560   2.363   1.524   2.146  0.1127  0.3802  0.5619
 2976SOL    HW120561   2.352   1.459   2.216  1.3300 -1.5575 -1.0294
 2976SOL    HW220562   2.279   1.569   2.147  0.4901  1.0958  0.0540
 2977SOL     OW20563   0.195   4.154   7.831  0.2862 -0.7829  0.0026
 2977SOL    HW120564   0.132   4.205   7.882 -0.2809 -0.5865 -0.8891
 2977SOL    HW220565   0.212   4.218   7.762  1.4182 -0.4600  0.5869
 2978SOL     OW20566   1.725   1.237   8.181 -0.0450 -0.4417  0.0467
 2978SOL    HW120567   1.706   1.180   8.107  0.8409  0.6056 -0.9697
 2978SOL    HW220568   1.803   1.283   8.150 -1.2311  0.8808 -0.9523
 2979SOL     OW20569   2.033   1.847   7.493  0.1154  0.7509 -0.1672
 2979SOL    HW120570   1.951   1.860   7.445 -0.8126 -0.7916  1.0119
 2979SOL    HW220571   2.090   1.898   7.436 -1.2546  1.4272 -0.9461
 2980SOL     OW20572   1.977   1.368   4.589 -0.1280 -0.1334 -0.2509
 2980SOL    HW120573   1.906   1.304   4.578  2.2526 -2.5336 -1.6461
 2980SOL    HW220574   1.940   1.435   4.531  0.1116  0.9072  0.8196
 2981SOL     OW20575   3.868   0.926   9.605 -0.1487  0.2946 -0.3786
 2981SOL    HW120576   3.783   0.925   9.649  0.2220 -0.3417  0.3235
 2981SOL    HW220577   3.927   0.979   9.659  0.0816  0.5926 -0.9155
 2982SOL     OW20578   0.336   0.115   0.268  0.3196  0.3009 -0.0213
 2982SOL    HW120579   0.431   0.114   0.256  0.5118 -1.2683  1.7513
 2982SOL    HW220580   0.321   0.027   0.303  0.9160  0.6172  1.0238
 2983SOL     OW20581   2.507   2.736  10.831 -0.1100 -0.1264  0.1716
 2983SOL    HW120582   2.414   2.736  10.809  0.3294 -0.1985 -1.6945
 2983SOL    HW220583   2.531   2.772  10.746 -0.7622 -2.2156 -0.9138
 2984SOL     OW20584   4.247   0.014  16.520  0.6243 -0.0589 -0.3995
 2984SOL    HW120585   4.175   0.023  16.458  1.3467  0.4334 -1.1756
 2984SOL    HW220586   4.208   0.058  16.596 -0.1527  2.1327 -2.0485
 2985SOL     OW20587   0.469   2.560  12.832  0.0004  0.3650  0.2812
 2985SOL    HW120588   0.457   2.485  12.890 -0.9373 -0.5735 -1.1319
 2985SOL    HW220589   0.543   2.539  12.776  0.0142 -1.5867  1.0535
 2986SOL     OW20590   4.559   0.540   2.077  0.7588  0.7435  0.6053
 2986SOL    HW120591   4.594   0.607   2.135 -0.3481  1.3105  0.6150
 2986SOL    HW220592   4.476   0.519   2.120  1.2160  0.0303  1.1602
 2987SOL     OW20593   1.656   0.810   8.312 -0.4713 -0.2034 -0.0700
 2987SOL    HW120594   1.734   0.754   8.313 -0.3862 -0.0962 -1.7488
 2987SOL    HW220595   1.640   0.830   8.405  0.1579  0.9600 -0.2087
 2988SOL     OW20596   3.716   3.630   0.337 -0.3410  0.3797 -0.1871
 2988SOL    HW120597   3.716   3.544   0.296  0.2032  0.0289  0.5498
 2988SOL    HW220598   3.650   3.676   0.286  1.6985  0.9254 -2.3221
 2989SOL     OW20599   0.475   3.910   4.409 -0.2697 -0.6962 -0.0220
 2989SOL    HW120600   0.391   3.954   4.401 -0.0265 -0.0613  1.0129
 2989SOL    HW220601   0.532   3.951   4.344  0.9361 -0.4952  1.1597
 2990SOL     OW20602   0.697   2.398  12.965 -0.2659  0.2191  0.4741
 2990SOL    HW120603   0.753   2.472  12.986  1.2409  0.1189 -3.2106
 2990SOL    HW220604   0.670   2.432  12.880  0.9910  0.1015  0.0362
 2991SOL     OW20605   1.329   0.384  14.032  0.3025 -0.5282  0.0608
 2991SOL    HW120606   1.418   0.349  14.033 -0.1423 -1.6856 -0.5965
 2991SOL    HW220607   1.343   0.465  14.082 -1.3294 -0.1421 -0.1231
 2992SOL     OW20608   1.589   2.820  10.030  0.2060  0.3173  0.4319
 2992SOL    HW120609   1.583   2.760   9.955 -0.6803 -2.4798  2.7349
 2992SOL    HW220610   1.544   2.774  10.101 -0.5672 -0.3263 -0.4801
 2993SOL     OW20611   3.774   3.225  15.568 -0.3802 -0.9340 -0.1312
 2993SOL    HW120612   3.734   3.246  15.483 -0.7104 -2.4314 -0.3427
 2993SOL    HW220613   3.814   3.309  15.592  0.7769 -1.6075  0.2706
 2994SOL     OW20614   4.212   4.473  13.247 -0.0012  0.0304 -0.5193
 2994SOL    HW120615   4.205   4.494  13.154  2.6497 -1.7616 -1.1268
 2994SOL    HW220616   4.253   4.558  13.265 -0.2587  0.2560 -0.9986
 2995SOL     OW20617   3.505   2.041  14.811  0.2676  0.1778 -0.3572
 2995SOL    HW120618   3.451   2.117  14.836 -0.0225 -0.0384 -0.3242
 2995SOL    HW220619   3.456   1.966  14.843 -0.1584 -0.9050 -3.5233
 2996SOL     OW20620   2.093   3.999   8.929 -0.3049 -0.2921 -0.2143
 2996SOL    HW120621   2.105   4.023   9.021  1.9968 -0.0640 -0.5696
 2996SOL    HW220622   1.998   4.005   8.931 -0.0630  3.1763  0.6340
 2997SOL     OW20623   0.666   0.147  14.137 -0.4555 -0.4818 -0.2527
 2997SOL    HW120624   0.679   0.201  14.215  0.7750  0.1561 -0.8910
 2997SOL    HW220625   0.579   0.113  14.157 -0.7832 -0.7787 -2.1876
 2998SOL     OW20626   0.739   4.428   0.451  0.3440 -0.1898  0.0087
 2998SOL    HW120627   0.770   4.494   0.388  1.9892 -0.3496  0.6429
 2998SOL    HW220628   0.647   4.453   0.460  0.9494  2.3317 -0.7628
 2999SOL     OW20629   1.842   0.225   8.291  0.8587 -0.1190 -0.2816
 2999SOL    HW120630   1.796   0.238   8.208 -0.9327 -1.8020  0.4395
 2999SOL    HW220631   1.925   0.271   8.278 -0.1849  1.4187 -1.3784
 3000SOL     OW20632   0.712   2.058   5.222  0.6011 -0.8605 -0.2810
 3000SOL    HW120633   0.624   2.095   5.225  0.3427 -1.5782  0.9448
 3000SOL    HW220634   0.706   1.972   5.264 -0.0664  0.2255  1.8733
 3001SOL     OW20635   0.524   1.830   6.227  0.5064 -0.0959 -0.1968
 3001SOL    HW120636   0.484   1.883   6.157 -0.4529 -0.0576  0.3766
 3001SOL    HW220637   0.487   1.880   6.300 -0.3058 -1.1640  0.1217
 3002SOL     OW20638   4.256   0.769   8.817  0.6594  0.0055  0.1978
 3002SOL    HW120639   4.246   0.764   8.912 -1.3498  1.6386  0.0719
 3002SOL    HW220640   4.191   0.833   8.788  0.6741 -0.1451 -0.1779
 3003SOL     OW20641   2.228   2.540   8.180 -0.0369  0.0760  0.3974
 3003SOL    HW120642   2.166   2.502   8.119 -0.6436  0.1069  0.9920
 3003SOL    HW220643   2.181   2.598   8.239  0.7529  1.0080  0.1138
 3004SOL     OW20644   1.539   0.611   4.931  0.2343 -0.6965 -0.2701
 3004SOL    HW120645   1.617   0.592   4.879 -1.1827 -0.2305 -2.5713
 3004SOL    HW220646   1.559   0.698   4.966  0.8794 -1.0178  0.1646
 3005SOL     OW20647   1.759   2.938   6.225 -0.3114 -0.0903  0.1154
 3005SOL    HW120648   1.730   2.869   6.285  0.3667 -1.2794 -0.9245
 3005SOL    HW220649   1.682   2.931   6.168 -1.8293 -1.5039  2.3531
 3006SOL     OW20650   0.255   3.064   1.820  0.1176  0.5329 -0.4407
 3006SOL    HW120651   0.294   3.048   1.734 -2.4047  2.1743 -1.8829
 3006SOL    HW220652   0.267   2.988   1.878 -1.0498 -0.1016 -1.0299
 3007SOL     OW20653   2.640   3.380   4.400 -0.1091 -0.7311 -0.0920
 3007SOL    HW120654   2.596   3.368   4.484  1.0586 -2.0398  0.3269
 3007SOL    HW220655   2.726   3.413   4.426 -0.2834 -0.3766  0.0422
 3008SOL     OW20656   3.273   1.487   7.856  0.5727  0.1060 -0.1286
 3008SOL    HW120657   3.321   1.410   7.888 -0.4891 -0.1700  0.7987
 3008SOL    HW220658   3.207   1.432   7.815 -1.2750  1.2382  1.3623
 3009SOL     OW20659   2.148   1.344   6.475  0.3229  0.2877  0.1554
 3009SOL    HW120660   2.148   1.332   6.380 -1.4234  1.9308 -0.0664
 3009SOL    HW220661   2.242   1.356   6.487  0.1182  0.2451  1.7767
 3010SOL     OW20662   1.584   1.603   8.341 -1.4937  0.2524 -0.1307
 3010SOL    HW120663   1.571   1.694   8.314  1.0116  0.3187 -1.0641
 3010SOL    HW220664   1.581   1.617   8.436 -0.2656  0.6066 -0.1469
 3011SOL     OW20665   3.197   3.271   2.858 -0.1446 -0.2358 -0.2246
 3011SOL    HW120666   3.183   3.177   2.861  0.1218 -0.3203 -1.5790
 3011SOL    HW220667   3.180   3.294   2.766  2.9073 -0.0443 -0.7455
 3012SOL     OW20668   3.527   0.931  14.857 -0.6107 -0.0011 -0.5653
 3012SOL    HW120669   3.522   0.954  14.764 -1.7241 -0.7416 -0.6768
 3012SOL    HW220670   3.609   0.880  14.853 -0.6012  0.0143 -0.5662
 3013SOL     OW20671   3.452   0.802   8.645 -0.2597 -0.2066 -0.0453
 3013SOL    HW120672   3.423   0.805   8.736 -0.3873 -3.9969  0.0559
 3013SOL    HW220673   3.507   0.724   8.645 -1.8074 -1.3091 -0.3550
 3014SOL     OW20674   4.261   0.180   2.288 -0.5076  0.2800 -0.1287
 3014SOL    HW120675   4.239   0.229   2.368 -2.8160 -1.4673  0.2735
 3014SOL    HW220676   4.263   0.254   2.227  1.0411  1.5223  1.4094
 3015SOL     OW20677   4.292   1.083   6.964 -0.2790 -0.0709 -0.5175
 3015SOL    HW120678   4.336   1.008   7.004 -0.8916  0.3738  1.0054
 3015SOL    HW220679   4.345   1.084   6.884  1.1790 -0.6701  0.4297
 3016SOL     OW20680   2.265   2.292   5.700 -0.0766 -0.2654 -0.0253
 3016SOL    HW120681   2.199   2.260   5.638 -0.5353 -1.9705  1.3681
 3016SOL    HW220682   2.221   2.288   5.785  1.0816  0.2632  0.5969
 3017SOL     OW20683   2.412   2.948  13.117 -0.7853 -0.0667  0.2893
 3017SOL    HW120684   2.398   2.863  13.159  2.3051 -0.0915  1.2042
 3017SOL    HW220685   2.498   2.921  13.084 -0.9133  1.1041 -1.0039
 3018SOL     OW20686   3.696   1.390   5.602  0.1797  1.3692  0.2585
 3018SOL    HW120687   3.615   1.439   5.589 -1.8210 -2.2679 -1.1916
 3018SOL    HW220688   3.662   1.301   5.592  0.2026  1.3513  0.3423
 3019SOL     OW20689   3.974   2.367  12.098 -0.3072  0.1459  0.6395
 3019SOL    HW120690   4.055   2.342  12.142 -0.9842  0.5502  2.1193
 3019SOL    HW220691   4.017   2.436  12.048  0.4529 -0.5985  0.2658
 3020SOL     OW20692   4.349   0.367  15.726 -0.2611 -0.1026 -0.1532
 3020SOL    HW120693   4.349   0.306  15.653  0.9835  0.6558 -0.8035
 3020SOL    HW220694   4.314   0.320  15.801  0.5134  1.1156  0.9840
 3021SOL     OW20695   2.123   1.163   5.771 -0.1705  0.0250  0.0029
 3021SOL    HW120696   2.048   1.177   5.713 -0.4983  1.2818  0.7065
 3021SOL    HW220697   2.090   1.206   5.851 -1.1537  0.0290 -0.4026
 3022SOL     OW20698   1.873   1.000   1.542 -0.4690 -0.4109 -0.0091
 3022SOL    HW120699   1.841   1.031   1.627  3.0438  0.3790  1.0431
 3022SOL    HW220700   1.860   1.065   1.473  1.5049 -0.5083 -0.4984
 3023SOL     OW20701   3.688   2.505   3.687 -0.3764  0.0051  0.2063
 3023SOL    HW120702   3.694   2.567   3.760 -0.3250  1.8689 -1.3665
 3023SOL    HW220703   3.599   2.520   3.655 -0.6834 -1.0664  0.5792
 3024SOL     OW20704   2.283   1.604   4.754 -0.4378  0.2597  0.0511
 3024SOL    HW120705   2.376   1.625   4.751 -0.2568 -0.9730 -2.6051
 3024SOL    HW220706   2.285   1.540   4.825 -0.9610  2.0228  1.6370
 3025SOL     OW20707   2.783   1.644   1.391  0.2052 -0.0574 -0.1226
 3025SOL    HW120708   2.720   1.704   1.352  0.0501  0.3194  0.6958
 3025SOL    HW220709   2.759   1.652   1.484 -0.5929  3.0132 -0.6152
 3026SOL     OW20710   3.940   3.077   3.236  0.2580 -0.2235 -0.0771
 3026SOL    HW120711   3.942   3.010   3.305 -1.7912  1.7529  1.9085
 3026SOL    HW220712   3.864   3.037   3.194  0.2018  0.9422 -1.0812
 3027SOL     OW20713   0.316   1.611   6.840 -0.1650  0.0635 -0.2215
 3027SOL    HW120714   0.405   1.637   6.817 -0.4910  0.9640 -0.4954
 3027SOL    HW220715   0.256   1.677   6.804  1.1398  1.5246  0.3180
 3028SOL     OW20716   4.618   1.572   9.178  0.2306 -0.0601 -0.1318
 3028SOL    HW120717   4.662   1.489   9.158  2.6661  1.4139 -0.8199
 3028SOL    HW220718   4.546   1.542   9.234  1.0253  3.9178  2.9890
 3029SOL     OW20719   2.325   4.217  15.652 -0.1772 -0.4638  0.0321
 3029SOL    HW120720   2.256   4.161  15.617 -0.3079  0.3551 -1.0196
 3029SOL    HW220721   2.271   4.288  15.687 -0.8914  0.3539 -2.7884
 3030SOL     OW20722   1.653   2.931   2.150 -0.7822 -0.6652 -0.2529
 3030SOL    HW120723   1.685   2.843   2.130  2.1411  0.3633 -0.0242
 3030SOL    HW220724   1.564   2.901   2.167 -0.5872  0.0095  1.9287
 3031SOL     OW20725   1.438   1.021   6.463 -0.1692 -0.0103  0.1144
 3031SOL    HW120726   1.348   1.052   6.478 -0.0649  0.4521 -0.2059
 3031SOL    HW220727   1.426   0.942   6.411 -1.4481 -1.2926  2.3487
 3032SOL     OW20728   2.790   0.098   5.457  0.0558 -0.7147 -0.1448
 3032SOL    HW120729   2.723   0.035   5.483  2.4893 -2.1549  2.6163
 3032SOL    HW220730   2.839   0.033   5.408 -1.6133 -1.8574 -0.3058
 3033SOL     OW20731   0.824   4.484   6.424 -0.1655 -0.8333 -0.0752
 3033SOL    HW120732   0.865   4.530   6.497 -2.0589  2.9811 -1.4019
 3033SOL    HW220733   0.774   4.551   6.378 -0.1653 -1.5123 -1.0808
 3034SOL     OW20734   3.910   4.175   5.897 -0.4375 -0.4830  0.0631
 3034SOL    HW120735   3.837   4.201   5.840  0.2395 -1.1913 -1.1257
 3034SOL    HW220736   3.866   4.125   5.966  1.2378 -0.1866  1.3425
 3035SOL     OW20737   3.115   1.411   6.471 -0.2452  0.0438  0.6820
 3035SOL    HW120738   3.046   1.356   6.508 -0.3094  0.0663  0.5946
 3035SOL    HW220739   3.125   1.390   6.378  1.2499 -0.2725  0.9149
 3036SOL     OW20740   3.840   1.764   1.746 -0.2704 -0.4284  0.0225
 3036SOL    HW120741   3.780   1.747   1.674 -3.4499  4.2237  1.5645
 3036SOL    HW220742   3.786   1.747   1.823 -1.2987  0.4965 -0.4896
 3037SOL     OW20743   1.768   1.133   4.255 -0.3312 -0.4765 -0.4778
 3037SOL    HW120744   1.851   1.164   4.220 -1.0484  0.6782 -1.1820
 3037SOL    HW220745   1.708   1.192   4.208  1.1465  0.4694 -1.1606
 3038SOL     OW20746   4.209   1.728  11.924  0.3309  0.1989 -0.2630
 3038SOL    HW120747   4.187   1.690  11.839  2.3431  0.2930 -0.8043
 3038SOL    HW220748   4.291   1.681  11.936  0.1420 -0.1370 -0.2908
 3039SOL     OW20749   3.811   1.530   9.141 -0.0938 -0.2400 -0.3138
 3039SOL    HW120750   3.718   1.514   9.128 -0.4400  0.9869  0.6579
 3039SOL    HW220751   3.806   1.564   9.231  0.7961  0.1961 -0.4297
 3040SOL     OW20752   2.085   0.556   1.458  0.3638  0.1220 -0.7146
 3040SOL    HW120753   2.079   0.585   1.549  1.3561 -0.0276 -0.6002
 3040SOL    HW220754   2.027   0.481   1.466  0.0863  0.0095 -3.4966
 3041SOL     OW20755   3.605   2.992   7.002 -0.2483  0.6208 -0.3401
 3041SOL    HW120756   3.566   2.956   7.081  1.8316  0.0717  0.4607
 3041SOL    HW220757   3.534   2.987   6.939 -1.2793  0.9611  0.8020
 3042SOL     OW20758   3.696   1.018   6.757  0.0428  0.3606 -0.2420
 3042SOL    HW120759   3.612   1.052   6.789 -0.8710 -1.9784 -0.1908
 3042SOL    HW220760   3.727   1.100   6.718  2.2578  0.4808  1.7542
 3043SOL     OW20761   3.666   4.515  15.373 -0.7881 -0.1250 -0.1998
 3043SOL    HW120762   3.601   4.570  15.418 -1.1012  0.4660 -1.3783
 3043SOL    HW220763   3.628   4.484  15.291  0.6303 -0.9397 -0.5341
 3044SOL     OW20764   2.569   0.514   1.816  0.4197  0.0232 -0.8152
 3044SOL    HW120765   2.549   0.451   1.884  2.3453 -2.5603 -2.6644
 3044SOL    HW220766   2.494   0.574   1.826 -0.6285 -1.7064  1.5198
 3045SOL     OW20767   0.980   4.126   1.200 -0.1128 -0.2499 -0.1604
 3045SOL    HW120768   0.904   4.184   1.209  0.6908  0.5983  1.2882
 3045SOL    HW220769   1.049   4.191   1.184 -0.3610  0.5063  1.8716
 3046SOL     OW20770   1.014   0.822   8.583 -0.5097  0.3982  0.0118
 3046SOL    HW120771   1.108   0.829   8.565 -1.0343  2.4840 -1.9882
 3046SOL    HW220772   0.995   0.856   8.670  0.8146 -0.3738  0.5905
 3047SOL     OW20773   3.423   1.480   3.477 -0.0221  0.5828 -0.0821
 3047SOL    HW120774   3.469   1.445   3.554  0.6365  2.0886  0.2221
 3047SOL    HW220775   3.442   1.574   3.488  0.1599  0.4517  0.7650
 3048SOL     OW20776   4.356   0.236   3.242  0.4111  0.1579 -0.3955
 3048SOL    HW120777   4.433   0.182   3.223  0.9762  0.8737 -0.1449
 3048SOL    HW220778   4.397   0.316   3.274  0.8252  0.6516 -2.1714
 3049SOL     OW20779   1.861   2.238   2.608  0.4183 -0.2427  0.3639
 3049SOL    HW120780   1.860   2.302   2.679  0.0857 -2.3471  2.2484
 3049SOL    HW220781   1.896   2.161   2.655 -0.4381 -0.8597 -0.0076
 3050SOL     OW20782   3.658   1.872   6.316 -0.1633  0.1032 -0.3422
 3050SOL    HW120783   3.685   1.876   6.408 -0.4522  1.7997 -0.3285
 3050SOL    HW220784   3.583   1.814   6.330 -0.7469  1.0245  0.4232
 3051SOL     OW20785   1.197   0.155   3.302 -0.5040 -0.3967 -0.1808
 3051SOL    HW120786   1.199   0.145   3.397 -2.1318  0.5612 -0.0330
 3051SOL    HW220787   1.291   0.155   3.287 -0.9646 -2.1658 -3.1709
 3052SOL     OW20788   2.121   3.064   8.348  0.0674  0.1503 -0.1594
 3052SOL    HW120789   2.185   3.114   8.298  2.1753  0.1298  2.5067
 3052SOL    HW220790   2.181   3.000   8.386 -1.7786 -0.5519  1.5148
 3053SOL     OW20791   1.979   3.025  16.317 -0.0241  0.3220 -0.1306
 3053SOL    HW120792   1.988   2.969  16.240 -2.7887  0.3545 -0.4945
 3053SOL    HW220793   2.063   3.069  16.310  0.1599  0.1046  0.7391
 3054SOL     OW20794   0.893   3.618   1.331  0.6772  0.2353  0.1198
 3054SOL    HW120795   0.961   3.553   1.312  1.4796  0.9193  0.6164
 3054SOL    HW220796   0.940   3.693   1.293 -0.2389  0.3792 -0.7260
 3055SOL     OW20797   4.375   1.537   1.218 -0.8173  0.5688 -0.3664
 3055SOL    HW120798   4.424   1.515   1.139  1.2103 -1.8586  1.5549
 3055SOL    HW220799   4.290   1.560   1.180 -0.1458  2.7187 -0.5560
 3056SOL     OW20800   3.026   3.743   5.158 -0.5238  0.1482  0.0851
 3056SOL    HW120801   3.013   3.686   5.234  0.5963 -0.0717  0.1109
 3056SOL    HW220802   3.101   3.694   5.122  0.0432  0.7863  0.4033
 3057SOL     OW20803   3.001   0.979   3.272 -0.6968  0.8474  0.2622
 3057SOL    HW120804   2.975   0.977   3.180 -0.0044 -3.9176  0.1860
 3057SOL    HW220805   3.074   0.917   3.271 -0.2773  1.3722 -1.9009
 3058SOL     OW20806   0.023   3.569   7.076 -0.3783 -0.3331  0.4126
 3058SOL    HW120807   0.084   3.593   7.006 -1.5980  2.6960  0.4126
 3058SOL    HW220808   0.019   3.473   7.072 -1.7274 -0.2071 -1.3721
 3059SOL     OW20809   1.088   2.458   8.543 -0.3299  0.3510 -0.0085
 3059SOL    HW120810   1.026   2.426   8.477  0.2910  1.6494 -1.2326
 3059SOL    HW220811   1.152   2.501   8.486  1.2774 -0.1574  1.4300
 3060SOL     OW20812   2.081   1.015   4.140  0.1477 -0.2190  0.0133
 3060SOL    HW120813   2.071   0.922   4.160  2.1161 -0.3278  0.5031
 3060SOL    HW220814   2.064   1.011   4.046  0.3159 -2.3639  0.0665
 3061SOL     OW20815   1.049   0.183   7.904  1.0212 -0.2014 -0.2623
 3061SOL    HW120816   1.007   0.117   7.959  2.1921 -0.6991  0.0322
 3061SOL    HW220817   1.052   0.140   7.819  0.8523 -1.9212  0.6114
 3062SOL     OW20818   3.116   2.151   2.381 -0.3673  0.2140 -0.3321
 3062SOL    HW120819   3.045   2.178   2.439 -0.6171 -0.7359 -0.2004
 3062SOL    HW220820   3.100   2.056   2.379 -0.5693  0.2437 -0.1381
 3063SOL     OW20821   4.683   0.310   3.038 -0.1462  0.4286  0.5709
 3063SOL    HW120822   0.015   0.279   2.981 -2.9512  0.0077 -2.7014
 3063SOL    HW220823   4.613   0.250   3.012  0.0687  1.1177 -1.6114
 3064SOL     OW20824   3.788   3.238  12.628 -0.9841 -0.4890  0.3219
 3064SOL    HW120825   3.773   3.332  12.636 -0.2679 -0.5012  1.8075
 3064SOL    HW220826   3.863   3.221  12.686 -1.4083 -0.2633  0.9412
 3065SOL     OW20827   0.146   3.300   8.860 -0.4477  0.0649  0.1995
 3065SOL    HW120828   0.076   3.359   8.831  0.3664  0.7973 -0.2784
 3065SOL    HW220829   0.167   3.340   8.945 -0.4303 -1.4615  0.9229
 3066SOL     OW20830   3.325   0.737  14.851  0.0715 -0.2396  0.1506
 3066SOL    HW120831   3.409   0.783  14.856  0.8126 -1.4957 -0.8365
 3066SOL    HW220832   3.308   0.739  14.757  1.5833 -0.2691 -0.1253
 3067SOL     OW20833   4.264   3.795   3.760 -0.3176  0.2895 -0.3847
 3067SOL    HW120834   4.280   3.824   3.850 -0.6406  0.0313 -0.2431
 3067SOL    HW220835   4.234   3.874   3.715  2.0411  1.3402 -0.1069
 3068SOL     OW20836   0.920   4.146   6.520  0.3314 -0.3935 -0.1237
 3068SOL    HW120837   0.989   4.213   6.528  0.5532 -0.6320 -0.0263
 3068SOL    HW220838   0.881   4.165   6.605  3.0654  0.1270  1.0336
 3069SOL     OW20839   3.276   0.657  13.009 -0.2902  0.1165  0.1887
 3069SOL    HW120840   3.337   0.717  12.966  0.0145  0.7183  1.4516
 3069SOL    HW220841   3.322   0.644  13.092  0.8884  1.0968 -0.3104
 3070SOL     OW20842   1.463   4.688   4.788 -0.4712  0.3775 -0.5131
 3070SOL    HW120843   1.496   0.037   4.801 -2.0851  1.2527 -2.2369
 3070SOL    HW220844   1.470   4.643   4.872  0.2936 -1.0781 -1.3624
 3071SOL     OW20845   2.441   1.368   0.128 -0.0414  0.1334 -0.5546
 3071SOL    HW120846   2.418   1.321   0.047  0.6454  2.5013 -2.1412
 3071SOL    HW220847   2.373   1.338   0.188  0.3653 -0.2164 -0.2727
 3072SOL     OW20848   2.788   1.204   3.177  0.3835  0.2166 -0.1005
 3072SOL    HW120849   2.701   1.225   3.209  1.0168  0.0027  1.8068
 3072SOL    HW220850   2.841   1.272   3.220 -0.8184  1.2850 -0.3031
 3073SOL     OW20851   0.660   4.242   2.127 -0.0654  0.5211  0.0060
 3073SOL    HW120852   0.600   4.214   2.197  1.1136 -0.1002  0.7614
 3073SOL    HW220853   0.713   4.163   2.117 -2.1759 -0.5760 -2.4562
 3074SOL     OW20854   1.474   2.521   3.772 -0.0363  0.0237  0.1391
 3074SOL    HW120855   1.557   2.567   3.788 -0.0097  0.1340 -0.3374
 3074SOL    HW220856   1.413   2.577   3.820 -0.6855  0.0736 -0.7473
 3075SOL     OW20857   4.402   4.685   3.943 -0.2442  0.3512 -0.2508
 3075SOL    HW120858   4.373   4.645   4.025 -2.4385  1.2954 -0.5832
 3075SOL    HW220859   4.317   4.720   3.918 -0.8566 -1.2536 -0.4072
 3076SOL     OW20860   2.872   4.669  16.139 -0.2772  0.6678  0.3979
 3076SOL    HW120861   2.883   4.601  16.073  0.1510 -0.0796  1.2345
 3076SOL    HW220862   2.782   4.649  16.166  0.3251 -0.8004  1.3060
 3077SOL     OW20863   3.982   4.567   7.788 -0.3982 -0.0539 -0.0118
 3077SOL    HW120864   3.944   4.621   7.719  0.1647  1.7871  1.0930
 3077SOL    HW220865   3.978   4.479   7.751  1.8150  1.7561 -4.5230
 3078SOL     OW20866   0.593   4.017  15.406  0.7004  0.2801 -0.1155
 3078SOL    HW120867   0.588   4.077  15.481  3.8352 -1.1689  1.2467
 3078SOL    HW220868   0.640   3.945  15.447  3.0102  1.4253 -0.7637
 3079SOL     OW20869   0.355   3.652   4.798  0.5807  0.1718 -0.3115
 3079SOL    HW120870   0.314   3.699   4.870  1.9487  1.4177 -0.3542
 3079SOL    HW220871   0.297   3.684   4.729 -0.1707  1.4538  0.9076
 3080SOL     OW20872   0.478   1.139  11.884 -0.1553  0.3371 -0.2295
 3080SOL    HW120873   0.551   1.200  11.888 -0.1776  0.3671 -0.2898
 3080SOL    HW220874   0.492   1.071  11.951  0.5604 -1.1375 -1.8875
 3081SOL     OW20875   2.586   0.179   7.803 -0.0488 -0.0672 -0.1310
 3081SOL    HW120876   2.550   0.248   7.748 -1.5226 -2.8670 -2.6562
 3081SOL    HW220877   2.507   0.161   7.854  0.5250 -2.8451 -0.2205
 3082SOL     OW20878   2.143   0.713  17.019 -0.1673 -0.9307 -0.0515
 3082SOL    HW120879   2.157   0.645  16.954  0.8017  0.4599 -1.2960
 3082SOL    HW220880   2.180   0.683  17.102 -0.0347  4.0374  1.7029
 3083SOL     OW20881   3.931   3.681   8.284  0.2268 -0.7135 -0.1817
 3083SOL    HW120882   3.922   3.690   8.379  1.8108 -0.0594 -0.1123
 3083SOL    HW220883   3.874   3.605   8.266 -0.8811 -0.1050  0.7787
 3084SOL     OW20884   0.861   4.699   8.336  0.1657  0.2883 -0.5157
 3084SOL    HW120885   0.783   4.679   8.387  0.2020  0.4592 -0.3934
 3084SOL    HW220886   0.908   0.027   8.384  0.7991 -0.7523  0.3039
 3085SOL     OW20887   1.751   2.927   1.375 -0.1104  0.4105 -0.1480
 3085SOL    HW120888   1.780   3.010   1.339  0.8665 -0.1558 -0.6678
 3085SOL    HW220889   1.678   2.906   1.317 -0.2281 -0.5604  0.3544
 3086SOL     OW20890   4.142   4.186   7.227  0.4688  0.5573  1.0440
 3086SOL    HW120891   4.156   4.278   7.209 -1.8316  0.4845 -1.2176
 3086SOL    HW220892   4.233   4.159   7.236  0.5613  1.6478  3.4518
 3087SOL     OW20893   4.731   3.727   2.782  0.3115 -0.1680 -0.0692
 3087SOL    HW120894   4.646   3.709   2.740 -0.1668 -2.6005  1.9512
 3087SOL    HW220895   0.028   3.783   2.714  2.8740 -0.2370  1.2636
 3088SOL     OW20896   1.419   4.149   4.019 -0.3015 -0.1193  0.0104
 3088SOL    HW120897   1.348   4.088   4.001 -0.4545  0.3730 -1.0201
 3088SOL    HW220898   1.389   4.176   4.106 -1.2190  0.9009 -0.6271
 3089SOL     OW20899   2.518   1.034   8.066  0.2007 -0.0213  0.3505
 3089SOL    HW120900   2.434   1.071   8.093  1.3387  2.0900  0.9997
 3089SOL    HW220901   2.484   0.976   7.997 -2.6209  2.4947 -0.3994
 3090SOL     OW20902   3.912   3.023  13.170 -0.1342  0.1060  0.0694
 3090SOL    HW120903   3.854   3.095  13.146 -0.0814  0.0510 -0.2168
 3090SOL    HW220904   3.852   2.948  13.166  1.0854 -0.9046  0.5821
 3091SOL     OW20905   3.502   4.382   8.304  0.2642 -0.3007 -0.2432
 3091SOL    HW120906   3.471   4.472   8.295 -1.7367 -1.0011 -0.3511
 3091SOL    HW220907   3.490   4.365   8.397 -0.3775  0.6345 -0.1565
 3092SOL     OW20908   4.247   1.409   4.620  0.7346 -0.2839  0.1396
 3092SOL    HW120909   4.256   1.404   4.525  0.2219  1.2735  0.0125
 3092SOL    HW220910   4.331   1.447   4.648  0.5987  0.4923 -0.4974
 3093SOL     OW20911   3.954   2.140   9.130  0.3709 -0.1331 -0.6975
 3093SOL    HW120912   3.993   2.053   9.137  3.9598  1.5427 -0.2787
 3093SOL    HW220913   3.893   2.126   9.057 -1.1793  1.1629  0.3550
 3094SOL     OW20914   2.999   1.802   3.198 -0.1893  0.1245  0.0868
 3094SOL    HW120915   2.986   1.708   3.209 -0.7226  0.3187  1.0747
 3094SOL    HW220916   3.087   1.811   3.234  0.0501 -4.1230  0.5927
 3095SOL     OW20917   0.766   1.792  11.768 -0.0015  0.2811 -0.4505
 3095SOL    HW120918   0.762   1.720  11.705  0.2840  0.2298 -0.4089
 3095SOL    HW220919   0.679   1.824  11.745  1.4831  2.7197 -2.5847
 3096SOL     OW20920   0.707   1.403   9.152 -0.4082 -0.0831 -0.1323
 3096SOL    HW120921   0.737   1.314   9.132  1.9238  1.3784 -3.0748
 3096SOL    HW220922   0.787   1.446   9.124  0.4263 -1.0949  0.7216
 3097SOL     OW20923   3.689   0.423   2.300 -0.5421  0.0655  0.0453
 3097SOL    HW120924   3.688   0.456   2.390  1.7296  0.6302 -0.1293
 3097SOL    HW220925   3.778   0.451   2.279 -0.9980  2.3054  1.0427
 3098SOL     OW20926   4.476   1.353  15.419 -0.0841 -0.2159 -0.5601
 3098SOL    HW120927   4.496   1.329  15.509  1.0506 -0.5560 -0.9015
 3098SOL    HW220928   4.564   1.388  15.403  0.4181 -0.8259  0.8811
 3099SOL     OW20929   2.045   2.504   3.596  0.1221 -0.2152 -0.1553
 3099SOL    HW120930   2.117   2.567   3.585 -1.7589  1.9256 -0.2066
 3099SOL    HW220931   2.004   2.550   3.669 -0.2611  1.9357 -1.7178
 3100SOL     OW20932   2.592   4.428   8.676 -0.3964  0.2579 -0.0053
 3100SOL    HW120933   2.665   4.460   8.622 -1.8687  2.3018 -0.7611
 3100SOL    HW220934   2.580   4.505   8.730  1.2484  0.6704 -0.2113
 3101SOL     OW20935   0.049   0.643   2.394 -0.9191 -0.5615  0.4368
 3101SOL    HW120936   0.098   0.724   2.410 -0.2885 -0.3403 -2.6448
 3101SOL    HW220937   4.704   0.659   2.436 -0.6929 -1.7880  1.3431
 3102SOL     OW20938   4.594   2.891   6.359  0.0884  0.0813  0.1018
 3102SOL    HW120939   4.510   2.935   6.345 -0.9694 -2.1418 -0.3740
 3102SOL    HW220940   4.570   2.799   6.353 -0.2943  0.2184 -0.4789
 3103SOL     OW20941   2.333   0.340   9.096 -0.9388 -0.1451  0.1551
 3103SOL    HW120942   2.319   0.311   9.186  2.7344 -0.5757  0.6177
 3103SOL    HW220943   2.241   0.344   9.070 -1.2328 -1.2401  1.0114
 3104SOL     OW20944   0.930   3.113   5.117  0.0323 -0.0008 -0.8408
 3104SOL    HW120945   0.937   3.149   5.205 -0.1060  1.2661 -1.3525
 3104SOL    HW220946   0.968   3.184   5.064  1.0557 -0.3056 -0.5198
 3105SOL     OW20947   0.455   2.607   7.657  0.1571 -0.7207 -0.2424
 3105SOL    HW120948   0.483   2.698   7.642  3.5840 -2.1770 -2.7047
 3105SOL    HW220949   0.360   2.614   7.654  0.2596  1.0567  0.1667
 3106SOL     OW20950   4.188   0.763   7.592 -0.1812 -0.5376  0.2612
 3106SOL    HW120951   4.140   0.813   7.526 -0.6814  2.5993  2.9765
 3106SOL    HW220952   4.118   0.729   7.648 -1.2034 -1.4731 -1.6006
 3107SOL     OW20953   2.413   1.217   7.716 -0.1157  0.1851  0.3868
 3107SOL    HW120954   2.493   1.268   7.730  1.2762 -1.9733  0.4165
 3107SOL    HW220955   2.354   1.290   7.698  0.2323 -0.0135 -1.5378
 3108SOL     OW20956   0.545   3.702   4.009 -0.3209  0.0513  0.1070
 3108SOL    HW120957   0.548   3.762   3.934  1.9905  0.1619  0.2771
 3108SOL    HW220958   0.603   3.633   3.977 -1.7137 -1.4000  0.7281
 3109SOL     OW20959   3.168   2.924   2.074  0.1576  0.0390 -0.1305
 3109SOL    HW120960   3.258   2.929   2.107  0.2464  1.2578 -0.5646
 3109SOL    HW220961   3.157   3.012   2.038 -0.5025 -0.0389 -0.1202
 3110SOL     OW20962   0.023   3.857   9.647  0.4266  0.2764 -0.6639
 3110SOL    HW120963   4.726   3.897   9.569  2.8765  0.4846 -1.7200
 3110SOL    HW220964   4.699   3.786   9.658  2.2748 -1.2796  0.0976
 3111SOL     OW20965   4.067   3.388  11.419  0.7389  0.3379 -0.5795
 3111SOL    HW120966   4.025   3.304  11.437  0.8453  0.5072  0.4632
 3111SOL    HW220967   3.993   3.444  11.395  0.6981  1.1498  1.4580
 3112SOL     OW20968   1.730   4.735  11.676 -0.0903  0.4529 -0.4113
 3112SOL    HW120969   1.737   4.662  11.615  0.9679  0.1034  0.1315
 3112SOL    HW220970   1.743   0.080  11.631 -1.4428  1.3176  0.8179
 3113SOL     OW20971   1.559   4.504   4.260 -0.2705  0.1428  0.6185
 3113SOL    HW120972   1.478   4.497   4.208  0.8772  1.4875 -1.3443
 3113SOL    HW220973   1.519   4.488   4.346 -1.2543  2.1303  0.5387
 3114SOL     OW20974   4.136   2.334   0.329 -0.3473  0.2960  0.0507
 3114SOL    HW120975   4.164   2.380   0.250 -0.6887  3.6010  1.8607
 3114SOL    HW220976   4.041   2.343   0.329 -0.7049 -3.4898  0.1515
 3115SOL     OW20977   1.896   2.769   7.016 -0.4261  0.1036  0.1802
 3115SOL    HW120978   1.890   2.849   6.964  1.5463 -0.7002 -1.2806
 3115SOL    HW220979   1.944   2.715   6.953 -6.3373  0.9998 -5.0990
 3116SOL     OW20980   1.844   0.257   5.948  0.3083 -0.4267  0.1391
 3116SOL    HW120981   1.921   0.206   5.924 -1.3271 -2.2523 -1.2575
 3116SOL    HW220982   1.776   0.205   5.905 -0.8903  2.2104 -1.1934
 3117SOL     OW20983   3.105   2.669   5.294 -0.2673  1.1305  0.1343
 3117SOL    HW120984   3.117   2.748   5.348  0.8426  0.3178  1.0910
 3117SOL    HW220985   3.171   2.677   5.225 -1.3509 -0.3270 -1.0622
 3118SOL     OW20986   0.747   0.044   4.699  0.4001 -0.2304 -0.8837
 3118SOL    HW120987   0.761   4.697   4.661  1.4497  0.5086 -2.1731
 3118SOL    HW220988   0.835   0.082   4.689  0.6045 -0.2770  0.7082
 3119SOL     OW20989   2.110   3.046   4.155  0.1446 -0.6713 -0.0274
 3119SOL    HW120990   2.114   3.135   4.188  0.9953 -0.0221 -1.8423
 3119SOL    HW220991   2.188   2.999   4.184 -0.0871 -0.4096  1.0130
 3120SOL     OW20992   1.698   2.419   4.066  0.1310 -0.2654  0.4740
 3120SOL    HW120993   1.604   2.418   4.080 -0.0247 -1.0847 -0.6475
 3120SOL    HW220994   1.725   2.462   4.147  3.1814  1.0535 -1.2335
 3121SOL     OW20995   0.147   1.738   5.762  0.1825 -0.4963  0.8286
 3121SOL    HW120996   0.205   1.669   5.729  1.3626  0.0012  1.8795
 3121SOL    HW220997   0.061   1.701   5.744  0.0043  0.7968 -1.0098
 3122SOL     OW20998   0.978   2.024   7.430 -0.2782 -0.1092  0.4494
 3122SOL    HW120999   0.920   2.008   7.356  1.0197 -0.5115 -0.4660
 3122SOL    HW221000   0.962   2.112   7.464  0.6622 -0.0246  0.6750
 3123SOL     OW21001   1.990   2.962   9.646 -0.3625 -0.2293 -0.1850
 3123SOL    HW121002   1.971   3.056   9.638 -0.8204 -0.4738 -2.0052
 3123SOL    HW221003   2.072   2.952   9.694  0.3757 -2.4333 -1.9064
 3124SOL     OW21004   2.439   2.947  10.313 -0.1157  0.0935  0.1874
 3124SOL    HW121005   2.423   2.876  10.251 -1.6238 -0.6859  1.4890
 3124SOL    HW221006   2.510   2.905  10.362  0.3023 -0.1735 -0.6484
 3125SOL     OW21007   2.686   0.802  10.123 -0.4723  0.0030  0.0331
 3125SOL    HW121008   2.736   0.733  10.167  0.7362  1.1478  0.4576
 3125SOL    HW221009   2.610   0.748  10.103 -0.4842  0.0223  0.0262
 3126SOL     OW21010   3.367   0.532  16.050  0.2470  0.7075  0.1197
 3126SOL    HW121011   3.317   0.555  16.128  2.0246  1.8045  0.9274
 3126SOL    HW221012   3.367   0.438  16.067 -1.1126  0.0117 -3.6012
 3127SOL     OW21013   1.397   4.233  12.490  0.7317 -0.5418 -0.4457
 3127SOL    HW121014   1.476   4.284  12.476 -0.7447  1.9977  0.3600
 3127SOL    HW221015   1.386   4.196  12.403  1.0428  0.4696 -0.9033
 3128SOL     OW21016   0.505   3.764   6.028  0.3393 -0.5567  0.2208
 3128SOL    HW121017   0.450   3.718   6.092  0.4923  0.0910  0.8218
 3128SOL    HW221018   0.540   3.840   6.076  0.5694 -0.0605 -0.7295
 3129SOL     OW21019   0.918   1.152   3.426  0.9250 -0.4671  0.5246
 3129SOL    HW121020   0.857   1.225   3.435  2.0394  0.4130  0.8636
 3129SOL    HW221021   0.928   1.159   3.331  1.8765 -1.2817  0.5599
 3130SOL     OW21022   3.437   0.331   4.882 -0.4334 -0.6282  0.6846
 3130SOL    HW121023   3.515   0.379   4.909 -1.1599  1.2840 -0.6911
 3130SOL    HW221024   3.366   0.368   4.933  1.7446  1.1792  2.3959
 3131SOL     OW21025   1.728   0.624   0.347  0.0886 -0.2313 -0.3151
 3131SOL    HW121026   1.770   0.588   0.268  0.0624  0.8279 -0.8150
 3131SOL    HW221027   1.736   0.551   0.409 -1.2723 -0.1686 -0.0717
 3132SOL     OW21028   1.619   3.792   9.998  0.2939  0.3201  0.2482
 3132SOL    HW121029   1.671   3.732  10.051  0.8315 -0.9300 -1.6754
 3132SOL    HW221030   1.686   3.858   9.979  0.8415 -0.0536  0.8723
 3133SOL     OW21031   0.730   3.643   0.614 -0.0928  0.2672  0.0646
 3133SOL    HW121032   0.732   3.552   0.642 -4.1643  0.9195  2.3912
 3133SOL    HW221033   0.796   3.639   0.544 -1.5441 -1.2535 -1.2235
 3134SOL     OW21034   1.566   3.769   5.995 -0.0186 -0.0643  0.2098
 3134SOL    HW121035   1.619   3.778   6.075 -2.6078 -2.5211  2.1991
 3134SOL    HW221036   1.565   3.674   5.984  1.2475  0.0527 -0.9369
 3135SOL     OW21037   3.681   4.577   5.141 -0.3572  0.3444 -1.0367
 3135SOL    HW121038   3.641   4.610   5.060 -0.9912  0.4490 -0.6797
 3135SOL    HW221039   3.773   4.599   5.130  0.1105 -0.9754  0.3503
 3136SOL     OW21040   2.379   4.356  10.380 -0.3304 -0.1419  0.1752
 3136SOL    HW121041   2.454   4.416  10.374 -2.2393  2.2275 -0.3545
 3136SOL    HW221042   2.409   4.274  10.418 -2.3174  0.4788  3.0472
 3137SOL     OW21043   2.356   0.100   7.932  0.0364 -0.0001  0.1521
 3137SOL    HW121044   2.306   0.081   8.011  1.2580  4.0284  1.9037
 3137SOL    HW221045   2.318   0.183   7.905 -1.4180 -0.7249 -0.0276
 3138SOL     OW21046   3.641   3.442   9.172 -0.0230 -0.1140 -0.5222
 3138SOL    HW121047   3.664   3.360   9.127 -1.0600 -0.7307  0.0535
 3138SOL    HW221048   3.641   3.415   9.264 -3.4698  0.4185 -0.3698
 3139SOL     OW21049   3.081   3.918   6.218  0.1881  0.0291 -0.4848
 3139SOL    HW121050   3.074   3.839   6.163  1.3640 -0.5834  0.2415
 3139SOL    HW221051   3.141   3.875   6.280  0.0587  0.2384 -0.2175
 3140SOL     OW21052   2.419   4.027   9.427 -0.2763  0.5734 -0.0923
 3140SOL    HW121053   2.331   3.990   9.418 -0.2556  0.7381 -1.0247
 3140SOL    HW221054   2.443   3.985   9.510 -1.3306 -1.7254 -0.9493
 3141SOL     OW21055   3.116   1.481   8.113  0.2887  0.5757  0.4085
 3141SOL    HW121056   3.084   1.468   8.202  1.2413  1.6313  0.9072
 3141SOL    HW221057   3.209   1.504   8.120 -0.0964  1.9343  0.9490
 3142SOL     OW21058   4.684   3.931   8.490 -0.0898 -0.4822  0.0745
 3142SOL    HW121059   0.032   3.898   8.510  0.6554  1.8906  0.7791
 3142SOL    HW221060   4.628   3.853   8.487 -2.3746  1.0900  1.5439
 3143SOL     OW21061   3.766   3.347   0.230  0.0967  0.3000 -0.1469
 3143SOL    HW121062   3.762   3.262   0.186  1.1007  0.7466 -1.0898
 3143SOL    HW221063   3.845   3.390   0.200 -0.9988  2.0597 -0.5098
 3144SOL     OW21064   2.390   2.970   6.898  0.3997  0.1017 -0.7395
 3144SOL    HW121065   2.433   3.021   6.830  3.9591 -0.7472  0.8727
 3144SOL    HW221066   2.308   2.968   6.849  1.1678  1.5994 -2.0610
 3145SOL     OW21067   2.969   4.435   5.255  0.5058  0.2491 -0.1108
 3145SOL    HW121068   2.992   4.357   5.306  0.7761 -1.7817 -3.3343
 3145SOL    HW221069   3.055   4.475   5.242 -0.0290  1.4259  0.0126
 3146SOL     OW21070   0.403   1.409   2.499  0.6674  0.4245 -0.3139
 3146SOL    HW121071   0.332   1.457   2.456 -0.5150 -1.6872 -0.7081
 3146SOL    HW221072   0.428   1.352   2.426  2.5649  1.6299 -0.6001
 3147SOL     OW21073   3.756   0.784   1.254 -0.5859  0.2389  0.2736
 3147SOL    HW121074   3.747   0.863   1.306 -0.7462  0.5692 -0.2622
 3147SOL    HW221075   3.850   0.779   1.237 -0.6467 -1.4837  0.3899
 3148SOL     OW21076   4.557   1.147   4.642 -0.6329  0.2284  0.3426
 3148SOL    HW121077   4.619   1.094   4.691 -1.2781 -0.9241 -0.0928
 3148SOL    HW221078   4.503   1.083   4.596  0.7580 -0.2304 -0.6283
 3149SOL     OW21079   0.936   2.820   9.379  0.5678 -0.6151 -0.0461
 3149SOL    HW121080   0.904   2.809   9.469  0.1689  0.7342 -0.0178
 3149SOL    HW221081   0.852   2.810   9.335  1.3169  1.6637 -1.9651
 3150SOL     OW21082   3.895   0.239   8.780 -0.2843  0.7283  0.2329
 3150SOL    HW121083   3.878   0.255   8.687 -0.6802  0.8277  0.3222
 3150SOL    HW221084   3.982   0.199   8.775  0.3174  1.9582  0.7961
 3151SOL     OW21085   2.438   0.380   3.930  0.9844  0.0151  0.3363
 3151SOL    HW121086   2.346   0.366   3.906  0.8849 -0.5562  1.0368
 3151SOL    HW221087   2.423   0.427   4.012 -0.7757  1.5921 -0.8878
 3152SOL     OW21088   0.020   0.921  15.562  0.1955  0.0875  0.0979
 3152SOL    HW121089   4.686   0.965  15.520  0.6843  0.0110 -0.8319
 3152SOL    HW221090   4.713   0.858  15.617  0.5192 -0.6292 -0.4528
 3153SOL     OW21091   4.371   2.510   9.330 -0.0176 -0.6127 -0.2588
 3153SOL    HW121092   4.277   2.524   9.328  0.2959  1.5422  0.1299
 3153SOL    HW221093   4.400   2.541   9.416 -0.8705 -0.1877 -0.1255
 3154SOL     OW21094   0.502   0.340   3.735 -0.0250  0.4552 -0.0422
 3154SOL    HW121095   0.412   0.314   3.713  0.7096 -2.6644  0.7506
 3154SOL    HW221096   0.497   0.435   3.722 -1.6551  0.2381 -1.0451
 3155SOL     OW21097   3.196   2.856  17.545  0.3064 -0.6881 -0.2253
 3155SOL    HW121098   3.174   2.836  17.454  0.1411  1.0199 -0.5626
 3155SOL    HW221099   3.155   2.778  17.582 -1.9837  0.6944  0.1474
 3156SOL     OW21100   4.192   2.391   2.064 -0.0342  0.1133  0.1171
 3156SOL    HW121101   4.157   2.365   1.979  0.3748 -1.9661  0.5909
 3156SOL    HW221102   4.172   2.320   2.125 -0.6872 -0.1710 -0.4319
 3157SOL     OW21103   0.253   2.948   5.041  0.3880 -0.1122 -0.1119
 3157SOL    HW121104   0.326   2.950   4.980  1.2545 -1.2382  0.8976
 3157SOL    HW221105   0.304   2.974   5.117  0.6518 -1.6600  0.2423
 3158SOL     OW21106   3.818   1.651   3.294  0.2350 -0.1832 -0.3137
 3158SOL    HW121107   3.862   1.607   3.221 -0.3929 -1.0667 -0.1523
 3158SOL    HW221108   3.745   1.686   3.244 -0.1646  0.5522  0.7901
 3159SOL     OW21109   4.687   3.552   9.439 -0.4096 -0.0136  0.7207
 3159SOL    HW121110   4.701   3.461   9.464  0.6066 -0.1092 -0.1635
 3159SOL    HW221111   0.036   3.588   9.430 -0.9349  1.6819  2.6193
 3160SOL     OW21112   3.118   1.759   7.957  0.1556 -0.0461  0.6556
 3160SOL    HW121113   3.144   1.667   7.956  0.3917  0.0083  1.8437
 3160SOL    HW221114   3.026   1.753   7.934  0.8172 -1.2366 -1.7057
 3161SOL     OW21115   1.414   4.712   7.731 -0.5632  0.0182 -0.8674
 3161SOL    HW121116   1.484   4.683   7.672 -0.9469 -1.5700 -0.5346
 3161SOL    HW221117   1.346   4.647   7.714  1.3176 -2.1842 -0.0831
 3162SOL     OW21118   1.850   1.994   7.995 -0.1891  0.2037  0.2387
 3162SOL    HW121119   1.927   1.992   8.054  0.4439 -0.2885 -0.6026
 3162SOL    HW221120   1.888   1.992   7.907  0.1554  2.6031  0.3509
 3163SOL     OW21121   3.563   1.895   7.800 -0.2712  0.3342 -0.4074
 3163SOL    HW121122   3.505   1.890   7.724 -0.4546  3.6157 -0.4631
 3163SOL    HW221123   3.540   1.819   7.854 -2.2773  2.4717  1.7665
 3164SOL     OW21124   0.787   1.444   9.684  0.1601  0.6810  0.3063
 3164SOL    HW121125   0.780   1.464   9.591 -0.7301 -3.0885 -0.4610
 3164SOL    HW221126   0.841   1.518   9.712  1.5648 -1.2160  2.7023
 3165SOL     OW21127   3.323   2.579   8.845  0.2067 -0.0698  0.2085
 3165SOL    HW121128   3.228   2.592   8.848 -0.3323 -3.6166 -1.9529
 3165SOL    HW221129   3.334   2.491   8.811 -0.3816 -0.7762  1.8768
 3166SOL     OW21130   1.362   0.678   9.624  0.1688  0.3153 -0.0461
 3166SOL    HW121131   1.395   0.765   9.602 -2.2141  0.7775 -1.7832
 3166SOL    HW221132   1.273   0.673   9.590  0.5046 -0.1172 -0.8801
 3167SOL     OW21133   3.781   1.550   7.853  0.1609  0.0842  0.2469
 3167SOL    HW121134   3.760   1.559   7.760 -3.5918  0.6375  1.1176
 3167SOL    HW221135   3.827   1.633   7.867  1.1629 -0.2025 -1.3976
 3168SOL     OW21136   1.245   0.195  14.304  0.0665  0.3747  0.0264
 3168SOL    HW121137   1.316   0.258  14.298  0.0280  0.3336 -0.8434
 3168SOL    HW221138   1.243   0.183  14.399  0.9505 -2.4313 -0.3018
 3169SOL     OW21139   0.479   0.937   5.794 -0.1173 -0.0928 -0.2780
 3169SOL    HW121140   0.455   0.944   5.886  0.4675 -1.0894 -0.0512
 3169SOL    HW221141   0.543   0.867   5.809 -1.9522 -1.6261  0.4417
 3170SOL     OW21142   0.980   0.671   2.822  0.0614  0.6330  0.3221
 3170SOL    HW121143   1.029   0.687   2.741  1.3749  0.5373  1.1097
 3170SOL    HW221144   0.890   0.688   2.794  0.4415  2.4008  0.2094
 3171SOL     OW21145   3.849   4.001  14.717 -0.0354 -0.4506 -0.6477
 3171SOL    HW121146   3.894   4.076  14.754  0.2219 -0.6032 -0.6509
 3171SOL    HW221147   3.859   3.940  14.791  0.3039  0.7548  0.3040
 3172SOL     OW21148   3.858   1.892   5.656  0.1568  0.1459 -0.6693
 3172SOL    HW121149   3.865   1.805   5.696 -1.5718  0.1936 -0.2963
 3172SOL    HW221150   3.828   1.948   5.728 -1.2084 -1.5757  0.0985
 3173SOL     OW21151   3.946   0.793   4.517  0.1277 -0.5017  0.5406
 3173SOL    HW121152   3.952   0.777   4.612  0.8104  1.3881  0.8197
 3173SOL    HW221153   3.863   0.750   4.497 -0.4512  1.4617 -1.2227
 3174SOL     OW21154   2.755   3.660   3.872  0.4569 -0.1156  0.4452
 3174SOL    HW121155   2.712   3.724   3.929  2.5528 -0.1740  2.0825
 3174SOL    HW221156   2.843   3.687   3.897  1.3474 -0.4166 -2.3593
 3175SOL     OW21157   3.598   2.220  14.526  0.4704 -0.1687 -0.5173
 3175SOL    HW121158   3.685   2.261  14.534  0.3278  0.1493 -0.6080
 3175SOL    HW221159   3.622   2.147  14.469  1.6333 -0.9402  0.9351
 3176SOL     OW21160   2.004   1.277   4.200  0.3036 -0.6088 -0.6649
 3176SOL    HW121161   2.020   1.231   4.118 -2.5943 -2.5699 -0.0816
 3176SOL    HW221162   2.069   1.233   4.255 -0.5486 -2.0904 -0.8762
 3177SOL     OW21163   3.860   2.778   2.102 -0.1079  0.0451  0.3865
 3177SOL    HW121164   3.804   2.847   2.138 -0.0042  0.3809 -0.0880
 3177SOL    HW221165   3.804   2.703   2.085  2.1872 -1.6005  0.1699
 3178SOL     OW21166   3.424   2.981   7.230  0.1845  0.8565 -1.0087
 3178SOL    HW121167   3.428   3.064   7.182 -0.7603  1.0404 -0.7710
 3178SOL    HW221168   3.370   2.929   7.170  0.5179  1.0480 -1.4775
 3179SOL     OW21169   4.655   2.398   4.617  0.1760  0.5611  0.5499
 3179SOL    HW121170   4.704   2.316   4.622 -1.5086 -0.5714 -1.4111
 3179SOL    HW221171   4.608   2.393   4.700 -1.4195  0.3927 -0.3451
 3180SOL     OW21172   2.732   3.822   5.413 -0.1653 -0.1955 -0.5745
 3180SOL    HW121173   2.703   3.746   5.463  2.0408 -0.6801  0.0018
 3180SOL    HW221174   2.785   3.866   5.480 -0.5568  0.5547 -0.7510
 3181SOL     OW21175   2.142   2.871  10.078 -0.4054 -0.0427  0.1844
 3181SOL    HW121176   2.229   2.835  10.096  0.4431  1.6418 -0.5220
 3181SOL    HW221177   2.097   2.806  10.024 -2.2318  0.8489  0.6347
 3182SOL     OW21178   0.540   2.866   2.137  0.0038  0.4812 -0.6270
 3182SOL    HW121179   0.537   2.934   2.204  2.0137 -0.0036 -0.0233
 3182SOL    HW221180   0.447   2.843   2.139  0.0513  0.2249 -1.4908
 3183SOL     OW21181   2.695   1.593   3.169 -0.3852  0.1104  0.9263
 3183SOL    HW121182   2.763   1.568   3.106 -1.3485 -1.7995  0.6433
 3183SOL    HW221183   2.676   1.504   3.199  2.4185 -0.1716  1.8823
 3184SOL     OW21184   0.708   1.783   7.918 -0.0410  0.2220  0.2008
 3184SOL    HW121185   0.733   1.855   7.975  0.7922  0.5578 -0.5763
 3184SOL    HW221186   0.618   1.763   7.943  0.1775 -1.0155  0.0048
 3185SOL     OW21187   0.432   1.462   8.952 -0.1588 -0.4630 -0.5644
 3185SOL    HW121188   0.341   1.479   8.978 -1.7625 -3.8537 -3.8161
 3185SOL    HW221189   0.426   1.492   8.862 -2.7068 -1.8733 -0.8669
 3186SOL     OW21190   1.856   4.247   5.514 -0.1714 -0.6334 -0.1595
 3186SOL    HW121191   1.794   4.243   5.442 -0.9805 -1.7424  0.5938
 3186SOL    HW221192   1.910   4.324   5.498 -0.1997 -0.3738  0.9706
 3187SOL     OW21193   2.307   4.255  16.511  0.4350  0.2172  0.2225
 3187SOL    HW121194   2.311   4.191  16.582  1.2257 -0.5112 -0.4822
 3187SOL    HW221195   2.287   4.328  16.569 -0.9304 -0.8048  1.0541
 3188SOL     OW21196   0.161   2.662   5.038 -0.5201 -0.0937  0.9233
 3188SOL    HW121197   0.200   2.749   5.045 -2.0011  0.6908 -0.5821
 3188SOL    HW221198   0.219   2.609   4.983  0.5024  1.1430  0.8177
 3189SOL     OW21199   3.510   0.433   9.576  0.0680  0.1974 -0.2079
 3189SOL    HW121200   3.550   0.472   9.498  0.2603 -0.5570 -0.4820
 3189SOL    HW221201   3.554   0.349   9.585 -1.6562 -0.7809 -1.1128
 3190SOL     OW21202   2.803   2.704   7.267  0.3067 -0.0962  0.7960
 3190SOL    HW121203   2.861   2.648   7.318  1.5189  0.3766 -0.0718
 3190SOL    HW221204   2.786   2.778   7.326  2.3548  0.1776  1.0251
 3191SOL     OW21205   2.002   0.355  11.583 -0.0649 -0.2351 -0.1824
 3191SOL    HW121206   2.074   0.326  11.528  0.9647  0.2695  0.8883
 3191SOL    HW221207   2.040   0.419  11.644 -0.7119  0.5193 -0.5845
 3192SOL     OW21208   4.154   3.334  10.075  0.0950 -0.2535 -0.4351
 3192SOL    HW121209   4.130   3.381  10.155  0.4765 -2.3074  0.9097
 3192SOL    HW221210   4.091   3.354  10.007 -2.5104 -0.5978  1.8780
 3193SOL     OW21211   4.465   0.212   5.311 -0.1565  0.0737  0.7601
 3193SOL    HW121212   4.408   0.139   5.289  1.7660 -1.8458  2.1248
 3193SOL    HW221213   4.418   0.255   5.383 -0.2001  1.3453 -0.0236
 3194SOL     OW21214   2.581   0.491  10.404 -0.0493 -0.3871 -0.1500
 3194SOL    HW121215   2.646   0.521  10.341 -1.5748  1.1226 -1.0220
 3194SOL    HW221216   2.509   0.554  10.392 -0.1861 -0.0000  2.6439
 3195SOL     OW21217   3.853   4.004   4.128  0.0430 -0.2238  0.2971
 3195SOL    HW121218   3.875   4.005   4.035 -1.8406  0.4333 -0.1384
 3195SOL    HW221219   3.924   3.946   4.154  1.6491  2.3540  1.6772
 3196SOL     OW21220   2.596   2.665   1.309  0.3554  0.3050 -0.3558
 3196SOL    HW121221   2.557   2.746   1.340  1.9447  1.2620 -0.8320
 3196SOL    HW221222   2.543   2.593   1.343  0.9135  1.0937  2.2566
 3197SOL     OW21223   3.543   3.145   2.356 -0.5767 -0.7479  0.0616
 3197SOL    HW121224   3.450   3.126   2.344 -0.4028 -1.2228 -0.5843
 3197SOL    HW221225   3.542   3.239   2.343  2.3593 -0.7206 -0.0645
 3198SOL     OW21226   0.773   2.327   5.201 -0.3098  0.3962  0.6226
 3198SOL    HW121227   0.774   2.244   5.249  1.8449 -0.4148 -0.8395
 3198SOL    HW221228   0.737   2.313   5.114  0.5578  4.2422 -0.3683
 3199SOL     OW21229   0.302   2.993   6.247  0.2959  0.5952 -0.3778
 3199SOL    HW121230   0.362   2.924   6.277 -0.8887 -1.5405 -2.9657
 3199SOL    HW221231   0.292   3.050   6.323  1.6696 -0.0466  0.2955
 3200SOL     OW21232   2.626   1.504   9.795 -0.1460 -0.0201 -0.3000
 3200SOL    HW121233   2.604   1.542   9.711 -1.0359 -2.1970 -1.0574
 3200SOL    HW221234   2.718   1.528   9.803  0.1578 -2.0972  2.8977
 3201SOL     OW21235   3.672   1.539  10.965 -0.4116 -0.4687 -0.5339
 3201SOL    HW121236   3.640   1.469  11.022 -0.8956 -2.0356 -2.7394
 3201SOL    HW221237   3.750   1.570  11.011 -1.1445 -0.3917  0.6731
 3202SOL     OW21238   2.326   4.242   6.055  0.3239  0.7761  0.4545
 3202SOL    HW121239   2.397   4.253   5.991 -0.4015  1.0657 -0.3103
 3202SOL    HW221240   2.370   4.175   6.106 -0.5182 -0.3647 -0.3037
 3203SOL     OW21241   2.757   3.685   5.148  0.0081 -0.3407  0.2082
 3203SOL    HW121242   2.849   3.712   5.143 -0.3797  1.2582  1.6839
 3203SOL    HW221243   2.733   3.739   5.223  1.5759  1.6556 -0.7275
 3204SOL     OW21244   0.156   0.617   3.689 -0.3178 -0.2687  0.5288
 3204SOL    HW121245   0.186   0.673   3.617 -1.6286 -0.6948 -0.3507
 3204SOL    HW221246   0.110   0.550   3.639 -0.2508 -0.7690  1.1473
 3205SOL     OW21247   4.071   1.427   4.838 -0.2782  0.4796  0.3824
 3205SOL    HW121248   4.145   1.437   4.778  0.5560  0.3697  1.3953
 3205SOL    HW221249   4.050   1.335   4.826 -2.2879  0.5505  3.2895
 3206SOL     OW21250   2.979   3.005   5.035 -0.1979 -0.3951 -0.0213
 3206SOL    HW121251   3.059   3.046   5.068 -1.3033  1.1561  0.7149
 3206SOL    HW221252   3.003   2.912   5.033  0.2946 -0.3121  1.7562
 3207SOL     OW21253   0.328   0.427   8.345  0.1554 -0.2592 -0.5532
 3207SOL    HW121254   0.349   0.356   8.284 -0.5224 -0.8071 -0.1367
 3207SOL    HW221255   0.253   0.387   8.387  0.7447 -2.5671 -1.6883
 3208SOL     OW21256   3.776   4.002   0.858 -0.0352 -0.0593  0.0785
 3208SOL    HW121257   3.840   4.073   0.851 -0.7723  0.9700  4.1842
 3208SOL    HW221258   3.759   4.018   0.951  1.0906 -1.8084  0.6031
 3209SOL     OW21259   1.839   3.444   5.840 -0.0447  0.4894 -0.3595
 3209SOL    HW121260   1.745   3.453   5.857  0.1291 -1.0166  1.3709
 3209SOL    HW221261   1.868   3.501   5.911  0.7884  1.6576 -1.6399
 3210SOL     OW21262   2.359   2.721   4.392 -0.2252  0.0485  0.1327
 3210SOL    HW121263   2.331   2.750   4.478 -0.7882 -0.3441  0.0816
 3210SOL    HW221264   2.382   2.805   4.353 -2.9151 -0.2914 -2.2240
 3211SOL     OW21265   0.844   0.117   6.433  0.3234 -0.3789 -0.1705
 3211SOL    HW121266   0.759   0.086   6.402  0.0503  0.4438 -0.2603
 3211SOL    HW221267   0.851   0.207   6.401 -0.2965 -0.5738 -0.8611
 3212SOL     OW21268   2.769   1.850   8.751 -0.0009  0.0727 -0.0119
 3212SOL    HW121269   2.737   1.903   8.824 -0.5749  1.6168 -1.3895
 3212SOL    HW221270   2.803   1.775   8.800  0.1747  0.3957  0.3595
 3213SOL     OW21271   0.541   4.530  13.798 -0.5884  0.0887 -0.0921
 3213SOL    HW121272   0.487   4.466  13.844  0.1487 -1.5074 -1.4812
 3213SOL    HW221273   0.562   4.497  13.711  0.8585 -0.8652  0.6193
 3214SOL     OW21274   0.582   2.508   1.430  0.0823 -0.0756  0.6728
 3214SOL    HW121275   0.600   2.579   1.369  0.1806  1.4720  2.4946
 3214SOL    HW221276   0.530   2.447   1.378 -0.3704 -0.4702  1.5827
 3215SOL     OW21277   0.978   4.502   9.480 -0.0787  0.4315 -0.0799
 3215SOL    HW121278   0.888   4.511   9.510  1.1323  0.8919  3.3865
 3215SOL    HW221279   1.010   4.415   9.503 -1.2109 -0.4477 -1.9185
 3216SOL     OW21280   0.438   2.129   3.901 -0.5089 -0.6814  0.5412
 3216SOL    HW121281   0.429   2.050   3.848 -1.2969 -0.1887 -0.0417
 3216SOL    HW221282   0.375   2.189   3.863  1.0204 -1.0532 -2.5387
 3217SOL     OW21283   1.127   3.483  15.068 -0.2359 -0.1620  0.7366
 3217SOL    HW121284   1.211   3.446  15.095  0.9027  1.5256 -0.4933
 3217SOL    HW221285   1.156   3.572  15.088  2.4909 -0.9094  0.1124
 3218SOL     OW21286   2.103   2.392   8.806 -0.2635 -0.4890 -0.2316
 3218SOL    HW121287   2.164   2.374   8.878  0.0724 -1.7194 -0.8230
 3218SOL    HW221288   2.101   2.487   8.806  0.3183 -0.4854 -1.5772
 3219SOL     OW21289   0.698   2.985   9.460 -0.2019  0.5739 -0.0443
 3219SOL    HW121290   0.742   2.912   9.504  0.0795  2.2329  2.3996
 3219SOL    HW221291   0.649   2.936   9.393 -2.9232 -0.9539  3.0652
 3220SOL     OW21292   0.212   4.045   7.441 -0.4521 -0.0140 -0.2009
 3220SOL    HW121293   0.202   4.077   7.352 -1.5048  1.1678  0.3492
 3220SOL    HW221294   0.253   3.960   7.423  0.9824  0.5581  0.3195
 3221SOL     OW21295   3.590   1.419   8.129  0.4921 -0.6699  0.4556
 3221SOL    HW121296   3.564   1.352   8.192 -0.1678 -0.4488  0.4192
 3221SOL    HW221297   3.645   1.363   8.074 -1.2861 -3.3172  1.3664
 3222SOL     OW21298   2.252   1.393  10.349 -0.2484 -0.0144 -0.4228
 3222SOL    HW121299   2.191   1.367  10.419 -0.0228  0.9963  0.1380
 3222SOL    HW221300   2.322   1.438  10.396 -1.1594  0.5847  0.3591
 3223SOL     OW21301   4.332   3.017   6.325 -0.2136 -0.2022 -0.8035
 3223SOL    HW121302   4.327   2.966   6.244 -0.5256 -1.6052  0.0997
 3223SOL    HW221303   4.237   3.022   6.335 -0.2105 -0.7578 -0.5227
 3224SOL     OW21304   3.223   2.501   8.426 -0.2533  0.1570 -0.4831
 3224SOL    HW121305   3.163   2.502   8.351  1.2633 -0.5205 -1.7032
 3224SOL    HW221306   3.276   2.426   8.397  1.2775  2.2268 -3.0301
 3225SOL     OW21307   2.807   1.638   6.183  0.1427 -1.0185 -0.9273
 3225SOL    HW121308   2.759   1.609   6.261  0.8369 -0.5740 -0.3335
 3225SOL    HW221309   2.835   1.722   6.219 -2.8408  0.8715 -2.9987
 3226SOL     OW21310   3.523   0.553   7.705 -0.2401 -0.8463  0.0794
 3226SOL    HW121311   3.538   0.514   7.791 -2.3308 -0.6880  0.4965
 3226SOL    HW221312   3.432   0.580   7.715  0.3643 -0.0119  3.1856
 3227SOL     OW21313   1.097   4.197  17.314 -0.5158  0.0455  0.5106
 3227SOL    HW121314   1.099   4.115  17.265 -1.1520  0.0133  0.5454
 3227SOL    HW221315   1.186   4.199  17.350 -0.1466 -1.8565 -0.2655
 3228SOL     OW21316   3.365   2.043  11.913  0.0986  0.2570  0.3562
 3228SOL    HW121317   3.316   2.101  11.855 -2.7123 -0.8210  1.6087
 3228SOL    HW221318   3.362   1.957  11.870  0.5290  2.2415 -3.6413
 3229SOL     OW21319   4.228   1.996   1.834 -0.1150 -0.1451 -0.0451
 3229SOL    HW121320   4.255   1.929   1.898 -0.3571  0.4973  0.7299
 3229SOL    HW221321   4.305   2.050   1.820 -1.2346  0.8952 -2.1460
 3230SOL     OW21322   2.622   4.079  12.824  0.1043  0.1130 -0.0805
 3230SOL    HW121323   2.651   4.154  12.875  1.7300  0.4911 -1.5278
 3230SOL    HW221324   2.580   4.122  12.750  2.7495 -1.5979 -2.5935
 3231SOL     OW21325   0.695   3.585  14.297 -0.2772  0.4904 -0.1258
 3231SOL    HW121326   0.669   3.558  14.385  1.0039 -0.5770 -0.0785
 3231SOL    HW221327   0.694   3.499  14.255  0.2178  0.5059 -0.1723
 3232SOL     OW21328   3.103   0.204  10.111  0.1096  0.5155  0.0984
 3232SOL    HW121329   3.128   0.293  10.137  3.3298 -0.5167  0.4860
 3232SOL    HW221330   3.084   0.220  10.019  1.8895 -1.7548 -0.6378
 3233SOL     OW21331   3.027   0.337   6.060 -0.0870  0.0181  0.4984
 3233SOL    HW121332   2.971   0.343   6.137 -0.3450  1.0718  0.2279
 3233SOL    HW221333   3.049   0.245   6.070 -1.2097 -0.4557 -1.4581
 3234SOL     OW21334   1.649   1.884   1.149 -0.2944 -0.5018 -0.2110
 3234SOL    HW121335   1.651   1.896   1.054  1.5095 -0.6336 -0.1990
 3234SOL    HW221336   1.567   1.920   1.182 -0.3884 -0.5060 -0.4417
 3235SOL     OW21337   4.196   0.057  15.671  0.0977  0.3519 -0.1730
 3235SOL    HW121338   4.240   0.090  15.750  1.0310  1.4901 -1.1590
 3235SOL    HW221339   4.176   4.713  15.712  0.1947 -0.4027 -1.6579
 3236SOL     OW21340   3.105   0.749  15.004 -0.5067 -0.3887  0.1021
 3236SOL    HW121341   3.070   0.814  14.943  1.7217  1.2128  0.5198
 3236SOL    HW221342   3.193   0.739  14.968 -0.8773  0.5037 -1.0511
 3237SOL     OW21343   3.115   0.890   6.860 -1.3476 -0.2218 -0.1427
 3237SOL    HW121344   3.188   0.889   6.922 -2.4880  2.9134  1.2367
 3237SOL    HW221345   3.040   0.865   6.913 -0.6443 -2.6782 -0.3277
 3238SOL     OW21346   2.066   4.393   2.952  0.4590  0.0826 -0.4699
 3238SOL    HW121347   2.012   4.381   3.030  1.6622  2.0879  0.6607
 3238SOL    HW221348   2.158   4.392   2.978  1.0409 -0.9341 -2.5670
 3239SOL     OW21349   2.818   3.924  17.161  0.4035 -0.4693  0.0777
 3239SOL    HW121350   2.847   3.991  17.223 -0.4998  1.1283 -1.2418
 3239SOL    HW221351   2.884   3.856  17.178  0.2851 -0.1906  1.6676
 3240SOL     OW21352   2.449   3.869   8.026 -0.1348 -0.1051  0.1738
 3240SOL    HW121353   2.438   3.961   8.046 -1.8164 -0.0538 -1.0371
 3240SOL    HW221354   2.404   3.822   8.096 -1.5050  1.8509  0.5844
 3241SOL     OW21355   2.890   1.018   4.312 -0.3111  0.1300  0.2967
 3241SOL    HW121356   2.906   0.947   4.374  1.7770  1.4945  1.3334
 3241SOL    HW221357   2.844   1.083   4.366  0.5017  0.0987  1.0269
 3242SOL     OW21358   3.422   3.123  12.990 -0.2016  0.4061 -0.7045
 3242SOL    HW121359   3.403   3.039  13.032 -0.5018 -0.2574 -2.1892
 3242SOL    HW221360   3.356   3.128  12.920  0.2772 -0.6766 -1.2327
 3243SOL     OW21361   4.449   2.683   6.296 -0.1141 -0.5060  0.0074
 3243SOL    HW121362   4.373   2.726   6.336  0.1102  0.7524 -0.9225
 3243SOL    HW221363   4.425   2.592   6.311 -1.6417 -0.0203  0.5937
 3244SOL     OW21364   1.833   2.253   9.718  0.2524 -0.5377 -0.1616
 3244SOL    HW121365   1.764   2.225   9.657 -1.7080  2.3216  0.7491
 3244SOL    HW221366   1.820   2.188   9.786  0.9426  0.7045  1.1393
 3245SOL     OW21367   3.883   0.651   6.963 -0.1442  0.1141 -0.8807
 3245SOL    HW121368   3.907   0.563   6.935 -1.2113 -0.7403  0.8836
 3245SOL    HW221369   3.788   0.648   6.957 -0.2222  0.4993  0.1214
 3246SOL     OW21370   3.217   0.436   5.002  0.4692 -0.1288 -0.4566
 3246SOL    HW121371   3.139   0.428   5.057  0.9063  2.7755  0.5603
 3246SOL    HW221372   3.219   0.530   4.986 -0.7848 -0.1527 -0.7736
 3247SOL     OW21373   3.002   0.969   6.447 -0.3862 -0.0939  0.3908
 3247SOL    HW121374   3.060   0.894   6.438 -0.1756  0.0185  0.7996
 3247SOL    HW221375   3.045   1.002   6.526 -1.7802 -1.4538  1.7315
 3248SOL     OW21376   2.427   4.113   1.996 -0.3702  0.0705 -0.5086
 3248SOL    HW121377   2.389   4.038   1.949  0.0220  0.3366 -1.2371
 3248SOL    HW221378   2.457   4.174   1.929 -0.5847  0.6330 -0.0947
 3249SOL     OW21379   3.174   0.199   2.023 -0.0628  0.2260 -0.7073
 3249SOL    HW121380   3.210   0.195   2.112 -0.1336  1.0642 -0.6459
 3249SOL    HW221381   3.172   0.291   1.996  1.6161  1.2431  2.5929
 3250SOL     OW21382   1.952   2.114   3.442  0.3351 -0.3130  0.2247
 3250SOL    HW121383   1.877   2.153   3.487  1.2060  1.9005 -0.2865
 3250SOL    HW221384   1.981   2.198   3.407 -0.7382 -0.1587 -0.3288
 3251SOL     OW21385   1.690   2.875  11.389 -0.3219 -0.3319 -0.7984
 3251SOL    HW121386   1.667   2.810  11.455 -2.2211  2.5037  1.3146
 3251SOL    HW221387   1.783   2.889  11.407 -0.5441  0.9701 -0.6538
 3252SOL     OW21388   3.380   3.212  14.928  0.0245  0.8585  0.4418
 3252SOL    HW121389   3.397   3.195  14.835  0.1935 -0.0826  0.6463
 3252SOL    HW221390   3.306   3.152  14.928  0.1995  0.6400 -1.3703
 3253SOL     OW21391   2.428   2.702   5.875 -0.3237  0.4152 -0.2233
 3253SOL    HW121392   2.363   2.752   5.924  0.9270  1.5643  0.2361
 3253SOL    HW221393   2.377   2.669   5.801  0.3311 -0.6107 -0.2264
 3254SOL     OW21394   1.766   3.627   7.455 -0.1778  0.2314  0.0992
 3254SOL    HW121395   1.785   3.659   7.543  0.3503 -0.7014  0.3279
 3254SOL    HW221396   1.826   3.552   7.453 -1.5288 -0.8338 -0.4700
 3255SOL     OW21397   1.805   0.417   4.964 -0.0985 -0.4851 -0.2555
 3255SOL    HW121398   1.744   0.344   4.950 -1.1444  0.2805  0.3207
 3255SOL    HW221399   1.877   0.394   4.905  0.9050 -0.8011  1.1148
 3256SOL     OW21400   3.733   1.115   9.870 -0.2771  0.3195 -0.8884
 3256SOL    HW121401   3.822   1.088   9.849 -1.2916 -0.1833 -4.4723
 3256SOL    HW221402   3.740   1.124   9.965  0.2798  0.3851 -0.9370
 3257SOL     OW21403   2.080   3.500   4.371 -0.1118 -1.1594 -0.0228
 3257SOL    HW121404   2.019   3.516   4.444  3.1047 -2.0559  2.8740
 3257SOL    HW221405   2.151   3.564   4.381 -0.1312 -1.0716 -0.4770
 3258SOL     OW21406   0.074   1.020   4.693  0.5585 -0.1123 -0.0110
 3258SOL    HW121407   0.153   1.021   4.747 -1.3246 -0.7414  2.7175
 3258SOL    HW221408   0.095   1.088   4.629 -0.0786 -0.6727 -0.8126
 3259SOL     OW21409   3.441   1.948   6.031  0.2425 -0.2320  0.1198
 3259SOL    HW121410   3.417   1.938   6.123  0.1772 -1.8357 -0.0870
 3259SOL    HW221411   3.505   1.877   6.024 -0.7005 -1.1013  0.3276
 3260SOL     OW21412   4.396   3.344   2.451  0.3375 -0.2937  0.0851
 3260SOL    HW121413   4.354   3.280   2.509  0.8190 -0.2087  0.5256
 3260SOL    HW221414   4.454   3.303   2.386  0.5485  1.3456 -0.7475
 3261SOL     OW21415   0.430   3.825   9.657  0.3467  0.3140  0.1984
 3261SOL    HW121416   0.395   3.913   9.644  0.1578  0.2228  0.0994
 3261SOL    HW221417   0.502   3.854   9.714  0.6859 -0.5950  0.2401
 3262SOL     OW21418   0.012   1.320  11.788 -0.0405  0.1452 -0.2239
 3262SOL    HW121419   0.023   1.227  11.768  2.2921  0.9870 -2.8972
 3262SOL    HW221420   0.085   1.322  11.850  2.1122  1.9379 -2.8189
 3263SOL     OW21421   1.902   1.306  15.834 -0.1358  0.3462 -0.0434
 3263SOL    HW121422   1.953   1.287  15.755 -0.2974  0.8828 -0.2811
 3263SOL    HW221423   1.974   1.314  15.896 -1.2168 -1.2677  1.4040
 3264SOL     OW21424   0.963   4.404   5.834 -0.2166 -0.5370  0.0104
 3264SOL    HW121425   0.904   4.369   5.900 -0.2213 -0.4429  0.0554
 3264SOL    HW221426   0.989   4.323   5.789 -0.5654 -0.8681  0.4063
 3265SOL     OW21427   1.109   3.715  14.060 -0.3888 -0.1100  0.1290
 3265SOL    HW121428   1.025   3.717  14.012 -0.8610 -0.9480  0.9296
 3265SOL    HW221429   1.152   3.631  14.048  1.1583  0.8635 -1.0862
 3266SOL     OW21430   4.583   0.076  12.921 -0.0378 -0.3585 -0.0372
 3266SOL    HW121431   4.669   0.047  12.954 -0.9671 -3.3635 -0.2438
 3266SOL    HW221432   4.527   0.010  12.961  1.5261 -1.9037 -0.3988
 3267SOL     OW21433   3.440   3.770   5.279 -0.1295  0.1277  0.3931
 3267SOL    HW121434   3.412   3.756   5.188  3.1373 -1.5656 -0.3637
 3267SOL    HW221435   3.533   3.767   5.254 -0.8245 -5.6554 -1.5573
 3268SOL     OW21436   3.006   1.130   9.932 -0.1403  0.4447 -0.6373
 3268SOL    HW121437   2.948   1.054   9.935 -0.0915  0.5067  2.6681
 3268SOL    HW221438   2.939   1.196   9.915  0.9740  1.1968 -2.0219
 3269SOL     OW21439   3.630   1.187   4.165  0.4753 -0.0740 -0.4778
 3269SOL    HW121440   3.542   1.225   4.163 -0.1959 -1.6496 -1.8033
 3269SOL    HW221441   3.622   1.111   4.223  1.4389  0.5709  0.5017
 3270SOL     OW21442   2.175   2.055  12.658  0.2292 -0.6966  0.3029
 3270SOL    HW121443   2.243   1.993  12.629  1.3315 -0.0122  1.4285
 3270SOL    HW221444   2.226   2.133  12.677 -0.6989 -0.5215  2.0388
 3271SOL     OW21445   0.601   1.702  16.647 -0.2232  0.1732  0.3570
 3271SOL    HW121446   0.508   1.687  16.663 -0.2362 -1.8196 -1.6141
 3271SOL    HW221447   0.600   1.796  16.628 -0.9216 -0.2580 -1.7018
 3272SOL     OW21448   1.900   0.015   3.698 -0.7809  0.0053 -0.3695
 3272SOL    HW121449   1.898   4.715   3.786  1.1413 -0.5980 -0.6051
 3272SOL    HW221450   1.830   0.079   3.698 -1.1316 -0.3856 -1.2005
 3273SOL     OW21451   2.938   3.026   7.246 -0.3565  0.3928  0.1377
 3273SOL    HW121452   2.922   2.986   7.160  1.3347  1.2826 -0.6070
 3273SOL    HW221453   3.022   3.073   7.239  0.2204 -0.6118  0.3229
 3274SOL     OW21454   3.795   1.419   1.710  0.3966 -0.5032 -0.1198
 3274SOL    HW121455   3.857   1.437   1.781  0.2351  1.6523 -0.4977
 3274SOL    HW221456   3.802   1.495   1.652  0.6319 -1.2532 -1.0639
 3275SOL     OW21457   3.154   3.573   8.216  0.3843  0.2630  0.1785
 3275SOL    HW121458   3.140   3.479   8.199  1.3373 -0.4697  3.3623
 3275SOL    HW221459   3.149   3.570   8.312 -2.4709 -0.1822  0.0234
 3276SOL     OW21460   0.320   0.989   6.966 -0.3473  0.1555 -0.7274
 3276SOL    HW121461   0.271   0.909   6.947  0.7857 -1.1643  1.8859
 3276SOL    HW221462   0.396   0.988   6.907 -0.8576  1.0990 -1.3979
 3277SOL     OW21463   4.348   1.863   8.162  0.0424  0.6264  0.1416
 3277SOL    HW121464   4.348   1.821   8.248  1.2187 -0.2533 -0.2905
 3277SOL    HW221465   4.338   1.789   8.102  0.3517  0.1422  0.6919
 3278SOL     OW21466   2.955   3.994   4.972  0.1017 -0.2625  0.1755
 3278SOL    HW121467   2.891   4.008   5.042 -0.2329  1.2402 -0.4153
 3278SOL    HW221468   2.907   3.932   4.917 -0.3232  2.8248 -2.9751
 3279SOL     OW21469   0.732   1.346   3.476  0.7030 -0.3878 -0.0600
 3279SOL    HW121470   0.658   1.315   3.425  0.1037  1.0461 -0.0571
 3279SOL    HW221471   0.713   1.434   3.508 -2.6175 -0.9494 -0.5309
 3280SOL     OW21472   4.084   2.702   6.598  0.1785 -0.0640 -0.0163
 3280SOL    HW121473   4.022   2.771   6.623  0.3310  0.8215 -2.1200
 3280SOL    HW221474   4.128   2.688   6.682  2.4041  0.5986 -1.0642
 3281SOL     OW21475   0.467   3.234   6.909  0.3512 -0.0249 -0.1663
 3281SOL    HW121476   0.442   3.294   6.840 -0.2502 -0.9160 -0.7167
 3281SOL    HW221477   0.520   3.293   6.962 -2.7509  3.1187 -0.6187
 3282SOL     OW21478   3.615   2.939  12.343  0.2486  0.0714  0.0269
 3282SOL    HW121479   3.702   2.954  12.379 -0.6558 -1.8969  2.9942
 3282SOL    HW221480   3.589   3.025  12.310  1.5854  1.0113  1.4266
 3283SOL     OW21481   3.178   3.793  16.013  0.1130  0.1112 -0.5676
 3283SOL    HW121482   3.086   3.772  16.005 -0.2676  1.4481  0.2747
 3283SOL    HW221483   3.194   3.825  15.924  3.9450 -3.2364 -1.0638
 3284SOL     OW21484   1.652   0.595   9.854 -0.2842 -0.0474 -0.3845
 3284SOL    HW121485   1.707   0.569   9.780  3.3366 -1.6564  2.8369
 3284SOL    HW221486   1.584   0.531   9.837 -0.3089 -0.4486  1.1659
 3285SOL     OW21487   1.554   4.505  15.255  0.3373  0.0689  0.2332
 3285SOL    HW121488   1.494   4.579  15.245  1.7801  1.1337 -0.5326
 3285SOL    HW221489   1.626   4.554  15.295  0.7166  0.4801 -0.9752
 3286SOL     OW21490   3.322   2.474   3.694 -0.3192  0.0696  0.2509
 3286SOL    HW121491   3.367   2.400   3.735  2.0518  0.1308 -2.2057
 3286SOL    HW221492   3.232   2.443   3.705 -0.1823 -0.0159  1.1517
 3287SOL     OW21493   2.409   2.846   6.495 -0.5222 -0.6357 -0.0133
 3287SOL    HW121494   2.390   2.932   6.459  2.0951  0.4983  1.3184
 3287SOL    HW221495   2.409   2.795   6.414 -1.9761 -0.6319 -0.0179
 3288SOL     OW21496   4.186   3.361  13.502 -0.0748 -0.2709  1.0407
 3288SOL    HW121497   4.159   3.325  13.418  0.2898  1.3501  0.2276
 3288SOL    HW221498   4.199   3.455  13.485  0.8593 -0.6809 -0.5275
 3289SOL     OW21499   3.172   0.545  14.581 -0.2432  0.0275 -0.4954
 3289SOL    HW121500   3.156   0.472  14.520  0.4358 -1.4988  1.1422
 3289SOL    HW221501   3.118   0.612  14.541  0.0322 -0.3564 -1.5115
 3290SOL     OW21502   0.051   3.765   3.028  0.3396  0.0628  0.0551
 3290SOL    HW121503   0.128   3.822   3.023 -0.7268  1.5879  1.2344
 3290SOL    HW221504   0.029   3.748   2.936 -0.7977  2.7495 -0.1466
 3291SOL     OW21505   2.852   2.413   5.606 -0.7445  0.8303  0.0061
 3291SOL    HW121506   2.784   2.475   5.580 -0.3887  1.3616  0.3588
 3291SOL    HW221507   2.917   2.420   5.537 -2.2412  0.9705 -1.3899
 3292SOL     OW21508   0.463   2.605   0.955  0.2590 -0.7083 -0.0870
 3292SOL    HW121509   0.552   2.639   0.970  1.1226 -2.6003 -0.9871
 3292SOL    HW221510   0.410   2.684   0.967  1.6048 -0.0872  1.9425
 3293SOL     OW21511   0.027   4.524  16.826 -0.2145 -0.9748  0.3495
 3293SOL    HW121512   4.679   4.496  16.854 -0.4836  0.0277  0.5268
 3293SOL    HW221513   0.084   4.494  16.896  0.2707  1.0668  0.8325
 3294SOL     OW21514   2.593   2.680   5.346 -0.1406 -0.1676  0.6535
 3294SOL    HW121515   2.669   2.672   5.287  0.3043  3.2371  0.7567
 3294SOL    HW221516   2.574   2.773   5.344 -1.4939 -0.3944  2.8482
 3295SOL     OW21517   0.832   2.713   1.936  0.4254 -0.4545 -0.1191
 3295SOL    HW121518   0.872   2.768   2.003 -3.1658  0.6550  1.0924
 3295SOL    HW221519   0.884   2.740   1.860  1.4257 -0.6582  0.4967
 3296SOL     OW21520   2.049   2.355   8.103 -0.3924  0.5007  0.2329
 3296SOL    HW121521   2.070   2.289   8.170  0.3549  1.0507  0.5402
 3296SOL    HW221522   1.964   2.385   8.135 -1.5389 -1.8011 -0.6500
 3297SOL     OW21523   3.291   4.438   6.471 -0.1817 -0.4444 -0.0470
 3297SOL    HW121524   3.246   4.430   6.387  1.0984 -3.0477 -0.4914
 3297SOL    HW221525   3.382   4.420   6.447  0.2056  0.0158  1.0738
 3298SOL     OW21526   2.281   3.205   1.663  0.3754 -0.2935  0.2041
 3298SOL    HW121527   2.188   3.225   1.649  0.5362 -0.3272 -0.9064
 3298SOL    HW221528   2.297   3.130   1.606 -2.8386  0.2776 -1.4657
 3299SOL     OW21529   0.837   0.608   3.759 -0.1235  0.0765  0.3345
 3299SOL    HW121530   0.747   0.608   3.725 -0.2733 -2.4506  0.7328
 3299SOL    HW221531   0.889   0.605   3.678 -0.4103  0.6813  0.1326
 3300SOL     OW21532   1.149   1.236  10.026 -0.5046 -0.3484 -0.0381
 3300SOL    HW121533   1.138   1.276  10.112  1.4848 -0.6693  0.3706
 3300SOL    HW221534   1.211   1.300   9.990  0.0896  0.1197  1.8081
 3301SOL     OW21535   4.406   3.987  15.617  0.1672  0.3690  0.1616
 3301SOL    HW121536   4.339   3.991  15.685 -0.3466 -0.7491 -0.2861
 3301SOL    HW221537   4.426   3.893  15.611 -1.9036  0.0220 -1.3210
 3302SOL     OW21538   3.777   4.434   2.578 -0.5913  0.3725 -0.5000
 3302SOL    HW121539   3.820   4.451   2.661 -0.6960 -0.0118 -0.3676
 3302SOL    HW221540   3.685   4.431   2.607 -0.7582 -1.5359 -1.2194
 3303SOL     OW21541   3.734   1.182   5.965  0.2787  0.2361 -0.3033
 3303SOL    HW121542   3.803   1.167   6.030 -0.6382 -0.9094  0.3838
 3303SOL    HW221543   3.661   1.159   6.021 -0.5708  1.7493 -0.7729
 3304SOL     OW21544   0.078   1.985   9.466 -0.0196 -0.2357 -0.3231
 3304SOL    HW121545   0.132   1.907   9.453 -1.0935 -1.3233  1.8047
 3304SOL    HW221546   4.731   1.946   9.479 -0.1820  0.2067 -0.0523
 3305SOL     OW21547   0.144   3.446  13.151  0.6024  0.1054  0.2772
 3305SOL    HW121548   0.205   3.468  13.080 -1.6006  0.0716 -1.6493
 3305SOL    HW221549   0.154   3.350  13.150 -0.7881 -0.0252 -1.1605
 3306SOL     OW21550   4.105   0.811   0.073 -0.1497 -0.9345 -0.0481
 3306SOL    HW121551   4.012   0.791   0.079 -0.3358  0.4197  1.4283
 3306SOL    HW221552   4.145   0.747   0.131 -1.2850 -2.7209 -1.2312
 3307SOL     OW21553   1.397   0.474   9.772 -0.1566 -0.0556 -0.2677
 3307SOL    HW121554   1.388   0.546   9.710  0.6543 -0.5945 -1.0153
 3307SOL    HW221555   1.384   0.405   9.706 -0.1531  0.3472 -0.6854
 3308SOL     OW21556   3.704   2.794   7.290 -0.0443  0.0034 -0.3163
 3308SOL    HW121557   3.731   2.827   7.375  0.3857  1.9326 -1.1986
 3308SOL    HW221558   3.684   2.878   7.248 -0.4524 -0.3864 -0.8937
 3309SOL     OW21559   2.086   1.973   4.573 -0.6553  0.0495  0.2423
 3309SOL    HW121560   2.054   2.062   4.588 -2.5177 -0.6477  0.4199
 3309SOL    HW221561   2.005   1.926   4.595 -2.2805  1.8620 -1.8198
 3310SOL     OW21562   2.193   4.615   0.134 -0.4744  0.3531 -0.5216
 3310SOL    HW121563   2.190   4.698   0.181 -0.6779  0.0072  0.0784
 3310SOL    HW221564   2.199   4.557   0.210  1.7524  0.4889 -0.6094
 3311SOL     OW21565   2.397   4.113   7.166 -0.0815 -0.2424 -0.0975
 3311SOL    HW121566   2.424   4.026   7.137 -0.2712 -0.1636 -0.5071
 3311SOL    HW221567   2.449   4.133   7.244  0.3223 -0.2663 -0.3586
 3312SOL     OW21568   3.003   2.207  15.660  0.0000  0.3070 -0.2601
 3312SOL    HW121569   3.008   2.151  15.737 -0.6417  1.2033  0.4331
 3312SOL    HW221570   3.092   2.243  15.665 -0.0219  0.5980 -2.0778
 3313SOL     OW21571   2.784   3.404   7.992  0.3686 -0.2593  0.0198
 3313SOL    HW121572   2.785   3.431   7.901  0.8202 -0.8540 -0.1537
 3313SOL    HW221573   2.692   3.413   8.020  0.7128 -0.3795  1.1999
 3314SOL     OW21574   0.994   3.607   9.549 -0.3592 -0.0874 -0.4723
 3314SOL    HW121575   0.952   3.531   9.509  0.6114 -0.8858  0.0511
 3314SOL    HW221576   0.939   3.676   9.511  1.3002  1.3096 -0.3399
 3315SOL     OW21577   3.944   0.662  17.273 -0.6306  0.1661 -0.1650
 3315SOL    HW121578   3.923   0.739  17.219  2.2674  0.0671 -1.4260
 3315SOL    HW221579   4.010   0.622  17.217 -2.4281  0.6172 -2.6196
 3316SOL     OW21580   0.420   2.694   2.590  0.5087 -0.2696  0.1876
 3316SOL    HW121581   0.465   2.764   2.543  0.5604 -0.3525  0.1154
 3316SOL    HW221582   0.344   2.739   2.628 -0.1706 -1.5355  0.3212
 3317SOL     OW21583   2.282   2.989   5.088 -0.1190  0.6579 -0.3870
 3317SOL    HW121584   2.197   3.010   5.127 -1.2958  1.3360 -3.3044
 3317SOL    HW221585   2.255   2.959   5.001  1.4044 -0.3236 -0.5363
 3318SOL     OW21586   1.997   3.236  15.308 -0.1694  0.1338 -0.2236
 3318SOL    HW121587   2.047   3.155  15.313 -2.6095 -1.4275 -1.3499
 3318SOL    HW221588   2.062   3.300  15.277  1.5510 -1.0100  1.0237
 3319SOL     OW21589   0.393   2.557  16.680  0.0567  0.3237 -0.6363
 3319SOL    HW121590   0.472   2.600  16.714 -1.3208  2.4902 -0.1698
 3319SOL    HW221591   0.374   2.504  16.757  0.0763 -1.1185 -1.6113
 3320SOL     OW21592   4.215   0.321   4.319  0.9810  0.0350  0.9096
 3320SOL    HW121593   4.131   0.358   4.348 -0.5609 -0.5556 -2.8112
 3320SOL    HW221594   4.237   0.373   4.241  1.0838 -0.7667  0.4016
 3321SOL     OW21595   2.165   2.587   4.287 -0.4911 -0.5964 -0.0787
 3321SOL    HW121596   2.179   2.562   4.196  0.2586 -1.3304  0.2384
 3321SOL    HW221597   2.247   2.633   4.305 -1.5022 -0.1022  3.2750
 3322SOL     OW21598   2.566   0.307   8.092  0.0458 -0.1497  0.2840
 3322SOL    HW121599   2.623   0.363   8.145 -1.0336 -0.1617  1.4506
 3322SOL    HW221600   2.617   0.226   8.086  0.7797  0.2579  1.0085
 3323SOL     OW21601   1.598   1.281  10.143 -0.2225  0.1032 -0.3512
 3323SOL    HW121602   1.560   1.195  10.127  0.9989 -0.2155 -1.4748
 3323SOL    HW221603   1.519   1.336  10.143 -0.7453 -0.6540 -1.0842
 3324SOL     OW21604   3.163   4.396   2.855 -0.3384  0.3778  0.4590
 3324SOL    HW121605   3.186   4.411   2.947 -2.1025  0.6992  0.8507
 3324SOL    HW221606   3.166   4.486   2.823 -2.6046 -0.1153 -1.1365
 3325SOL     OW21607   1.718   2.854   9.610 -0.3464  0.5741  0.0271
 3325SOL    HW121608   1.804   2.869   9.649  0.9878 -1.6415 -2.0994
 3325SOL    HW221609   1.671   2.898   9.682 -0.8292 -0.2574  0.2247
 3326SOL     OW21610   0.443   2.016  12.095  0.0576  0.6865  0.3244
 3326SOL    HW121611   0.381   1.945  12.078  1.7199 -0.9913  1.2157
 3326SOL    HW221612   0.427   2.024  12.189 -2.7792  1.8014 -0.2428
 3327SOL     OW21613   4.725   1.593   8.258 -0.4589  0.0587  0.2933
 3327SOL    HW121614   4.657   1.526   8.250  0.0371 -0.2768 -1.0929
 3327SOL    HW221615   4.714   1.617   8.349  2.0394 -0.0376  0.6204
 3328SOL     OW21616   3.123   0.952   0.931  0.4488  0.1645 -0.1525
 3328SOL    HW121617   3.127   1.020   0.998 -0.2012 -0.1399  0.1974
 3328SOL    HW221618   3.141   0.876   0.987 -0.3902 -0.2312 -0.4214
 3329SOL     OW21619   3.265   2.924   7.024 -0.0979 -0.0286 -0.0393
 3329SOL    HW121620   3.277   2.859   6.955  0.8604  2.0015 -1.7706
 3329SOL    HW221621   3.197   2.981   6.987  1.6553  2.0457 -0.0481
 3330SOL     OW21622   2.356   3.824   4.829  0.6142 -0.0989 -0.3538
 3330SOL    HW121623   2.347   3.889   4.899 -0.5825  1.2355 -1.7602
 3330SOL    HW221624   2.427   3.863   4.778 -0.4801  2.7661  0.3288
 3331SOL     OW21625   1.460   1.258   1.845  0.1585  0.0651  0.0678
 3331SOL    HW121626   1.457   1.184   1.905  0.8589  1.8816  2.3435
 3331SOL    HW221627   1.455   1.329   1.908  0.4312  1.1389 -1.1129
 3332SOL     OW21628   4.048   0.095   4.196  0.4258  0.1355 -0.2556
 3332SOL    HW121629   4.010   0.107   4.109  0.6200 -2.3253 -0.6667
 3332SOL    HW221630   4.129   0.049   4.173  1.3491  1.8780 -0.4956
 3333SOL     OW21631   3.132   1.567   5.104 -0.3019  0.0229  0.0306
 3333SOL    HW121632   3.162   1.497   5.046  1.1702  2.3169 -1.9541
 3333SOL    HW221633   3.037   1.552   5.098 -0.1561 -0.6059 -0.7546
 3334SOL     OW21634   3.527   1.845   4.771 -0.2712 -0.3586 -0.3583
 3334SOL    HW121635   3.464   1.804   4.831 -0.3820  0.5311  0.1369
 3334SOL    HW221636   3.609   1.830   4.818 -0.4180 -3.0174 -0.9582
 3335SOL     OW21637   0.787   1.984   6.864 -0.1654 -0.0614 -0.2507
 3335SOL    HW121638   0.842   1.964   6.940 -3.6475  1.1299  2.5838
 3335SOL    HW221639   0.791   1.898   6.822 -0.0266  0.0933 -0.5526
 3336SOL     OW21640   4.687   4.380  13.925  0.5548 -0.1679 -0.0508
 3336SOL    HW121641   4.675   4.286  13.942  1.5120 -0.4358 -0.8483
 3336SOL    HW221642   0.028   4.372  13.874  1.1547  1.8476  0.5919
 3337SOL     OW21643   1.407   3.405  10.477  0.4685  0.0950 -0.2917
 3337SOL    HW121644   1.363   3.471  10.422  1.1014  1.8422  1.3150
 3337SOL    HW221645   1.465   3.358  10.416 -0.9356 -0.6641 -1.0483
 3338SOL     OW21646   4.326   3.125  12.430 -0.1155  0.1978 -0.1560
 3338SOL    HW121647   4.364   3.084  12.353 -1.4378  0.0072 -0.7089
 3338SOL    HW221648   4.364   3.060  12.489 -0.8946  1.8452  2.1958
 3339SOL     OW21649   4.032   0.697   1.145 -0.3254 -0.0993 -0.1509
 3339SOL    HW121650   4.097   0.680   1.214  0.0022  1.9766  0.0461
 3339SOL    HW221651   4.008   0.608   1.118 -1.6163  1.4092 -3.7900
 3340SOL     OW21652   2.561   2.090   1.065  0.6972 -0.3818 -0.5093
 3340SOL    HW121653   2.630   2.149   1.095  0.4334 -0.5109  0.3805
 3340SOL    HW221654   2.559   2.118   0.974  1.8375  1.6824  0.0936
 3341SOL     OW21655   1.074   0.540  11.562  0.8738 -0.9649  0.4564
 3341SOL    HW121656   1.067   0.539  11.467  2.5931  0.0958  0.3058
 3341SOL    HW221657   1.134   0.615  11.566 -0.8957  0.4678  0.1977
 3342SOL     OW21658   4.178   1.375   5.110 -0.7573  0.3049  0.3891
 3342SOL    HW121659   4.154   1.445   5.049 -0.9266  1.3899  1.6955
 3342SOL    HW221660   4.155   1.302   5.053 -0.5386 -0.1435  0.8792
 3343SOL     OW21661   4.025   1.055   9.819  0.3919 -0.1874  0.9379
 3343SOL    HW121662   4.057   0.967   9.838 -0.5206 -0.4070  1.4293
 3343SOL    HW221663   4.107   1.104   9.811  0.2270 -0.1852 -0.6869
 3344SOL     OW21664   1.518   1.686   5.396  0.7984 -0.0752  0.3973
 3344SOL    HW121665   1.438   1.653   5.438  1.0457  0.0093  0.9290
 3344SOL    HW221666   1.580   1.682   5.468  0.9896  0.5544  0.2681
 3345SOL     OW21667   3.778   3.560   7.463 -0.1776  0.0689 -0.7190
 3345SOL    HW121668   3.781   3.549   7.558 -1.1094 -1.1526 -0.8291
 3345SOL    HW221669   3.811   3.650   7.460  0.6125 -0.1535  1.1292
 3346SOL     OW21670   1.786   1.204  10.818 -0.3110  0.7429 -0.5408
 3346SOL    HW121671   1.790   1.298  10.802 -0.0674  0.6794 -0.8582
 3346SOL    HW221672   1.694   1.184  10.837 -0.2096  0.4058 -0.4082
 3347SOL     OW21673   3.889   0.318  15.230  0.2319 -0.2256  0.2570
 3347SOL    HW121674   3.821   0.303  15.164  0.7998 -2.9254  0.2868
 3347SOL    HW221675   3.951   0.249  15.207 -2.1633 -2.4049  0.2985
 3348SOL     OW21676   0.738   0.599   7.609  0.6720  0.0261  0.6796
 3348SOL    HW121677   0.813   0.540   7.602  0.8031  0.4512 -1.5418
 3348SOL    HW221678   0.666   0.538   7.592  1.6777 -0.1362 -3.1066
 3349SOL     OW21679   2.574   1.580   9.486 -0.6466 -0.5554  0.1435
 3349SOL    HW121680   2.537   1.553   9.402 -1.6338  3.0030 -0.5922
 3349SOL    HW221681   2.667   1.572   9.465 -0.4487  1.1308  0.3586
 3350SOL     OW21682   1.768   3.190  12.241 -0.0908  0.6004 -0.1730
 3350SOL    HW121683   1.688   3.241  12.251 -1.0115 -0.7938 -0.4047
 3350SOL    HW221684   1.757   3.129  12.167  3.4703 -1.7749  1.2370
 3351SOL     OW21685   0.881   4.653   2.925 -0.8615  0.6791 -0.0373
 3351SOL    HW121686   0.814   4.617   2.867  0.7958 -1.3952 -0.7111
 3351SOL    HW221687   0.881   4.593   2.999  1.7980  0.5566 -0.1178
 3352SOL     OW21688   2.679   1.636   1.666 -0.0437  0.0954 -0.5837
 3352SOL    HW121689   2.647   1.554   1.705 -0.9076  1.2068  1.0386
 3352SOL    HW221690   2.740   1.675   1.728 -0.2847 -0.7936  0.2112
 3353SOL     OW21691   0.923   1.843   3.237 -0.0182 -0.4002  0.0369
 3353SOL    HW121692   0.830   1.861   3.225  0.0427  0.9328  1.6412
 3353SOL    HW221693   0.944   1.917   3.293  0.3714  0.0824 -0.7492
 3354SOL     OW21694   3.087   1.429   2.514  0.3052  0.4033  0.2202
 3354SOL    HW121695   3.056   1.512   2.548  1.1484 -0.2446  2.5456
 3354SOL    HW221696   3.071   1.433   2.420  0.1903 -3.8336  0.0405
 3355SOL     OW21697   2.933   2.991   5.803 -0.5394 -0.1910  0.5157
 3355SOL    HW121698   3.007   2.990   5.864  0.2260  2.3189 -0.3657
 3355SOL    HW221699   2.886   3.060   5.849 -1.3144 -0.5802  0.3063
 3356SOL     OW21700   3.943   1.094   4.006  0.0179  0.0339 -0.0406
 3356SOL    HW121701   3.977   1.165   3.952  0.8741 -1.3870 -1.3807
 3356SOL    HW221702   3.872   1.066   3.948  1.9939  1.0105 -2.9580
 3357SOL     OW21703   0.835   0.416   9.649  0.1492  0.0362  0.3805
 3357SOL    HW121704   0.805   0.363   9.722 -0.1644 -2.1004 -1.2761
 3357SOL    HW221705   0.877   0.341   9.608 -2.4068 -1.0596 -0.2453
 3358SOL     OW21706   0.774   3.661   3.507 -0.5964 -0.2049  0.4101
 3358SOL    HW121707   0.828   3.584   3.523 -1.7465 -1.2879 -0.8165
 3358SOL    HW221708   0.770   3.702   3.593  2.8629  1.3830 -0.1768
 3359SOL     OW21709   1.347   0.187   5.451 -0.3619 -0.5422 -0.0128
 3359SOL    HW121710   1.320   0.272   5.415 -1.2224  0.5735  3.2533
 3359SOL    HW221711   1.363   0.139   5.369 -0.8527  0.4901 -0.7155
 3360SOL     OW21712   0.230   0.492   7.416  0.4917  0.5025  0.1053
 3360SOL    HW121713   0.257   0.454   7.500  1.6259  0.8629 -0.0910
 3360SOL    HW221714   0.244   0.584   7.438 -1.2645  0.7919 -0.0129
 3361SOL     OW21715   3.278   0.834   3.284  0.0722 -0.4865 -0.0024
 3361SOL    HW121716   3.342   0.903   3.303 -1.6903  0.6961  1.7094
 3361SOL    HW221717   3.311   0.787   3.208  0.9415  0.4765 -0.2079
 3362SOL     OW21718   3.290   0.169   8.689 -0.1063  0.1141  0.1481
 3362SOL    HW121719   3.328   0.097   8.739  0.1451  0.6335  0.6990
 3362SOL    HW221720   3.214   0.122   8.655  0.7654 -0.2827 -1.2702
 3363SOL     OW21721   3.339   0.514   1.537  0.1909  0.0346  0.0078
 3363SOL    HW121722   3.423   0.550   1.565  0.4250 -1.0203  0.6576
 3363SOL    HW221723   3.370   0.458   1.466 -0.6411  0.7861 -0.9543
 3364SOL     OW21724   1.030   1.476   9.307 -0.6527 -0.1157  0.1362
 3364SOL    HW121725   1.025   1.430   9.223 -1.1450  0.1875  0.0019
 3364SOL    HW221726   1.096   1.544   9.294  1.1600 -1.7385  0.7794
 3365SOL     OW21727   0.216   3.811   3.602  0.1222 -0.7720 -0.3421
 3365SOL    HW121728   0.296   3.783   3.648 -1.0322 -0.6362  1.7455
 3365SOL    HW221729   0.260   3.866   3.537 -0.7937 -1.3679 -1.4780
 3366SOL     OW21730   0.206   0.709  11.412  0.0900  0.4780 -0.0742
 3366SOL    HW121731   0.257   0.663  11.346 -1.6937 -1.3089 -0.2150
 3366SOL    HW221732   0.275   0.773  11.430  2.6188 -2.0173 -1.1116
 3367SOL     OW21733   2.892   2.532   8.566 -0.1340 -0.0703  0.6820
 3367SOL    HW121734   2.902   2.585   8.487  0.0738  0.2049  0.8930
 3367SOL    HW221735   2.950   2.460   8.541 -1.8325 -0.8871 -0.8924
 3368SOL     OW21736   4.058   0.511   5.126  0.3594  0.4300 -0.1096
 3368SOL    HW121737   4.125   0.444   5.141 -0.8355 -0.4276  1.3362
 3368SOL    HW221738   4.082   0.583   5.185  2.3468  0.8654 -1.4391
 3369SOL     OW21739   3.078   3.348   6.511  0.3610 -0.5060 -0.0619
 3369SOL    HW121740   3.051   3.406   6.582 -1.7142  0.5110 -1.7107
 3369SOL    HW221741   3.155   3.393   6.478  0.7438 -0.0855  1.3822
 3370SOL     OW21742   4.167   2.823   7.763  0.1778 -0.1094 -0.0676
 3370SOL    HW121743   4.135   2.883   7.830 -0.0236  0.4029 -0.6176
 3370SOL    HW221744   4.082   2.784   7.742 -0.5642  0.5383  1.7191
 3371SOL     OW21745   1.064   2.439   4.432 -0.4925  0.2869 -0.3687
 3371SOL    HW121746   0.985   2.430   4.380  0.5098 -1.2154 -1.6558
 3371SOL    HW221747   1.084   2.346   4.447  0.4098  0.7359  1.1992
 3372SOL     OW21748   2.832   1.225   9.636 -0.9809 -0.2807  0.1924
 3372SOL    HW121749   2.802   1.161   9.700 -0.7241 -2.0777 -1.5043
 3372SOL    HW221750   2.832   1.179   9.552  0.8424  0.9698 -0.4953
 3373SOL     OW21751   3.135   0.777  17.034 -0.3699  0.4581 -0.1681
 3373SOL    HW121752   3.056   0.831  17.028 -0.4007  0.6020  1.7672
 3373SOL    HW221753   3.170   0.830  17.105  3.2159 -1.8104 -0.2355
 3374SOL     OW21754   1.093   4.534  12.707  0.7220 -0.7662 -0.3177
 3374SOL    HW121755   1.038   4.574  12.640 -0.5470 -3.5261 -0.9403
 3374SOL    HW221756   1.034   4.468  12.744 -0.4481 -0.0401 -0.8907
 3375SOL     OW21757   3.171   3.111   1.630  0.7741 -0.3812  0.6057
 3375SOL    HW121758   3.092   3.119   1.576  1.0701  1.8632  0.5318
 3375SOL    HW221759   3.191   3.019   1.614 -1.5427 -0.7165 -0.3992
 3376SOL     OW21760   3.964   2.459   0.776 -0.2245  0.0438  0.0863
 3376SOL    HW121761   3.935   2.513   0.703  2.3413  0.1136 -0.8583
 3376SOL    HW221762   3.883   2.425   0.814 -0.9097 -0.4583 -1.8307
 3377SOL     OW21763   0.513   3.161  17.421  0.8067  0.1149  0.2684
 3377SOL    HW121764   0.497   3.104  17.346  2.1490 -0.3960  0.3557
 3377SOL    HW221765   0.597   3.193  17.386  0.5047 -0.0514 -0.6012
 3378SOL     OW21766   4.260   4.061   5.777 -0.4631  0.4815  0.3973
 3378SOL    HW121767   4.173   4.059   5.736  0.0894 -0.1534 -0.7540
 3378SOL    HW221768   4.299   3.981   5.742  1.3643  0.7085  1.9081
 3379SOL     OW21769   3.944   0.630  14.034  0.3881 -0.3478 -0.0374
 3379SOL    HW121770   3.950   0.561  14.100  0.6900 -1.1280 -0.8832
 3379SOL    HW221771   4.000   0.593  13.965  0.4461  0.1652 -0.2628
 3380SOL     OW21772   1.400   3.690  12.726 -0.3873 -0.2648 -0.2576
 3380SOL    HW121773   1.419   3.635  12.802 -3.8296 -1.5102 -0.3030
 3380SOL    HW221774   1.430   3.779  12.743  0.1985 -0.8087  1.5420
 3381SOL     OW21775   3.651   2.334   2.740  0.2179  0.3620 -0.2911
 3381SOL    HW121776   3.715   2.403   2.718 -0.0680 -0.0997 -2.5542
 3381SOL    HW221777   3.623   2.356   2.829 -0.7364  1.1200 -0.7744
 3382SOL     OW21778   0.121   2.989   0.494 -0.7541 -0.4503 -0.3860
 3382SOL    HW121779   0.172   2.911   0.515  0.0875  0.0464 -0.5772
 3382SOL    HW221780   0.153   3.054   0.556 -1.2824  1.2290 -1.8719
 3383SOL     OW21781   2.076   3.790   4.786  1.0073  0.6188 -0.4821
 3383SOL    HW121782   2.095   3.871   4.738  1.5335  1.3075  0.8754
 3383SOL    HW221783   2.164   3.778   4.823  2.6187  1.8880 -3.8952
 3384SOL     OW21784   0.099   1.545   4.517 -0.2192 -0.1371 -0.9201
 3384SOL    HW121785   0.065   1.458   4.496 -1.6901 -0.0019  0.9192
 3384SOL    HW221786   0.180   1.539   4.466 -0.9692 -0.1693 -2.1034
 3385SOL     OW21787   0.206   2.443   3.968 -0.0952 -0.3420 -0.4122
 3385SOL    HW121788   0.111   2.449   3.953  0.1381 -0.9690 -2.0772
 3385SOL    HW221789   0.216   2.478   4.057  1.5929  0.6216 -0.9852
 3386SOL     OW21790   3.005   1.314   1.411  0.2701 -0.6708 -0.2312
 3386SOL    HW121791   2.934   1.257   1.443 -0.1345 -0.2143 -0.3072
 3386SOL    HW221792   2.956   1.377   1.358 -0.5047  0.8546  2.2380
 3387SOL     OW21793   3.360   4.347  15.427 -0.6823  0.1710 -0.2246
 3387SOL    HW121794   3.302   4.307  15.363  1.0196 -0.7189 -1.2044
 3387SOL    HW221795   3.385   4.271  15.479  0.2800 -0.3331 -1.4043
 3388SOL     OW21796   2.525   1.448   7.576  0.0094  0.4233 -0.4500
 3388SOL    HW121797   2.431   1.434   7.583  0.4542 -0.8316  3.1332
 3388SOL    HW221798   2.526   1.541   7.551 -0.9659  0.5363 -0.0417
 3389SOL     OW21799   4.603   0.789   9.141 -0.2487 -0.3669 -0.0574
 3389SOL    HW121800   4.635   0.785   9.050  1.5600  0.8099  0.5135
 3389SOL    HW221801   4.628   0.701   9.166 -0.1221  0.4028  2.4647
 3390SOL     OW21802   3.746   2.882   5.747 -0.3977 -0.9329 -0.0065
 3390SOL    HW121803   3.668   2.936   5.735  0.5006  0.5611  0.9429
 3390SOL    HW221804   3.711   2.804   5.791  2.0494 -1.7041  0.6051
 3391SOL     OW21805   1.748   0.633   4.727  0.1230  0.2011 -0.1355
 3391SOL    HW121806   1.757   0.726   4.706  0.0757 -0.2449 -2.1144
 3391SOL    HW221807   1.839   0.605   4.719  0.2504  0.0127  2.1199
 3392SOL     OW21808   4.141   2.309  17.152  0.1300 -0.4136  0.1320
 3392SOL    HW121809   4.075   2.378  17.151 -0.3359 -0.8559  0.3441
 3392SOL    HW221810   4.160   2.292  17.060  0.7565 -0.0889  0.2049
 3393SOL     OW21811   0.581   1.790   5.738  0.0433 -0.0623  1.0533
 3393SOL    HW121812   0.548   1.788   5.827 -0.0251  1.2015  1.0606
 3393SOL    HW221813   0.530   1.718   5.700 -0.4982  1.0003 -0.2738
 3394SOL     OW21814   1.729   0.731  16.478 -0.7872 -0.0382  0.2779
 3394SOL    HW121815   1.725   0.784  16.398 -2.2946  0.0995  0.4461
 3394SOL    HW221816   1.728   0.795  16.549  3.2164 -1.7987  1.9440
 3395SOL     OW21817   2.617   2.707   2.607 -0.1946 -0.4896  0.0171
 3395SOL    HW121818   2.552   2.718   2.538 -1.5797  1.9559  1.7305
 3395SOL    HW221819   2.587   2.780   2.660  2.1241  1.3545 -1.2353
 3396SOL     OW21820   2.247   4.388   5.577  0.0906  0.5637 -0.5591
 3396SOL    HW121821   2.169   4.428   5.538  1.4584  2.6918 -1.1023
 3396SOL    HW221822   2.260   4.310   5.522 -0.2995 -0.6906  1.1431
 3397SOL     OW21823   1.270   1.216  15.295 -0.3413  0.8277  0.0409
 3397SOL    HW121824   1.316   1.268  15.229 -0.7351  1.0004 -0.1019
 3397SOL    HW221825   1.178   1.229  15.269 -0.0432 -2.3099 -2.5446
 3398SOL     OW21826   2.253   0.904   5.379  0.0493 -0.7165 -0.0709
 3398SOL    HW121827   2.225   0.829   5.431 -1.0154 -0.2511  0.0385
 3398SOL    HW221828   2.193   0.905   5.303 -0.4969 -1.1854  0.3518
 3399SOL     OW21829   3.697   2.126   7.818 -0.5169  0.5250  0.0709
 3399SOL    HW121830   3.644   2.046   7.815  0.9837 -0.4818  0.2551
 3399SOL    HW221831   3.674   2.170   7.736 -0.8994  3.1990  1.6280
 3400SOL     OW21832   2.169   4.662   7.944  0.4842  0.2937 -0.4336
 3400SOL    HW121833   2.098   4.722   7.967 -0.3112 -0.4890 -0.8171
 3400SOL    HW221834   2.233   4.719   7.902 -0.2592  0.0244 -1.9426
 3401SOL     OW21835   3.861   3.917   8.111 -0.5100  0.2699 -0.2146
 3401SOL    HW121836   3.881   3.984   8.177  0.3651  0.4742 -0.6873
 3401SOL    HW221837   3.893   3.839   8.157  1.7448  1.6667  0.6101
 3402SOL     OW21838   4.369   0.989  14.726  0.0875  0.4239 -0.3217
 3402SOL    HW121839   4.389   1.042  14.649  2.1852  2.7700  1.8317
 3402SOL    HW221840   4.277   1.013  14.728  0.1617  0.6888 -0.1384
 3403SOL     OW21841   0.621   0.664  13.151 -0.1351  0.6508 -0.2482
 3403SOL    HW121842   0.565   0.656  13.074 -0.9456 -0.3280  0.4447
 3403SOL    HW221843   0.558   0.697  13.215 -0.9862  3.3064 -2.4541
 3404SOL     OW21844   2.758   3.683   6.623 -0.1241 -0.1549  0.5368
 3404SOL    HW121845   2.822   3.693   6.693 -0.6436  0.6794  0.8900
 3404SOL    HW221846   2.724   3.594   6.634 -0.9407  0.3296  1.9040
 3405SOL     OW21847   2.433   4.319   5.274  0.0532 -0.7092  0.3362
 3405SOL    HW121848   2.410   4.269   5.352  0.7321 -1.7705 -0.1284
 3405SOL    HW221849   2.525   4.294   5.272  0.4123  0.5317  1.5762
 3406SOL     OW21850   4.049   1.194   1.826 -0.4390 -0.5103 -0.5309
 3406SOL    HW121851   4.101   1.184   1.746  1.5312  0.4086  0.6166
 3406SOL    HW221852   4.069   1.113   1.872  1.3348  2.2175  3.4651
 3407SOL     OW21853   1.176   3.109   6.793  0.2519 -0.3139  0.3801
 3407SOL    HW121854   1.161   3.184   6.735  0.2833  0.2772  1.1338
 3407SOL    HW221855   1.265   3.086   6.765  0.7532  2.6387 -0.4193
 3408SOL     OW21856   2.823   3.991   6.241 -0.3794  0.1546 -0.1854
 3408SOL    HW121857   2.915   3.967   6.227  0.0471  1.9350 -0.4025
 3408SOL    HW221858   2.821   4.079   6.203  0.5746 -0.1632 -0.9802
 3409SOL     OW21859   2.036   1.332   1.354  0.4672  0.6775  0.2316
 3409SOL    HW121860   2.089   1.403   1.318  0.2831  0.1438 -1.0696
 3409SOL    HW221861   1.999   1.368   1.435  4.6148  0.6012  2.1850
 3410SOL     OW21862   1.210   3.688  11.058 -0.3476  0.3742 -0.1280
 3410SOL    HW121863   1.182   3.598  11.077 -1.5371  0.4974 -1.3023
 3410SOL    HW221864   1.279   3.665  10.996  0.2837  2.1889 -0.0906
 3411SOL     OW21865   3.777   2.096   8.321  0.1615 -0.1366  0.2136
 3411SOL    HW121866   3.841   2.025   8.327 -0.1334 -0.5775 -1.7775
 3411SOL    HW221867   3.823   2.165   8.370 -0.4611 -1.1351  2.2216
 3412SOL     OW21868   3.733   2.473   8.210  0.2293 -0.9449  0.1724
 3412SOL    HW121869   3.693   2.473   8.296  2.6350  1.1781  1.3150
 3412SOL    HW221870   3.719   2.382   8.185  1.4178 -1.9127  3.0286
 3413SOL     OW21871   2.719   1.779   5.247 -0.1415 -0.3662 -0.3826
 3413SOL    HW121872   2.724   1.833   5.326  0.1248  0.7310 -1.1464
 3413SOL    HW221873   2.640   1.728   5.265  1.2004 -1.8469  1.3266
 3414SOL     OW21874   3.878   2.416  16.824  0.2422 -0.0199  0.1160
 3414SOL    HW121875   3.848   2.486  16.766  1.6457  0.1989 -0.3285
 3414SOL    HW221876   3.841   2.345  16.771  1.5900 -0.9372  0.4095
 3415SOL     OW21877   3.669   0.446  15.659  0.2414  0.4672 -0.3136
 3415SOL    HW121878   3.726   0.370  15.667  0.8280  0.8379 -0.9879
 3415SOL    HW221879   3.728   0.512  15.695  2.3667 -1.8747  0.4920
 3416SOL     OW21880   3.921   4.546   8.050  0.0693  0.3847 -0.3968
 3416SOL    HW121881   3.959   4.554   7.962 -0.1698  0.9274 -0.4526
 3416SOL    HW221882   3.831   4.527   8.021 -1.0367  0.7237  2.8757
 3417SOL     OW21883   3.098   2.188   0.272 -0.2712  0.2931  0.3311
 3417SOL    HW121884   3.185   2.194   0.233 -0.5811  0.8338 -0.2796
 3417SOL    HW221885   3.057   2.256   0.219  1.3530  0.9154 -0.1517
 3418SOL     OW21886   2.737   4.333   8.314 -0.2208  0.0039  0.7507
 3418SOL    HW121887   2.808   4.359   8.256  0.0583  0.7587  1.4269
 3418SOL    HW221888   2.737   4.409   8.372  1.2460  0.9926 -0.5584
 3419SOL     OW21889   0.397   2.589   1.627  0.3982  0.0658 -0.4204
 3419SOL    HW121890   0.332   2.534   1.583  0.7957 -0.1462 -0.7433
 3419SOL    HW221891   0.467   2.576   1.562 -0.7149  0.6473 -1.7383
 3420SOL     OW21892   2.860   2.097   2.827  0.5876 -0.6418 -0.0204
 3420SOL    HW121893   2.948   2.126   2.853  0.3035  0.5307 -0.3788
 3420SOL    HW221894   2.845   2.149   2.748  1.7397  1.5136  1.1765
 3421SOL     OW21895   3.389   2.694   8.307 -0.6263 -0.2599 -0.5888
 3421SOL    HW121896   3.340   2.634   8.364 -0.4567 -0.0612 -0.2373
 3421SOL    HW221897   3.324   2.764   8.308 -1.0004 -0.6264  0.1800
 3422SOL     OW21898   3.386   2.213   7.961  0.4724 -0.3122 -0.7596
 3422SOL    HW121899   3.415   2.290   7.911  2.3123 -1.5947 -1.6931
 3422SOL    HW221900   3.394   2.244   8.051  0.8163 -0.0170 -0.8894
 3423SOL     OW21901   2.557   1.280   4.308 -0.3899 -0.6960 -0.2243
 3423SOL    HW121902   2.484   1.330   4.343  0.4784  1.8660 -2.0658
 3423SOL    HW221903   2.511   1.200   4.284 -1.2058 -0.6477  1.1950
 3424SOL     OW21904   0.865   2.075  15.931  0.0496  0.0561 -0.5204
 3424SOL    HW121905   0.859   2.023  15.851  2.5151 -0.4911 -0.3388
 3424SOL    HW221906   0.959   2.060  15.942 -0.3021 -1.2090  0.8264
 3425SOL     OW21907   1.024   2.434   9.431 -0.3234 -0.3544  0.3145
 3425SOL    HW121908   1.060   2.519   9.403  1.3987 -1.5699 -1.1849
 3425SOL    HW221909   0.938   2.453   9.467 -0.6762  2.5305 -1.9742
 3426SOL     OW21910   3.642   3.773   3.914 -0.3414 -0.4756 -0.1286
 3426SOL    HW121911   3.727   3.817   3.921 -0.4316 -0.4547  0.8658
 3426SOL    HW221912   3.585   3.831   3.865 -0.7302  0.6870  1.6919
 3427SOL     OW21913   4.074   4.074   7.568 -0.5458 -0.3151 -0.1779
 3427SOL    HW121914   4.061   3.996   7.623 -0.2426 -1.3381 -1.5593
 3427SOL    HW221915   4.138   4.047   7.502 -0.3482 -0.8495  0.2289
 3428SOL     OW21916   0.051   1.744   8.970 -0.4131  0.1522  0.7060
 3428SOL    HW121917   0.065   1.833   9.004  0.1978 -0.0354  0.9453
 3428SOL    HW221918   4.708   1.721   9.013 -0.9443  0.2589 -0.2393
 3429SOL     OW21919   1.597   0.565   3.521  0.2497 -0.2368  0.3621
 3429SOL    HW121920   1.601   0.629   3.592  1.3334  0.9393 -0.7867
 3429SOL    HW221921   1.525   0.506   3.543  0.2709  0.5014  2.4024
 3430SOL     OW21922   3.742   0.006  16.124 -0.2592  0.1129  0.7459
 3430SOL    HW121923   3.703   0.087  16.090 -0.5842 -1.6856 -3.2765
 3430SOL    HW221924   3.687   4.723  16.199 -0.6274  0.2165  0.5081
 3431SOL     OW21925   1.232   2.016  14.118  0.2133 -0.1612 -0.4781
 3431SOL    HW121926   1.327   2.000  14.116  0.7104  2.7995  0.2153
 3431SOL    HW221927   1.230   2.080  14.047 -0.1493 -0.5827 -0.8522
 3432SOL     OW21928   3.957   0.506   2.266 -0.6034 -0.0244 -0.0816
 3432SOL    HW121929   3.969   0.449   2.190  1.0525 -1.0198  0.9214
 3432SOL    HW221930   3.933   0.587   2.220  1.5120  0.4713 -0.3396
 3433SOL     OW21931   3.759   3.983   4.665 -0.5265 -0.9067 -0.5373
 3433SOL    HW121932   3.783   3.941   4.582 -0.7038 -0.6926 -0.6956
 3433SOL    HW221933   3.839   4.029   4.693 -0.5832  0.0600 -1.9847
 3434SOL     OW21934   2.974   1.915   2.338 -0.1353  0.4645  0.4276
 3434SOL    HW121935   2.897   1.924   2.394 -0.2521  0.9718  0.1843
 3434SOL    HW221936   2.930   1.933   2.255 -1.6382 -1.0020  0.8963
 3435SOL     OW21937   1.041   0.287  11.038  0.7445  0.1411 -0.0381
 3435SOL    HW121938   0.979   0.301  10.966  0.6271 -1.1519 -0.1930
 3435SOL    HW221939   1.125   0.304  10.995 -0.0979  0.5977 -1.5039
 3436SOL     OW21940   4.344   2.579   0.387  0.1987 -0.0694  0.0653
 3436SOL    HW121941   4.374   2.669   0.376 -0.2328 -0.1583 -1.7753
 3436SOL    HW221942   4.251   2.587   0.368 -0.2467  1.1336  2.7184
 3437SOL     OW21943   1.284   0.797  13.539 -0.5384  0.2537  0.1825
 3437SOL    HW121944   1.203   0.772  13.494  0.0470  0.0030 -0.7178
 3437SOL    HW221945   1.342   0.808  13.464 -0.5619  2.4889  0.5053
 3438SOL     OW21946   3.017   2.942  11.659  0.9798  0.0268 -0.1032
 3438SOL    HW121947   2.946   3.004  11.679 -0.7158 -1.6156 -1.0478
 3438SOL    HW221948   2.973   2.857  11.662  2.9632 -0.9036  2.5210
 3439SOL     OW21949   4.682   3.321   3.028  0.7239  0.1678 -0.2054
 3439SOL    HW121950   4.673   3.278   2.943 -0.7056 -1.7358  0.9199
 3439SOL    HW221951   4.727   3.403   3.005  0.9128  0.8475  2.5463
 3440SOL     OW21952   1.834   3.786   8.311 -0.6800  0.4272  0.0195
 3440SOL    HW121953   1.919   3.830   8.317 -0.9428  0.9807 -0.2791
 3440SOL    HW221954   1.787   3.839   8.375  1.9638 -0.4049  2.6713
 3441SOL     OW21955   2.150   0.379  15.486  0.0522 -0.0170  0.1004
 3441SOL    HW121956   2.201   0.370  15.406  0.6138  4.2424 -0.0089
 3441SOL    HW221957   2.161   0.469  15.515  1.3625 -0.3774  0.7119
 3442SOL     OW21958   4.122   0.254  12.418  0.1971  0.6117  0.1908
 3442SOL    HW121959   4.098   0.172  12.461  1.4291  0.5658  0.7727
 3442SOL    HW221960   4.170   0.227  12.340  0.2331  0.5117  0.2474
 3443SOL     OW21961   4.482   1.211   9.471  0.0812 -0.0701  0.0867
 3443SOL    HW121962   4.497   1.135   9.414 -0.8145  0.2946 -0.6474
 3443SOL    HW221963   4.543   1.183   9.539 -0.1868 -1.3168 -0.1698
 3444SOL     OW21964   3.986   0.171   6.349  0.6072 -0.0798  0.6661
 3444SOL    HW121965   4.021   0.129   6.271  0.4897 -0.4140  0.7883
 3444SOL    HW221966   3.904   0.214   6.322  1.2989  0.8777  0.1181
 3445SOL     OW21967   2.746   0.319  10.983  0.1248  0.5421  0.5840
 3445SOL    HW121968   2.807   0.320  11.057  0.7229 -2.4141  0.1137
 3445SOL    HW221969   2.740   0.413  10.963  0.8679  0.8284  1.7091
 3446SOL     OW21970   3.002   1.401   7.239  0.4419  0.2387 -0.3862
 3446SOL    HW121971   2.927   1.448   7.274  0.2711 -0.1401 -0.2410
 3446SOL    HW221972   2.993   1.416   7.144 -0.9057  0.1479 -0.2764
 3447SOL     OW21973   1.107   2.494   7.010 -0.0500  0.2246  0.0352
 3447SOL    HW121974   1.119   2.557   7.081 -2.8976  0.0586  0.6470
 3447SOL    HW221975   1.146   2.544   6.939  0.2853  0.1338  0.1533
 3448SOL     OW21976   3.728   1.329   6.385 -0.1247 -0.1022  0.2479
 3448SOL    HW121977   3.729   1.236   6.365  1.7243  0.1909 -1.0838
 3448SOL    HW221978   3.711   1.322   6.479  0.6816  1.3003  0.5077
 3449SOL     OW21979   0.885   4.048   2.861  0.1390 -0.3690 -0.2974
 3449SOL    HW121980   0.933   4.026   2.941 -0.7414  1.3400  0.6874
 3449SOL    HW221981   0.948   4.032   2.790  0.0261  1.3201 -0.7708
 3450SOL     OW21982   1.679   1.261  15.577 -0.2169 -0.1282 -0.1609
 3450SOL    HW121983   1.711   1.236  15.664 -0.1486  1.0705  0.1666
 3450SOL    HW221984   1.700   1.181  15.529  0.6048 -0.0812  0.1168
 3451SOL     OW21985   2.187   1.558  10.116  0.1860  0.1418 -0.4381
 3451SOL    HW121986   2.227   1.502  10.182 -0.3085 -0.2346 -0.4587
 3451SOL    HW221987   2.268   1.585  10.073  0.3683 -0.2899 -0.3654
 3452SOL     OW21988   2.159   3.807   9.785 -0.0417 -0.2551  0.2985
 3452SOL    HW121989   2.221   3.752   9.737 -1.2759  0.3989 -2.0032
 3452SOL    HW221990   2.210   3.826   9.864  2.0586  0.5422 -1.2708
 3453SOL     OW21991   2.382   3.456  15.896  1.0232 -0.3225  0.7332
 3453SOL    HW121992   2.346   3.398  15.963 -0.9338 -0.5423 -0.5036
 3453SOL    HW221993   2.377   3.546  15.927 -0.5740 -1.1217  2.8034
 3454SOL     OW21994   1.216   3.739   7.339 -0.5828  0.7959  0.0152
 3454SOL    HW121995   1.136   3.780   7.307  0.6217  2.5888 -0.6769
 3454SOL    HW221996   1.278   3.798   7.297  2.0250 -1.7064  0.3490
 3455SOL     OW21997   1.356   3.381   6.916 -0.3137  0.4697 -0.1426
 3455SOL    HW121998   1.361   3.286   6.901 -0.1770  0.2818  1.1304
 3455SOL    HW221999   1.442   3.417   6.891 -0.6516  0.3180 -1.5542
 3456SOL     OW22000   2.001   2.173   7.679 -0.2474  0.7260 -0.0081
 3456SOL    HW122001   1.930   2.184   7.616 -0.7061  3.3631  0.9541
 3456SOL    HW222002   1.985   2.082   7.702  0.9066  0.5527  0.1381
 3457SOL     OW22003   3.168   2.913   7.473  0.5656  0.0041 -0.1453
 3457SOL    HW122004   3.215   2.984   7.429  4.0930 -3.5111 -2.0537
 3457SOL    HW222005   3.222   2.901   7.552  2.0353  0.4177 -1.0935
 3458SOL     OW22006   3.064   0.054   2.563 -0.1540  0.7055  0.4853
 3458SOL    HW122007   3.077   0.148   2.552 -0.6618  0.6365 -0.6283
 3458SOL    HW222008   3.067   0.027   2.471 -0.8840  0.5011  0.5257
 3459SOL     OW22009   4.424   3.513   2.921 -0.0172  0.3916  0.4865
 3459SOL    HW122010   4.455   3.432   2.880 -1.8567 -0.9978  1.8354
 3459SOL    HW222011   4.463   3.575   2.860 -3.6590 -0.2301 -2.5123
 3460SOL     OW22012   1.101   4.351   6.549 -0.2270 -0.0043 -0.0087
 3460SOL    HW122013   1.074   4.441   6.570  1.2780  0.2850  0.6977
 3460SOL    HW222014   1.128   4.366   6.458  0.7962  0.5490  0.3771
 3461SOL     OW22015   3.619   1.396   2.809 -0.1382 -0.1968 -0.5863
 3461SOL    HW122016   3.544   1.393   2.869  0.0077 -1.0053 -0.4478
 3461SOL    HW222017   3.599   1.322   2.752  2.5893 -2.1969  1.0648
 3462SOL     OW22018   2.851   0.112   7.121  0.1682 -0.6351 -0.2327
 3462SOL    HW122019   2.801   0.092   7.042 -0.5886 -0.0151  0.0870
 3462SOL    HW222020   2.925   0.162   7.087  0.8188 -1.5651 -0.1731
 3463SOL     OW22021   0.992   0.252  15.339 -0.8008 -0.1841  0.3847
 3463SOL    HW122022   0.922   0.219  15.283  0.1720  0.6600 -1.3358
 3463SOL    HW222023   1.015   0.163  15.368  1.0934  0.7284  1.7125
 3464SOL     OW22024   4.508   4.688  15.592  0.5275 -0.2154 -0.1643
 3464SOL    HW122025   4.493   4.682  15.686  0.1276 -1.9926 -0.3389
 3464SOL    HW222026   4.540   4.600  15.573  1.3977  0.2683 -0.9288
 3465SOL     OW22027   3.163   1.078   6.654  0.0996  0.2489 -0.2654
 3465SOL    HW122028   3.230   1.134   6.693 -1.3872  1.0449  1.1135
 3465SOL    HW222029   3.157   1.014   6.725  1.1287  0.1355 -0.2854
 3466SOL     OW22030   1.582   4.059   6.146 -0.1324 -0.1412  0.1417
 3466SOL    HW122031   1.529   4.132   6.177  3.7083  1.4475  2.8967
 3466SOL    HW222032   1.635   4.109   6.084 -0.2635 -1.2399 -0.8636
 3467SOL     OW22033   3.375   2.725   1.229 -0.3021  0.3257  0.2275
 3467SOL    HW122034   3.446   2.666   1.204 -1.6665 -1.0645 -0.3686
 3467SOL    HW222035   3.352   2.769   1.147  2.5203 -0.5871 -1.0355
 3468SOL     OW22036   2.839   0.534  10.198 -0.5132 -0.0966  0.1357
 3468SOL    HW122037   2.918   0.522  10.146 -0.6178 -1.3655  0.2671
 3468SOL    HW222038   2.834   0.442  10.225 -1.2319 -0.4592 -1.2692
 3469SOL     OW22039   3.054   0.046  13.237 -0.3721  0.3871  0.2170
 3469SOL    HW122040   3.105   4.706  13.227 -1.8803 -0.4820 -0.6764
 3469SOL    HW222041   3.122   0.113  13.244  0.5096 -0.5497  0.4565
 3470SOL     OW22042   0.021   1.792   2.317  0.3732  0.0138 -0.4083
 3470SOL    HW122043   0.102   1.843   2.318  0.5892 -0.3309 -0.4150
 3470SOL    HW222044   4.728   1.801   2.406  0.5372  1.4925 -0.5074
 3471SOL     OW22045   2.565   0.180   9.039 -0.0938 -0.5902  0.2779
 3471SOL    HW122046   2.515   0.098   9.043  0.9548 -1.1257  2.2748
 3471SOL    HW222047   2.496   0.245   9.047 -0.3667 -0.8650  0.1560
 3472SOL     OW22048   4.319   0.268  15.448 -0.3862 -0.4150  0.3304
 3472SOL    HW122049   4.291   0.176  15.454 -0.9882 -0.1205  2.1223
 3472SOL    HW222050   4.402   0.260  15.402 -0.3108  3.0109 -0.0846
 3473SOL     OW22051   3.546   0.989  10.406 -0.4772  0.7753 -0.8619
 3473SOL    HW122052   3.551   0.995  10.501 -0.3614 -0.1246 -0.8077
 3473SOL    HW222053   3.461   1.030  10.392 -1.9533 -1.2641  2.0832
 3474SOL     OW22054   2.019   4.045  14.979  0.8172 -0.4866  0.8034
 3474SOL    HW122055   2.091   3.982  14.971 -0.0877 -1.4982  0.6452
 3474SOL    HW222056   1.958   4.003  14.918  2.5503  1.6199 -2.3438
 3475SOL     OW22057   0.358   3.798   7.091  0.3526  0.5120 -0.6310
 3475SOL    HW122058   0.431   3.845   7.133 -0.9208  0.0631  2.0962
 3475SOL    HW222059   0.385   3.810   7.000 -1.9277  0.1419 -1.3453
 3476SOL     OW22060   1.844   3.886   3.712 -0.1255  0.8684  0.6116
 3476SOL    HW122061   1.852   3.857   3.802  1.7299 -2.0641 -0.4902
 3476SOL    HW222062   1.931   3.891   3.672 -0.3933 -1.1147 -0.2048
 3477SOL     OW22063   0.419   2.022   0.932 -0.2874 -0.4342 -0.3768
 3477SOL    HW122064   0.389   1.934   0.957 -3.0443  0.8792  0.9652
 3477SOL    HW222065   0.345   2.056   0.882  0.3085 -0.5972 -1.3564
 3478SOL     OW22066   0.095   0.407   8.917 -0.2968 -0.3966  0.1026
 3478SOL    HW122067   0.039   0.343   8.960 -2.5584  3.4938  2.9659
 3478SOL    HW222068   0.172   0.411   8.974  0.8949  0.1861 -1.5433
 3479SOL     OW22069   0.654   0.211   8.760  0.1168 -0.2929 -0.7332
 3479SOL    HW122070   0.711   0.283   8.734  0.2385 -0.4360 -0.8626
 3479SOL    HW222071   0.579   0.243   8.709  0.5715  0.1466 -1.1373
 3480SOL     OW22072   4.021   1.124  15.728  0.3226  0.2910 -0.4163
 3480SOL    HW122073   4.065   1.193  15.678 -1.5257  1.2765 -0.6999
 3480SOL    HW222074   3.966   1.174  15.788  0.0801 -1.2363  0.6450
 3481SOL     OW22075   4.620   1.644  15.589 -0.1000  0.6460 -0.6819
 3481SOL    HW122076   4.553   1.680  15.532 -0.1069  0.0617 -1.0506
 3481SOL    HW222077   4.651   1.579  15.526  1.5239 -0.4317  1.2120
 3482SOL     OW22078   1.357   3.233   6.045 -0.2222 -0.3844 -0.5575
 3482SOL    HW122079   1.350   3.143   6.079  0.7656 -0.8005 -1.4369
 3482SOL    HW222080   1.274   3.236   5.997  1.2240  2.2246 -2.8722
 3483SOL     OW22081   4.296   1.950   0.323  0.1792  0.3180 -0.4872
 3483SOL    HW122082   4.205   1.970   0.345  0.6324  0.9645  0.7571
 3483SOL    HW222083   4.340   2.034   0.323  0.2387  0.2867 -0.2518
 3484SOL     OW22084   3.677   1.663   2.723 -0.0532  0.4533  0.0434
 3484SOL    HW122085   3.663   1.571   2.742  0.6930  0.0321 -1.4835
 3484SOL    HW222086   3.598   1.709   2.750  0.4288  0.0866  2.0984
 3485SOL     OW22087   3.802   3.901   7.857 -0.2560  0.5859  0.3115
 3485SOL    HW122088   3.766   3.984   7.828 -0.1597  0.3158 -0.5685
 3485SOL    HW222089   3.814   3.911   7.952  3.6840  0.0932 -0.1351
 3486SOL     OW22090   1.023   0.690   6.182 -0.5530 -1.1587 -0.1987
 3486SOL    HW122091   1.023   0.654   6.094 -1.2400 -0.0853 -0.6365
 3486SOL    HW222092   1.090   0.634   6.222  1.2063  1.5826  0.6662
 3487SOL     OW22093   3.236   3.708  13.301  0.2048 -0.1011 -0.1487
 3487SOL    HW122094   3.159   3.738  13.253  0.9511 -0.0994 -1.3617
 3487SOL    HW222095   3.225   3.613  13.300  2.2340 -0.3255 -0.9172
 3488SOL     OW22096   1.018   3.166   8.931  0.2489  0.7423 -0.8530
 3488SOL    HW122097   1.076   3.090   8.932  1.4241  1.7014  2.5990
 3488SOL    HW222098   0.983   3.157   9.019 -1.6033 -1.2603 -1.8008
 3489SOL     OW22099   2.974   3.071   1.445 -0.9794  0.4490  0.2725
 3489SOL    HW122100   2.962   2.996   1.387 -1.8469  0.9330 -0.1596
 3489SOL    HW222101   2.885   3.106   1.451 -0.9667  0.5004  0.1616
 3490SOL     OW22102   2.113   0.658   4.989  0.3424  0.2543 -1.0422
 3490SOL    HW122103   2.131   0.564   4.992  0.0230  0.2498  0.5565
 3490SOL    HW222104   2.019   0.675   4.990  0.4752  0.7611  1.1544
 3491SOL     OW22105   2.054   4.023  10.820  0.3723  0.5204 -0.7380
 3491SOL    HW122106   2.066   3.946  10.876  1.5407 -0.3473 -2.1888
 3491SOL    HW222107   2.135   4.069  10.845 -0.4338  2.2468 -1.2595
 3492SOL     OW22108   0.811   4.599   5.291  1.0441 -0.4172 -0.1531
 3492SOL    HW122109   0.884   4.608   5.230 -0.7006  0.0032 -2.1930
 3492SOL    HW222110   0.735   4.606   5.233  1.4595  1.8697 -0.4136
 3493SOL     OW22111   4.131   1.654   8.342 -0.4700 -0.3967  0.3110
 3493SOL    HW122112   4.188   1.579   8.325 -0.3988 -0.5421  1.1467
 3493SOL    HW222113   4.201   1.717   8.359 -0.3579 -0.2902 -0.5999
 3494SOL     OW22114   4.556   1.382   7.187  0.1439 -0.1352 -0.5166
 3494SOL    HW122115   4.579   1.320   7.118 -0.0118 -0.3338 -0.3890
 3494SOL    HW222116   4.504   1.320   7.238  1.3959  1.1642  2.3525
 3495SOL     OW22117   4.399   2.644   9.575 -0.2401  0.0027  0.0722
 3495SOL    HW122118   4.474   2.661   9.632 -0.1425 -0.1526 -0.0082
 3495SOL    HW222119   4.388   2.731   9.536 -0.3631  0.4369  1.0786
 3496SOL     OW22120   1.835   3.541  15.510 -0.9741 -0.1393 -0.3629
 3496SOL    HW122121   1.815   3.450  15.487  0.3915 -0.0773 -1.8406
 3496SOL    HW222122   1.746   3.574  15.511 -0.6753  0.6425  0.9330
 3497SOL     OW22123   1.586   1.355   3.263 -0.0274  0.3790  0.2840
 3497SOL    HW122124   1.550   1.440   3.238  0.8325  0.0561 -2.0556
 3497SOL    HW222125   1.673   1.385   3.290  1.2818  0.9948 -4.6567
 3498SOL     OW22126   4.372   4.156   2.635 -0.3896  0.2666  0.3919
 3498SOL    HW122127   4.409   4.068   2.645 -1.5146 -0.7251 -4.4892
 3498SOL    HW222128   4.293   4.133   2.683 -1.6275  2.8834 -0.4363
 3499SOL     OW22129   4.406   2.562   9.057  0.5765 -0.2844  0.0413
 3499SOL    HW122130   4.397   2.529   9.146 -0.0782  0.9588  0.4406
 3499SOL    HW222131   4.423   2.653   9.080 -0.6260 -0.0826  0.1343
 3500SOL     OW22132   1.537   3.990  12.687  0.0019 -0.1701  0.1292
 3500SOL    HW122133   1.596   4.019  12.617  0.5207 -0.7270  0.3384
 3500SOL    HW222134   1.455   4.015  12.645  0.1487 -2.0310 -1.2728
 3501SOL     OW22135   2.416   1.160  12.818 -0.0437  0.3392  0.6221
 3501SOL    HW122136   2.389   1.200  12.735 -1.6878 -0.1375  0.9209
 3501SOL    HW222137   2.397   1.067  12.807 -2.4924  0.8546  0.3046
 3502SOL     OW22138   0.240   1.627   8.145  0.0773  0.1796 -0.3248
 3502SOL    HW122139   0.146   1.613   8.163  0.5641 -1.9804  0.5072
 3502SOL    HW222140   0.256   1.540   8.109  0.7209  1.6520 -3.5478
 3503SOL     OW22141   2.744   2.544   6.522 -0.4101  0.1390  0.4291
 3503SOL    HW122142   2.676   2.494   6.478  2.8128 -1.3370 -2.9003
 3503SOL    HW222143   2.772   2.488   6.594  2.8808  0.9762 -0.1556
 3504SOL     OW22144   1.180   2.091  11.431  0.0536  0.3790  0.1798
 3504SOL    HW122145   1.123   2.119  11.359  1.6700 -0.8954 -1.5835
 3504SOL    HW222146   1.146   2.006  11.461 -0.8090  0.5864 -0.1969
 3505SOL     OW22147   3.024   2.432   1.713  0.8039 -0.2883  0.4495
 3505SOL    HW122148   3.063   2.362   1.765  0.5104 -0.5763  0.2886
 3505SOL    HW222149   3.092   2.430   1.645 -1.1212 -0.4554 -1.4721
 3506SOL     OW22150   1.691   3.253  10.685  0.7348 -0.1008 -0.1143
 3506SOL    HW122151   1.596   3.244  10.683  0.9375 -2.1394 -0.4575
 3506SOL    HW222152   1.714   3.166  10.653 -0.9778 -1.3788  2.1793
 3507SOL     OW22153   1.829   3.549   3.733  0.0462 -0.6835  0.1099
 3507SOL    HW122154   1.904   3.539   3.675  0.9512 -0.3202  1.2149
 3507SOL    HW222155   1.761   3.579   3.672 -1.7521 -0.5239  2.1521
 3508SOL     OW22156   0.784   4.674   0.336 -1.0857 -0.3816 -0.5878
 3508SOL    HW122157   0.729   0.002   0.376 -0.3205 -0.7198  0.9959
 3508SOL    HW222158   0.795   4.691   0.242  0.6005  1.3481 -0.0685
 3509SOL     OW22159   3.944   2.863   0.483  0.2001 -0.1264 -0.7717
 3509SOL    HW122160   3.979   2.943   0.443 -1.4295  1.0740  0.1985
 3509SOL    HW222161   3.870   2.848   0.424  0.8636  0.2326 -1.6828
 3510SOL     OW22162   1.688   0.595   6.030  0.1193  0.6335  0.9035
 3510SOL    HW122163   1.647   0.661   6.087 -2.4379  1.8867 -2.3506
 3510SOL    HW222164   1.718   0.645   5.954  0.5785 -0.2199  0.5285
 3511SOL     OW22165   0.619   0.706   4.220 -0.0410  0.0872  0.0417
 3511SOL    HW122166   0.530   0.723   4.188 -0.1423 -0.9253 -0.2216
 3511SOL    HW222167   0.653   0.659   4.143 -1.9556  1.7491 -1.7966
 3512SOL     OW22168   3.329   2.356   6.426 -0.5101 -0.6646 -0.1304
 3512SOL    HW122169   3.411   2.320   6.459  0.1816  1.4008  0.3868
 3512SOL    HW222170   3.352   2.445   6.400 -0.1364 -0.8011 -0.2648
 3513SOL     OW22171   2.111   0.264   7.187 -0.0573 -0.3036 -0.0008
 3513SOL    HW122172   2.177   0.207   7.146  1.6938  1.5748  0.2269
 3513SOL    HW222173   2.115   0.342   7.132  0.4781 -0.3639 -0.0498
 3514SOL     OW22174   2.294   2.969  12.713  0.0821 -0.5158 -0.5190
 3514SOL    HW122175   2.240   3.048  12.720  0.9242  0.1432 -1.4854
 3514SOL    HW222176   2.273   2.934  12.799 -3.1349 -0.9158 -1.4366
 3515SOL     OW22177   3.930   0.454   4.245 -0.2025  0.5255 -1.0386
 3515SOL    HW122178   3.918   0.425   4.154 -0.8333 -1.8560 -0.1979
 3515SOL    HW222179   3.932   0.549   4.250  1.1392  0.4690 -0.6185
 3516SOL     OW22180   1.937   3.156   8.127  0.0060 -0.0396  0.3521
 3516SOL    HW122181   1.922   3.063   8.112  0.9583  0.0404 -1.0969
 3516SOL    HW222182   1.992   3.157   8.205  2.0724  0.2076 -1.1333
 3517SOL     OW22183   0.704   2.667   3.042 -0.7713  0.0054 -0.7579
 3517SOL    HW122184   0.791   2.627   3.052 -1.1235 -0.6865 -0.4788
 3517SOL    HW222185   0.703   2.709   3.128  1.3319 -2.0830  0.3110
 3518SOL     OW22186   0.474   3.211  14.592  0.4842 -0.2076  0.0703
 3518SOL    HW122187   0.390   3.237  14.630  0.9080  1.2931 -0.0418
 3518SOL    HW222188   0.450   3.204  14.500 -2.0764 -1.8539  0.8630
 3519SOL     OW22189   3.698   0.014  15.029 -0.3094 -0.1404  0.5128
 3519SOL    HW122190   3.685   4.665  14.993 -0.7799 -0.7395  2.1367
 3519SOL    HW222191   3.624   0.021  15.089 -1.2020  0.0519 -0.6040
 3520SOL     OW22192   3.444   0.895   8.003 -0.3161 -0.0731 -0.0979
 3520SOL    HW122193   3.513   0.860   7.946 -0.2935 -1.9991  1.0796
 3520SOL    HW222194   3.502   0.922   8.075  0.9051  0.0544 -1.1298
 3521SOL     OW22195   3.895   4.576   8.788 -0.8019 -0.3835 -0.4468
 3521SOL    HW122196   3.879   4.654   8.842 -2.2220 -2.0006  1.4989
 3521SOL    HW222197   3.839   4.588   8.711  0.4418  0.1655 -1.2539
 3522SOL     OW22198   4.199   1.882   5.269  0.1674  0.3996  0.0929
 3522SOL    HW122199   4.235   1.928   5.344  0.1655 -0.8961  0.8967
 3522SOL    HW222200   4.216   1.789   5.283 -0.3626  0.3225  0.2316
 3523SOL     OW22201   4.337   1.622   8.031 -0.3431 -0.4518 -0.1430
 3523SOL    HW122202   4.416   1.571   8.015  1.0700  1.3732  1.0403
 3523SOL    HW222203   4.271   1.592   7.968 -0.3914 -0.5459 -0.0466
 3524SOL     OW22204   1.529   0.588   8.920  0.2199 -0.1081  0.0427
 3524SOL    HW122205   1.535   0.665   8.976 -1.5517  0.7591 -0.9522
 3524SOL    HW222206   1.565   0.619   8.837 -1.8841  1.5205 -0.2476
 3525SOL     OW22207   4.423   4.263   5.731  0.6069  0.6334  0.8264
 3525SOL    HW122208   4.371   4.183   5.732  0.7639  0.4393 -4.1480
 3525SOL    HW222209   4.350   4.323   5.719 -0.3362 -0.9067 -1.1032
 3526SOL     OW22210   1.537   1.178  10.848 -0.1504 -0.1472  0.1124
 3526SOL    HW122211   1.510   1.115  10.782 -0.1023 -0.5952  0.5204
 3526SOL    HW222212   1.463   1.166  10.908 -0.4387  2.0341  0.1689
 3527SOL     OW22213   1.479   1.258   4.196  0.3153 -0.2025 -0.3313
 3527SOL    HW122214   1.533   1.334   4.218 -2.4674  2.1349 -1.4896
 3527SOL    HW222215   1.443   1.229   4.280 -1.6416  1.0351 -0.7328
 3528SOL     OW22216   1.232   0.952   0.273 -0.1816 -0.2979  0.4050
 3528SOL    HW122217   1.179   0.874   0.255 -0.1672  0.0823 -1.2788
 3528SOL    HW222218   1.262   0.971   0.184 -0.3230  0.4025  0.5032
 3529SOL     OW22219   3.311   3.024   2.774 -0.8816 -0.0044 -0.3705
 3529SOL    HW122220   3.299   2.961   2.702  0.2216  2.7369 -2.9586
 3529SOL    HW222221   3.407   3.026   2.767 -0.8389  3.2224  1.2785
 3530SOL     OW22222   2.823   1.191  11.286 -0.0776  0.0775 -0.0122
 3530SOL    HW122223   2.737   1.198  11.327 -0.8238 -0.0511 -1.5439
 3530SOL    HW222224   2.874   1.256  11.334 -1.9058  0.5281  1.2854
 3531SOL     OW22225   4.409   2.603   3.995  0.1170 -0.6954 -0.3690
 3531SOL    HW122226   4.382   2.601   3.903 -1.4655 -0.3308  0.0894
 3531SOL    HW222227   4.344   2.667   4.025 -0.3015 -1.6693  0.7899
 3532SOL     OW22228   3.234   0.242  13.228 -0.2753 -0.1393 -0.2205
 3532SOL    HW122229   3.311   0.299  13.227 -0.8317  0.5846 -1.4950
 3532SOL    HW222230   3.178   0.292  13.169  0.2264  0.2846 -0.3312
 3533SOL     OW22231   3.693   4.364   3.215  0.1712 -0.0841  0.5462
 3533SOL    HW122232   3.676   4.376   3.308 -2.4420  0.1188  0.0228
 3533SOL    HW222233   3.788   4.346   3.214  0.5933  2.1060  1.9324
 3534SOL     OW22234   1.984   0.286  10.275 -0.3365  0.6088  0.0074
 3534SOL    HW122235   1.894   0.295  10.308  0.1530  1.0063  1.2219
 3534SOL    HW222236   1.951   0.278  10.185  0.5531  2.1671 -0.4390
 3535SOL     OW22237   4.137   2.697   5.922  0.6057 -0.1268 -0.0423
 3535SOL    HW122238   4.090   2.615   5.934 -0.3718  0.3249 -0.7443
 3535SOL    HW222239   4.216   2.661   5.881 -1.2837 -1.5000 -2.5147
 3536SOL     OW22240   1.417   3.177   3.759  0.4033  0.4430  0.0940
 3536SOL    HW122241   1.463   3.230   3.824  0.4113 -2.8991  2.8170
 3536SOL    HW222242   1.328   3.212   3.758 -0.2321 -1.1544  0.5006
 3537SOL     OW22243   1.562   3.114   3.409 -0.2499 -0.1233  0.4767
 3537SOL    HW122244   1.613   3.170   3.468 -0.4521 -1.9725  2.3932
 3537SOL    HW222245   1.553   3.036   3.463 -0.7948 -0.6278 -0.3509
 3538SOL     OW22246   1.697   4.539   7.282 -0.1828 -0.6248  0.6477
 3538SOL    HW122247   1.740   4.578   7.207  0.2114  0.3651  1.3868
 3538SOL    HW222248   1.670   4.455   7.244  2.0022 -0.4548 -1.2208
 3539SOL     OW22249   1.210   4.521  14.484  0.2302  0.1484 -0.1830
 3539SOL    HW122250   1.215   4.581  14.409  0.6743  0.2104 -0.1023
 3539SOL    HW222251   1.281   4.561  14.534  0.9577 -0.9935 -0.3072
 3540SOL     OW22252   3.471   4.330   6.686 -0.1109  0.2775  0.0686
 3540SOL    HW122253   3.414   4.398   6.649  0.4526  0.8894  0.3279
 3540SOL    HW222254   3.557   4.372   6.675 -0.5483  1.4682  1.1620
 3541SOL     OW22255   3.424   0.092   2.488  0.4274  0.4766  0.5755
 3541SOL    HW122256   3.448   0.019   2.543  0.1567 -0.3897 -0.4525
 3541SOL    HW222257   3.510   0.127   2.467  0.5572  0.2579  0.7591
 3542SOL     OW22258   4.358   3.772   9.512  0.0984 -0.3405 -0.1810
 3542SOL    HW122259   4.324   3.850   9.557 -0.0280 -1.5182  1.7637
 3542SOL    HW222260   4.317   3.770   9.426  1.4781 -1.5014 -0.8231
 3543SOL     OW22261   1.564   3.260   4.312  0.0604  0.0966 -0.0614
 3543SOL    HW122262   1.496   3.320   4.342  0.3721  0.0873  0.6591
 3543SOL    HW222263   1.647   3.303   4.332 -0.4500  0.9698  0.1784
 3544SOL     OW22264   0.823   2.887   2.348 -0.1217 -0.1655  0.6091
 3544SOL    HW122265   0.904   2.902   2.299  0.4353 -0.7095  1.3687
 3544SOL    HW222266   0.786   2.814   2.297 -1.9997  0.3269  1.2867
 3545SOL     OW22267   1.213   3.435  15.806 -0.3891  0.0240  0.7217
 3545SOL    HW122268   1.149   3.388  15.752  0.2335 -1.5864  1.3858
 3545SOL    HW222269   1.157   3.460  15.880  0.1948  1.1944  0.7604
 3546SOL     OW22270   0.047   3.141   0.266 -1.1494  0.0420 -0.6854
 3546SOL    HW122271   0.087   3.082   0.330 -3.9237  2.2637  3.0886
 3546SOL    HW222272   0.045   3.222   0.316  0.4820  1.6408 -3.2278
 3547SOL     OW22273   3.672   2.060   2.786 -0.0898  0.0447 -0.5322
 3547SOL    HW122274   3.697   2.150   2.766 -1.1500  0.3006 -0.6749
 3547SOL    HW222275   3.604   2.040   2.722 -1.7509 -0.7767  1.4917
 3548SOL     OW22276   0.770   3.954   8.253  0.4983  0.3702  0.1144
 3548SOL    HW122277   0.866   3.956   8.257  0.5662 -1.5479 -0.9247
 3548SOL    HW222278   0.743   4.008   8.328 -0.7733  0.0515 -0.1172
 3549SOL     OW22279   2.667   1.086  11.723  0.0659 -0.3141 -0.6536
 3549SOL    HW122280   2.626   1.002  11.704 -0.7932 -0.1003  0.2865
 3549SOL    HW222281   2.593   1.141  11.696 -0.0108  0.1917  0.5854
 3550SOL     OW22282   1.872   4.191   8.221  0.0236 -0.1290  0.2866
 3550SOL    HW122283   1.910   4.127   8.283 -0.1944  0.6073  1.1860
 3550SOL    HW222284   1.837   4.125   8.162 -2.7408  0.4503  1.2999
 3551SOL     OW22285   0.569   2.227   9.411 -0.4841  0.3160 -0.1303
 3551SOL    HW122286   0.491   2.173   9.421  0.3104 -0.2323  3.4222
 3551SOL    HW222287   0.602   2.201   9.325 -0.6192 -3.0399  0.8335
 3552SOL     OW22288   3.449   2.878   3.507  0.7627  0.5737 -0.3708
 3552SOL    HW122289   3.442   2.783   3.516  0.3560  0.8657  2.5857
 3552SOL    HW222290   3.366   2.910   3.472  1.1475  2.2957  0.2577
 3553SOL     OW22291   2.857   3.654   6.893 -0.5099 -0.2033  0.8574
 3553SOL    HW122292   2.805   3.623   6.968 -1.9586  0.2693  0.0437
 3553SOL    HW222293   2.897   3.732   6.930  0.3015 -0.8922  1.4492
 3554SOL     OW22294   3.656   1.493  12.405 -0.0776  0.2423  0.1683
 3554SOL    HW122295   3.648   1.571  12.350 -3.9162 -1.1171 -1.2041
 3554SOL    HW222296   3.596   1.435  12.359 -2.3110  3.1996 -0.6419
 3555SOL     OW22297   1.375   1.766   7.086 -0.4605 -0.0581  0.2399
 3555SOL    HW122298   1.414   1.797   7.167  0.6293  1.6152 -0.9393
 3555SOL    HW222299   1.308   1.705   7.118  0.0426 -1.7638 -1.9231
 3556SOL     OW22300   2.174   0.039   5.515 -0.2378  0.4195 -0.4477
 3556SOL    HW122301   2.255   4.729   5.501 -0.4744 -0.4991  1.4364
 3556SOL    HW222302   2.203   0.125   5.544  1.6668 -0.1987 -0.5047
 3557SOL     OW22303   1.694   4.393   5.698 -0.3788  0.2411  0.0850
 3557SOL    HW122304   1.734   4.326   5.644 -1.5016 -0.0733 -0.3458
 3557SOL    HW222305   1.754   4.467   5.689  1.5619 -1.3399 -0.1208
 3558SOL     OW22306   2.186   0.574  14.552  0.3277 -0.4794  0.0703
 3558SOL    HW122307   2.162   0.584  14.644  0.7590  0.8180  0.0324
 3558SOL    HW222308   2.235   0.492  14.551  2.9299  1.0467  2.1569
 3559SOL     OW22309   1.430   2.299  12.044  0.1773  0.9398  0.0738
 3559SOL    HW122310   1.445   2.216  11.999  0.6869  2.2827 -2.1830
 3559SOL    HW222311   1.449   2.266  12.132 -0.0024 -1.4876 -0.8049
 3560SOL     OW22312   2.174   1.130   1.489  0.2413 -0.4391  0.1294
 3560SOL    HW122313   2.122   1.202   1.455  1.4210 -0.4074 -1.6131
 3560SOL    HW222314   2.161   1.068   1.417  0.2116 -1.1005  0.7078
 3561SOL     OW22315   2.333   0.349  14.643 -0.4515  0.6950  0.2536
 3561SOL    HW122316   2.342   0.255  14.633  0.3535  0.5165  2.6045
 3561SOL    HW222317   2.426   0.373  14.652 -0.1121 -1.2274  1.7728
 3562SOL     OW22318   3.513   3.704   1.832 -0.5126 -0.4848  0.8391
 3562SOL    HW122319   3.419   3.685   1.837 -0.4827 -1.2572 -1.7419
 3562SOL    HW222320   3.554   3.618   1.822 -1.3323 -0.8032  0.1729
 3563SOL     OW22321   1.308   1.425  16.602  0.5141 -0.2692  0.6701
 3563SOL    HW122322   1.333   1.501  16.549 -0.5522 -0.2379  0.1992
 3563SOL    HW222323   1.245   1.392  16.537  0.6320 -1.2870  1.0764
 3564SOL     OW22324   2.395   4.016   9.128 -0.2146 -0.1754  0.1215
 3564SOL    HW122325   2.432   3.931   9.107 -0.4760 -0.0248 -0.9426
 3564SOL    HW222326   2.447   4.034   9.206 -0.4903 -0.9441  0.4789
 3565SOL     OW22327   1.645   1.541   5.189 -0.0962 -0.3838 -0.0238
 3565SOL    HW122328   1.600   1.580   5.265  0.0854 -1.8529  0.8440
 3565SOL    HW222329   1.611   1.452   5.179 -2.4211  0.4121  0.7478
 3566SOL     OW22330   3.817   2.638   4.835  0.1022 -0.1393 -0.6818
 3566SOL    HW122331   3.831   2.727   4.868  1.8162 -0.1599 -1.3827
 3566SOL    HW222332   3.812   2.643   4.739  1.8453  0.9821 -0.7145
 3567SOL     OW22333   1.782   0.948  17.247  0.2977 -0.3754 -0.2179
 3567SOL    HW122334   1.851   1.014  17.250 -0.3780  0.2754  0.8692
 3567SOL    HW222335   1.801   0.915  17.159 -0.6756  0.0385 -0.5861
 3568SOL     OW22336   1.857   3.595   0.647 -0.0412 -0.8141 -0.1800
 3568SOL    HW122337   1.933   3.586   0.589  0.5854  1.9454  0.1898
 3568SOL    HW222338   1.877   3.679   0.690 -1.9716 -0.0538 -0.7986
 3569SOL     OW22339   4.019   2.333   8.532  0.0678  0.3076 -0.2220
 3569SOL    HW122340   4.072   2.412   8.547  2.0825 -1.0790  0.0154
 3569SOL    HW222341   4.020   2.339   8.436 -0.7634  1.7782 -0.1421
 3570SOL     OW22342   2.539   0.817   6.892  0.4077 -0.1545 -0.1741
 3570SOL    HW122343   2.496   0.778   6.968 -0.4452  0.9023 -0.1129
 3570SOL    HW222344   2.471   0.851   6.835  1.0808  2.7046  0.7166
 3571SOL     OW22345   4.365   4.623   1.475 -0.3115  0.4886 -0.3739
 3571SOL    HW122346   4.357   4.534   1.439 -0.8491  0.0044  0.9572
 3571SOL    HW222347   4.297   4.612   1.542 -0.0908 -1.9309 -0.5330
 3572SOL     OW22348   3.552   1.240   2.460  0.0671 -0.2320 -0.2759
 3572SOL    HW122349   3.483   1.201   2.514 -1.2753 -0.3748 -2.0983
 3572SOL    HW222350   3.535   1.334   2.467  0.6985 -0.1360 -0.0244
 3573SOL     OW22351   1.189   2.721   3.555 -0.2697  0.4138 -0.7058
 3573SOL    HW122352   1.233   2.800   3.588  0.2558 -0.5528  0.9353
 3573SOL    HW222353   1.119   2.715   3.620 -0.3792 -0.3510 -0.8942
 3574SOL     OW22354   3.119   0.647   6.330 -0.9544 -0.3830  0.2643
 3574SOL    HW122355   3.089   0.595   6.256 -1.1524 -0.1731  0.1978
 3574SOL    HW222356   3.102   0.594   6.408 -2.1268 -1.1165 -0.4965
 3575SOL     OW22357   0.230   1.373   2.726  0.9035 -0.2073  0.0063
 3575SOL    HW122358   0.274   1.291   2.750  1.8601  0.8366  1.8771
 3575SOL    HW222359   0.281   1.386   2.646 -0.6530  1.5507 -0.6756
 3576SOL     OW22360   3.245   2.503   3.366  0.4534 -0.2608 -0.8444
 3576SOL    HW122361   3.191   2.437   3.321 -0.6300 -0.2511  0.4558
 3576SOL    HW222362   3.221   2.578   3.311  2.1484  2.4569  2.1339
 3577SOL     OW22363   1.059   4.439  17.170  0.0273  0.2286 -0.9652
 3577SOL    HW122364   0.982   4.426  17.114 -1.0088 -0.8381  0.7014
 3577SOL    HW222365   1.053   4.371  17.238  0.7891  0.0409 -1.0859
 3578SOL     OW22366   3.460   0.582   5.712  0.0916  0.4857 -0.1119
 3578SOL    HW122367   3.503   0.666   5.696  0.9165  0.1627  0.3924
 3578SOL    HW222368   3.525   0.539   5.768 -1.8058 -2.1214  0.0835
 3579SOL     OW22369   2.106   1.087   6.795 -0.1594  0.0220  0.3001
 3579SOL    HW122370   2.101   1.168   6.846  0.7723 -0.8373  1.7481
 3579SOL    HW222371   2.176   1.041   6.841  0.9703 -0.2273 -1.6910
 3580SOL     OW22372   3.380   2.047   1.012  0.5062 -0.2210 -0.2174
 3580SOL    HW122373   3.475   2.061   1.007  0.4403  0.3162  0.0401
 3580SOL    HW222374   3.370   2.066   1.106  0.3593  0.1060 -0.3002
 3581SOL     OW22375   0.062   3.867   2.548  0.9944  0.2954 -0.3036
 3581SOL    HW122376   4.716   3.885   2.509 -0.0851  0.0701  1.9026
 3581SOL    HW222377   0.120   3.912   2.487  0.7863  0.2735 -0.5178
 3582SOL     OW22378   4.244   1.621   4.027 -0.0289 -0.4675 -0.0208
 3582SOL    HW122379   4.258   1.650   3.937  2.6848 -2.4992 -0.2548
 3582SOL    HW222380   4.243   1.527   4.008 -1.8682 -0.6279  0.8968
 3583SOL     OW22381   4.511   0.100   2.997 -0.1577 -0.2873 -0.6802
 3583SOL    HW122382   4.438   0.045   2.968  0.1841 -1.0394 -0.1088
 3583SOL    HW222383   4.585   0.049   2.965 -0.0432 -1.5805  1.6611
 3584SOL     OW22384   4.091   0.941   8.324  0.0369  0.6413  0.6852
 3584SOL    HW122385   4.162   0.985   8.370  0.4148  0.6875  0.0631
 3584SOL    HW222386   4.030   0.922   8.395  1.8576  0.9971  2.3517
 3585SOL     OW22387   3.786   0.767   6.704  0.4371 -0.0206  0.5640
 3585SOL    HW122388   3.753   0.771   6.614  0.8012 -1.5468  0.3544
 3585SOL    HW222389   3.762   0.854   6.733 -0.0588  0.0955 -0.1782
 3586SOL     OW22390   0.128   3.478   2.891 -0.2925 -0.1218  0.1161
 3586SOL    HW122391   0.135   3.571   2.872 -2.1093 -0.7473 -3.6067
 3586SOL    HW222392   0.079   3.447   2.814  0.4505 -2.3140  0.5183
 3587SOL     OW22393   2.028   1.993  14.282 -0.2577  0.1362 -0.0404
 3587SOL    HW122394   2.123   1.981  14.290  0.1438  2.6746 -0.9076
 3587SOL    HW222395   2.001   1.951  14.363 -1.0175  2.0876  0.7179
 3588SOL     OW22396   3.373   3.240   8.275 -0.1200  0.1524 -0.1905
 3588SOL    HW122397   3.347   3.275   8.360 -1.1569  1.8088 -1.1977
 3588SOL    HW222398   3.459   3.199   8.286 -0.7108 -0.7424  1.1203
 3589SOL     OW22399   2.028   0.024  11.768  0.1080  0.4871 -0.4858
 3589SOL    HW122400   1.950   4.710  11.785  0.3440 -0.5978 -2.7925
 3589SOL    HW222401   2.093   4.693  11.774 -0.6175  0.0628  2.8321
 3590SOL     OW22402   4.290   0.273   1.925 -0.3852  0.1204  0.3772
 3590SOL    HW122403   4.362   0.292   1.866  1.4245 -1.1623  2.1834
 3590SOL    HW222404   4.266   0.183   1.901  0.8400  0.5286 -2.3611
 3591SOL     OW22405   1.544   2.170   7.952 -0.0190  0.0182 -0.3585
 3591SOL    HW122406   1.549   2.207   7.864  2.4601 -1.1527 -0.6963
 3591SOL    HW222407   1.635   2.142   7.953 -0.0227  0.0527  2.1907
 3592SOL     OW22408   4.512   2.914   8.547 -0.2881 -0.0916  0.0589
 3592SOL    HW122409   4.461   2.834   8.562  1.1323 -1.0033 -0.0418
 3592SOL    HW222410   4.593   2.879   8.511  1.2474  2.1004  1.3674
 3593SOL     OW22411   1.603   1.193   3.492 -0.0683 -0.1492 -0.4734
 3593SOL    HW122412   1.567   1.208   3.404 -1.1072 -1.1764 -0.2269
 3593SOL    HW222413   1.674   1.132   3.474 -0.1035 -0.5456  0.7301
 3594SOL     OW22414   3.620   2.082   1.861  0.3830 -0.5292 -0.6878
 3594SOL    HW122415   3.669   2.001   1.851  3.6807  1.6396 -2.3295
 3594SOL    HW222416   3.625   2.128   1.776 -0.2499  0.7071 -0.0564
 3595SOL     OW22417   2.754   0.462   6.473 -0.1073  0.1209 -0.3493
 3595SOL    HW122418   2.840   0.472   6.515  0.7171  0.0910 -2.0409
 3595SOL    HW222419   2.717   0.548   6.489  2.1488  1.3253 -1.5531
 3596SOL     OW22420   2.793   4.375   7.541 -0.2076 -0.1875  0.2462
 3596SOL    HW122421   2.826   4.446   7.484  2.7237  0.8765  3.2829
 3596SOL    HW222422   2.800   4.305   7.476  1.6527  0.7889 -0.6014
 3597SOL     OW22423   0.260   2.259   2.750  0.0799  0.0347  0.9495
 3597SOL    HW122424   0.210   2.340   2.759  1.4112  1.0754 -0.8038
 3597SOL    HW222425   0.262   2.245   2.845 -1.2579 -0.8396  0.8451
 3598SOL     OW22426   0.263   1.638   0.697 -1.1074  0.8282 -0.2179
 3598SOL    HW122427   0.290   1.577   0.766  0.2600  1.2502 -0.3881
 3598SOL    HW222428   0.339   1.696   0.702 -0.2461 -0.6011  3.4971
 3599SOL     OW22429   3.730   0.348  16.201  0.3218 -0.0952 -0.1022
 3599SOL    HW122430   3.821   0.318  16.203  0.0441 -0.9337 -0.3886
 3599SOL    HW222431   3.704   0.327  16.112 -1.8410 -2.8120  1.1640
 3600SOL     OW22432   3.298   3.776   6.979 -0.5076  0.3069 -0.0772
 3600SOL    HW122433   3.248   3.714   7.032 -0.0109  1.1283  1.3555
 3600SOL    HW222434   3.233   3.842   6.954  0.5087  1.1358 -0.5290
 3601SOL     OW22435   1.950   4.620  14.860  0.2720 -0.1000  0.2991
 3601SOL    HW122436   2.014   4.671  14.811 -0.7293 -1.4682 -2.3945
 3601SOL    HW222437   1.921   4.555  14.796  1.4416 -0.0750 -0.2520
 3602SOL     OW22438   0.973   1.076   0.759  0.2833 -0.5188 -0.3519
 3602SOL    HW122439   0.879   1.058   0.751  0.1249  0.2575 -0.2245
 3602SOL    HW222440   1.001   0.986   0.741  2.8637  1.0157 -3.9455
 3603SOL     OW22441   3.656   0.691   2.689  0.2484  0.2004  0.1914
 3603SOL    HW122442   3.686   0.776   2.656  3.2567 -1.6230 -1.7960
 3603SOL    HW222443   3.570   0.721   2.719  0.0384 -0.6213  0.4107
 3604SOL     OW22444   1.989   1.859   0.459  0.0181  0.0957 -0.3172
 3604SOL    HW122445   1.974   1.765   0.451  0.4826  0.0904 -1.1403
 3604SOL    HW222446   1.934   1.896   0.389  1.7216  1.9546 -0.6591
 3605SOL     OW22447   0.270   2.885   7.433 -0.4636 -0.3047  0.0544
 3605SOL    HW122448   0.286   2.921   7.520  0.9208  0.3197 -0.4528
 3605SOL    HW222449   0.211   2.953   7.399  0.4797  0.7650  0.5500
 3606SOL     OW22450   4.398   2.431   2.922  0.3464 -0.8585 -0.0992
 3606SOL    HW122451   4.370   2.497   2.859 -0.4098 -0.9444  0.1459
 3606SOL    HW222452   4.455   2.483   2.979 -2.3537  1.9580  0.0021
 3607SOL     OW22453   2.638   1.540   6.367 -0.0297  0.2624  0.4172
 3607SOL    HW122454   2.639   1.452   6.402 -1.8591 -0.2041 -0.6592
 3607SOL    HW222455   2.562   1.578   6.411 -0.9783 -2.3426  1.0217
 3608SOL     OW22456   2.563   3.939   6.125 -0.2186 -0.4337  0.5140
 3608SOL    HW122457   2.633   3.892   6.171  0.2957  1.0732  1.2739
 3608SOL    HW222458   2.517   3.987   6.194  1.6333 -0.0659  1.5089
 3609SOL     OW22459   2.750   0.686   5.047  0.1976 -0.7600  0.7843
 3609SOL    HW122460   2.831   0.638   5.063  1.2669  0.1039 -1.9776
 3609SOL    HW222461   2.758   0.754   5.114 -0.7038  0.1197  0.0071
 3610SOL     OW22462   4.019   1.390   8.970  0.6322 -0.1435 -0.4983
 3610SOL    HW122463   3.943   1.436   9.004  0.5382 -0.5654 -0.1319
 3610SOL    HW222464   3.979   1.311   8.932  2.9472 -1.4463 -0.2155
 3611SOL     OW22465   1.188   3.313   6.615 -0.6004 -0.2604  0.9042
 3611SOL    HW122466   1.175   3.407   6.627  0.7081  0.1906 -1.0623
 3611SOL    HW222467   1.273   3.316   6.570 -0.9953 -0.3403  0.1534
 3612SOL     OW22468   0.083   3.738   8.062  0.2024 -0.1485  0.5827
 3612SOL    HW122469   0.004   3.787   8.039  0.9529  0.0836 -1.4878
 3612SOL    HW222470   0.142   3.748   7.988 -0.3015  1.1454  0.3423
 3613SOL     OW22471   1.142   2.268  17.002  0.1900  0.7274  0.0251
 3613SOL    HW122472   1.076   2.330  17.032 -0.5146  0.8515 -1.8239
 3613SOL    HW222473   1.086   2.191  17.016  2.2429 -0.5814  1.0638
 3614SOL     OW22474   0.803   3.341   0.356  0.0602  0.1656  0.4953
 3614SOL    HW122475   0.779   3.328   0.264 -0.1432  0.3750  0.5207
 3614SOL    HW222476   0.744   3.412   0.382  0.9833  0.0733  2.8550
 3615SOL     OW22477   0.124   0.727  13.745 -0.0199  0.0258  0.3022
 3615SOL    HW122478   0.089   0.645  13.779 -0.7220  0.4268  0.5327
 3615SOL    HW222479   0.054   0.792  13.741 -1.6639 -1.8993 -2.2162
 3616SOL     OW22480   3.155   4.650   2.303 -0.0576  0.5866 -0.0398
 3616SOL    HW122481   3.207   4.572   2.321  0.0235  0.8690  0.9735
 3616SOL    HW222482   3.075   4.620   2.260  1.4118 -2.1543 -0.8164
 3617SOL     OW22483   0.486   2.204   8.193 -0.5080 -0.1590 -0.0511
 3617SOL    HW122484   0.555   2.250   8.147 -1.0017  1.4083  0.7756
 3617SOL    HW222485   0.482   2.241   8.282 -0.6703 -1.5860  0.5398
 3618SOL     OW22486   1.741   1.522  10.065 -0.0419 -0.1988 -0.2820
 3618SOL    HW122487   1.661   1.493  10.107  1.0094 -0.8030  1.2717
 3618SOL    HW222488   1.714   1.612  10.044 -0.3052 -0.2493 -0.1515
 3619SOL     OW22489   2.252   3.149  13.854 -0.0956 -0.2123  0.6204
 3619SOL    HW122490   2.281   3.091  13.784 -0.0942  0.8316 -0.2461
 3619SOL    HW222491   2.159   3.155  13.830 -0.5219 -1.3580  2.0122
 3620SOL     OW22492   0.267   4.460  17.363  0.8019 -0.4421  0.3040
 3620SOL    HW122493   0.217   4.440  17.442 -1.2192  2.7663 -0.1858
 3620SOL    HW222494   0.330   4.527  17.392  1.9639 -0.5323 -1.9851
 3621SOL     OW22495   2.286   4.662  15.001 -0.7663  0.2092  0.3607
 3621SOL    HW122496   2.201   4.617  15.012 -1.3709  1.4215  0.6156
 3621SOL    HW222497   2.301   4.641  14.909 -0.9678  1.5386  0.0270
 3622SOL     OW22498   1.169   1.644   8.748  0.7334 -0.0122  0.4782
 3622SOL    HW122499   1.140   1.555   8.768 -0.5361  0.4979  0.9396
 3622SOL    HW222500   1.085   1.685   8.730  0.8234  0.6668  1.5606
 3623SOL     OW22501   0.456   2.626   4.722  0.1909 -0.8995 -0.1047
 3623SOL    HW122502   0.390   2.694   4.712 -0.8367 -1.2949  3.9030
 3623SOL    HW222503   0.537   2.677   4.728 -0.0452 -0.7484  1.6936
 3624SOL     OW22504   0.235   3.765   8.769  0.0273 -0.3355  0.0651
 3624SOL    HW122505   0.272   3.702   8.707 -0.3347 -1.0021  0.5303
 3624SOL    HW222506   0.211   3.839   8.713  1.9536  0.9863  1.0004
 3625SOL     OW22507   2.011   0.087   6.230 -0.0750 -0.1437  0.3065
 3625SOL    HW122508   1.917   0.093   6.248 -0.5099 -0.9144 -1.6850
 3625SOL    HW222509   2.015   0.146   6.155  1.6282 -0.1854  0.3579
 3626SOL     OW22510   0.054   2.531   0.307 -0.1603  0.3360  0.3268
 3626SOL    HW122511   4.729   2.488   0.363  0.0816 -2.1499 -1.2939
 3626SOL    HW222512   4.738   2.533   0.229 -0.0885 -1.7225  0.2159
 3627SOL     OW22513   4.582   1.687   0.175  0.2780  0.2117  0.3674
 3627SOL    HW122514   4.584   1.592   0.187 -2.2649  0.0758 -0.2304
 3627SOL    HW222515   4.600   1.682   0.081  0.5150  0.4498  0.3990
 3628SOL     OW22516   2.773   0.017  13.192 -0.0958 -0.0984  0.3140
 3628SOL    HW122517   2.850   0.055  13.234 -0.1719 -2.2832  2.4131
 3628SOL    HW222518   2.701   0.073  13.221 -0.1010  0.1911 -0.2670
 3629SOL     OW22519   2.385   3.512   6.208 -0.1802  0.5420 -0.2166
 3629SOL    HW122520   2.437   3.432   6.195 -0.3838  0.4165 -0.2567
 3629SOL    HW222521   2.391   3.558   6.124 -0.7045 -3.7534 -2.6214
 3630SOL     OW22522   1.089   2.733  12.089  0.5199 -0.0134 -0.1099
 3630SOL    HW122523   1.144   2.684  12.149  1.5718  0.2966 -0.8100
 3630SOL    HW222524   1.109   2.826  12.083 -1.5413  0.4152 -0.2986
 3631SOL     OW22525   1.440   4.381   2.712 -0.1563 -0.4700  0.0647
 3631SOL    HW122526   1.479   4.466   2.696  1.3517 -1.1067  0.3287
 3631SOL    HW222527   1.360   4.408   2.757  0.6514  1.6474  0.2187
 3632SOL     OW22528   1.826   3.232  16.097  0.2843 -0.4299  0.2199
 3632SOL    HW122529   1.894   3.298  16.112  0.0287 -0.6386  2.3436
 3632SOL    HW222530   1.881   3.158  16.072 -2.8493 -2.5495 -0.4586
 3633SOL     OW22531   1.171   0.549   6.370  0.1709  0.2429  0.3826
 3633SOL    HW122532   1.107   0.546   6.441  0.1966  0.1416  0.4015
 3633SOL    HW222533   1.192   0.457   6.359 -0.0122  0.2449  0.0111
 3634SOL     OW22534   3.451   4.734   3.194  0.1339  0.0653  0.3477
 3634SOL    HW122535   3.416   4.645   3.201  3.1705 -1.1419  0.6250
 3634SOL    HW222536   3.515   4.713   3.125 -0.7587  0.2680 -0.5347
 3635SOL     OW22537   4.256   3.865   6.019  0.3255  0.0733  0.0734
 3635SOL    HW122538   4.333   3.915   6.045 -0.7235  1.8466 -0.2237
 3635SOL    HW222539   4.251   3.893   5.928 -0.6674 -1.7365 -0.4379
 3636SOL     OW22540   0.436   4.294  11.045 -0.0350 -0.1288  0.1297
 3636SOL    HW122541   0.407   4.227  11.107 -0.3705  0.8321  1.0216
 3636SOL    HW222542   0.527   4.270  11.028  0.4267  0.9738  1.0733
 3637SOL     OW22543   2.061   0.596   8.013  0.1733 -0.1687 -0.0931
 3637SOL    HW122544   2.077   0.687   8.038  1.8209  0.0669 -1.9770
 3637SOL    HW222545   2.128   0.582   7.946  1.2161 -0.7898  1.0759
 3638SOL     OW22546   1.441   4.243   9.398 -0.2573  0.2996  0.0173
 3638SOL    HW122547   1.398   4.167   9.438 -1.8715  1.9814  1.5010
 3638SOL    HW222548   1.373   4.307   9.379 -0.7827 -0.7746 -1.6876
 3639SOL     OW22549   1.048   1.706   3.458 -0.0107 -0.1164  0.1734
 3639SOL    HW122550   1.049   1.769   3.386 -2.6800  1.0333  1.1274
 3639SOL    HW222551   1.140   1.714   3.484  0.1247 -0.8363 -0.1070
 3640SOL     OW22552   0.635   2.134  11.231  0.5570  0.2519 -0.0306
 3640SOL    HW122553   0.699   2.078  11.276 -0.2110 -0.8428 -0.2871
 3640SOL    HW222554   0.551   2.113  11.273  1.6257  0.0541  2.0086
 3641SOL     OW22555   2.938   1.154   3.806  0.2709 -0.2814 -0.2008
 3641SOL    HW122556   2.937   1.059   3.793 -1.0487 -0.1335 -1.2448
 3641SOL    HW222557   2.943   1.170   3.900 -3.1978  0.0911 -0.0676
 3642SOL     OW22558   1.479   3.093  11.732  0.1042 -0.3107  0.7203
 3642SOL    HW122559   1.566   3.093  11.772  0.0176 -2.1501  0.8961
 3642SOL    HW222560   1.439   3.022  11.783 -1.3341 -0.3977 -0.5279
 3643SOL     OW22561   4.073   3.802  11.175 -0.6041  0.4194 -0.2793
 3643SOL    HW122562   3.979   3.819  11.181 -0.6329  0.0012  0.4406
 3643SOL    HW222563   4.095   3.809  11.082  1.1196  2.1132  0.2574
 3644SOL     OW22564   2.883   0.956   9.073 -0.0031  0.4203  0.0131
 3644SOL    HW122565   2.927   0.944   9.157 -0.2644 -0.7934 -0.0200
 3644SOL    HW222566   2.883   0.866   9.040 -0.0467  0.6167 -0.5185
 3645SOL     OW22567   4.082   0.344   7.808  0.1449 -0.1424  0.5528
 3645SOL    HW122568   4.108   0.435   7.793 -0.2381 -0.5665 -2.5801
 3645SOL    HW222569   4.004   0.368   7.859 -0.4428 -0.6186 -0.1215
 3646SOL     OW22570   3.394   0.742   9.837 -0.2576 -0.5077  0.0012
 3646SOL    HW122571   3.486   0.716   9.843 -0.3413 -1.3087 -2.2305
 3646SOL    HW222572   3.356   0.670   9.887  1.0319 -1.8163 -0.9089
 3647SOL     OW22573   0.894   0.255  12.561  0.3410 -0.1203 -0.0244
 3647SOL    HW122574   0.855   0.317  12.622 -1.1471 -1.1285  0.0407
 3647SOL    HW222575   0.930   0.315  12.496 -2.7309  0.6657 -0.9649
 3648SOL     OW22576   3.118   3.871   5.542  0.1064  0.6852 -0.4710
 3648SOL    HW122577   3.170   3.862   5.622 -2.5796 -0.9381  1.1069
 3648SOL    HW222578   3.109   3.778   5.523  2.0389  0.1732  1.1332
 3649SOL     OW22579   3.471   3.567   2.226  0.5469  0.1000  0.5112
 3649SOL    HW122580   3.491   3.563   2.320 -3.2635 -0.5114  1.2944
 3649SOL    HW222581   3.502   3.653   2.198  2.2776 -1.2081 -1.5469
 3650SOL     OW22582   4.663   3.323  17.214  0.1796  0.1149  0.6531
 3650SOL    HW122583   4.681   3.391  17.278  5.4023 -0.1859 -0.5338
 3650SOL    HW222584   0.007   3.323  17.168 -0.0825  0.1098  0.1782
 3651SOL     OW22585   1.470   3.248   7.845  0.2164 -0.3400 -0.5203
 3651SOL    HW122586   1.412   3.258   7.920  0.3208  3.0008 -0.8891
 3651SOL    HW222587   1.489   3.155   7.855 -1.7922 -0.4564  2.0817
 3652SOL     OW22588   1.397   1.383   7.853  0.3015 -0.4689 -0.4373
 3652SOL    HW122589   1.459   1.425   7.913 -1.9542  0.9068  0.9315
 3652SOL    HW222590   1.313   1.423   7.875  0.3248 -1.2501  1.0534
 3653SOL     OW22591   1.584   2.657   8.067 -0.8273 -0.0683  0.3098
 3653SOL    HW122592   1.507   2.611   8.100 -0.0404 -2.1670 -0.7576
 3653SOL    HW222593   1.598   2.625   7.977  2.6878 -1.3835  1.3020
 3654SOL     OW22594   3.535   2.089   0.458  0.0328  0.0264  0.5841
 3654SOL    HW122595   3.453   2.043   0.479 -0.5477  0.0330 -1.7605
 3654SOL    HW222596   3.564   2.076   0.549  1.6897  0.9697  0.1851
 3655SOL     OW22597   0.945   2.505   6.262  0.4463 -0.2267 -0.2695
 3655SOL    HW122598   0.953   2.494   6.167  2.7199  1.9023 -0.3193
 3655SOL    HW222599   1.038   2.498   6.283  0.1606 -1.7009  0.5192
 3656SOL     OW22600   2.110   2.768   7.175  0.7236 -0.2856  0.3890
 3656SOL    HW122601   2.145   2.679   7.162 -0.5232 -0.7946  0.5039
 3656SOL    HW222602   2.023   2.771   7.136 -0.5374 -1.6408  3.0527
 3657SOL     OW22603   3.195   1.550   1.702 -0.6021 -0.3304 -0.3545
 3657SOL    HW122604   3.211   1.601   1.781 -1.1800  0.6140 -0.8422
 3657SOL    HW222605   3.105   1.520   1.718 -0.4996 -0.5157 -0.1296
 3658SOL     OW22606   2.891   0.298   9.169 -0.3992  0.6621  0.0323
 3658SOL    HW122607   2.961   0.235   9.153  0.0895  1.2906 -0.3366
 3658SOL    HW222608   2.814   0.244   9.186 -0.2430  0.0454 -1.2584
 3659SOL     OW22609   0.018   0.535   4.155  0.1591 -0.1068  0.5796
 3659SOL    HW122610   0.108   0.524   4.182 -0.1465  0.4074  1.7887
 3659SOL    HW222611   0.018   0.627   4.179  0.0122  0.2931 -0.9599
 3660SOL     OW22612   2.686   0.876   2.269 -0.2830 -0.4894 -0.4199
 3660SOL    HW122613   2.778   0.900   2.256  0.8899 -3.7030  2.0205
 3660SOL    HW222614   2.665   0.952   2.323 -0.7137 -0.0804 -1.1629
 3661SOL     OW22615   0.649   0.318   8.302  0.0945  0.6202  0.2124
 3661SOL    HW122616   0.626   0.231   8.334  1.6608  1.6707  4.2254
 3661SOL    HW222617   0.630   0.375   8.376  1.0016  0.3866  0.6295
 3662SOL     OW22618   4.570   3.635  10.987 -0.3820  0.4139 -0.9264
 3662SOL    HW122619   4.646   3.583  11.013  1.1522  2.7124 -0.7923
 3662SOL    HW222620   4.523   3.647  11.069 -0.3102  1.1650 -0.9936
 3663SOL     OW22621   2.686   3.135   6.971 -0.4266 -0.3576 -0.5596
 3663SOL    HW122622   2.641   3.192   7.033  1.0806 -0.2983  0.4898
 3663SOL    HW222623   2.648   3.047   6.983  1.0805 -1.0277 -0.7383
 3664SOL     OW22624   2.557   1.142   1.987  0.1876 -0.8233  0.3220
 3664SOL    HW122625   2.475   1.152   2.035 -0.2835 -1.5426 -0.3144
 3664SOL    HW222626   2.565   1.046   1.992  0.0974 -0.9406 -1.5965
 3665SOL     OW22627   4.533   1.441  11.064 -0.0396  0.1466  0.0793
 3665SOL    HW122628   4.526   1.410  11.154  1.3462 -1.8454 -0.5177
 3665SOL    HW222629   4.624   1.471  11.056  0.0124 -0.2994 -1.1303
 3666SOL     OW22630   0.083   0.101  15.750 -0.0366  0.1781  0.4017
 3666SOL    HW122631   0.053   0.143  15.831 -1.7148  1.2095 -0.7506
 3666SOL    HW222632   0.032   0.136  15.676 -1.1304 -1.2485  0.4892
 3667SOL     OW22633   2.901   2.937   5.328 -0.3200 -0.0750  0.5655
 3667SOL    HW122634   2.909   2.991   5.407  2.2646 -1.8378  1.5070
 3667SOL    HW222635   2.888   3.006   5.263  0.2263  0.7073  1.2735
 3668SOL     OW22636   3.080   2.388   4.766  0.3895  0.6705 -0.1097
 3668SOL    HW122637   3.096   2.392   4.860 -1.2141  1.6664  0.1108
 3668SOL    HW222638   3.141   2.314   4.757 -1.2271 -0.7212  0.3556
 3669SOL     OW22639   3.122   1.524   4.574 -0.0536  0.2493  0.2963
 3669SOL    HW122640   3.103   1.433   4.597 -0.7803  0.2387 -0.3456
 3669SOL    HW222641   3.194   1.506   4.513  1.1410  1.5598  1.3260
 3670SOL     OW22642   2.800   2.415   7.540  0.3115 -0.7585 -0.2146
 3670SOL    HW122643   2.734   2.484   7.546  0.2697 -0.9489  1.7403
 3670SOL    HW222644   2.872   2.451   7.489  0.7767 -0.2113  0.8138
 3671SOL     OW22645   0.452   2.720   3.237  0.1349 -0.1968 -0.2024
 3671SOL    HW122646   0.455   2.796   3.178  0.4633  0.1620  0.2777
 3671SOL    HW222647   0.543   2.693   3.241  0.3915  0.8552  1.1902
 3672SOL     OW22648   4.074   2.454   4.495  0.5388  0.6560  0.6482
 3672SOL    HW122649   4.096   2.545   4.513 -1.9136  1.5861 -1.1491
 3672SOL    HW222650   4.071   2.414   4.582 -1.0787  0.2252  0.4010
 3673SOL     OW22651   0.675   2.009   4.028 -0.2004 -0.2800 -0.0860
 3673SOL    HW122652   0.653   2.023   4.121 -2.0818 -0.6988 -0.4714
 3673SOL    HW222653   0.599   2.039   3.979 -0.1145  2.4664  1.3888
 3674SOL     OW22654   1.126   2.726   0.616  0.2441  0.0456 -0.1013
 3674SOL    HW122655   1.118   2.781   0.694 -1.2851 -1.8965  1.0959
 3674SOL    HW222656   1.093   2.784   0.548  2.0535 -1.5330 -2.3361
 3675SOL     OW22657   3.384   2.865  10.516  0.2664 -0.1416  0.2192
 3675SOL    HW122658   3.409   2.775  10.494  0.4725  0.0117 -0.1825
 3675SOL    HW222659   3.429   2.915  10.448  0.4643  0.9353  1.1537
 3676SOL     OW22660   1.308   4.587   4.066  0.1621  0.2015 -0.3498
 3676SOL    HW122661   1.280   4.679   4.066 -2.4835 -0.5890 -0.7397
 3676SOL    HW222662   1.373   4.585   3.996  0.7253  2.7665  0.1069
 3677SOL     OW22663   3.821   0.209   2.720  0.0476 -0.1866  0.1205
 3677SOL    HW122664   3.867   0.222   2.637 -1.6683 -2.1744 -1.1372
 3677SOL    HW222665   3.884   0.172   2.781  0.1055  3.0146  1.9905
 3678SOL     OW22666   3.513   3.791  13.244 -0.4994  0.4724  0.2676
 3678SOL    HW122667   3.428   3.768  13.280 -0.0391  2.1331  2.4025
 3678SOL    HW222668   3.554   3.705  13.242 -0.2443  0.6408 -2.3089
 3679SOL     OW22669   3.646   1.654   1.561  0.3701 -0.0857  0.2551
 3679SOL    HW122670   3.592   1.630   1.485  1.1649  1.1616 -0.6959
 3679SOL    HW222671   3.726   1.632   1.514  0.2184 -0.4052  0.1461
 3680SOL     OW22672   0.968   3.132   7.081 -0.6338 -0.0828  0.9755
 3680SOL    HW122673   0.922   3.049   7.094 -1.5974  0.5623  1.6902
 3680SOL    HW222674   0.927   3.175   7.156  0.5630  0.8767  1.0835
 3681SOL     OW22675   2.821   0.904   5.211 -0.7083 -0.1425 -0.1133
 3681SOL    HW122676   2.775   0.987   5.202  0.9677  0.9014  0.7516
 3681SOL    HW222677   2.885   0.930   5.278 -0.3635 -2.2834  0.3853
 3682SOL     OW22678   1.097   2.610   0.257  0.0189  0.1679  0.1007
 3682SOL    HW122679   1.066   2.668   0.187 -1.5387  0.6461  1.1988
 3682SOL    HW222680   1.027   2.617   0.322  0.4105 -0.3674  0.5819
 3683SOL     OW22681   4.599   2.014   4.112 -0.4333 -0.0870  0.0169
 3683SOL    HW122682   4.571   1.938   4.161  1.6647 -0.2451  0.9937
 3683SOL    HW222683   4.557   2.085   4.161 -1.6107 -0.3453 -0.6140
 3684SOL     OW22684   3.734   0.032   9.868 -0.0421 -0.6797  1.0146
 3684SOL    HW122685   3.787   0.106   9.838  1.0667 -1.7936  0.2340
 3684SOL    HW222686   3.719   0.056   9.960 -1.2801 -1.0597  0.9171
 3685SOL     OW22687   0.480   2.213   5.770  0.6370 -0.4942  0.1753
 3685SOL    HW122688   0.456   2.284   5.710  0.5690 -1.7386 -1.2665
 3685SOL    HW222689   0.475   2.139   5.709  0.4735 -0.9334  0.7265
 3686SOL     OW22690   3.265   1.986   8.056  0.1028 -0.0144  0.6927
 3686SOL    HW122691   3.337   2.028   8.008  0.2496 -0.8346  0.1942
 3686SOL    HW222692   3.236   1.911   8.004 -1.3328  2.8155 -2.6462
 3687SOL     OW22693   0.479   2.398   8.879  0.6476  0.5426  0.4094
 3687SOL    HW122694   0.467   2.303   8.869  1.7083  0.4530  0.0070
 3687SOL    HW222695   0.396   2.431   8.843 -0.4941 -0.4607  2.1258
 3688SOL     OW22696   0.718   0.499   8.046 -0.0645  0.5028 -0.1242
 3688SOL    HW122697   0.793   0.474   7.991  0.7622 -0.0478  1.2319
 3688SOL    HW222698   0.711   0.428   8.110 -1.9234  0.0019 -0.8869
 3689SOL     OW22699   2.996   3.216   2.637 -0.3055  0.0983 -0.1461
 3689SOL    HW122700   2.918   3.162   2.622  0.2252 -1.0909  1.3837
 3689SOL    HW222701   3.002   3.255   2.550 -0.5820  0.2405 -0.1005
 3690SOL     OW22702   3.763   4.127   2.330  0.5580  0.6881 -0.0248
 3690SOL    HW122703   3.842   4.167   2.294  0.0152  2.3469  0.6053
 3690SOL    HW222704   3.798   4.042   2.354 -0.0517  0.0159 -1.4696
 3691SOL     OW22705   3.486   2.630   7.280 -0.0091  0.0099 -0.1179
 3691SOL    HW122706   3.562   2.688   7.281 -0.3068  0.3917  0.4958
 3691SOL    HW222707   3.475   2.637   7.185 -0.6326  0.0375 -0.0455
 3692SOL     OW22708   2.332   4.011  17.129 -0.1687 -0.4251 -0.0443
 3692SOL    HW122709   2.391   4.077  17.166 -0.1642  0.6094 -1.8879
 3692SOL    HW222710   2.380   3.974  17.055  1.2023 -2.2582  1.7429
 3693SOL     OW22711   1.165   1.101   7.995  0.1585 -0.4524  0.1761
 3693SOL    HW122712   1.148   1.040   8.066 -1.3218 -1.0377 -0.6727
 3693SOL    HW222713   1.257   1.129   8.000  0.8562 -2.5746 -0.3937
 3694SOL     OW22714   2.675   4.131  10.263 -0.3190  0.0614 -0.4432
 3694SOL    HW122715   2.759   4.087  10.269 -0.9531 -1.2958 -1.3924
 3694SOL    HW222716   2.701   4.219  10.234 -2.2580  0.3384 -1.3481
 3695SOL     OW22717   3.549   3.830  12.191 -0.1069 -0.2830  0.1484
 3695SOL    HW122718   3.499   3.833  12.273 -0.7113 -1.5897 -0.1714
 3695SOL    HW222719   3.588   3.917  12.179 -0.1552 -0.2735  0.0646
 3696SOL     OW22720   2.883   0.105  15.925  0.2640 -0.1413  0.6183
 3696SOL    HW122721   2.812   0.127  15.866 -1.1850 -1.5784  1.8216
 3696SOL    HW222722   2.842   0.033  15.973  1.2423  0.8862  3.0168
 3697SOL     OW22723   2.732   0.390  11.429  0.6194  0.3852 -0.1199
 3697SOL    HW122724   2.722   0.471  11.380  2.2515 -0.4404 -1.8037
 3697SOL    HW222725   2.698   0.419  11.514  1.9574  0.6488  0.3183
 3698SOL     OW22726   3.947   4.091   8.548 -0.5498  0.2912 -0.2664
 3698SOL    HW122727   3.881   4.022   8.553 -1.0071  0.6676 -0.9387
 3698SOL    HW222728   3.964   4.091   8.454 -2.4271 -1.7177 -0.5989
 3699SOL     OW22729   1.324   3.295  12.177 -0.4472  0.2086  1.0329
 3699SOL    HW122730   1.281   3.279  12.261  1.0919 -2.2258  1.3507
 3699SOL    HW222731   1.353   3.206  12.159 -0.5802  0.4482 -0.3140
 3700SOL     OW22732   2.097   1.237  16.312  0.1988 -0.7362  0.1757
 3700SOL    HW122733   2.176   1.291  16.322 -1.3650  1.5684  0.1386
 3700SOL    HW222734   2.126   1.166  16.370  0.4021 -1.7225 -1.1412
 3701SOL     OW22735   3.664   4.089   3.395 -0.5243 -0.0351  0.0813
 3701SOL    HW122736   3.731   4.110   3.330  0.5354  1.1494  1.5628
 3701SOL    HW222737   3.644   3.999   3.371 -0.3590 -0.7608  2.6468
 3702SOL     OW22738   3.817   4.536   3.894  0.1938 -0.5609  0.2893
 3702SOL    HW122739   3.742   4.548   3.953  0.4703 -2.8223  1.1162
 3702SOL    HW222740   3.803   4.444   3.872 -2.7145 -0.2911  0.9731
 3703SOL     OW22741   4.145   3.197   8.316 -0.3275  0.2010 -0.0868
 3703SOL    HW122742   4.133   3.215   8.222  1.4048  0.6880 -0.2038
 3703SOL    HW222743   4.196   3.117   8.327 -0.6505 -0.2929 -2.1938
 3704SOL     OW22744   0.475   0.411  10.654 -0.7400 -0.2035  0.3695
 3704SOL    HW122745   0.495   0.321  10.630  0.4641 -0.5057  2.5115
 3704SOL    HW222746   0.383   0.403  10.678 -0.4926  0.2684  1.5147
 3705SOL     OW22747   4.655   1.621   6.318 -0.6679 -0.2538 -0.3179
 3705SOL    HW122748   4.619   1.710   6.322 -2.4861 -1.0052  0.1900
 3705SOL    HW222749   4.589   1.578   6.263 -2.7265  0.7654  1.3736
 3706SOL     OW22750   4.015   1.463   9.729 -0.2448 -0.2929 -0.0610
 3706SOL    HW122751   4.027   1.450   9.824 -0.6754 -0.2781 -0.0027
 3706SOL    HW222752   3.920   1.469   9.740 -0.1827 -0.3216  0.5402
 3707SOL     OW22753   2.064   1.280   6.958 -0.7513 -0.4127 -0.6582
 3707SOL    HW122754   2.013   1.359   6.943  1.0901  1.1365  1.3170
 3707SOL    HW222755   2.142   1.321   6.993 -0.1064 -0.9516 -1.4508
 3708SOL     OW22756   2.093   2.841   7.868 -0.1559 -0.1498 -0.2193
 3708SOL    HW122757   2.177   2.847   7.824  0.2329  0.2713  0.5795
 3708SOL    HW222758   2.125   2.850   7.958 -1.7332  0.4968  0.2904
 3709SOL     OW22759   0.162   0.438   5.049  0.1735  0.5252  0.0059
 3709SOL    HW122760   0.066   0.443   5.055  0.0422 -2.6237  0.7016
 3709SOL    HW222761   0.176   0.418   4.956  1.6828  0.1776  0.3227
 3710SOL     OW22762   3.171   2.831   8.397 -0.0784  0.0837 -0.2617
 3710SOL    HW122763   3.086   2.787   8.397 -0.9737  1.8591  2.0316
 3710SOL    HW222764   3.151   2.885   8.320 -1.5370 -1.6492 -1.1260
 3711SOL     OW22765   1.263   0.872   2.114  0.1397  0.3769 -0.1720
 3711SOL    HW122766   1.222   0.797   2.071  0.8025  1.2145 -2.2964
 3711SOL    HW222767   1.327   0.833   2.174 -2.3626 -0.9467  1.6211
 3712SOL     OW22768   3.374   2.989   8.495 -0.3083 -0.0578 -0.1223
 3712SOL    HW122769   3.307   2.930   8.460 -1.0881  0.1196  1.0665
 3712SOL    HW222770   3.331   3.069   8.466 -0.6528 -1.0687 -2.4070
 3713SOL     OW22771   3.565   2.616   7.017 -0.1591 -0.0618  0.6844
 3713SOL    HW122772   3.498   2.582   6.957  0.7017 -0.1320 -0.2393
 3713SOL    HW222773   3.648   2.632   6.973 -1.9843  1.8774 -2.0542
 3714SOL     OW22774   3.387   3.543   7.835  0.7150  0.5820 -0.0143
 3714SOL    HW122775   3.296   3.515   7.834  1.4054 -1.5605 -2.2094
 3714SOL    HW222776   3.425   3.488   7.766 -0.9802 -0.1140 -0.3994
 3715SOL     OW22777   1.776   1.452  13.120 -0.0987 -0.3671 -0.1887
 3715SOL    HW122778   1.742   1.542  13.116 -1.5958 -0.8407  1.4770
 3715SOL    HW222779   1.847   1.458  13.184 -1.0281 -1.0974  0.9234
 3716SOL     OW22780   1.952   2.891   2.266  0.7126  0.5855 -0.0045
 3716SOL    HW122781   1.859   2.905   2.248  0.5223 -0.7449 -0.0414
 3716SOL    HW222782   1.996   2.908   2.183 -0.4317 -1.3788 -1.0072
 3717SOL     OW22783   3.763   3.389   2.812 -0.2220 -0.4659  0.8204
 3717SOL    HW122784   3.815   3.317   2.847 -1.2137 -1.2044  0.7744
 3717SOL    HW222785   3.685   3.339   2.786 -1.0035  1.7635 -1.2272
 3718SOL     OW22786   0.920   1.634   9.080  0.1740 -0.3825 -0.1703
 3718SOL    HW122787   0.912   1.694   9.005 -0.5426  0.8267  0.8676
 3718SOL    HW222788   1.013   1.655   9.090  0.1190 -0.4030  0.3780
 3719SOL     OW22789   4.343   1.129  16.670  0.6810 -0.0729 -0.4301
 3719SOL    HW122790   4.370   1.169  16.588  0.1992 -0.2108 -0.6498
 3719SOL    HW222791   4.425   1.157  16.711  1.1293 -0.2463 -1.2121
 3720SOL     OW22792   3.068   2.426   0.715 -0.0868 -0.0828 -0.6473
 3720SOL    HW122793   3.109   2.491   0.657  0.9326 -0.9342 -0.8943
 3720SOL    HW222794   3.015   2.383   0.648  1.3132  0.6477 -2.2259
 3721SOL     OW22795   0.528   3.921  10.149  0.1775  0.2309 -0.7650
 3721SOL    HW122796   0.591   3.864  10.193 -1.4673 -2.1226 -1.4269
 3721SOL    HW222797   0.472   3.855  10.107  1.1012 -1.3253  0.4085
 3722SOL     OW22798   1.891   1.280  10.103  0.0096  0.1361  0.0712
 3722SOL    HW122799   1.886   1.376  10.112 -0.1112  0.1465 -0.1024
 3722SOL    HW222800   1.802   1.255  10.126  0.8054 -1.8194  1.0549
 3723SOL     OW22801   0.615   3.821   7.492  0.6351  0.4640 -0.4255
 3723SOL    HW122802   0.617   3.731   7.525 -0.8696  0.8618  0.7173
 3723SOL    HW222803   0.634   3.878   7.566  1.4890  1.5247 -1.4527
 3724SOL     OW22804   2.967   2.043   9.000 -0.3803  0.3675 -0.2780
 3724SOL    HW122805   3.026   2.083   8.937  1.4698 -0.3570  1.0080
 3724SOL    HW222806   3.013   1.963   9.025  1.1286  1.3300  0.0111
 3725SOL     OW22807   4.515   0.904   7.072 -1.0681  0.0981 -0.2266
 3725SOL    HW122808   4.592   0.846   7.073 -1.7659 -0.8515 -3.1351
 3725SOL    HW222809   4.455   0.847   7.120  0.5233 -0.9236  0.5888
 3726SOL     OW22810   0.308   0.017  13.903 -0.3938  0.0106 -0.4267
 3726SOL    HW122811   0.383   0.014  13.961 -0.9323  1.3972  0.3286
 3726SOL    HW222812   0.249   4.712  13.965  1.1999  1.8719  2.3882
 3727SOL     OW22813   1.012   4.271  15.188 -0.3777  0.0212 -0.3366
 3727SOL    HW122814   0.977   4.183  15.181 -0.9384  0.1430  0.8656
 3727SOL    HW222815   1.075   4.254  15.258  0.0825 -0.1159 -0.7802
 3728SOL     OW22816   0.850   4.294   0.124  0.4174 -0.0827  0.3110
 3728SOL    HW122817   0.924   4.349   0.149 -0.0360  1.4950 -1.7480
 3728SOL    HW222818   0.848   4.234   0.198  0.7628  0.7017  0.9633
 3729SOL     OW22819   2.549   1.126  14.315  0.4045 -0.4113  0.2311
 3729SOL    HW122820   2.539   1.058  14.382  2.6384 -0.9539  0.0339
 3729SOL    HW222821   2.474   1.184  14.325  1.0714  0.0501  2.6799
 3730SOL     OW22822   1.061   3.341   4.724  0.0825  0.1180 -0.1104
 3730SOL    HW122823   1.098   3.421   4.762  1.3975 -0.6998  0.3311
 3730SOL    HW222824   0.986   3.332   4.783  0.2915  0.8910  0.2790
 3731SOL     OW22825   0.297   3.877   5.889  0.3839 -0.2980 -0.3742
 3731SOL    HW122826   0.275   3.930   5.966  1.1433 -1.8451  0.9126
 3731SOL    HW222827   0.380   3.845   5.924  0.2792  1.7664  1.7311
 3732SOL     OW22828   1.119   1.116  16.293  0.5431 -0.1619 -0.1400
 3732SOL    HW122829   1.196   1.156  16.253  0.2179 -1.2124 -1.8353
 3732SOL    HW222830   1.098   1.183  16.357  0.6761  1.2808 -1.5992
 3733SOL     OW22831   4.136   0.728   2.786  1.1122  0.0351  0.6020
 3733SOL    HW122832   4.063   0.783   2.815 -0.2832 -0.2513 -2.3846
 3733SOL    HW222833   4.153   0.660   2.851 -0.0652 -0.0986  0.7727
 3734SOL     OW22834   1.674   3.539   2.095 -0.1435  0.0316  0.3888
 3734SOL    HW122835   1.738   3.608   2.076 -0.1128 -0.4110 -1.1048
 3734SOL    HW222836   1.608   3.556   2.028 -0.9062 -0.4858  1.0174
 3735SOL     OW22837   2.848   1.867  17.173  0.4746 -0.1713  0.3094
 3735SOL    HW122838   2.796   1.886  17.251 -2.3700  2.4322 -2.2528
 3735SOL    HW222839   2.902   1.797  17.210 -0.3192 -0.4370  0.9636
 3736SOL     OW22840   1.231   0.562  12.426 -0.0303 -0.8210 -0.0973
 3736SOL    HW122841   1.225   0.657  12.422 -1.8975 -0.8746  1.5592
 3736SOL    HW222842   1.243   0.546  12.519 -0.3172  0.1325  0.0952
 3737SOL     OW22843   3.553   4.146   4.639  0.0873  0.4991 -0.3291
 3737SOL    HW122844   3.625   4.083   4.640 -0.3055  0.0493  1.0054
 3737SOL    HW222845   3.590   4.180   4.558  1.4862  0.4761  0.3028
 3738SOL     OW22846   4.629   1.759   0.979 -0.1517 -0.3106 -0.6180
 3738SOL    HW122847   4.562   1.718   0.923 -1.2090 -1.7482  1.7270
 3738SOL    HW222848   4.690   1.789   0.912  1.8427 -1.4194  0.7257
 3739SOL     OW22849   3.618   1.525   2.318 -0.6343 -0.3016  0.2069
 3739SOL    HW122850   3.600   1.524   2.224  0.5836 -1.8431 -0.0215
 3739SOL    HW222851   3.541   1.565   2.358 -1.1673 -1.1590  0.0429
 3740SOL     OW22852   0.578   0.602   8.604 -0.2720  0.4485 -0.2550
 3740SOL    HW122853   0.573   0.637   8.693 -0.0371  0.5430 -0.2783
 3740SOL    HW222854   0.674   0.598   8.601 -0.1704  0.5277  2.9259
 3741SOL     OW22855   0.030   1.377  12.530  0.3125 -0.1047  0.0275
 3741SOL    HW122856   0.025   1.462  12.574 -3.8738 -0.8092  0.8987
 3741SOL    HW222857   0.025   1.397  12.437 -1.1771 -0.9006 -0.0614
 3742SOL     OW22858   2.901   0.576   2.290 -0.5656 -0.4210 -0.0079
 3742SOL    HW122859   2.817   0.587   2.244  0.4707  2.9472 -1.0902
 3742SOL    HW222860   2.967   0.565   2.222 -0.7446 -0.1084 -0.2299
 3743SOL     OW22861   0.714   0.357  16.492 -0.0937 -0.7482 -0.0465
 3743SOL    HW122862   0.785   0.366  16.555 -0.2161  0.9466 -0.1483
 3743SOL    HW222863   0.721   0.444  16.452 -2.1142 -0.8083 -0.5146
 3744SOL     OW22864   3.923   3.128   3.729 -0.1998  0.2149 -0.3045
 3744SOL    HW122865   3.871   3.189   3.678  0.3640  1.7524  0.9641
 3744SOL    HW222866   4.007   3.130   3.682  0.8476  1.1812  1.5815
 3745SOL     OW22867   4.231   4.034   2.342 -0.2480  0.2431  0.0894
 3745SOL    HW122868   4.289   3.985   2.284 -0.7533  1.2975 -1.3259
 3745SOL    HW222869   4.260   4.125   2.331  4.8257 -1.6079 -2.0558
 3746SOL     OW22870   2.772   3.176   8.815  0.1381 -0.4229 -0.5676
 3746SOL    HW122871   2.791   3.082   8.811  1.5149 -0.1597 -0.1718
 3746SOL    HW222872   2.692   3.179   8.866 -0.6058 -0.4260 -1.7291
 3747SOL     OW22873   0.396   0.126  14.905 -0.5226 -0.1011  0.2806
 3747SOL    HW122874   0.397   0.209  14.857  1.9991 -0.9609 -1.1952
 3747SOL    HW222875   0.459   0.081  14.849 -2.1257 -2.8564  0.7071
 3748SOL     OW22876   1.738   2.705  11.125 -0.8014 -0.1245  0.2045
 3748SOL    HW122877   1.726   2.784  11.071 -0.3363  0.7714  1.3934
 3748SOL    HW222878   1.833   2.716  11.132 -0.4987 -2.3983 -0.4064
 3749SOL     OW22879   2.924   1.566  12.573 -0.0575 -0.0045  0.5949
 3749SOL    HW122880   2.983   1.612  12.513 -1.4421  0.9810 -0.0092
 3749SOL    HW222881   2.849   1.565  12.514  0.6647  0.9540 -0.3547
 3750SOL     OW22882   1.228   2.399   5.820 -0.5800  0.3564 -0.1891
 3750SOL    HW122883   1.263   2.471   5.767 -1.6457 -0.6871 -2.3259
 3750SOL    HW222884   1.229   2.331   5.752  1.7672 -0.1466  0.3306
 3751SOL     OW22885   2.740   0.371   7.484 -0.1328 -0.0752  0.0474
 3751SOL    HW122886   2.759   0.348   7.574 -4.3716 -2.1406  0.3829
 3751SOL    HW222887   2.743   0.292   7.429  2.6122 -0.2420  0.4091
 3752SOL     OW22888   3.824   4.352   5.328 -0.1708  0.1499 -0.2477
 3752SOL    HW122889   3.777   4.420   5.279 -0.8222 -0.2848 -0.2254
 3752SOL    HW222890   3.747   4.307   5.363 -0.0522  0.8220  0.8596
 3753SOL     OW22891   3.627   4.200   5.939 -0.0875  0.3146  0.1721
 3753SOL    HW122892   3.567   4.130   5.963 -0.6850  1.1207  0.9894
 3753SOL    HW222893   3.629   4.210   5.843 -1.3838  2.8564  0.3994
 3754SOL     OW22894   4.016   1.691  17.422 -0.2989  0.1590  0.1562
 3754SOL    HW122895   4.098   1.739  17.434 -0.3066 -0.5996  3.4367
 3754SOL    HW222896   4.059   1.612  17.391  1.9051  1.2479  0.4472
 3755SOL     OW22897   3.674   2.724  15.029  0.2354  0.0348  0.0627
 3755SOL    HW122898   3.738   2.676  15.082 -0.4150  1.0618  1.7883
 3755SOL    HW222899   3.659   2.672  14.950  0.4967  2.2364 -1.4511
 3756SOL     OW22900   3.825   2.588   3.428 -0.2797 -0.3477 -0.1356
 3756SOL    HW122901   3.817   2.538   3.509  2.3040 -2.9113 -1.4596
 3756SOL    HW222902   3.751   2.553   3.379 -0.9941  0.2993  0.4820
 3757SOL     OW22903   1.027   3.973  16.515 -0.2050 -0.2349 -0.2429
 3757SOL    HW122904   1.069   3.889  16.493 -0.9429  0.0153 -2.6077
 3757SOL    HW222905   1.022   4.007  16.426  3.0257 -0.8605 -0.6627
 3758SOL     OW22906   2.704   4.600   1.832 -0.4729  0.0392 -0.0441
 3758SOL    HW122907   2.623   4.644   1.809 -0.6527 -0.5771 -0.5918
 3758SOL    HW222908   2.759   4.678   1.842 -1.2042  0.6470 -0.7816
 3759SOL     OW22909   1.164   1.166   4.202 -0.5457  0.0524 -0.5315
 3759SOL    HW122910   1.126   1.237   4.149 -1.7702 -0.3660 -0.2042
 3759SOL    HW222911   1.256   1.190   4.195 -0.8463  1.2489 -0.4223
 3760SOL     OW22912   0.464   0.706   3.186  0.0013 -0.1354 -0.5529
 3760SOL    HW122913   0.390   0.767   3.185  1.3106  1.3897 -2.9255
 3760SOL    HW222914   0.494   0.724   3.097  2.2130 -2.2367 -0.2243
 3761SOL     OW22915   1.033   1.158   1.332 -0.0645  0.4148 -0.1228
 3761SOL    HW122916   1.000   1.136   1.245 -0.8476 -0.6067  0.4323
 3761SOL    HW222917   1.129   1.150   1.329 -0.0244  0.6490  0.5340
 3762SOL     OW22918   4.645   1.292   5.191  0.2739  0.4051  0.2133
 3762SOL    HW122919   4.581   1.311   5.122  1.1641 -0.2569 -0.7881
 3762SOL    HW222920   4.594   1.323   5.265  1.1569 -1.6866  1.6774
 3763SOL     OW22921   2.160   4.417   6.206  0.0731  0.0347 -0.1993
 3763SOL    HW122922   2.118   4.447   6.125  0.7191 -0.0689 -0.5814
 3763SOL    HW222923   2.201   4.337   6.171 -0.0795 -0.1838  0.1170
 3764SOL     OW22924   1.756   1.961   4.905  0.3906  0.1319  0.0808
 3764SOL    HW122925   1.687   2.028   4.911 -0.9471 -1.2671  0.2557
 3764SOL    HW222926   1.714   1.886   4.947  2.0496 -1.5830 -1.3123
 3765SOL     OW22927   1.255   1.116  12.374 -0.0972 -0.0485  0.1010
 3765SOL    HW122928   1.312   1.048  12.339  0.1663 -0.1132  0.6456
 3765SOL    HW222929   1.309   1.137  12.450 -0.1576  0.8315 -0.1007
 3766SOL     OW22930   4.583   1.428   1.059 -0.2344 -0.6858  0.3681
 3766SOL    HW122931   4.640   1.467   1.126  1.7862  0.7776 -2.1972
 3766SOL    HW222932   4.600   1.335   1.073  0.6506 -0.5377  0.2723
 3767SOL     OW22933   3.901   2.020   5.957 -0.1035 -0.5911 -0.1887
 3767SOL    HW122934   3.995   2.015   5.971  0.0819 -1.9360 -2.0704
 3767SOL    HW222935   3.870   1.947   6.011 -0.1660 -1.2961 -1.1855
 3768SOL     OW22936   1.038   1.122  10.344  0.4152 -0.3924  0.0543
 3768SOL    HW122937   1.075   1.194  10.294 -1.6258 -0.2036 -1.1789
 3768SOL    HW222938   0.951   1.118  10.304  2.3634 -0.3838 -4.2102
 3769SOL     OW22939   1.492   4.676   8.255 -0.2899  0.5485 -0.3695
 3769SOL    HW122940   1.459   0.018   8.217 -0.2508  0.0099 -1.5653
 3769SOL    HW222941   1.550   4.721   8.317  0.5573  0.3426 -1.0111
 3770SOL     OW22942   4.551   1.489  17.543 -0.2135 -0.0523  0.5180
 3770SOL    HW122943   4.560   1.408  17.594  1.6249  0.0170  0.3098
 3770SOL    HW222944   4.585   1.458  17.459 -0.4508 -0.9367  0.7488
 3771SOL     OW22945   4.465   4.299   8.973 -0.3349  0.6139  0.4030
 3771SOL    HW122946   4.481   4.384   9.014  1.8891 -0.2188  1.2432
 3771SOL    HW222947   4.423   4.320   8.889 -1.1168 -0.9695  0.3998
 3772SOL     OW22948   3.804   2.552   2.698 -0.4290 -0.1098 -0.1226
 3772SOL    HW122949   3.853   2.608   2.759 -1.0053 -1.3776  1.4879
 3772SOL    HW222950   3.776   2.615   2.631  0.0638  0.0903 -0.1375
 3773SOL     OW22951   0.316   1.051  16.787  0.5045  0.1025  0.2665
 3773SOL    HW122952   0.401   1.010  16.801 -0.2776 -1.8232 -0.5767
 3773SOL    HW222953   0.273   0.987  16.731  0.4515  0.3575  0.0116
 3774SOL     OW22954   2.477   2.874   6.198 -0.1642 -0.2699 -0.4039
 3774SOL    HW122955   2.454   2.782   6.209 -0.5567  0.1234  2.0876
 3774SOL    HW222956   2.542   2.877   6.128 -1.3858 -0.2276 -1.5149
 3775SOL     OW22957   0.795   3.680   6.194 -0.0052 -0.3129 -0.4686
 3775SOL    HW122958   0.821   3.772   6.180 -1.7336 -0.0615 -1.9889
 3775SOL    HW222959   0.793   3.678   6.290  1.6301  0.0097 -0.4239
 3776SOL     OW22960   3.343   2.544   5.748  0.2756  0.5319  1.2239
 3776SOL    HW122961   3.305   2.630   5.764  0.6595  0.8969  0.1681
 3776SOL    HW222962   3.316   2.531   5.657  2.1060  1.0421  0.6122
 3777SOL     OW22963   1.815   0.350   6.478  0.0259  0.4168  0.2518
 3777SOL    HW122964   1.798   0.361   6.384 -0.7881 -0.9933  0.2431
 3777SOL    HW222965   1.763   0.423   6.512 -1.0947  1.8677 -4.5790
 3778SOL     OW22966   0.514   4.090  15.110  0.0026 -0.0000  0.3469
 3778SOL    HW122967   0.419   4.092  15.124 -0.0380  2.5967 -0.2893
 3778SOL    HW222968   0.541   4.092  15.202  2.4510 -1.8725 -0.3466
 3779SOL     OW22969   1.331   3.006   6.211  0.0455  0.1990 -0.3894
 3779SOL    HW122970   1.237   3.008   6.228 -0.3882 -0.9927 -2.7795
 3779SOL    HW222971   1.376   2.992   6.295  1.0775 -0.7501 -1.1044
 3780SOL     OW22972   1.893   1.056  16.010  0.1062 -0.2184  0.0829
 3780SOL    HW122973   1.974   1.108  16.008 -0.5571  0.8868  1.4284
 3780SOL    HW222974   1.895   1.018  15.923 -2.2015  0.8110 -0.4072
 3781SOL     OW22975   3.877   2.585   0.547  0.0331 -0.2389  0.0779
 3781SOL    HW122976   3.825   2.510   0.521 -0.6387  0.6566 -1.1839
 3781SOL    HW222977   3.818   2.659   0.535 -1.6399 -1.8922 -1.8411
 3782SOL     OW22978   1.217   2.707   1.877  0.3955  0.3251 -0.2094
 3782SOL    HW122979   1.152   2.767   1.840 -1.7695 -1.4576  0.7433
 3782SOL    HW222980   1.203   2.634   1.816 -0.2159 -0.0587  0.3897
 3783SOL     OW22981   0.185   2.161   0.864 -0.3920  0.4497 -0.3137
 3783SOL    HW122982   0.194   2.245   0.819 -1.4776 -0.1033 -1.5361
 3783SOL    HW222983   0.093   2.138   0.850 -1.0337  2.1433  1.0764
 3784SOL     OW22984   4.310   1.436   4.319  0.0289  0.5839 -0.4174
 3784SOL    HW122985   4.303   1.382   4.240 -1.8624 -0.0533  0.1985
 3784SOL    HW222986   4.405   1.439   4.332 -0.0479  1.4427 -0.0442
 3785SOL     OW22987   2.917   3.118  15.059  0.4798  0.3969 -0.6563
 3785SOL    HW122988   2.865   3.188  15.019 -1.8420 -0.8035  0.2597
 3785SOL    HW222989   2.843   3.060  15.078  0.4113  0.6151 -0.2605
 3786SOL     OW22990   2.025   0.113   9.928 -0.2170 -0.3544 -0.0716
 3786SOL    HW122991   1.949   0.172   9.940 -0.6027 -1.2758  2.0662
 3786SOL    HW222992   2.101   0.161   9.961 -0.6407  1.0479 -1.0948
 3787SOL     OW22993   1.814   1.217  11.426  1.0754  0.3956 -0.0200
 3787SOL    HW122994   1.885   1.218  11.490  2.5938 -2.8816 -1.6445
 3787SOL    HW222995   1.854   1.228  11.340  0.7896 -0.3536 -0.2479
 3788SOL     OW22996   1.528   2.333   0.080  0.0785  0.4766 -0.7769
 3788SOL    HW122997   1.530   2.385   0.160  0.3420  0.3620 -0.7113
 3788SOL    HW222998   1.621   2.329   0.059  0.2210  0.5524 -0.1423
 3789SOL     OW22999   2.641   4.053   4.989  0.3549 -0.5591  0.9705
 3789SOL    HW123000   2.550   4.049   5.019 -0.6775 -2.4529 -2.4763
 3789SOL    HW223001   2.686   4.073   5.071  2.7816  0.3566 -0.6040
 3790SOL     OW23002   4.550   4.417  11.207  0.0850 -0.9738 -0.3741
 3790SOL    HW123003   4.502   4.408  11.124 -0.7131 -0.7449  0.0594
 3790SOL    HW223004   4.472   4.435  11.259  1.3696 -0.6467  1.4156
 3791SOL     OW23005   1.316   1.830   4.678  0.6461 -0.3286 -0.5621
 3791SOL    HW123006   1.371   1.755   4.701 -1.9835 -2.1231 -0.2390
 3791SOL    HW223007   1.323   1.826   4.582 -1.1426  2.0439 -0.7905
 3792SOL     OW23008   4.558   4.158  13.773 -0.3728  0.5464  0.4121
 3792SOL    HW123009   4.619   4.221  13.734 -0.2400  2.0002  2.9856
 3792SOL    HW223010   4.577   4.079  13.721  0.6653  0.7640  0.4696
 3793SOL     OW23011   2.617   3.883  12.995  0.2562 -0.2148 -0.0604
 3793SOL    HW123012   2.629   3.954  12.932 -0.4960 -0.3124 -0.3075
 3793SOL    HW223013   2.523   3.865  12.991 -0.2930  2.6189  0.4942
 3794SOL     OW23014   3.912   2.845   3.401  0.0206 -0.3535 -0.1952
 3794SOL    HW123015   3.821   2.875   3.404  0.1268 -0.0773  0.2662
 3794SOL    HW223016   3.915   2.761   3.445 -2.0066 -0.6758 -0.6511
 3795SOL     OW23017   0.027   2.851   8.530  0.1209 -0.3864 -0.1073
 3795SOL    HW123018   0.036   2.911   8.604 -0.0436  0.0109 -0.4080
 3795SOL    HW223019   0.114   2.852   8.490  0.9950  1.6642  1.8716
 3796SOL     OW23020   4.428   1.526   7.403 -0.0298 -0.1720 -0.0044
 3796SOL    HW123021   4.430   1.517   7.308 -0.3782 -0.4410  0.0159
 3796SOL    HW223022   4.456   1.617   7.411  1.1082 -0.5579  0.4945
 3797SOL     OW23023   4.055   3.890  14.161 -0.3095 -0.3391 -0.2304
 3797SOL    HW123024   4.059   3.973  14.114 -1.1049 -0.7501 -1.0314
 3797SOL    HW223025   3.977   3.853  14.120  0.4257 -0.3201 -1.6738
 3798SOL     OW23026   4.612   0.470   9.178 -0.2576  0.0949  0.9697
 3798SOL    HW123027   4.616   0.474   9.273 -1.7723 -3.6704  1.1992
 3798SOL    HW223028   4.664   0.392   9.160 -0.1289  0.2061  0.8624
 3799SOL     OW23029   3.498   0.135   6.425 -0.4071 -0.1278  0.0165
 3799SOL    HW123030   3.532   0.064   6.480  0.9910  1.2892  0.9846
 3799SOL    HW223031   3.430   0.084   6.381 -0.3691  1.4728 -1.9052
 3800SOL     OW23032   0.644   0.696   3.573  0.2455 -0.0296  0.1654
 3800SOL    HW123033   0.671   0.674   3.484  0.6267 -2.6423  0.9406
 3800SOL    HW223034   0.665   0.790   3.568  1.2719 -0.3052 -0.6952
 3801SOL     OW23035   1.129   3.094   2.054 -0.4171  0.1125  0.5237
 3801SOL    HW123036   1.220   3.111   2.028 -0.6741 -0.5567 -0.8193
 3801SOL    HW223037   1.102   3.182   2.078  0.9187  1.4517 -2.8860
 3802SOL     OW23038   4.671   0.540  11.270  0.0098 -0.3995  0.7722
 3802SOL    HW123039   4.703   0.588  11.193  0.3095 -1.7927  0.0273
 3802SOL    HW223040   4.652   0.453  11.237  1.2090 -0.1426 -0.5901
 3803SOL     OW23041   3.613   3.556   3.538 -0.0578 -0.3416 -0.5994
 3803SOL    HW123042   3.548   3.571   3.469 -1.2915 -0.8181  0.4584
 3803SOL    HW223043   3.687   3.598   3.495  1.3640 -1.0833  1.1868
 3804SOL     OW23044   4.197   0.857   5.454 -0.0423 -0.1985 -0.8845
 3804SOL    HW123045   4.104   0.868   5.473 -0.0765  1.4709 -2.1051
 3804SOL    HW223046   4.223   0.801   5.527  2.0745  0.8384 -0.8649
 3805SOL     OW23047   3.281   4.280   0.336  0.2146 -0.1774 -0.3633
 3805SOL    HW123048   3.327   4.203   0.301  1.4011 -0.3888  1.6699
 3805SOL    HW223049   3.291   4.269   0.431 -0.4441  3.5711  0.1149
 3806SOL     OW23050   0.981   1.694   6.332  0.0955 -0.2851 -0.5039
 3806SOL    HW123051   0.924   1.760   6.371 -2.5288 -2.0841 -1.2812
 3806SOL    HW223052   0.932   1.658   6.258 -1.9200 -0.9364  1.1603
 3807SOL     OW23053   2.165   1.076   8.888  0.1309  0.3139  0.0753
 3807SOL    HW123054   2.114   1.091   8.968 -1.0062  1.3362 -0.8360
 3807SOL    HW223055   2.200   0.988   8.894 -1.2318 -0.2072  0.4863
 3808SOL     OW23056   3.491   4.545   7.429  0.0884  0.2708  0.1441
 3808SOL    HW123057   3.506   4.452   7.413 -1.0908 -0.0735  1.0713
 3808SOL    HW223058   3.538   4.552   7.513 -1.1755 -1.8528  1.0302
 3809SOL     OW23059   3.809   2.418  11.542  0.0951 -0.4285 -0.6252
 3809SOL    HW123060   3.768   2.398  11.458 -2.4126  1.0594  0.2820
 3809SOL    HW223061   3.733   2.419  11.599 -0.2086 -2.3435 -0.9852
 3810SOL     OW23062   1.004   3.966   9.526  0.1766 -0.6144 -0.3250
 3810SOL    HW123063   0.943   3.896   9.502  1.3340 -1.8514  0.3213
 3810SOL    HW223064   0.960   4.043   9.491  0.2084 -0.0457  0.8779
 3811SOL     OW23065   3.589   0.616   3.396 -0.2501  0.0374 -0.1138
 3811SOL    HW123066   3.683   0.594   3.396  0.1867  1.9013 -0.8271
 3811SOL    HW223067   3.577   0.692   3.340 -2.5892  0.1279  0.5083
 3812SOL     OW23068   3.037   0.391   6.425  0.0766  0.3462  0.4998
 3812SOL    HW123069   2.966   0.345   6.381  1.8610 -3.1235  1.2693
 3812SOL    HW223070   3.110   0.363   6.371  0.7138  1.0852  0.9762
 3813SOL     OW23071   2.667   1.582   1.087  0.0858 -0.7436  0.2019
 3813SOL    HW123072   2.614   1.657   1.059 -1.3417 -1.1390  1.8578
 3813SOL    HW223073   2.610   1.548   1.155 -1.5358  2.3456  0.4165
 3814SOL     OW23074   3.313   2.777  14.806 -0.0289 -0.0345 -0.0746
 3814SOL    HW123075   3.378   2.834  14.846 -0.0316  0.4824 -0.8071
 3814SOL    HW223076   3.345   2.786  14.716  1.9193 -1.7572  0.4401
 3815SOL     OW23077   0.114   3.654   4.997  0.4091 -0.0492 -0.4155
 3815SOL    HW123078   0.041   3.610   4.953  0.7090 -1.5493  0.5843
 3815SOL    HW223079   0.164   3.578   5.027  0.7073  1.8460  3.9451
 3816SOL     OW23080   3.098   3.370   5.851 -0.1487  0.2770  0.7886
 3816SOL    HW123081   3.142   3.369   5.936  1.2278  0.2115  0.0855
 3816SOL    HW223082   3.010   3.343   5.876 -0.6256  0.6783 -0.4600
 3817SOL     OW23083   4.230   1.237  10.095 -0.2921  0.1055 -0.1740
 3817SOL    HW123084   4.271   1.320  10.118  0.6961  0.1222 -1.9416
 3817SOL    HW223085   4.246   1.236  10.000  2.4707 -0.1689  0.2896
 3818SOL     OW23086   4.739   2.920   3.715  0.7300 -0.2218 -0.3715
 3818SOL    HW123087   4.648   2.897   3.696  1.0781 -0.9613 -1.1168
 3818SOL    HW223088   0.038   2.892   3.632  2.7534 -0.2547  0.5793
 3819SOL     OW23089   3.405   3.504   5.635 -0.1687  0.0283 -0.2856
 3819SOL    HW123090   3.492   3.470   5.658 -0.0357  0.7134  0.2458
 3819SOL    HW223091   3.391   3.560   5.712 -1.1841 -1.0143  0.2745
 3820SOL     OW23092   0.767   3.205  12.372  0.2290  0.2762 -0.0710
 3820SOL    HW123093   0.678   3.197  12.337  0.3801  1.4564 -0.7362
 3820SOL    HW223094   0.755   3.180  12.464  3.1078 -0.3990  0.1101
 3821SOL     OW23095   3.160   3.109  15.188 -0.3342 -0.0057  0.3528
 3821SOL    HW123096   3.099   3.142  15.122 -0.4598  3.1418  2.0009
 3821SOL    HW223097   3.105   3.119  15.265 -0.0513  0.4377  0.4981
 3822SOL     OW23098   2.498   0.474   8.412  0.0444  0.0257 -0.2236
 3822SOL    HW123099   2.427   0.427   8.456 -0.3808  0.4942 -0.4050
 3822SOL    HW223100   2.487   0.559   8.456  1.6418  1.2492 -2.1884
 3823SOL     OW23101   3.252   4.411   2.211  0.2545 -0.1518 -0.6337
 3823SOL    HW123102   3.314   4.381   2.278  0.1163  0.1234 -0.3808
 3823SOL    HW223103   3.302   4.391   2.132 -1.8465 -1.0800 -1.7275
 3824SOL     OW23104   3.812   3.485   7.985  0.3149  0.4964  0.2032
 3824SOL    HW123105   3.716   3.487   7.982  0.1956 -3.2730  1.2659
 3824SOL    HW223106   3.828   3.467   8.078  0.4941  0.2125  0.1183
 3825SOL     OW23107   0.289   2.582   5.756  0.3856 -0.1739  0.0090
 3825SOL    HW123108   0.232   2.533   5.815 -1.6806  2.6162  0.2931
 3825SOL    HW223109   0.224   2.636   5.712  0.6297  0.1966  0.1095
 3826SOL     OW23110   0.079   0.845   3.808  0.1687  0.4261 -0.2478
 3826SOL    HW123111   0.132   0.767   3.795  0.3243  0.4293  0.3705
 3826SOL    HW223112   0.097   0.874   3.897  0.1773 -3.4283  0.9924
 3827SOL     OW23113   3.968   3.138  14.608 -0.0705 -0.0647 -0.1280
 3827SOL    HW123114   3.973   3.096  14.523  1.9873 -1.4415  0.6696
 3827SOL    HW223115   4.047   3.192  14.607  0.2830 -0.5831 -0.2400
 3828SOL     OW23116   3.875   3.163  12.152 -0.1828 -0.2475  0.0460
 3828SOL    HW123117   3.843   3.195  12.236 -0.3704  1.7929 -0.8022
 3828SOL    HW223118   3.800   3.115  12.117  0.4401 -0.6636 -0.7113
 3829SOL     OW23119   2.361   4.469   3.115  0.1417 -0.4506 -0.5273
 3829SOL    HW123120   2.438   4.439   3.067  1.3845  0.5032  0.8890
 3829SOL    HW223121   2.338   4.386   3.156 -0.4122 -0.5304 -1.0008
 3830SOL     OW23122   2.039   3.361   9.051  0.1111  0.5327 -0.3737
 3830SOL    HW123123   1.955   3.317   9.040  1.6497 -2.3439 -0.4413
 3830SOL    HW223124   2.097   3.296   9.092 -2.1579 -1.2090  0.0782
 3831SOL     OW23125   2.653   2.827   3.964  0.4895 -0.3682  0.2066
 3831SOL    HW123126   2.700   2.748   3.987  1.8146 -0.1307 -1.7066
 3831SOL    HW223127   2.685   2.890   4.029 -0.1679  1.0042 -0.8021
 3832SOL     OW23128   1.051   1.359   4.531  0.8135  0.2947  0.0423
 3832SOL    HW123129   1.047   1.443   4.484 -0.9259 -0.5652 -1.3412
 3832SOL    HW223130   0.997   1.304   4.475 -0.2679 -0.5106  1.8803
 3833SOL     OW23131   2.294   0.405   6.224 -0.9284 -0.2025 -0.2319
 3833SOL    HW123132   2.217   0.434   6.273 -0.9076  0.3190 -0.4985
 3833SOL    HW223133   2.310   0.314   6.246  0.7086 -0.2752 -1.7048
 3834SOL     OW23134   1.815   2.014   9.875  0.2216  0.4932 -0.1260
 3834SOL    HW123135   1.771   1.948   9.822  3.2878 -1.1256 -0.6322
 3834SOL    HW223136   1.809   1.967   9.959 -1.4279  0.6581 -0.1426
 3835SOL     OW23137   1.571   4.064  13.331  0.5386  0.2975  0.1937
 3835SOL    HW123138   1.614   4.107  13.257  2.0081 -1.8462 -0.1937
 3835SOL    HW223139   1.495   4.026  13.287 -0.6989  0.1514  2.4880
 3836SOL     OW23140   3.476   1.281  10.182  0.6849 -0.7992  0.1051
 3836SOL    HW123141   3.486   1.282  10.277 -1.9707  0.4927  0.3666
 3836SOL    HW223142   3.443   1.192  10.167  0.4163  0.0199 -4.3249
 3837SOL     OW23143   1.657   3.047   7.352 -0.2427 -0.4438 -0.3397
 3837SOL    HW123144   1.609   2.964   7.358  0.7040 -0.8600  1.3222
 3837SOL    HW223145   1.606   3.098   7.289 -0.1022 -0.1172 -0.1841
 3838SOL     OW23146   4.203   2.362   5.186 -0.4209  0.2607 -0.1885
 3838SOL    HW123147   4.150   2.283   5.173  0.3150 -0.3939  0.7968
 3838SOL    HW223148   4.198   2.368   5.281 -0.7397 -2.4209 -0.0188
 3839SOL     OW23149   3.005   3.136  12.126  0.4931 -0.0982 -0.1735
 3839SOL    HW123150   2.975   3.157  12.215  1.1626 -2.4283  0.5962
 3839SOL    HW223151   3.069   3.065  12.136  0.2243 -0.1435  1.2826
 3840SOL     OW23152   1.667   4.443   7.839  0.6989  0.2818 -0.2485
 3840SOL    HW123153   1.684   4.430   7.746 -0.1624  1.2303 -0.5385
 3840SOL    HW223154   1.740   4.396   7.879  2.8815  3.8418 -0.0851
 3841SOL     OW23155   1.052   3.872   4.834  0.0044  0.1910 -0.1002
 3841SOL    HW123156   1.049   3.899   4.925  1.9341 -0.0862  0.0340
 3841SOL    HW223157   1.133   3.822   4.833 -0.3220 -0.3516  1.6270
 3842SOL     OW23158   2.632   1.426  11.929  0.5341  0.4915  0.3824
 3842SOL    HW123159   2.699   1.438  11.861  0.0344  2.1633  0.1900
 3842SOL    HW223160   2.574   1.494  11.896  1.4294  1.2426  0.3332
 3843SOL     OW23161   0.416   3.251   8.866  0.1753  0.3620  0.3742
 3843SOL    HW123162   0.322   3.265   8.858  0.1711  0.6507  0.9180
 3843SOL    HW223163   0.435   3.321   8.928  1.2519  2.5658 -2.4850
 3844SOL     OW23164   4.465   1.381   2.808  0.0309 -0.1683  0.0180
 3844SOL    HW123165   4.408   1.457   2.819 -0.3873 -0.3382 -0.9902
 3844SOL    HW223166   4.546   1.410   2.765  1.4333 -0.9815  2.0742
 3845SOL     OW23167   3.058   3.065  13.512  0.1015  0.7525  0.1513
 3845SOL    HW123168   2.979   3.089  13.561 -0.3600 -0.5987  0.0688
 3845SOL    HW223169   3.103   3.150  13.513 -1.7507  1.7347  1.5297
 3846SOL     OW23170   1.085   3.036   1.377 -0.3585  0.1150 -0.0166
 3846SOL    HW123171   1.178   3.021   1.390  0.3138  3.4378 -0.9060
 3846SOL    HW223172   1.083   3.038   1.281 -1.0814 -0.4625 -0.0141
 3847SOL     OW23173   3.813   2.219   8.037 -0.4883  0.2472  0.4899
 3847SOL    HW123174   3.797   2.192   7.947  0.9071  2.1875 -0.3408
 3847SOL    HW223175   3.776   2.142   8.080 -0.3728 -0.6953 -1.1132
 3848SOL     OW23176   2.328   1.200   9.223  0.1481 -0.2157  0.7366
 3848SOL    HW123177   2.276   1.269   9.179  0.6223 -1.2967 -1.5338
 3848SOL    HW223178   2.373   1.159   9.149 -1.6488 -2.6018  0.9734
 3849SOL     OW23179   3.557   1.709   6.020  0.5893  0.2437  0.0455
 3849SOL    HW123180   3.604   1.655   6.083  0.1698 -1.0633 -0.7824
 3849SOL    HW223181   3.609   1.695   5.941 -1.2765 -1.0577 -0.9268
 3850SOL     OW23182   3.608   1.279   9.644  0.5741 -0.3188 -0.0023
 3850SOL    HW123183   3.631   1.210   9.706 -2.6123 -0.6396  0.8303
 3850SOL    HW223184   3.667   1.353   9.658  1.0226 -0.3107 -1.9102
 3851SOL     OW23185   2.843   3.008   7.680 -0.1016 -0.5452 -0.1938
 3851SOL    HW123186   2.748   2.999   7.672  0.2650 -1.5832 -3.3336
 3851SOL    HW223187   2.875   2.944   7.617 -2.3511 -1.0357 -0.8344
 3852SOL     OW23188   1.170   1.296  16.832 -0.6271  1.0928 -0.7025
 3852SOL    HW123189   1.198   1.293  16.741 -2.8583 -5.0728 -1.1813
 3852SOL    HW223190   1.215   1.378  16.853 -0.0592  0.4261  0.7086
 3853SOL     OW23191   4.438   4.541   4.866  0.1381 -0.3697 -0.5106
 3853SOL    HW123192   4.425   4.509   4.955  1.1809  1.5139  0.3104
 3853SOL    HW223193   4.355   4.524   4.821 -0.9311  1.0983  0.9365
 3854SOL     OW23194   1.802   1.061   1.796 -0.8578 -0.0080 -0.4766
 3854SOL    HW123195   1.779   1.152   1.810 -0.3175 -0.6515  4.6749
 3854SOL    HW223196   1.747   1.018   1.862 -1.7671  0.4214 -0.9561
 3855SOL     OW23197   2.151   0.524  16.829 -0.1244 -0.4129 -0.3465
 3855SOL    HW123198   2.188   0.437  16.813  1.6114 -0.1154  2.0481
 3855SOL    HW223199   2.065   0.524  16.787 -0.5381 -1.9150  0.4632
 3856SOL     OW23200   1.111   1.220  11.855 -0.3174  0.4934  0.5442
 3856SOL    HW123201   1.137   1.230  11.946 -2.3111  1.6308  0.9782
 3856SOL    HW223202   1.061   1.300  11.838 -2.0091 -0.8006 -0.6599
 3857SOL     OW23203   1.338   3.475  13.210 -0.5704  0.2126 -0.3779
 3857SOL    HW123204   1.255   3.519  13.229  0.6451  2.4365 -0.2846
 3857SOL    HW223205   1.392   3.541  13.254  0.0844 -0.2537 -0.4682
 3858SOL     OW23206   2.400   2.129  17.713 -0.2341  0.4478  0.4539
 3858SOL    HW123207   2.400   2.042  17.753 -0.4974  0.8552  1.3223
 3858SOL    HW223208   2.406   2.097  17.623  0.9944  0.5152  0.5129
 3859SOL     OW23209   3.466   2.744   0.395 -0.4013 -0.1337 -0.2538
 3859SOL    HW123210   3.509   2.706   0.471 -0.2318 -1.6058 -1.0818
 3859SOL    HW223211   3.427   2.827   0.422 -1.0061 -0.4609 -0.1376
 3860SOL     OW23212   1.937   0.890   5.796 -0.3935  0.1535 -0.5872
 3860SOL    HW123213   1.982   0.882   5.712  0.9571 -3.6138  0.4775
 3860SOL    HW223214   1.976   0.963   5.843  2.1126 -1.9053  0.5109
 3861SOL     OW23215   3.318   1.504  11.527 -0.0627 -0.8911 -0.0038
 3861SOL    HW123216   3.235   1.540  11.497  0.7020  0.8967  0.0176
 3861SOL    HW223217   3.365   1.586  11.540 -0.5187 -0.2631 -2.5042
 3862SOL     OW23218   1.676   4.009   8.391  0.5951 -0.4983 -0.1263
 3862SOL    HW123219   1.654   4.101   8.402  0.0162 -0.7372  0.7063
 3862SOL    HW223220   1.593   3.978   8.353  0.6767 -2.0383  0.9480
 3863SOL     OW23221   2.618   1.921   0.251 -0.2847 -0.0356 -0.2762
 3863SOL    HW123222   2.525   1.901   0.239 -0.3361 -0.9594  1.5250
 3863SOL    HW223223   2.641   1.969   0.172 -0.8860  0.4670 -0.1418
 3864SOL     OW23224   4.207   0.758   3.840  0.0949 -0.1484 -0.5012
 3864SOL    HW123225   4.303   0.758   3.841  0.0933  1.5117  0.3214
 3864SOL    HW223226   4.187   0.695   3.909 -1.5884 -0.7468 -1.5394
 3865SOL     OW23227   0.996   0.100   4.671 -0.4568  0.0964  0.2709
 3865SOL    HW123228   1.052   0.161   4.719 -2.9574  1.8296  1.0152
 3865SOL    HW223229   1.027   0.017   4.706 -1.0802 -0.2616 -0.0153
 3866SOL     OW23230   4.247   0.444   4.607 -0.7604  0.5074  0.5745
 3866SOL    HW123231   4.188   0.370   4.622  0.1537 -0.5442 -1.1345
 3866SOL    HW223232   4.188   0.520   4.616 -1.0771  0.4603 -1.2026
 3867SOL     OW23233   3.583   0.960   8.219  0.2921 -0.1717 -0.0124
 3867SOL    HW123234   3.679   0.964   8.218  0.2850 -0.1870 -2.3594
 3867SOL    HW223235   3.569   0.952   8.313 -0.1612 -0.1703 -0.0798
 3868SOL     OW23236   0.835   1.762  17.722 -0.0549 -0.1712 -0.7494
 3868SOL    HW123237   0.847   1.676   0.007 -0.7168 -0.0371 -0.2772
 3868SOL    HW223238   0.797   1.737  17.638  0.7467 -0.9226 -0.8878
 3869SOL     OW23239   1.496   4.324   6.619 -0.0537 -0.0668 -0.4137
 3869SOL    HW123240   1.530   4.404   6.578 -0.3095 -0.3328 -1.1509
 3869SOL    HW223241   1.501   4.254   6.553 -0.2554  1.4858 -2.0965
 3870SOL     OW23242   2.575   3.717  15.852 -0.3114  0.3385  0.2313
 3870SOL    HW123243   2.598   3.806  15.877 -1.0833  0.6155 -0.0483
 3870SOL    HW223244   2.494   3.702  15.899 -0.2286 -1.8554 -0.2896
 3871SOL     OW23245   0.763   0.892   6.554  0.5657 -0.1889 -0.2913
 3871SOL    HW123246   0.703   0.922   6.622  0.3178  0.8760 -0.9775
 3871SOL    HW223247   0.849   0.920   6.585  0.7957 -0.6435 -0.5179
 3872SOL     OW23248   1.107   2.226   9.273  0.4825  0.4884 -0.2076
 3872SOL    HW123249   1.121   2.316   9.304 -0.5769 -0.7989  4.1103
 3872SOL    HW223250   1.062   2.241   9.190  1.4113  0.5196 -0.7012
 3873SOL     OW23251   4.407   3.259   9.703  0.0119 -0.6057  0.6494
 3873SOL    HW123252   4.355   3.179   9.700  1.1364 -1.3647  1.7270
 3873SOL    HW223253   4.446   3.258   9.790  1.3935  1.2521  0.0696
 3874SOL     OW23254   2.403   3.493  11.413 -0.0252 -0.1805 -0.4275
 3874SOL    HW123255   2.472   3.490  11.480 -0.6183 -0.3977  0.1777
 3874SOL    HW223256   2.438   3.566  11.361 -0.8884  2.1227  2.2443
 3875SOL     OW23257   1.356   0.077  17.293  0.0045  0.1126  0.2836
 3875SOL    HW123258   1.385   0.135  17.222 -1.4123 -0.0915 -0.4503
 3875SOL    HW223259   1.300   0.022  17.238 -1.5564 -0.2213  2.2076
 3876SOL     OW23260   3.504   0.403   2.949 -0.2700  0.3731 -0.0019
 3876SOL    HW123261   3.589   0.441   2.925  0.7850 -1.0102  1.5656
 3876SOL    HW223262   3.505   0.419   3.043 -1.8087 -0.4418  0.1560
 3877SOL     OW23263   4.197   4.060  13.011  0.4444  0.0736 -0.0939
 3877SOL    HW123264   4.157   4.024  13.091  1.9194 -0.3147  0.4563
 3877SOL    HW223265   4.152   4.019  12.937 -0.2176  1.6050 -0.5323
 3878SOL     OW23266   4.275   2.649   4.496 -0.1195 -0.2869 -0.1820
 3878SOL    HW123267   4.356   2.639   4.446 -0.5895 -1.6692 -0.6725
 3878SOL    HW223268   4.230   2.711   4.438 -1.0635  0.0454  0.9053
 3879SOL     OW23269   3.681   0.996  13.838 -0.0058 -0.4814  0.1536
 3879SOL    HW123270   3.703   0.903  13.838  1.0044 -0.2374  1.0493
 3879SOL    HW223271   3.749   1.025  13.777  0.5500 -2.2083 -0.0382
 3880SOL     OW23272   2.200   2.559   2.905 -0.9250  0.4939 -0.5114
 3880SOL    HW123273   2.134   2.518   2.850 -0.8036 -1.0469  0.5000
 3880SOL    HW223274   2.274   2.529   2.853  1.3352  2.4181  1.5710
 3881SOL     OW23275   1.414   2.630  11.231  0.4644 -0.8899 -0.2380
 3881SOL    HW123276   1.459   2.704  11.272 -1.5461  0.2695 -0.1509
 3881SOL    HW223277   1.468   2.615  11.153  0.5279 -2.1901  0.0668
 3882SOL     OW23278   3.971   2.070   6.355  0.4502  0.2158  0.6884
 3882SOL    HW123279   3.964   1.975   6.348  2.2986  0.0975  0.6331
 3882SOL    HW223280   4.065   2.088   6.354  0.2849  0.9527 -0.9697
 3883SOL     OW23281   3.566   4.397   6.113  0.0717  0.2010 -0.3183
 3883SOL    HW123282   3.628   4.451   6.064  0.5007  1.2478  1.4138
 3883SOL    HW223283   3.580   4.320   6.057  1.5684 -0.8456  1.5082
 3884SOL     OW23284   3.585   3.698   5.830  0.0078 -0.1025  0.6323
 3884SOL    HW123285   3.609   3.613   5.793  0.6651  0.4604 -0.2496
 3884SOL    HW223286   3.653   3.715   5.895 -0.0818  2.5178  0.0545
 3885SOL     OW23287   4.610   0.865   5.439 -0.2872  0.3552  0.3131
 3885SOL    HW123288   4.600   0.777   5.476  3.4787  0.1282  0.8811
 3885SOL    HW223289   4.669   0.853   5.365  0.0896  0.3553  0.6099
 3886SOL     OW23290   3.284   2.143  17.317 -0.2709  0.5031 -0.0368
 3886SOL    HW123291   3.360   2.192  17.284 -0.7218  0.2225 -1.4803
 3886SOL    HW223292   3.311   2.120  17.406  0.1693 -0.6163 -0.4671
 3887SOL     OW23293   0.108   1.103  12.375 -0.0225  0.2280 -0.1894
 3887SOL    HW123294   0.051   1.170  12.413 -3.5874 -2.3967 -0.9564
 3887SOL    HW223295   0.144   1.069  12.457 -0.4500  3.8463  1.4729
 3888SOL     OW23296   1.164   1.936   5.019 -0.4018  0.3417 -0.7342
 3888SOL    HW123297   1.107   2.010   5.040 -0.3986 -0.4554  2.0958
 3888SOL    HW223298   1.138   1.863   5.075 -1.5464  0.7500 -0.7372
 3889SOL     OW23299   2.218   4.696   5.951 -0.4414 -0.1911  0.4798
 3889SOL    HW123300   2.264   4.682   6.034 -0.2488  1.1124  0.5929
 3889SOL    HW223301   2.233   4.613   5.905 -2.0498 -0.0924 -0.2350
 3890SOL     OW23302   4.733   2.030   1.702  0.2424  0.0264  0.6872
 3890SOL    HW123303   4.706   1.949   1.659  0.8084  0.1615  0.0698
 3890SOL    HW223304   4.709   1.996   1.788  1.2894 -1.5598  0.3461
 3891SOL     OW23305   1.720   4.234   4.374 -0.3137 -0.0667 -0.5337
 3891SOL    HW123306   1.789   4.297   4.353 -2.1297  1.4401 -1.9828
 3891SOL    HW223307   1.740   4.180   4.298 -1.0190  0.2551 -0.9520
 3892SOL     OW23308   3.673   0.369   8.822 -0.4292 -0.0173  1.1027
 3892SOL    HW123309   3.747   0.311   8.806  0.2098  1.4725 -1.3020
 3892SOL    HW223310   3.613   0.298   8.847 -0.0617 -0.6496  0.1630
 3893SOL     OW23311   2.864   3.188   4.133  0.1498  0.6209 -0.0711
 3893SOL    HW123312   2.815   3.111   4.161 -0.5429  2.2363  3.1437
 3893SOL    HW223313   2.790   3.246   4.119  0.3537  0.6960 -0.8792
 3894SOL     OW23314   0.483   4.126  10.767  0.0436 -0.2109  0.5641
 3894SOL    HW123315   0.446   4.038  10.776 -1.1098  0.3284  1.1689
 3894SOL    HW223316   0.577   4.109  10.763  0.1344  0.2540  0.7001
 3895SOL     OW23317   2.615   3.638   5.581  0.0693  0.2373 -0.6648
 3895SOL    HW123318   2.584   3.548   5.589 -0.1143  0.3719  0.0979
 3895SOL    HW223319   2.672   3.646   5.657 -0.3946 -2.3239 -0.0594
 3896SOL     OW23320   3.395   3.965   0.902  0.3446 -0.0243  0.1634
 3896SOL    HW123321   3.410   3.887   0.955  0.0426  0.0845  0.4097
 3896SOL    HW223322   3.364   3.934   0.817 -0.0646  0.0936  0.2717
 3897SOL     OW23323   2.435   4.642   6.099 -0.0247 -0.4820 -0.6070
 3897SOL    HW123324   2.504   4.701   6.131 -0.3792 -0.6380  0.4449
 3897SOL    HW223325   2.477   4.611   6.019  1.5133 -0.8573  0.3433
 3898SOL     OW23326   1.201   2.769   4.170  0.3558  0.3815  0.7207
 3898SOL    HW123327   1.172   2.727   4.252 -1.9558  1.3802  0.3943
 3898SOL    HW223328   1.277   2.817   4.201  0.1079 -0.0835  2.0681
 3899SOL     OW23329   4.102   1.598   4.349  0.1467 -0.3462  0.3024
 3899SOL    HW123330   4.170   1.531   4.361 -0.3613 -1.2923 -1.9903
 3899SOL    HW223331   4.151   1.665   4.301  1.3327 -0.1971  1.7307
 3900SOL     OW23332   1.107   4.323   6.182  0.0088 -0.1653 -0.3586
 3900SOL    HW123333   1.029   4.351   6.133 -0.1246  0.6596  0.3504
 3900SOL    HW223334   1.103   4.227   6.173 -3.3397 -0.1258  0.8504
 3901SOL     OW23335   1.891   2.665   4.161  0.9205 -0.4777 -0.8355
 3901SOL    HW123336   1.826   2.629   4.221  0.1982  1.8576 -0.2371
 3901SOL    HW223337   1.973   2.659   4.210 -0.2690  0.8573  1.3040
 3902SOL     OW23338   0.524   4.316  13.298 -0.6769 -0.0232 -0.2010
 3902SOL    HW123339   0.469   4.301  13.221  0.0304  0.8155 -0.8814
 3902SOL    HW223340   0.602   4.351  13.256 -1.0084  1.2037  0.1986
 3903SOL     OW23341   3.706   2.683   6.762  0.7706 -0.8987  0.4026
 3903SOL    HW123342   3.679   2.730   6.682 -0.3395 -1.0807  0.6716
 3903SOL    HW223343   3.762   2.619   6.720  1.7942  1.0575 -1.2430
 3904SOL     OW23344   2.254   2.195   2.909  0.0429 -0.1192 -0.2672
 3904SOL    HW123345   2.174   2.236   2.941  0.1267  0.7193 -1.1398
 3904SOL    HW223346   2.239   2.102   2.930  3.3617 -0.6728 -0.3503
 3905SOL     OW23347   0.669   2.746   9.294 -0.4068 -0.4719 -0.1952
 3905SOL    HW123348   0.612   2.729   9.219  0.1020 -1.0245 -0.4551
 3905SOL    HW223349   0.633   2.692   9.365  1.4129 -0.2513  0.8958
 3906SOL     OW23350   0.472   3.401  17.123 -0.1897 -0.1817  0.2139
 3906SOL    HW123351   0.510   3.489  17.127  2.8593 -1.6644  3.1976
 3906SOL    HW223352   0.549   3.344  17.125 -2.2961 -2.9217  2.1264
 3907SOL     OW23353   0.631   2.462   7.098 -0.1188  1.0349  0.1842
 3907SOL    HW123354   0.674   2.449   7.183 -0.5885 -0.2967  0.2208
 3907SOL    HW223355   0.558   2.400   7.107  0.8939 -0.1469  0.3623
 3908SOL     OW23356   4.598   2.245   0.902 -0.3635 -0.0857 -0.2699
 3908SOL    HW123357   4.549   2.312   0.855  1.3017  0.1301 -1.7263
 3908SOL    HW223358   4.591   2.164   0.851  1.1401 -0.0756 -0.5119
 3909SOL     OW23359   3.046   2.322   3.280 -0.7111  0.3545 -0.2348
 3909SOL    HW123360   2.971   2.264   3.286 -0.1104 -0.3643  0.2862
 3909SOL    HW223361   3.005   2.408   3.270 -0.6979  0.5789  1.6342
 3910SOL     OW23362   2.760   3.727  10.180  0.0731 -0.1345 -0.2943
 3910SOL    HW123363   2.683   3.720  10.236 -1.4856  2.1041 -2.1237
 3910SOL    HW223364   2.806   3.801  10.220 -0.8226 -1.6370  3.5248
 3911SOL     OW23365   2.213   3.160  16.309  0.4461 -0.0186  0.1786
 3911SOL    HW123366   2.269   3.205  16.372 -1.2995 -0.0154  1.7068
 3911SOL    HW223367   2.255   3.192  16.229  1.5942 -2.3811 -0.1372
 3912SOL     OW23368   0.895   1.185   2.229 -0.1680  0.1668  0.2308
 3912SOL    HW123369   0.971   1.126   2.237  0.2394  0.5607 -0.7434
 3912SOL    HW223370   0.911   1.258   2.288  2.0710 -0.1501  0.0184
 3913SOL     OW23371   3.055   0.352   2.524  0.5449  0.3601  0.0440
 3913SOL    HW123372   2.960   0.363   2.529  0.2651 -1.4011 -1.4821
 3913SOL    HW223373   3.073   0.361   2.431 -0.1971  3.4612  0.2025
 3914SOL     OW23374   1.827   0.959   6.828  0.3317 -0.4614  0.6540
 3914SOL    HW123375   1.900   1.001   6.782  1.2545 -4.1624 -1.2915
 3914SOL    HW223376   1.838   0.987   6.919  1.8753  2.8699 -0.5535
 3915SOL     OW23377   4.162   1.585  10.210 -0.1864  0.3305  0.0728
 3915SOL    HW123378   4.251   1.550  10.213  0.2413  1.4120 -0.4693
 3915SOL    HW223379   4.149   1.572  10.304  0.0769  1.6306  0.2801
 3916SOL     OW23380   4.340   0.222   6.781 -0.2309  0.4345 -0.0074
 3916SOL    HW123381   4.267   0.181   6.734 -0.9004  1.3733  0.2147
 3916SOL    HW223382   4.388   0.147   6.817 -1.1593  0.2557  0.8571
 3917SOL     OW23383   1.827   0.705  10.060  0.1734 -0.0113 -0.2487
 3917SOL    HW123384   1.811   0.784  10.009  2.0897  0.9843  0.7019
 3917SOL    HW223385   1.776   0.648  10.002  0.5839  0.5488 -1.1510
 3918SOL     OW23386   3.801   4.678   6.249  0.2254 -0.0006  0.4102
 3918SOL    HW123387   3.798   0.032   6.269 -0.5066  0.0003  0.2963
 3918SOL    HW223388   3.754   4.682   6.165  1.7980  2.7797 -0.3493
 3919SOL     OW23389   1.154   4.189   0.024 -0.1176 -0.3080 -0.1571
 3919SOL    HW123390   1.140   4.282   0.042  1.3902  0.2061 -1.5571
 3919SOL    HW223391   1.067   4.168  17.746  0.1044 -0.8493 -0.3916
 3920SOL     OW23392   4.398   0.426   2.898  0.4235 -0.1015  0.2711
 3920SOL    HW123393   4.402   0.477   2.979 -1.2482 -0.0881  0.3458
 3920SOL    HW223394   4.488   0.395   2.892  0.3850  0.0424 -0.9252
 3921SOL     OW23395   0.543   3.497   4.975 -0.0220  0.4196  0.6342
 3921SOL    HW123396   0.541   3.522   5.068 -1.1984  0.4590  0.6065
 3921SOL    HW223397   0.450   3.486   4.955  0.5611 -0.9649 -1.2101
 3922SOL     OW23398   3.434   0.792   4.216 -0.2091  0.6144  0.2055
 3922SOL    HW123399   3.511   0.753   4.176  0.8224  2.1536  0.7062
 3922SOL    HW223400   3.359   0.752   4.170 -1.0203  1.0331  1.1616
 3923SOL     OW23401   4.294   3.776   5.078 -0.1806 -0.1417 -0.5473
 3923SOL    HW123402   4.323   3.714   5.145 -2.4073 -1.3287 -0.6862
 3923SOL    HW223403   4.328   3.856   5.117 -1.4910 -0.0882  0.4670
 3924SOL     OW23404   4.127   0.268   5.400  0.0595  0.0770  0.3361
 3924SOL    HW123405   4.165   0.286   5.314  1.3863 -1.6485  0.5871
 3924SOL    HW223406   4.095   0.355   5.426 -0.0023  0.1432  0.0428
 3925SOL     OW23407   3.118   0.653   7.839  0.2328  0.1524  0.3107
 3925SOL    HW123408   3.165   0.647   7.922  0.1747  1.4763  0.4306
 3925SOL    HW223409   3.037   0.698   7.861  1.0738  1.1106  1.4398
 3926SOL     OW23410   3.702   3.006  15.743  0.0776  0.5864 -0.3244
 3926SOL    HW123411   3.676   2.950  15.670 -1.1967  0.2916  0.3501
 3926SOL    HW223412   3.723   3.088  15.699  1.5206 -0.0626 -0.8496
 3927SOL     OW23413   2.877   2.714   9.788  0.0800  0.2048  0.3200
 3927SOL    HW123414   2.963   2.717   9.830 -0.1221  2.4948  0.5516
 3927SOL    HW223415   2.904   2.760   9.708 -0.2012 -0.3763 -0.1109
 3928SOL     OW23416   2.637   3.800   7.548 -0.8348 -0.2869 -0.0272
 3928SOL    HW123417   2.599   3.796   7.636 -0.6353  1.7882  0.1550
 3928SOL    HW223418   2.569   3.756   7.498  0.7573 -0.3706 -2.1010
 3929SOL     OW23419   1.628   2.668   9.155 -0.1433 -0.0594  0.0140
 3929SOL    HW123420   1.633   2.762   9.171 -2.0399  0.1054 -0.3860
 3929SOL    HW223421   1.654   2.630   9.239 -0.9423  1.4757  0.9424
 3930SOL     OW23422   1.338   3.901   8.393  0.5186 -0.2084  0.6417
 3930SOL    HW123423   1.389   3.903   8.312 -0.1854 -3.0628  0.1448
 3930SOL    HW223424   1.262   3.942   8.351 -0.2988 -0.4451  1.9066
 3931SOL     OW23425   2.617   1.713   2.412 -0.6682  0.3082 -0.2240
 3931SOL    HW123426   2.532   1.719   2.457  0.0426 -1.8948  1.3873
 3931SOL    HW223427   2.636   1.621   2.427 -1.6228  0.5512  2.5005
 3932SOL     OW23428   1.464   3.580   8.241  0.1590  0.1461  0.1865
 3932SOL    HW123429   1.525   3.589   8.168  0.1375 -0.1817  0.1293
 3932SOL    HW223430   1.379   3.586   8.196 -0.8388 -0.0626  2.0678
 3933SOL     OW23431   4.677   4.520   6.666  0.2006  0.6530 -0.2096
 3933SOL    HW123432   0.001   4.457   6.632  1.1549  0.5454  1.7369
 3933SOL    HW223433   4.735   4.595   6.681 -1.4464  1.7675  0.6328
 3934SOL     OW23434   3.353   1.404   9.610 -0.0934  0.3959  0.0443
 3934SOL    HW123435   3.386   1.335   9.668  0.6558  2.0357  1.5747
 3934SOL    HW223436   3.261   1.383   9.625  0.1896  0.1078  1.3654
 3935SOL     OW23437   0.036   4.437  10.103  0.6841  0.2893  0.0676
 3935SOL    HW123438   4.684   4.464  10.097  1.1208  2.1482  1.7866
 3935SOL    HW223439   0.045   4.444  10.198  0.3882 -0.7262  0.1696
 3936SOL     OW23440   4.738   1.406  16.510  0.4650 -0.0475  0.2099
 3936SOL    HW123441   4.701   1.494  16.501  1.2767  0.4052  1.2283
 3936SOL    HW223442   0.090   1.419  16.536  0.3459  1.6039 -0.1887
 3937SOL     OW23443   4.260   4.460  11.195 -0.0638 -0.3656  0.0282
 3937SOL    HW123444   4.211   4.464  11.113  0.0018 -0.0060  0.0069
 3937SOL    HW223445   4.278   4.552  11.213  2.2775 -1.0189  1.0806
 3938SOL     OW23446   0.420   2.548   8.142  0.2585 -0.4242 -0.4540
 3938SOL    HW123447   0.511   2.570   8.159 -0.4256  1.0594  1.2883
 3938SOL    HW223448   0.386   2.619   8.087  0.7577  0.5437  0.4921
 3939SOL     OW23449   0.605   1.817   2.437  0.1498  0.0011 -0.7439
 3939SOL    HW123450   0.537   1.762   2.478 -0.4658  0.4770 -1.1258
 3939SOL    HW223451   0.661   1.842   2.511 -1.2125  0.3144  0.1813
 3940SOL     OW23452   3.394   4.398   4.758  0.0728  0.0686  0.7862
 3940SOL    HW123453   3.437   4.317   4.784 -1.1018 -0.0851  2.2891
 3940SOL    HW223454   3.455   4.415   4.686 -0.6767 -1.3968 -0.1874
 3941SOL     OW23455   4.242   1.114  15.956  0.3704 -0.0140 -0.5363
 3941SOL    HW123456   4.148   1.098  15.952  0.1848  0.7300  0.6985
 3941SOL    HW223457   4.248   1.210  15.954 -2.0910  0.1951  2.6747
 3942SOL     OW23458   0.145   1.445   0.543  0.0880  0.5502 -0.0018
 3942SOL    HW123459   0.230   1.428   0.503 -0.7837 -0.7818 -1.2798
 3942SOL    HW223460   0.164   1.526   0.590 -1.2362 -0.0289  1.5172
 3943SOL     OW23461   3.347   2.881  12.009  0.3891 -0.1821 -0.0411
 3943SOL    HW123462   3.424   2.844  12.054 -0.0741 -0.7575  0.2775
 3943SOL    HW223463   3.338   2.966  12.051  1.6657 -0.2614  0.4037
 3944SOL     OW23464   3.994   1.704   9.034 -0.8404  0.6443 -0.6909
 3944SOL    HW123465   4.013   1.689   8.941 -0.2105 -1.8785 -0.1448
 3944SOL    HW223466   3.935   1.633   9.058 -1.4584  1.2899 -0.2839
 3945SOL     OW23467   3.062   4.453  13.967  0.3291  0.0635  0.0547
 3945SOL    HW123468   3.005   4.522  13.932  0.7547 -1.6304 -3.8411
 3945SOL    HW223469   3.048   4.388  13.899 -2.5337 -0.8854  1.5197
 3946SOL     OW23470   2.182   2.164  13.108 -0.4486 -0.1762 -0.6458
 3946SOL    HW123471   2.213   2.092  13.052  0.5704 -1.4947  1.5989
 3946SOL    HW223472   2.176   2.111  13.187 -1.5779  1.1084  0.1174
 3947SOL     OW23473   3.834   1.085   0.767  0.9154  0.3660  0.7694
 3947SOL    HW123474   3.780   1.110   0.691 -0.1644 -1.2426  1.0034
 3947SOL    HW223475   3.873   1.172   0.779  2.6642 -0.1300 -1.1202
 3948SOL     OW23476   4.119   0.998   4.601  0.7730 -0.2897  0.5363
 3948SOL    HW123477   4.079   1.083   4.587 -1.5204 -1.3835  0.5322
 3948SOL    HW223478   4.061   0.936   4.558  0.4917  0.8556 -0.7282
 3949SOL     OW23479   3.293   0.730   9.328 -0.4939 -0.2279  0.2581
 3949SOL    HW123480   3.294   0.674   9.405 -0.2429 -1.1720 -0.4406
 3949SOL    HW223481   3.303   0.817   9.366 -0.7485 -0.3001  0.4883
 3950SOL     OW23482   3.828   1.484   8.302 -0.1125  0.4580 -0.1728
 3950SOL    HW123483   3.818   1.578   8.283  2.6080  0.5792 -1.0734
 3950SOL    HW223484   3.743   1.455   8.269  0.3065  0.0481 -0.8836
 3951SOL     OW23485   0.335   3.219   3.356 -0.5284 -0.0533  0.4160
 3951SOL    HW123486   0.285   3.229   3.437 -3.1137 -3.3435 -0.7177
 3951SOL    HW223487   0.317   3.125   3.344 -2.0262  0.7858 -3.8987
 3952SOL     OW23488   3.176   0.970   2.810  0.1991 -0.4220 -0.3454
 3952SOL    HW123489   3.226   1.012   2.880 -0.4573  0.2943 -0.2995
 3952SOL    HW223490   3.142   1.051   2.771  0.7874 -0.2579 -0.5207
 3953SOL     OW23491   1.581   3.693   3.048 -0.3533 -0.3036  0.2396
 3953SOL    HW123492   1.658   3.636   3.044 -0.3524 -0.1543 -2.2371
 3953SOL    HW223493   1.632   3.774   3.038 -0.1102 -0.3205  1.3687
 3954SOL     OW23494   1.172   3.921   2.796 -0.2137 -0.5707  0.3265
 3954SOL    HW123495   1.169   3.924   2.700  2.6843  0.0738  0.2670
 3954SOL    HW223496   1.258   3.959   2.814  0.7992 -2.2928 -0.9141
 3955SOL     OW23497   2.521   4.732   4.586 -0.2032 -0.1314 -0.4572
 3955SOL    HW123498   2.528   4.654   4.641  0.2424 -0.6457 -1.2455
 3955SOL    HW223499   2.536   4.702   4.497 -0.0746  0.1954 -0.5434
 3956SOL     OW23500   1.014   3.177   3.599  0.2247  0.2705 -0.5639
 3956SOL    HW123501   1.063   3.227   3.664  1.5061 -0.1009 -1.2474
 3956SOL    HW223502   1.092   3.142   3.558 -2.2058 -2.8965 -2.4538
 3957SOL     OW23503   4.231   1.316   7.100 -0.8592  0.0736 -0.0159
 3957SOL    HW123504   4.236   1.241   7.040 -0.9152 -0.6166  0.8438
 3957SOL    HW223505   4.279   1.288   7.178  0.6343 -0.8678 -1.2667
 3958SOL     OW23506   2.237   3.854   3.144  0.1581  0.1766 -0.3582
 3958SOL    HW123507   2.227   3.854   3.049  0.3128 -1.4101 -0.3803
 3958SOL    HW223508   2.167   3.916   3.164 -1.6219 -1.5292 -1.2623
 3959SOL     OW23509   3.685   4.624   3.084 -0.1071  0.5498 -0.3795
 3959SOL    HW123510   3.718   4.614   2.994 -2.3557  1.8348 -1.3341
 3959SOL    HW223511   3.697   4.534   3.113 -0.7975  0.5071 -0.2210
 3960SOL     OW23512   2.660   2.942   1.022 -0.0657 -0.5067 -0.2249
 3960SOL    HW123513   2.587   2.883   1.041  0.3212 -0.5120  1.2016
 3960SOL    HW223514   2.715   2.885   0.969  1.9408 -0.5507  1.9073
 3961SOL     OW23515   1.237   1.250   5.177 -0.2636 -0.0541  0.3592
 3961SOL    HW123516   1.246   1.226   5.269  0.1592  1.7706  0.7948
 3961SOL    HW223517   1.248   1.345   5.186  0.4083 -0.2810  1.9532
 3962SOL     OW23518   4.494   2.542   8.082  0.0562 -0.1693 -0.3123
 3962SOL    HW123519   4.568   2.544   8.021 -0.1620  2.0161 -0.5052
 3962SOL    HW223520   4.517   2.621   8.131  2.4193 -1.6210  0.8905
 3963SOL     OW23521   3.211   2.881   2.565  0.0807  0.2212  0.0652
 3963SOL    HW123522   3.134   2.864   2.619  0.0334 -0.4255 -0.2112
 3963SOL    HW223523   3.171   2.914   2.484 -2.2611 -1.1345  0.6752
 3964SOL     OW23524   1.132   3.602  12.949 -0.0776  0.3976  0.1309
 3964SOL    HW123525   1.093   3.628  12.866  0.0092  2.0004  0.5843
 3964SOL    HW223526   1.219   3.581  12.916 -0.3831 -0.4166 -0.1615
 3965SOL     OW23527   2.961   0.965  17.150  0.4997 -0.1075  0.5133
 3965SOL    HW123528   2.992   1.024  17.218 -0.0221 -0.3205  0.9380
 3965SOL    HW223529   2.898   0.915  17.202 -0.2302 -0.3082 -0.5581
 3966SOL     OW23530   0.492   2.880   4.924 -0.1433 -0.3585 -0.0148
 3966SOL    HW123531   0.552   2.950   4.951  0.6163 -1.2035  0.4656
 3966SOL    HW223532   0.507   2.889   4.830  0.1596 -2.0082 -0.1212
 3967SOL     OW23533   1.827   1.960  17.602  0.0071  0.4208 -0.0767
 3967SOL    HW123534   1.915   1.947  17.567  0.2687  1.1236  0.3172
 3967SOL    HW223535   1.791   1.879  17.566 -0.5209  0.7834 -0.3729
 3968SOL     OW23536   4.086   1.438  16.956  0.2515 -1.2365  0.1447
 3968SOL    HW123537   4.158   1.409  16.901  0.4269  0.1660 -0.3663
 3968SOL    HW223538   4.137   1.477  17.027 -0.8497  1.6610 -0.6144
 3969SOL     OW23539   0.198   4.232   8.451 -0.5136  0.3596 -0.0304
 3969SOL    HW123540   0.139   4.299   8.415 -0.7146  0.2873  0.1669
 3969SOL    HW223541   0.234   4.193   8.372  0.2173 -0.1255  0.5467
 3970SOL     OW23542   1.800   0.415   1.883  0.1411 -0.7032  0.3521
 3970SOL    HW123543   1.876   0.469   1.860  1.0100 -1.6258  1.0740
 3970SOL    HW223544   1.841   0.330   1.867 -2.2625 -2.0117  1.1522
 3971SOL     OW23545   2.382   4.443  16.828 -0.2619 -0.0063  0.5383
 3971SOL    HW123546   2.416   4.355  16.812  0.1319  0.1029  0.7984
 3971SOL    HW223547   2.426   4.455  16.912 -1.6851 -0.1599  1.3131
 3972SOL     OW23548   3.704   3.688   8.846  0.4517 -0.9640 -0.3607
 3972SOL    HW123549   3.777   3.626   8.841 -0.8783 -2.4723 -0.8291
 3972SOL    HW223550   3.761   3.760   8.818 -1.5979  1.0263  0.5984
 3973SOL     OW23551   0.186   0.552   0.669  0.4300  0.2222  0.7732
 3973SOL    HW123552   0.268   0.595   0.647  0.7846  0.6017  2.8943
 3973SOL    HW223553   0.141   0.572   0.587  1.6779  0.1993  0.0870
 3974SOL     OW23554   2.260   4.626   6.671  0.2680 -0.4149 -0.6262
 3974SOL    HW123555   2.284   4.718   6.677  0.2918 -0.4080 -0.8152
 3974SOL    HW223556   2.299   4.604   6.586  2.2121  0.7074 -0.0205
 3975SOL     OW23557   0.066   0.742   5.244 -0.2103  0.3194  0.0630
 3975SOL    HW123558   0.082   0.682   5.317  2.6069  0.5595 -0.3653
 3975SOL    HW223559   0.155   0.773   5.228 -0.6068  1.8956  0.9975
 3976SOL     OW23560   0.001   1.867   1.931  0.4634  0.1627 -0.1807
 3976SOL    HW123561   0.011   1.799   1.998  1.1090 -2.4652 -2.9424
 3976SOL    HW223562   0.036   1.944   1.976  2.1049 -0.8204  0.2402
 3977SOL     OW23563   2.831   2.618   8.091 -0.1275 -0.1457  0.1680
 3977SOL    HW123564   2.882   2.588   8.016 -0.3620  1.7496 -0.7530
 3977SOL    HW223565   2.771   2.680   8.050  0.2596 -0.8345 -1.4240
 3978SOL     OW23566   1.989   0.948   8.095  0.0125  0.5220 -0.4462
 3978SOL    HW123567   1.968   0.908   8.179 -0.8298 -2.6339 -2.1722
 3978SOL    HW223568   1.970   1.040   8.117 -0.5013 -0.3243  2.5666
 3979SOL     OW23569   4.702   2.519  17.409  0.0632  0.0116  0.4375
 3979SOL    HW123570   0.039   2.464  17.424 -0.7462 -0.9329  1.0672
 3979SOL    HW223571   4.640   2.450  17.388  1.3994 -0.7591 -0.9563
 3980SOL     OW23572   0.241   0.704   6.894 -0.0673 -0.4573 -0.0801
 3980SOL    HW123573   0.228   0.661   6.978  0.6688 -1.1447 -0.3198
 3980SOL    HW223574   0.241   0.630   6.833 -3.1978  1.3580 -2.2847
 3981SOL     OW23575   3.774   0.837  14.227 -0.2437 -1.0892  0.1054
 3981SOL    HW123576   3.750   0.756  14.182 -3.2361  1.2053 -2.4967
 3981SOL    HW223577   3.855   0.854  14.180  0.4301 -2.5721  0.7398
 3982SOL     OW23578   3.717   4.520  16.382  0.5743  0.4835  0.1775
 3982SOL    HW123579   3.801   4.540  16.342 -0.8520  0.8385 -2.6499
 3982SOL    HW223580   3.678   4.607  16.375  0.1548  0.3796  1.1618
 3983SOL     OW23581   0.067   2.374  14.408  0.4793 -0.3539  0.4456
 3983SOL    HW123582   0.119   2.306  14.450 -0.2907 -1.4962 -0.4481
 3983SOL    HW223583   0.111   2.367  14.323  0.0805  2.1132  0.0268
 3984SOL     OW23584   4.483   1.402   4.945 -0.5008 -0.1575  0.1504
 3984SOL    HW123585   4.441   1.486   4.966 -3.8331 -1.0696 -2.9397
 3984SOL    HW223586   4.532   1.428   4.867  0.4907  1.3714  1.2869
 3985SOL     OW23587   3.554   2.170   6.296  0.2354 -0.6699  0.4984
 3985SOL    HW123588   3.607   2.214   6.362  0.1799 -2.3362  1.6166
 3985SOL    HW223589   3.599   2.089   6.274  0.0007 -0.8042  0.5162
 3986SOL     OW23590   2.753   1.077  10.571  0.1536  0.1007 -0.0456
 3986SOL    HW123591   2.662   1.081  10.600 -0.2000  2.3294 -1.4557
 3986SOL    HW223592   2.737   1.038  10.485  0.9513  1.1742 -0.6822
 3987SOL     OW23593   2.231   1.368  11.731  0.2065  0.8285  0.3598
 3987SOL    HW123594   2.161   1.393  11.792 -0.2290  0.2101  0.1112
 3987SOL    HW223595   2.240   1.457  11.697  1.2872  0.0212 -1.4605
 3988SOL     OW23596   0.652   1.465   8.100 -0.7297 -0.1055 -0.2334
 3988SOL    HW123597   0.619   1.554   8.093 -1.7902 -0.3243  2.2458
 3988SOL    HW223598   0.637   1.436   8.190  1.1119 -1.6371 -0.4147
 3989SOL     OW23599   4.559   1.207  15.638 -0.1784 -0.0086  0.3029
 3989SOL    HW123600   4.518   1.132  15.681 -1.2638  0.1216 -0.5137
 3989SOL    HW223601   4.591   1.250  15.718  0.6972 -1.6787  0.8563
 3990SOL     OW23602   4.598   1.209   8.617  0.3442  0.4296  0.1816
 3990SOL    HW123603   4.650   1.249   8.687  2.4007  0.6064 -1.4387
 3990SOL    HW223604   4.653   1.214   8.539 -0.7602  1.0566 -0.5560
 3991SOL     OW23605   3.065   0.391   3.221  0.6607 -0.1010  0.1233
 3991SOL    HW123606   3.120   0.313   3.220  1.0995  0.2104 -0.4015
 3991SOL    HW223607   2.997   0.349   3.273  2.6959  0.1826  3.0471
 3992SOL     OW23608   3.865   1.839  17.712  0.3500 -0.4429  0.0535
 3992SOL    HW123609   3.931   1.844  17.643 -0.6484 -0.4385 -0.9081
 3992SOL    HW223610   3.849   1.744  17.716 -0.1207 -0.3436  0.5427
 3993SOL     OW23611   1.214   2.422   3.102  0.0003 -0.1122 -0.0556
 3993SOL    HW123612   1.245   2.482   3.035 -0.2937  0.4424  0.3079
 3993SOL    HW223613   1.292   2.426   3.158 -0.3969 -0.0790  0.4944
 3994SOL     OW23614   1.826   0.090   3.248  0.1257 -0.0665 -0.2793
 3994SOL    HW123615   1.901   0.031   3.240  0.8008  0.6114  1.0654
 3994SOL    HW223616   1.766   0.054   3.182 -0.2259  0.3231 -0.1703
 3995SOL     OW23617   2.569   2.830   8.569  0.4580 -0.2779 -0.0338
 3995SOL    HW123618   2.623   2.874   8.503  0.9076 -0.2903  0.3241
 3995SOL    HW223619   2.594   2.741   8.545  1.0121 -0.0102 -0.4607
 3996SOL     OW23620   0.703   3.264   9.519 -0.9046  0.2326 -0.4062
 3996SOL    HW123621   0.613   3.284   9.547 -0.7280  0.7520 -0.2227
 3996SOL    HW223622   0.702   3.169   9.528 -1.1394  0.4165  1.6209
 3997SOL     OW23623   4.093   1.026   3.286 -0.1955  0.1320 -0.1199
 3997SOL    HW123624   4.144   1.105   3.270 -1.9971  1.1177 -1.0146
 3997SOL    HW223625   4.155   0.963   3.323 -0.3141 -0.3114 -0.6866
 3998SOL     OW23626   1.094   1.483   6.015  0.2371 -0.0804 -0.6288
 3998SOL    HW123627   1.181   1.518   5.996  0.2795 -1.4641 -2.9137
 3998SOL    HW223628   1.122   1.412   6.073 -1.3445 -1.9065 -2.0977
 3999SOL     OW23629   0.500   1.031   3.671  0.3686  0.2450 -0.6799
 3999SOL    HW123630   0.435   0.974   3.630  1.0106  0.6451 -2.2386
 3999SOL    HW223631   0.565   1.044   3.602  0.9596  2.8859  0.3952
 4000SOL     OW23632   1.584   0.975   7.316 -0.1996  0.0678  0.1091
 4000SOL    HW123633   1.589   0.991   7.222  1.3216 -1.5220 -0.0990
 4000SOL    HW223634   1.500   1.018   7.327 -1.4270 -2.0112 -1.1077
 4001SOL     OW23635   3.898   1.137   5.368  0.0369  0.7574  0.1869
 4001SOL    HW123636   3.883   1.230   5.390  0.0998  0.6779  0.5763
 4001SOL    HW223637   3.900   1.133   5.273  0.3645  1.3918  0.1654
 4002SOL     OW23638   4.553   0.756  17.520 -0.6258 -0.3377 -0.2295
 4002SOL    HW123639   4.510   0.738  17.437  1.8670  2.5868 -2.1494
 4002SOL    HW223640   4.644   0.754  17.491 -0.2605 -1.0683  0.9642
 4003SOL     OW23641   1.360   2.037   4.846  0.1132 -0.0733 -0.4236
 4003SOL    HW123642   1.342   1.971   4.778  0.3631  1.9835 -2.4907
 4003SOL    HW223643   1.299   2.006   4.913 -0.3457 -0.0207 -0.8133
 4004SOL     OW23644   2.543   0.113   9.891  0.6449 -0.2317 -0.1528
 4004SOL    HW123645   2.597   0.127   9.968 -0.2350 -0.3481  0.4895
 4004SOL    HW223646   2.467   0.069   9.929  2.2416 -1.3718  1.7137
 4005SOL     OW23647   0.375   2.432   9.524 -0.5205 -0.0078  0.2036
 4005SOL    HW123648   0.388   2.399   9.613 -4.6316 -2.2600 -0.0456
 4005SOL    HW223649   0.377   2.347   9.481 -4.5787 -0.6375  1.3136
 4006SOL     OW23650   4.176   1.128   2.633  0.2287  0.0074  0.0299
 4006SOL    HW123651   4.240   1.107   2.565  0.9339 -1.5374  1.1867
 4006SOL    HW223652   4.123   1.050   2.621 -0.8276  0.5952  0.7635
 4007SOL     OW23653   3.909   3.483   4.480  0.1023 -0.0234  0.1353
 4007SOL    HW123654   3.900   3.493   4.385 -0.7724 -2.4665 -0.0364
 4007SOL    HW223655   3.834   3.533   4.511  2.3200  1.0773  3.7634
 4008SOL     OW23656   1.877   2.788   0.871 -0.5042 -0.6202 -0.1862
 4008SOL    HW123657   1.941   2.730   0.828  1.8372 -0.9734  3.7485
 4008SOL    HW223658   1.909   2.778   0.960 -1.4777 -0.0351  0.2250
 4009SOL     OW23659   3.769   4.407   4.754  0.3946 -0.3220 -0.0406
 4009SOL    HW123660   3.805   4.376   4.671 -0.2226  0.9389 -0.7680
 4009SOL    HW223661   3.677   4.427   4.734  0.4885  0.1746  0.0386
 4010SOL     OW23662   4.031   2.794  16.778 -0.3489 -0.5248 -0.3488
 4010SOL    HW123663   3.951   2.744  16.761  0.1597 -0.2285 -3.7223
 4010SOL    HW223664   4.003   2.874  16.734 -0.0209 -0.0434  0.3228
 4011SOL     OW23665   2.056   0.356   8.170 -0.0764  0.4296  0.1985
 4011SOL    HW123666   2.144   0.348   8.206 -0.0586 -1.4219 -0.2569
 4011SOL    HW223667   2.060   0.427   8.105 -2.0112  0.8912  0.5866
 4012SOL     OW23668   0.482   0.022   4.941 -0.7133 -0.6016  0.0960
 4012SOL    HW123669   0.562   4.708   4.942  0.0850  0.5761 -1.3039
 4012SOL    HW223670   0.418   4.701   4.904 -0.8013 -1.3238  1.4272
 4013SOL     OW23671   0.482   3.613   3.411 -0.0634  0.1399  0.0934
 4013SOL    HW123672   0.573   3.614   3.441 -1.1142  1.2444  3.1634
 4013SOL    HW223673   0.473   3.704   3.383  0.8803 -0.3154 -1.7662
 4014SOL     OW23674   3.465   1.150   4.896  0.5252  0.4706 -0.0414
 4014SOL    HW123675   3.433   1.114   4.813  0.7345 -1.4632  0.7157
 4014SOL    HW223676   3.457   1.240   4.863 -1.0018  0.7884  1.2160
 4015SOL     OW23677   3.390   3.442  16.961 -0.1188 -0.2150  0.0218
 4015SOL    HW123678   3.393   3.347  16.973  0.5538 -0.3654 -1.3525
 4015SOL    HW223679   3.392   3.455  17.056  1.6454 -1.3285  0.1539
 4016SOL     OW23680   3.328   1.563   6.518 -0.2963  0.2258  0.2591
 4016SOL    HW123681   3.246   1.515   6.510  0.5724 -0.8243 -2.3941
 4016SOL    HW223682   3.325   1.557   6.614 -2.6972  0.2065  0.1946
 4017SOL     OW23683   1.108   2.299   1.090  0.3696 -0.1423  0.8502
 4017SOL    HW123684   1.156   2.347   1.023 -2.7916 -0.3998 -1.5894
 4017SOL    HW223685   1.077   2.237   1.024  0.9036 -0.6751  1.0898
 4018SOL     OW23686   0.655   2.248   8.703  0.4446  0.6087  0.3957
 4018SOL    HW123687   0.746   2.238   8.673 -0.0945 -1.8136 -0.4306
 4018SOL    HW223688   0.657   2.320   8.767  0.1799  0.5991  0.4148
 4019SOL     OW23689   1.636   0.447  11.511  0.0206  0.3120 -0.0735
 4019SOL    HW123690   1.614   0.470  11.420 -3.5542  1.9381  1.1898
 4019SOL    HW223691   1.679   0.527  11.541 -0.1680  0.9211 -1.4190
 4020SOL     OW23692   4.558   4.564  13.771  0.0352 -0.0024  0.9007
 4020SOL    HW123693   4.581   4.494  13.833  1.5850 -1.0018 -0.8252
 4020SOL    HW223694   4.637   4.618  13.769 -0.4601  0.6546 -0.6712
 4021SOL     OW23695   4.548   4.267   7.336  0.6032  0.0565  0.1833
 4021SOL    HW123696   4.590   4.249   7.421  0.3227  1.1253  0.5462
 4021SOL    HW223697   4.507   4.183   7.317  1.0121  0.0390 -0.6065
 4022SOL     OW23698   2.519   1.775   1.330 -0.0477  0.0826 -0.1096
 4022SOL    HW123699   2.501   1.681   1.323  1.3279 -0.3345  1.9739
 4022SOL    HW223700   2.429   1.807   1.323 -0.5518 -1.6592 -1.5588
 4023SOL     OW23701   1.704   1.269   4.860  1.0202  0.0685  0.7896
 4023SOL    HW123702   1.709   1.261   4.765 -0.4351 -1.8830  0.8926
 4023SOL    HW223703   1.728   1.361   4.870  1.4368  0.1578 -1.0930
 4024SOL     OW23704   3.510   1.394  17.432  0.3558  0.1327  0.4360
 4024SOL    HW123705   3.475   1.397  17.520 -1.0839  1.9160 -0.1950
 4024SOL    HW223706   3.492   1.482  17.398  2.5209  0.0653 -0.9399
 4025SOL     OW23707   1.424   2.922  17.404  0.4713  0.2132  0.3522
 4025SOL    HW123708   1.405   3.016  17.408  0.4251  0.3306 -2.6015
 4025SOL    HW223709   1.518   2.936  17.399  0.6728 -1.0202  0.7145
 4026SOL     OW23710   0.470   2.918   5.989  0.4840  0.0096  0.5190
 4026SOL    HW123711   0.517   2.973   6.051  2.0459 -0.5341 -0.1753
 4026SOL    HW223712   0.503   2.830   6.007  1.2593  0.6997  2.4697
 4027SOL     OW23713   1.808   4.446   4.182  0.1229  0.4572 -0.5591
 4027SOL    HW123714   1.771   4.452   4.094 -1.5773 -0.4885  0.0871
 4027SOL    HW223715   1.724   4.451   4.228  0.5433  1.7177  0.0701
 4028SOL     OW23716   0.813   2.930  12.957 -0.8326  0.4901 -0.2644
 4028SOL    HW123717   0.849   2.960  13.040 -2.0853 -0.9231  0.7845
 4028SOL    HW223718   0.836   2.837  12.954  1.0660  1.0197 -2.2714
 4029SOL     OW23719   4.089   3.210   4.102  0.1824  0.1174  0.1722
 4029SOL    HW123720   4.017   3.272   4.089  0.7946  0.5513 -1.2272
 4029SOL    HW223721   4.131   3.242   4.022  1.7641  2.0339  1.7858
 4030SOL     OW23722   0.339   1.823   1.837  0.3004 -0.0881 -0.3578
 4030SOL    HW123723   0.251   1.820   1.800  1.0289 -0.3908 -2.0317
 4030SOL    HW223724   0.322   1.893   1.900  2.2250 -0.9472  1.1038
 4031SOL     OW23725   4.227   0.533  15.411  0.2349 -0.3534 -0.1019
 4031SOL    HW123726   4.307   0.585  15.423  0.2840 -0.3252 -0.5629
 4031SOL    HW223727   4.260   0.443  15.406 -0.9888 -0.8094  0.0332
 4032SOL     OW23728   2.414   2.887  17.151  0.3470 -0.1754  0.1308
 4032SOL    HW123729   2.423   2.965  17.097  0.6563 -1.6010 -1.8897
 4032SOL    HW223730   2.444   2.830  17.080 -1.0255 -1.3556  0.4862
 4033SOL     OW23731   3.296   2.996  12.429 -0.2600 -0.0308 -0.1905
 4033SOL    HW123732   3.353   3.039  12.494  1.4199 -3.3833  0.5812
 4033SOL    HW223733   3.239   2.946  12.487 -2.0786  1.3298 -0.8151
 4034SOL     OW23734   1.841   2.840  16.969 -0.5344 -0.3477 -0.2796
 4034SOL    HW123735   1.826   2.918  17.023 -0.8919 -1.5895  1.4222
 4034SOL    HW223736   1.791   2.866  16.892  0.1657 -0.0523 -0.6324
 4035SOL     OW23737   3.612   4.335   0.625 -0.4346 -0.0780 -0.1115
 4035SOL    HW123738   3.692   4.285   0.609 -0.3274  0.0229  0.1136
 4035SOL    HW223739   3.579   4.294   0.706  0.5717 -1.4479 -0.3895
 4036SOL     OW23740   1.582   1.353   1.597  0.3060 -0.2613  0.4498
 4036SOL    HW123741   1.669   1.359   1.637 -1.0034 -0.1591  3.2883
 4036SOL    HW223742   1.535   1.324   1.675  0.8404 -0.2488  0.7738
 4037SOL     OW23743   0.308   3.575   0.374  0.6155 -0.0476 -0.3723
 4037SOL    HW123744   0.351   3.612   0.297  2.2075  1.9991  1.4923
 4037SOL    HW223745   0.369   3.600   0.444 -0.4535  1.2086  0.1061
 4038SOL     OW23746   3.911   4.466  13.463 -0.3925 -0.1572 -0.0149
 4038SOL    HW123747   3.974   4.398  13.486 -2.8838 -1.4127  3.1326
 4038SOL    HW223748   3.947   4.534  13.521  0.2510 -1.9908  1.7582
 4039SOL     OW23749   2.714   4.629   9.135 -0.0457 -0.7442 -0.1438
 4039SOL    HW123750   2.726   4.554   9.077 -0.1114 -0.6890 -0.2291
 4039SOL    HW223751   2.630   4.608   9.177 -0.2656  0.1538 -0.1151
 4040SOL     OW23752   2.155   0.079   3.586 -0.0555  0.3622 -0.1920
 4040SOL    HW123753   2.068   0.068   3.626 -0.2451  2.4776 -0.0122
 4040SOL    HW223754   2.200   4.738   3.613  2.1200  1.4123 -0.6998
 4041SOL     OW23755   0.220   0.151   6.118 -0.5672 -0.2761 -0.4957
 4041SOL    HW123756   0.163   0.223   6.088 -1.3436 -1.3321 -1.5265
 4041SOL    HW223757   0.160   0.078   6.108  0.2982 -1.0007 -0.3463
 4042SOL     OW23758   0.781   4.184   2.538  0.1586  0.8201  0.2864
 4042SOL    HW123759   0.743   4.214   2.455 -2.3148 -2.3394  0.2759
 4042SOL    HW223760   0.781   4.271   2.577 -1.4711  1.4662 -1.1393
 4043SOL     OW23761   0.937   0.262   8.272  0.2299  0.1262  0.7860
 4043SOL    HW123762   0.871   0.301   8.215 -0.6214 -2.9002 -0.2707
 4043SOL    HW223763   0.993   0.214   8.210 -1.8953 -1.0557 -0.1888
 4044SOL     OW23764   1.825   1.565   3.653 -0.0472 -0.1822  0.1567
 4044SOL    HW123765   1.911   1.534   3.624 -1.3103 -2.6101 -0.9632
 4044SOL    HW223766   1.856   1.637   3.707  2.1672 -1.9030  1.1899
 4045SOL     OW23767   2.827   3.496   2.493 -0.4719  0.5419  0.3933
 4045SOL    HW123768   2.767   3.551   2.544 -0.8611  0.4785  0.0030
 4045SOL    HW223769   2.902   3.509   2.551 -0.0131 -0.5628  0.0453
 4046SOL     OW23770   1.722   1.507  15.852 -0.4916 -0.6474 -0.4671
 4046SOL    HW123771   1.779   1.430  15.843  1.0797  0.4592  0.0639
 4046SOL    HW223772   1.786   1.577  15.852 -0.9207 -0.2579 -0.1924
 4047SOL     OW23773   1.811   4.236  14.889 -0.3771  0.4931  0.8165
 4047SOL    HW123774   1.901   4.217  14.916  0.3420  1.4252 -0.9405
 4047SOL    HW223775   1.774   4.272  14.969 -0.8922 -1.9961  1.6813
 4048SOL     OW23776   1.494   2.535  10.977 -0.0994  0.4313 -0.4833
 4048SOL    HW123777   1.518   2.462  10.921 -0.0644 -0.2986  0.4870
 4048SOL    HW223778   1.560   2.602  10.957  0.3058  0.2424  0.2270
 4049SOL     OW23779   3.031   3.605   8.497  0.5404 -0.6947  0.0405
 4049SOL    HW123780   3.107   3.590   8.553  0.5535  2.1059  0.7533
 4049SOL    HW223781   3.019   3.700   8.506  0.0187 -0.4200 -3.3848
 4050SOL     OW23782   1.665   3.024   4.027  1.2126  0.1803 -0.3622
 4050SOL    HW123783   1.734   3.046   3.966  1.0819  0.4964 -0.3986
 4050SOL    HW223784   1.721   2.999   4.100 -0.2073  0.4612  0.8287
 4051SOL     OW23785   3.129   1.338   4.306 -0.3333 -0.1796 -0.8611
 4051SOL    HW123786   3.090   1.424   4.320 -1.3352 -0.7019 -0.3847
 4051SOL    HW223787   3.082   1.287   4.372  1.4907 -0.4408  0.2264
 4052SOL     OW23788   3.378   0.403   5.296  0.9085  0.8433 -0.4598
 4052SOL    HW123789   3.296   0.353   5.289  1.1772  0.5440 -1.3793
 4052SOL    HW223790   3.438   0.338   5.259  1.7872  0.5057  1.5537
 4053SOL     OW23791   1.941   4.022   1.559  0.0857  0.0515 -0.2830
 4053SOL    HW123792   1.931   4.115   1.536  1.3206  0.3481  0.3589
 4053SOL    HW223793   1.920   4.022   1.653 -0.7931 -2.5368 -0.4862
 4054SOL     OW23794   0.902   0.999  16.185  0.3729 -0.2355  0.3781
 4054SOL    HW123795   0.919   0.956  16.101 -0.0245  1.1753 -0.4288
 4054SOL    HW223796   0.982   1.046  16.208  0.3305 -1.5749  3.2382
 4055SOL     OW23797   0.607   3.666  13.254  0.3318 -0.3739 -0.2117
 4055SOL    HW123798   0.660   3.742  13.230  0.8333 -1.2082 -1.7905
 4055SOL    HW223799   0.621   3.619  13.172  1.3694 -0.0123 -0.2529
 4056SOL     OW23800   4.522   1.987  15.343 -0.1601  0.2585 -0.4337
 4056SOL    HW123801   4.607   1.985  15.299 -0.3136  0.6837 -0.7457
 4056SOL    HW223802   4.492   1.896  15.343 -0.7217  0.4488 -2.3146
 4057SOL     OW23803   0.655   3.361  11.332  0.0934 -0.4610  0.0557
 4057SOL    HW123804   0.581   3.307  11.360 -0.7235  0.7302  0.2321
 4057SOL    HW223805   0.735   3.309  11.332  0.3219 -0.1129  0.4328
 4058SOL     OW23806   4.570   2.591   3.101 -0.4235 -0.1420 -0.0318
 4058SOL    HW123807   4.565   2.573   3.195  3.3470  0.1442  0.2207
 4058SOL    HW223808   4.558   2.686   3.098 -0.2329 -0.1768 -1.6158
 4059SOL     OW23809   1.927   1.724   5.076 -0.2997  0.4943  0.6035
 4059SOL    HW123810   1.923   1.632   5.103  4.7245  0.5705  1.6133
 4059SOL    HW223811   1.993   1.724   5.007 -1.4498  1.5679 -0.4854
 4060SOL     OW23812   3.491   1.315  14.081 -0.6595  0.3507  0.6527
 4060SOL    HW123813   3.509   1.221  14.079 -1.4558  0.2361 -0.7964
 4060SOL    HW223814   3.399   1.309  14.056 -0.0307  0.6865 -1.6524
 4061SOL     OW23815   3.323   3.782   4.362  0.1570  0.6805 -0.1490
 4061SOL    HW123816   3.229   3.767   4.352  0.0395  0.6149  0.9680
 4061SOL    HW223817   3.365   3.702   4.333 -0.6003  0.7432 -1.4314
 4062SOL     OW23818   0.721   4.582   4.966 -0.1163  0.5404 -0.0559
 4062SOL    HW123819   0.795   4.643   4.960 -0.6414  0.8003 -3.5066
 4062SOL    HW223820   0.761   4.498   4.986 -1.6545  0.0589  1.0676
 4063SOL     OW23821   1.793   3.972   3.311  0.3397  0.2246  0.7357
 4063SOL    HW123822   1.738   3.952   3.235  1.9854 -0.9015 -0.1398
 4063SOL    HW223823   1.746   3.922   3.378 -0.2653 -0.6635 -0.3525
 4064SOL     OW23824   2.394   3.162   8.551 -0.1672 -0.1925 -0.0522
 4064SOL    HW123825   2.425   3.075   8.525  2.8717  1.0898 -0.7048
 4064SOL    HW223826   2.350   3.136   8.632 -0.6933  0.7772 -0.0261
 4065SOL     OW23827   2.176   2.718  15.358 -0.4039 -0.7090 -0.9390
 4065SOL    HW123828   2.261   2.677  15.368  0.1283  0.0204 -2.5291
 4065SOL    HW223829   2.107   2.652  15.367 -0.7383 -0.5169 -2.1037
 4066SOL     OW23830   2.129   2.187   8.649 -0.2990 -0.3025 -0.3551
 4066SOL    HW123831   2.205   2.215   8.598  0.1033 -0.0532  0.3839
 4066SOL    HW223832   2.114   2.267   8.701  0.7679 -0.7132  0.5780
 4067SOL     OW23833   1.532   0.347   8.607 -0.0840  0.2248  0.2750
 4067SOL    HW123834   1.464   0.342   8.540  0.7629 -3.0691 -0.3031
 4067SOL    HW223835   1.485   0.327   8.688 -0.2879  0.0326  0.1070
 4068SOL     OW23836   1.204   4.221  10.034 -0.0464  0.4785 -0.1383
 4068SOL    HW123837   1.170   4.141  10.072  2.0906  1.4804  3.8592
 4068SOL    HW223838   1.296   4.196  10.022  0.2631  1.2320  0.7213
 4069SOL     OW23839   3.622   2.207   4.639 -0.2746 -0.1025 -0.2256
 4069SOL    HW123840   3.539   2.161   4.627 -1.1719  1.6848 -0.8114
 4069SOL    HW223841   3.605   2.260   4.716 -1.6782 -0.7057 -0.1060
 4070SOL     OW23842   0.713   3.200   8.913  0.0282 -0.7393 -0.5406
 4070SOL    HW123843   0.628   3.206   8.870  0.1861  1.4566 -0.5520
 4070SOL    HW223844   0.768   3.256   8.858  0.0070  0.0824  0.2665
 4071SOL     OW23845   2.094   0.881   5.143 -0.3428 -0.1209  0.6429
 4071SOL    HW123846   2.036   0.916   5.076 -0.0654  0.9340  0.9395
 4071SOL    HW223847   2.112   0.791   5.118 -1.0091  0.3587 -1.5625
 4072SOL     OW23848   1.188   4.484   2.745 -0.6871  0.1682  0.1421
 4072SOL    HW123849   1.138   4.473   2.665 -1.5701  2.2370  0.3892
 4072SOL    HW223850   1.134   4.444   2.813 -1.0701 -0.4750 -0.5462
 4073SOL     OW23851   3.989   0.254  15.776 -0.5753 -0.3681  0.0132
 4073SOL    HW123852   4.007   0.262  15.682  1.6434  3.1087  0.7208
 4073SOL    HW223853   4.068   0.209  15.809 -0.7368 -1.0481 -0.5180
 4074SOL     OW23854   2.578   3.592   0.616 -0.1192 -0.0661 -0.1148
 4074SOL    HW123855   2.558   3.518   0.673  0.6713  1.2210  1.8171
 4074SOL    HW223856   2.665   3.575   0.581  1.0145 -2.0458  3.6402
 4075SOL     OW23857   2.148   2.600   6.432 -0.1846  0.3735  0.1063
 4075SOL    HW123858   2.198   2.568   6.357 -0.0581 -2.0838  1.2248
 4075SOL    HW223859   2.062   2.570   6.403 -0.3057 -0.2844  1.1331
 4076SOL     OW23860   4.710   1.241   1.640 -0.2635  0.2039  0.2180
 4076SOL    HW123861   0.065   1.231   1.649 -0.4784 -1.2160  0.9954
 4076SOL    HW223862   4.702   1.238   1.735 -0.7092  0.3347  0.1825
 4077SOL     OW23863   4.188   3.743   2.524 -0.3273  0.0647 -0.0293
 4077SOL    HW123864   4.234   3.822   2.497  1.3015 -1.1787 -0.9384
 4077SOL    HW223865   4.242   3.678   2.479  1.8114  2.6267 -1.1261
 4078SOL     OW23866   0.051   1.760  14.756 -0.2516 -0.0640 -0.2678
 4078SOL    HW123867   0.087   1.819  14.822  0.2711 -0.4447 -0.2133
 4078SOL    HW223868   0.110   1.765  14.681  0.8359 -0.3949  0.5783
 4079SOL     OW23869   3.616   0.779   7.003  0.1954 -0.1916 -0.6294
 4079SOL    HW123870   3.654   0.833   7.072  1.1983  1.5591 -2.5370
 4079SOL    HW223871   3.586   0.837   6.932  1.2615 -0.1835 -1.0884
 4080SOL     OW23872   3.716   2.341   1.671 -0.3155  0.2590 -0.5248
 4080SOL    HW123873   3.638   2.290   1.648 -1.1889  1.7517 -0.9129
 4080SOL    HW223874   3.734   2.391   1.591 -2.4368 -1.4683 -2.0825
 4081SOL     OW23875   2.905   3.797   0.987 -0.0986 -0.5861 -0.2483
 4081SOL    HW123876   2.992   3.769   0.961  0.1472  1.0310 -1.1700
 4081SOL    HW223877   2.854   3.716   0.989 -1.4896  0.2545 -1.3026
 4082SOL     OW23878   4.352   3.398   6.978 -0.0418 -0.0288  0.5329
 4082SOL    HW123879   4.277   3.453   6.954 -0.4579 -1.5549 -1.6345
 4082SOL    HW223880   4.396   3.456   7.041  1.1301  0.2176 -0.4994
 4083SOL     OW23881   2.194   1.141   1.761 -0.9074  0.4914 -0.3573
 4083SOL    HW123882   2.104   1.170   1.773 -0.1032  2.5362  0.6657
 4083SOL    HW223883   2.203   1.123   1.667  1.2035 -0.8573  0.1155
 4084SOL     OW23884   4.281   1.456   8.319 -0.4453 -0.4156 -0.1234
 4084SOL    HW123885   4.311   1.435   8.408  1.7861 -0.7800 -0.9582
 4084SOL    HW223886   4.365   1.467   8.275 -1.4773  1.0763 -1.6921
 4085SOL     OW23887   4.061   0.354  13.525 -0.1946 -0.1968 -0.7052
 4085SOL    HW123888   4.003   0.303  13.468 -1.0146 -0.3932  0.2952
 4085SOL    HW223889   4.147   0.311  13.523  0.8265  1.8750 -0.6705
 4086SOL     OW23890   2.934   1.838  14.056 -0.3350  0.4374  0.0272
 4086SOL    HW123891   2.960   1.883  13.976  0.4462  0.8373  0.5069
 4086SOL    HW223892   3.006   1.864  14.114 -0.0097 -1.3263  0.4029
 4087SOL     OW23893   0.260   2.040   3.660  0.3275 -0.9131  0.0470
 4087SOL    HW123894   0.209   2.121   3.647 -0.7888 -1.9333 -1.8617
 4087SOL    HW223895   0.233   2.025   3.751 -0.5574  0.0867 -0.0369
 4088SOL     OW23896   4.189   2.646   2.159 -0.7217 -0.2098 -0.2382
 4088SOL    HW123897   4.152   2.638   2.247  0.3779  0.7264  0.3133
 4088SOL    HW223898   4.215   2.558   2.132  1.0228  0.5337 -0.9784
 4089SOL     OW23899   3.569   2.236   7.574 -0.0133  0.6018  0.6379
 4089SOL    HW123900   3.485   2.273   7.548 -0.1391  0.6871  1.1798
 4089SOL    HW223901   3.624   2.306   7.537 -0.8279  0.7809 -0.2503
 4090SOL     OW23902   3.383   0.263  10.300  0.8591  0.1149 -0.6643
 4090SOL    HW123903   3.335   0.180  10.301 -0.8788  1.0670 -3.5927
 4090SOL    HW223904   3.476   0.242  10.306  0.8979 -0.3497 -3.0306
 4091SOL     OW23905   4.187   3.161   8.042  0.3512  0.2404  0.4429
 4091SOL    HW123906   4.251   3.189   7.976  0.5070 -2.6859 -0.6731
 4091SOL    HW223907   4.155   3.083   7.997  2.4285  0.5053 -1.5032
 4092SOL     OW23908   0.984   3.801   4.430 -0.0026 -0.1367  0.3174
 4092SOL    HW123909   0.906   3.781   4.379  0.3924  1.8219 -1.0520
 4092SOL    HW223910   1.008   3.885   4.390 -3.2011  1.1856  1.1496
 4093SOL     OW23911   3.567   1.099  16.811  0.4099  0.2347 -0.6470
 4093SOL    HW123912   3.493   1.122  16.867  1.7166 -0.9336  1.5731
 4093SOL    HW223913   3.563   1.155  16.734  0.8899 -0.0736 -0.8904
 4094SOL     OW23914   1.745   0.490   0.086 -0.5719  0.2617 -0.3053
 4094SOL    HW123915   1.719   0.456   0.001 -0.5060  0.5476 -0.4397
 4094SOL    HW223916   1.673   0.547   0.114 -0.4426  1.0016 -1.4770
 4095SOL     OW23917   0.388   2.045   3.415 -0.1520  0.1858  0.2645
 4095SOL    HW123918   0.466   2.008   3.456 -0.9325 -2.9962 -1.1121
 4095SOL    HW223919   0.340   2.064   3.496  3.2746  5.6145  0.9581
 4096SOL     OW23920   0.423   0.174   5.166 -0.0674 -0.4731 -0.0773
 4096SOL    HW123921   0.442   0.154   5.075  0.1237  0.2548 -0.2035
 4096SOL    HW223922   0.361   0.108   5.197 -0.7936  1.4040  2.5394
 4097SOL     OW23923   2.343   1.055   2.908 -0.3558  0.1240  0.3344
 4097SOL    HW123924   2.384   1.012   2.834 -1.4849 -1.7468  0.7871
 4097SOL    HW223925   2.249   1.060   2.887 -0.2951  0.2661  0.0957
 4098SOL     OW23926   4.730   1.500   2.730 -0.0175 -0.1105  0.0330
 4098SOL    HW123927   4.701   1.520   2.641  0.5110 -0.3465 -0.1949
 4098SOL    HW223928   0.046   1.422   2.719 -1.3197 -1.2187  1.3509
 4099SOL     OW23929   1.362   3.362   2.381 -0.0424 -0.3628 -0.4340
 4099SOL    HW123930   1.421   3.433   2.405 -1.8878  0.9427  0.2754
 4099SOL    HW223931   1.283   3.415   2.393  0.9143  1.0239 -0.2589
 4100SOL     OW23932   0.122   0.410   6.196 -0.1609 -0.3758 -0.2865
 4100SOL    HW123933   0.106   0.471   6.125 -1.0145  0.1887  0.3886
 4100SOL    HW223934   0.212   0.387   6.176 -0.5335 -1.0385 -1.2283
 4101SOL     OW23935   3.596   2.231   3.978  0.3103 -0.0509  0.2776
 4101SOL    HW123936   3.539   2.307   3.991  0.4257  0.4096 -2.0316
 4101SOL    HW223937   3.601   2.245   3.884  1.2910  1.1826  0.5217
 4102SOL     OW23938   3.715   3.553   4.649  0.1554  0.5181  0.3615
 4102SOL    HW123939   3.710   3.486   4.716  1.4621 -0.0978 -0.1560
 4102SOL    HW223940   3.775   3.612   4.694 -0.6925 -1.0806  3.5583
 4103SOL     OW23941   3.126   3.881  13.504  0.2246  0.9339  0.3560
 4103SOL    HW123942   3.122   3.813  13.436 -1.2689 -1.5332  2.9277
 4103SOL    HW223943   3.219   3.887  13.526  0.9081  0.0294 -2.3046
 4104SOL     OW23944   0.643   2.442   7.774 -0.4719  0.1808 -0.0980
 4104SOL    HW123945   0.575   2.503   7.744 -1.0755 -0.8212 -0.7612
 4104SOL    HW223946   0.714   2.506   7.783  0.2327 -0.7365  0.8286
 4105SOL     OW23947   3.479   2.648   5.445 -0.1374  0.0947  0.3870
 4105SOL    HW123948   3.562   2.695   5.434  0.3926 -0.8359  0.4016
 4105SOL    HW223949   3.500   2.574   5.387  1.1434  0.4983  0.3371
 4106SOL     OW23950   3.416   2.211   0.200 -0.5593 -0.1149 -0.5856
 4106SOL    HW123951   3.395   2.119   0.186 -2.4033  0.1543  0.4387
 4106SOL    HW223952   3.464   2.199   0.282  1.5994  1.2254 -1.6418
 4107SOL     OW23953   1.729   2.642   7.215  0.0716  0.1280  0.0104
 4107SOL    HW123954   1.653   2.700   7.219 -0.2618 -0.2255 -1.3145
 4107SOL    HW223955   1.783   2.694   7.156  1.1892 -1.3518 -0.2770
 4108SOL     OW23956   3.343   4.722   6.262 -0.1381 -0.1872 -0.0211
 4108SOL    HW123957   3.252   4.698   6.278 -0.1120 -1.0541 -1.1656
 4108SOL    HW223958   3.358   4.675   6.181 -1.1925 -0.1102 -0.2529
 4109SOL     OW23959   2.274   1.151   8.151 -0.1692 -0.0696 -0.4392
 4109SOL    HW123960   2.276   1.246   8.154 -1.1038 -0.0814  0.5692
 4109SOL    HW223961   2.182   1.130   8.169 -0.7050  1.8381 -1.0288
 4110SOL     OW23962   1.471   0.906   3.616 -0.7818 -0.3942 -0.0493
 4110SOL    HW123963   1.558   0.867   3.611 -1.5792 -2.3192  1.2642
 4110SOL    HW223964   1.459   0.941   3.528 -0.0625 -1.6798 -0.6402
 4111SOL     OW23965   2.281   0.012   8.190 -0.1813 -0.0189  0.4830
 4111SOL    HW123966   2.336   4.673   8.187  1.7490  1.4390 -1.9207
 4111SOL    HW223967   2.234   4.733   8.272 -1.8880  0.9531 -0.2824
 4112SOL     OW23968   2.850   0.965   7.931  0.5313 -0.1306 -0.0311
 4112SOL    HW123969   2.795   0.994   8.004 -1.7403  0.0197 -1.8249
 4112SOL    HW223970   2.828   0.873   7.915  0.0739  0.2259 -1.3745
 4113SOL     OW23971   0.778   0.112  10.475 -0.0074  0.3042 -0.3113
 4113SOL    HW123972   0.704   0.086  10.530  1.2252 -1.2680  0.6214
 4113SOL    HW223973   0.738   0.181  10.422  0.2319 -0.0693 -0.9848
 4114SOL     OW23974   3.763   0.613  13.332  0.4888  0.4186 -0.4378
 4114SOL    HW123975   3.753   0.643  13.242  1.2073 -0.1533 -0.7084
 4114SOL    HW223976   3.754   0.686  13.392 -0.4576 -0.9949  1.1331
 4115SOL     OW23977   3.056   4.090   4.290  0.3876  0.1550  0.1479
 4115SOL    HW123978   3.126   4.124   4.233  1.7431 -1.2535  1.0072
 4115SOL    HW223979   3.026   4.176   4.320 -1.1147 -0.6326  0.8914
 4116SOL     OW23980   1.822   0.193  17.472  0.3634 -0.0727 -0.2699
 4116SOL    HW123981   1.740   0.181  17.519 -0.5145 -0.2554 -1.8548
 4116SOL    HW223982   1.888   0.165  17.535  0.8181 -0.3811 -0.8822
 4117SOL     OW23983   1.452   4.360   5.861 -0.4275 -0.2050  0.2289
 4117SOL    HW123984   1.519   4.412   5.817 -0.2822 -0.3715  0.2510
 4117SOL    HW223985   1.373   4.413   5.866 -1.1468 -1.4244  1.7112
 4118SOL     OW23986   2.297   4.442   9.588 -0.0447 -0.1039 -0.0983
 4118SOL    HW123987   2.363   4.402   9.530  0.8515  2.2564 -0.6957
 4118SOL    HW223988   2.219   4.402   9.550 -0.3495  1.3356 -0.9851
 4119SOL     OW23989   0.858   0.765   9.335 -0.1650 -0.1513  0.0606
 4119SOL    HW123990   0.807   0.685   9.321  0.0126 -0.3994  0.8208
 4119SOL    HW223991   0.845   0.774   9.430  1.1586  0.7919  0.1504
 4120SOL     OW23992   3.901   3.185   6.033  0.3587  0.0466 -0.0113
 4120SOL    HW123993   3.878   3.174   6.125 -2.4108 -0.1404 -0.7170
 4120SOL    HW223994   3.904   3.095   6.001  0.1368 -0.1599  0.5522
 4121SOL     OW23995   2.150   4.573   8.986  0.3901 -0.0290 -0.2509
 4121SOL    HW123996   2.065   4.617   8.981  0.2141 -0.1981  1.1515
 4121SOL    HW223997   2.139   4.482   9.015  2.4882 -0.9568 -2.3540
 4122SOL     OW23998   4.284   4.572   8.943  0.6246  0.2543 -0.7502
 4122SOL    HW123999   4.356   4.609   8.993 -2.4205  2.3106  2.1207
 4122SOL    HW224000   4.244   4.647   8.899 -2.0831  0.0369  1.3154
 4123SOL     OW24001   4.429   4.686  17.542 -0.1922 -0.3096  0.2208
 4123SOL    HW124002   4.436   0.019  17.480 -0.3504  1.2231  1.9849
 4123SOL    HW224003   4.383   4.624  17.485  0.7174 -1.7670  1.0592
 4124SOL     OW24004   2.062   3.643   2.550 -0.3061  0.0895  0.4055
 4124SOL    HW124005   2.089   3.641   2.458  2.7545  1.8631  1.2460
 4124SOL    HW224006   1.998   3.715   2.548  0.5618  0.8865  1.5606
 4125SOL     OW24007   2.409   4.363   3.701 -0.1650 -0.6375  0.4287
 4125SOL    HW124008   2.469   4.384   3.630 -1.2493  1.6050  0.1932
 4125SOL    HW224009   2.463   4.372   3.779  1.3610  0.3241 -0.7434
 4126SOL     OW24010   2.753   1.075  16.945 -0.0085  0.2685 -0.1115
 4126SOL    HW124011   2.718   0.986  16.946  0.9019 -0.0886  1.1118
 4126SOL    HW224012   2.819   1.078  17.015 -0.2609 -0.3118  0.1540
 4127SOL     OW24013   2.181   0.394   7.415  0.6986  0.3110 -0.6684
 4127SOL    HW124014   2.142   0.363   7.333 -2.5683 -1.0597  1.4089
 4127SOL    HW224015   2.106   0.374   7.471 -0.5509  3.7095 -1.1146
 4128SOL     OW24016   2.347   2.976   4.567 -0.0422 -0.1489  0.7616
 4128SOL    HW124017   2.334   3.006   4.657 -0.4860  1.3413  0.2072
 4128SOL    HW224018   2.418   2.913   4.576 -1.6754 -2.2526 -1.1079
 4129SOL     OW24019   0.748   0.520  12.265 -0.3066  0.2259  0.2840
 4129SOL    HW124020   0.775   0.607  12.294  0.3336  0.7036 -1.7084
 4129SOL    HW224021   0.831   0.478  12.284  0.0012  0.5174 -0.3983
 4130SOL     OW24022   3.714   1.973   3.164  0.0604 -0.4855  0.0297
 4130SOL    HW124023   3.789   1.935   3.117 -0.3343  0.0641 -1.0551
 4130SOL    HW224024   3.644   1.913   3.139  0.0906 -0.4309 -0.1934
 4131SOL     OW24025   2.392   3.742  13.424 -0.3141  0.4671 -0.0747
 4131SOL    HW124026   2.299   3.723  13.409 -0.9388  2.0939  1.7521
 4131SOL    HW224027   2.401   3.726  13.518  0.1567 -2.7917 -0.6735
 4132SOL     OW24028   3.862   1.461  15.656  0.2128 -0.2276 -0.2385
 4132SOL    HW124029   3.943   1.510  15.665  0.0869  0.3096 -1.9887
 4132SOL    HW224030   3.892   1.391  15.598 -0.0190  0.5785 -1.3282
 4133SOL     OW24031   0.458   1.922   5.021 -0.0810  0.3957 -0.1183
 4133SOL    HW124032   0.422   1.840   5.054 -2.9951  1.5022 -0.5445
 4133SOL    HW224033   0.506   1.957   5.096 -0.2510 -0.3379  0.3410
 4134SOL     OW24034   4.723   2.745   6.984 -0.1873  0.2154 -0.1016
 4134SOL    HW124035   4.633   2.756   6.952  1.2350  2.0707 -3.4702
 4134SOL    HW224036   4.711   2.734   7.078  2.4384  2.7028  0.5063
 4135SOL     OW24037   0.019   1.379   0.811 -0.2522  0.2491 -0.3291
 4135SOL    HW124038   0.067   1.329   0.745  1.1667  0.5437  0.4866
 4135SOL    HW224039   4.671   1.342   0.800  0.5352 -1.7964  0.4432
 4136SOL     OW24040   3.079   4.232   7.184 -0.2555 -0.1434  0.5547
 4136SOL    HW124041   3.110   4.291   7.115  1.7788 -4.5442 -2.2868
 4136SOL    HW224042   3.002   4.206   7.132 -0.2661 -0.5986  0.8016
 4137SOL     OW24043   4.035   1.261   6.547 -0.2724 -0.1102 -0.0353
 4137SOL    HW124044   4.126   1.288   6.557 -0.3104 -1.0308  2.6297
 4137SOL    HW224045   4.046   1.180   6.496  0.3495  1.7151 -2.7825
 4138SOL     OW24046   3.476   2.731   9.002  0.0254 -0.2210 -0.0846
 4138SOL    HW124047   3.440   2.702   9.086 -1.4796 -1.2432 -1.0754
 4138SOL    HW224048   3.432   2.668   8.945  1.7930 -1.1752 -0.3865
 4139SOL     OW24049   3.114   2.191   2.852 -0.4920  0.0251 -0.6346
 4139SOL    HW124050   3.185   2.236   2.806 -0.5854  0.1522 -0.6546
 4139SOL    HW224051   3.143   2.186   2.943 -0.5273 -2.3226 -0.7488
 4140SOL     OW24052   2.210   2.129   4.933  0.0361  0.1951  0.5978
 4140SOL    HW124053   2.183   2.156   4.845 -0.0556  1.9370  1.1600
 4140SOL    HW224054   2.123   2.107   4.967  0.7588  0.3060  2.5024
 4141SOL     OW24055   1.999   1.473  13.293  0.0446 -0.7230 -0.1863
 4141SOL    HW124056   2.088   1.449  13.267 -0.8031 -1.6912 -2.2395
 4141SOL    HW224057   2.005   1.493  13.386  4.5253 -1.8340 -0.2352
 4142SOL     OW24058   4.478   4.171   3.305  0.2548  0.0667  0.0069
 4142SOL    HW124059   4.489   4.078   3.325  3.3839  1.0834  3.2012
 4142SOL    HW224060   4.563   4.204   3.335  0.2636  0.1095 -0.0659
 4143SOL     OW24061   1.615   4.381   9.849  0.0530 -0.1226  0.6849
 4143SOL    HW124062   1.595   4.302   9.899  1.3569 -0.0681  1.3028
 4143SOL    HW224063   1.554   4.381   9.775 -0.5692 -0.0410  1.2059
 4144SOL     OW24064   3.584   0.221  10.866 -0.6784  0.3000  0.4715
 4144SOL    HW124065   3.599   0.127  10.881 -0.3661 -0.1755 -2.7193
 4144SOL    HW224066   3.589   0.242  10.959  1.7360  1.7900  0.0169
 4145SOL     OW24067   0.521   4.322   6.347  0.0065  0.8297  0.2656
 4145SOL    HW124068   0.604   4.291   6.309 -0.4029  0.8665 -0.6647
 4145SOL    HW224069   0.551   4.313   6.437  1.1771  1.1552 -0.0975
 4146SOL     OW24070   3.641   0.036  16.605  0.0453 -0.6614  0.3120
 4146SOL    HW124071   3.567   0.090  16.632  0.0573  0.9313 -2.9438
 4146SOL    HW224072   3.692   0.035  16.686 -1.1290 -0.5558  1.0558
 4147SOL     OW24073   2.538   1.868   1.589 -0.0478  0.3202  0.1180
 4147SOL    HW124074   2.511   1.863   1.497 -2.1579 -1.6292  0.8228
 4147SOL    HW224075   2.592   1.789   1.600 -2.3201 -1.4147 -1.0459
 4148SOL     OW24076   1.644   3.417   6.851 -0.0277  0.6302 -0.1255
 4148SOL    HW124077   1.681   3.330   6.861  0.8593  1.0380  0.0916
 4148SOL    HW224078   1.670   3.454   6.935  0.3960  0.1099 -0.0333
 4149SOL     OW24079   1.580   2.276   7.712 -0.3071  0.6231  0.1635
 4149SOL    HW124080   1.553   2.213   7.645  0.6303  2.4355 -1.9352
 4149SOL    HW224081   1.667   2.299   7.679 -0.1786 -0.5167 -0.3221
 4150SOL     OW24082   2.322   2.319   8.959 -0.9132 -0.4927 -0.3134
 4150SOL    HW124083   2.386   2.345   8.892  1.2625 -1.5652  1.3486
 4150SOL    HW224084   2.326   2.226   8.941 -0.4560 -0.5779  0.2238
 4151SOL     OW24085   2.219   3.862   5.434  0.0576 -0.0466  0.2714
 4151SOL    HW124086   2.285   3.867   5.502  0.7689 -0.3248 -0.3948
 4151SOL    HW224087   2.274   3.838   5.359 -3.3182  0.4964 -2.3849
 4152SOL     OW24088   2.996   1.982  15.355  0.7863  0.3282  0.0421
 4152SOL    HW124089   3.027   1.966  15.266 -1.3449 -0.0300 -0.6346
 4152SOL    HW224090   2.902   1.975  15.341  0.8544 -1.0609  0.3261
 4153SOL     OW24091   0.475   2.311   6.853 -0.2048 -0.0367  0.2623
 4153SOL    HW124092   0.541   2.380   6.856 -0.0022 -0.1485 -2.2664
 4153SOL    HW224093   0.410   2.342   6.917  1.2293  1.6322  0.9041
 4154SOL     OW24094   1.285   2.900   2.441 -0.4318 -0.5112 -0.8534
 4154SOL    HW124095   1.236   2.881   2.520 -0.6196  0.8011 -0.6636
 4154SOL    HW224096   1.302   2.993   2.454  0.5905 -0.7469 -0.4470
 4155SOL     OW24097   1.164   0.676   2.574  0.6118  0.1516  0.3788
 4155SOL    HW124098   1.195   0.586   2.567 -0.3047 -0.1111 -0.3212
 4155SOL    HW224099   1.242   0.718   2.609  1.8231  0.2780 -2.4731
 4156SOL     OW24100   2.790   1.414  12.144  0.4466  0.1195  0.0997
 4156SOL    HW124101   2.757   1.456  12.223 -1.2452 -1.7852  0.4025
 4156SOL    HW224102   2.723   1.418  12.076 -1.5843 -0.9881  2.0347
 4157SOL     OW24103   3.187   3.186   7.246  0.3903 -0.3252 -0.0245
 4157SOL    HW124104   3.247   3.185   7.320 -1.2765  1.0408  1.3610
 4157SOL    HW224105   3.234   3.188   7.163 -0.4012  1.5115 -0.4097
 4158SOL     OW24106   2.177   3.103   1.390 -0.2236  0.3260  0.0520
 4158SOL    HW124107   2.125   3.052   1.329  0.1198 -2.3894  2.0235
 4158SOL    HW224108   2.196   3.178   1.334 -1.5535 -0.3265 -1.2594
 4159SOL     OW24109   3.566   3.361  10.741  0.0948 -0.3504 -0.5446
 4159SOL    HW124110   3.492   3.357  10.680  0.5299 -1.5511 -0.9993
 4159SOL    HW224111   3.602   3.272  10.750  1.2660 -0.1057 -2.7628
 4160SOL     OW24112   0.076   1.159   0.681 -0.0266 -0.4140 -0.5569
 4160SOL    HW124113   0.049   1.092   0.743  1.2461 -0.8710 -0.5137
 4160SOL    HW224114   4.732   1.171   0.634 -0.8359  0.1853  1.0220
 4161SOL     OW24115   2.101   0.193   2.522  0.4629 -0.0960  0.1850
 4161SOL    HW124116   2.102   0.180   2.616 -1.5315  2.1174  0.5064
 4161SOL    HW224117   2.194   0.189   2.498  0.7849  1.1277  1.2041
 4162SOL     OW24118   2.033   3.527  11.594 -0.1907  0.2424 -0.1086
 4162SOL    HW124119   2.090   3.600  11.571 -1.2414  1.4330  1.0793
 4162SOL    HW224120   1.977   3.514  11.517  0.4486  0.8767 -0.6766
 4163SOL     OW24121   0.738   1.857   7.354 -0.5060 -0.5058 -0.2754
 4163SOL    HW124122   0.673   1.787   7.349 -0.9962 -0.1784  1.6246
 4163SOL    HW224123   0.738   1.873   7.448 -1.6742  3.7785 -0.9864
 4164SOL     OW24124   3.647   4.345   3.490 -0.4115  0.3887  0.3115
 4164SOL    HW124125   3.740   4.354   3.510  0.1599  0.7386 -2.4419
 4164SOL    HW224126   3.639   4.250   3.483  0.6169  0.4137 -1.2470
 4165SOL     OW24127   1.355   2.941  10.602 -0.1122  0.3859  0.6137
 4165SOL    HW124128   1.271   2.909  10.635  1.1273 -0.3406  3.1001
 4165SOL    HW224129   1.422   2.881  10.636 -0.4126 -0.4173 -0.2314
 4166SOL     OW24130   2.663   0.827   9.739 -0.1724 -0.8193  0.4228
 4166SOL    HW124131   2.579   0.869   9.757  0.2536 -1.0625  2.8587
 4166SOL    HW224132   2.632   0.749   9.692  0.4540 -1.6133  1.3422
 4167SOL     OW24133   2.994   1.643  12.285  0.0847 -0.3669 -0.0761
 4167SOL    HW124134   3.069   1.701  12.296 -0.2246  0.2388 -1.1974
 4167SOL    HW224135   2.956   1.693  12.213 -0.9855 -1.4100 -0.2413
 4168SOL     OW24136   1.852   2.515   3.198 -0.4169  0.1019 -0.3442
 4168SOL    HW124137   1.786   2.571   3.239  1.3589  2.1390 -0.2497
 4168SOL    HW224138   1.862   2.566   3.118  2.1891  1.1770  0.6636
 4169SOL     OW24139   4.736   1.535   7.372 -0.3211  0.3944  0.0165
 4169SOL    HW124140   4.674   1.508   7.304 -1.6695  0.6164  1.1462
 4169SOL    HW224141   4.716   1.465   7.435  1.1474 -1.7938 -1.9429
 4170SOL     OW24142   1.776   3.346   8.488  0.3142  0.3966  0.4094
 4170SOL    HW124143   1.806   3.256   8.483 -0.7819  0.1932 -2.4034
 4170SOL    HW224144   1.686   3.335   8.519 -0.5709  0.0569 -2.2870
 4171SOL     OW24145   2.169   4.222   1.730 -0.3229 -0.0236 -0.0816
 4171SOL    HW124146   2.129   4.179   1.805  2.2948 -2.3255  0.0351
 4171SOL    HW224147   2.140   4.170   1.655 -1.5408  1.1349 -0.4157
 4172SOL     OW24148   1.395   3.593   8.823  0.2497 -0.7629 -0.1391
 4172SOL    HW124149   1.338   3.516   8.811  1.9597 -2.1431  0.5559
 4172SOL    HW224150   1.406   3.606   8.729  0.5219  0.6215  0.0943
 4173SOL     OW24151   3.237   0.774  12.730 -0.1442  0.1759  0.8074
 4173SOL    HW124152   3.215   0.683  12.709  2.0011 -0.3892  0.9770
 4173SOL    HW224153   3.179   0.822  12.672  0.5946 -0.6977 -0.6602
 4174SOL     OW24154   1.355   2.765   8.539  0.2464  0.2553  0.2583
 4174SOL    HW124155   1.322   2.700   8.477  0.5699  2.3164 -2.0508
 4174SOL    HW224156   1.451   2.757   8.541  0.1852 -0.3358  1.1295
 4175SOL     OW24157   0.000   4.692   6.094 -0.6306  1.0575 -0.0170
 4175SOL    HW124158   4.654   4.655   6.117 -0.6092  1.5084  0.7852
 4175SOL    HW224159   0.019   4.658   6.007 -2.3522 -2.4555  1.0033
 4176SOL     OW24160   0.058   0.485   0.257  0.5235  0.5648  0.1367
 4176SOL    HW124161   0.029   0.407   0.210  1.9428 -0.5432  1.0992
 4176SOL    HW224162   0.038   0.556   0.197 -1.4358 -0.7703 -0.7724
 4177SOL     OW24163   1.016   3.899   8.438  0.1688  0.1486  0.2845
 4177SOL    HW124164   1.053   3.943   8.362  1.1918 -2.6093 -0.8112
 4177SOL    HW224165   0.959   3.958   8.487  0.9631  2.0004 -1.0411
 4178SOL     OW24166   4.661   2.201   5.472  0.4930 -0.4737 -0.0359
 4178SOL    HW124167   4.651   2.107   5.485  2.6564 -0.6684  0.1753
 4178SOL    HW224168   4.593   2.249   5.518  3.1493  3.5292 -0.2719
 4179SOL     OW24169   4.409   0.761   9.560 -0.8257 -0.2363  0.0589
 4179SOL    HW124170   4.322   0.760   9.520 -0.4883 -1.0977 -0.6596
 4179SOL    HW224171   4.386   0.812   9.638 -0.1944 -0.2146  0.2318
 4180SOL     OW24172   4.001   2.366   1.519 -0.2201  0.0924 -0.4988
 4180SOL    HW124173   4.026   2.292   1.574 -1.5677  0.5701  0.7492
 4180SOL    HW224174   3.976   2.320   1.438 -1.5914  0.9691 -0.5654
 4181SOL     OW24175   2.289   1.595   3.816  0.1468  0.1418 -0.8079
 4181SOL    HW124176   2.285   1.690   3.819 -1.3271  0.0856 -0.9894
 4181SOL    HW224177   2.336   1.573   3.897  0.1401  0.6115 -0.6759
 4182SOL     OW24178   1.225   0.857  16.249 -0.4875  0.3032  0.1571
 4182SOL    HW124179   1.181   0.940  16.234 -1.3206 -0.6110 -2.6578
 4182SOL    HW224180   1.274   0.848  16.167 -1.5709 -0.6150 -0.4000
 4183SOL     OW24181   3.482   0.868   2.470 -0.4166 -0.0400 -0.3672
 4183SOL    HW124182   3.469   0.822   2.387  0.3164 -0.7751 -0.0660
 4183SOL    HW224183   3.575   0.888   2.464 -0.6533  0.6769 -1.6430
 4184SOL     OW24184   0.296   4.346   8.724 -0.1979  0.1431  0.2826
 4184SOL    HW124185   0.219   4.401   8.739 -0.3206 -0.5054  2.0083
 4184SOL    HW224186   0.280   4.327   8.632 -1.6403  2.1485  0.1230
 4185SOL     OW24187   1.170   3.439   5.586 -0.1751 -0.6323 -0.0883
 4185SOL    HW124188   1.097   3.410   5.641 -1.0698  0.0479 -0.9094
 4185SOL    HW224189   1.247   3.402   5.630  0.4029  1.1131  0.3843
 4186SOL     OW24190   4.501   2.149   7.782  0.2827 -0.3526  0.4613
 4186SOL    HW124191   4.580   2.134   7.729  0.7152  1.0225  0.7006
 4186SOL    HW224192   4.454   2.072   7.751 -0.4221  0.2328  0.0882
 4187SOL     OW24193   1.591   1.080   6.202 -0.0219 -0.4765  0.4569
 4187SOL    HW124194   1.553   1.074   6.290 -1.5914 -0.7715 -0.2347
 4187SOL    HW224195   1.592   1.176   6.195  0.3167 -0.5141  0.0672
 4188SOL     OW24196   2.052   0.571   1.749 -0.0093 -0.3540 -0.1194
 4188SOL    HW124197   2.032   0.665   1.745 -2.5044 -0.9892 -2.6996
 4188SOL    HW224198   2.090   0.579   1.837  2.3215  0.2546 -1.1854
 4189SOL     OW24199   1.739   1.452   3.907  0.5132 -0.7983  0.1452
 4189SOL    HW124200   1.761   1.479   3.818  1.2026 -1.0583  0.2405
 4189SOL    HW224201   1.643   1.445   3.900  0.6068 -0.5690 -1.4858
 4190SOL     OW24202   2.346   3.536  16.637 -0.7617 -0.3370 -0.3210
 4190SOL    HW124203   2.324   3.598  16.568 -0.6787 -0.1495 -0.1787
 4190SOL    HW224204   2.260   3.535  16.678  0.5434 -0.9962  2.4387
 4191SOL     OW24205   2.820   0.432   4.037  0.0643  0.2974  0.2387
 4191SOL    HW124206   2.830   0.339   4.060 -0.2679  0.4591  1.0036
 4191SOL    HW224207   2.882   0.470   4.100  0.8544 -0.3719 -0.1289
 4192SOL     OW24208   1.846   4.601   5.659 -0.3736 -0.2408  0.2628
 4192SOL    HW124209   1.919   4.571   5.714 -0.5090 -0.5048  0.2978
 4192SOL    HW224210   1.858   4.695   5.670  0.1509 -0.1680 -0.9669
 4193SOL     OW24211   3.737   3.902   9.197 -0.3773  0.5971  0.4668
 4193SOL    HW124212   3.720   3.943   9.282  0.4137  0.0492  0.8961
 4193SOL    HW224213   3.830   3.913   9.178 -0.4226 -1.1537 -0.7976
 4194SOL     OW24214   1.987   0.197   9.538  0.1050  0.6206 -0.6781
 4194SOL    HW124215   1.892   0.187   9.543  0.1879 -0.3733 -1.0095
 4194SOL    HW224216   2.013   0.144   9.613 -0.3792  1.4796  0.0924
 4195SOL     OW24217   2.206   1.813   9.612 -0.0132 -0.4519 -0.0053
 4195SOL    HW124218   2.123   1.813   9.660  1.1243  0.2598  1.9477
 4195SOL    HW224219   2.213   1.907   9.598 -0.9558 -0.2726  0.6902
 4196SOL     OW24220   0.156   2.457   9.071  1.5259  0.5066 -0.1387
 4196SOL    HW124221   0.193   2.435   8.986 -0.3918  1.5427 -1.2253
 4196SOL    HW224222   0.063   2.469   9.053  0.9594 -2.6243  0.7500
 4197SOL     OW24223   4.467   3.869   9.177  0.2916 -0.0259 -0.0687
 4197SOL    HW124224   4.389   3.830   9.217  1.4912 -1.5238  0.7947
 4197SOL    HW224225   4.498   3.787   9.139 -1.6735 -0.5133 -0.6295
 4198SOL     OW24226   0.273   1.313  12.649  0.3192 -0.1827 -0.2695
 4198SOL    HW124227   0.189   1.339  12.611 -0.0371 -1.8189 -0.5915
 4198SOL    HW224228   0.261   1.220  12.668  0.8432  0.0574  1.2280
 4199SOL     OW24229   2.271   2.840   7.578 -0.0852 -0.1411  0.0930
 4199SOL    HW124230   2.364   2.817   7.574 -0.5005 -1.9565  1.1790
 4199SOL    HW224231   2.271   2.907   7.510  0.2791  0.6170  0.8419
 4200SOL     OW24232   3.891   4.262   6.986  0.2456 -0.0613 -0.4534
 4200SOL    HW124233   3.810   4.251   6.937  0.1355 -2.2670  0.2178
 4200SOL    HW224234   3.857   4.313   7.060 -1.7687 -1.2414 -0.5549
 4201SOL     OW24235   0.163   4.325   7.609 -0.0427  0.6421 -0.1970
 4201SOL    HW124236   0.129   4.400   7.560  2.0972  0.9130 -1.2817
 4201SOL    HW224237   0.194   4.263   7.543 -1.1485  1.8352 -1.8302
 4202SOL     OW24238   4.600   4.318   4.041  0.1827  0.2381 -0.1017
 4202SOL    HW124239   4.671   4.319   3.977  1.0472 -0.2116  0.8491
 4202SOL    HW224240   4.642   4.275   4.116  3.3647  0.1965 -1.9179
 4203SOL     OW24241   0.533   0.381   0.925  0.2525  0.2056 -0.1704
 4203SOL    HW124242   0.468   0.448   0.948  0.9791  0.3484  1.4346
 4203SOL    HW224243   0.582   0.431   0.860  0.2602  2.6421  1.7222
 4204SOL     OW24244   4.106   1.000   1.374 -0.5619 -0.1357  0.3418
 4204SOL    HW124245   4.091   1.053   1.296 -2.0691 -0.7444  0.2223
 4204SOL    HW224246   4.190   0.961   1.348 -1.4863 -0.6375 -1.9308
 4205SOL     OW24247   0.217   0.152   4.674 -0.0711  0.3281  0.5466
 4205SOL    HW124248   0.240   0.066   4.711 -2.1224  0.4874  2.2198
 4205SOL    HW224249   0.288   0.209   4.704 -0.5409  1.6678 -0.9408
 4206SOL     OW24250   2.738   1.877   4.243 -0.4956  0.1732  0.0282
 4206SOL    HW124251   2.729   1.947   4.308 -1.5484  0.2839 -0.2432
 4206SOL    HW224252   2.709   1.803   4.296  0.6564  1.0851  1.9432
 4207SOL     OW24253   4.537   2.222   7.098  0.1307 -0.2043 -0.5217
 4207SOL    HW124254   4.521   2.315   7.085 -1.5067 -0.1367  1.8201
 4207SOL    HW224255   4.509   2.185   7.014 -0.8905 -0.2244 -0.1796
 4208SOL     OW24256   1.392   3.916  12.170 -0.0920 -0.3867  0.1630
 4208SOL    HW124257   1.399   3.834  12.121  1.1198  0.1900 -0.6236
 4208SOL    HW224258   1.478   3.923  12.211  1.0760 -0.7057 -2.2689
 4209SOL     OW24259   0.438   3.230  11.429  0.2476 -0.2514  0.2862
 4209SOL    HW124260   0.431   3.192  11.517 -0.1767 -2.2169 -0.6140
 4209SOL    HW224261   0.347   3.229  11.400  0.6115  0.9709 -0.8818
 4210SOL     OW24262   3.617   1.338   1.139  0.0225  0.2969 -0.3457
 4210SOL    HW124263   3.680   1.398   1.099 -0.0758 -0.4047 -1.5504
 4210SOL    HW224264   3.645   1.262   1.089 -1.1091  0.0265 -0.5815
 4211SOL     OW24265   1.051   4.345  11.680  0.2252  0.0431  0.0896
 4211SOL    HW124266   0.985   4.385  11.736  0.3782  0.6938 -0.1867
 4211SOL    HW224267   1.078   4.277  11.742 -0.9308 -1.5666 -1.1616
 4212SOL     OW24268   4.483   0.661   3.486  0.2444 -0.0568 -0.0616
 4212SOL    HW124269   4.559   0.690   3.436  0.6188  0.6009  0.8863
 4212SOL    HW224270   4.508   0.713   3.563  0.7041 -1.0938  0.4946
 4213SOL     OW24271   3.377   1.570   6.811  0.3026 -0.3675 -0.3341
 4213SOL    HW124272   3.422   1.499   6.856 -0.5035 -0.0694  0.9393
 4213SOL    HW224273   3.292   1.582   6.854  1.6936 -1.6462  2.7322
 4214SOL     OW24274   0.290   4.447   7.331 -0.1619 -0.1579 -0.6457
 4214SOL    HW124275   0.237   4.391   7.275  0.8322  0.6966 -2.4248
 4214SOL    HW224276   0.238   4.526   7.321  1.8595  1.3937  1.1780
 4215SOL     OW24277   4.567   4.155   3.686  0.4354 -0.3063  0.2369
 4215SOL    HW124278   4.636   4.107   3.732  2.2780  0.4855 -1.6896
 4215SOL    HW224279   4.492   4.158   3.746 -0.2602  0.5115 -0.6740
 4216SOL     OW24280   3.251   3.599   6.227  1.2305  0.1480 -0.3416
 4216SOL    HW124281   3.345   3.618   6.220  0.8199  2.3765  0.0351
 4216SOL    HW224282   3.235   3.590   6.321  0.0786  0.2456 -0.5294
 4217SOL     OW24283   2.303   1.590   1.003 -0.5450 -0.5544  0.4277
 4217SOL    HW124284   2.286   1.656   0.935 -0.3322 -0.7876  0.1496
 4217SOL    HW224285   2.368   1.530   0.967 -0.0590 -0.2349  0.7652
 4218SOL     OW24286   0.501   4.453   4.766 -0.1638 -0.4819  0.4003
 4218SOL    HW124287   0.515   4.360   4.783  1.1660 -0.3890 -0.1703
 4218SOL    HW224288   0.576   4.489   4.814 -1.0232  0.1470  1.2688
 4219SOL     OW24289   2.535   3.558   4.210  0.0324 -0.6236 -0.3341
 4219SOL    HW124290   2.448   3.584   4.239  0.6272  0.4700  0.4392
 4219SOL    HW224291   2.548   3.491   4.277 -0.6978  1.0385  1.4422
 4220SOL     OW24292   4.634   1.985   5.748 -0.3452  0.4287 -0.0855
 4220SOL    HW124293   4.715   2.010   5.705  0.5512  0.2015  1.4650
 4220SOL    HW224294   4.592   1.957   5.667  1.4578  0.8795 -1.1576
 4221SOL     OW24295   4.339   1.218   1.288  0.1207 -0.5643  0.0355
 4221SOL    HW124296   4.336   1.307   1.253 -1.3366 -0.7515 -0.3292
 4221SOL    HW224297   4.348   1.247   1.379  0.2618 -0.3669 -0.0415
 4222SOL     OW24298   3.360   4.323  13.986  0.2586  0.0003 -0.0677
 4222SOL    HW124299   3.399   4.249  13.940  2.8750  2.9291 -2.5567
 4222SOL    HW224300   3.285   4.285  14.031 -0.7567 -0.8194 -2.4397
 4223SOL     OW24301   3.355   2.103   2.178  0.5317 -0.4988  0.3234
 4223SOL    HW124302   3.399   2.094   2.263  1.0783 -1.4297 -0.0532
 4223SOL    HW224303   3.267   2.132   2.199  0.3469 -0.2693 -0.8053
 4224SOL     OW24304   4.014   1.608   1.219  0.1019  0.1818  0.2171
 4224SOL    HW124305   4.065   1.606   1.138  0.5215 -1.7772  0.5313
 4224SOL    HW224306   4.069   1.640   1.290 -1.4806  0.9057  1.1289
 4225SOL     OW24307   3.026   3.980   5.296  0.0487 -0.0381 -0.4285
 4225SOL    HW124308   3.037   3.908   5.235  1.0439 -2.3482  2.5029
 4225SOL    HW224309   3.058   3.938   5.376  3.3121  0.9118 -1.2348
 4226SOL     OW24310   2.188   1.933   5.542 -0.1426  0.7268 -0.9425
 4226SOL    HW124311   2.267   1.892   5.507  1.0568  1.5850  0.8099
 4226SOL    HW224312   2.160   1.969   5.457  1.5100  1.9183 -0.9678
 4227SOL     OW24313   2.496   3.047  12.530 -0.1620 -0.0411  0.2156
 4227SOL    HW124314   2.451   3.029  12.447 -2.2521  2.8386  0.7502
 4227SOL    HW224315   2.426   3.032  12.593 -1.8700 -0.0727 -1.6877
 4228SOL     OW24316   0.383   0.805   0.423 -0.0388 -0.2744 -0.4919
 4228SOL    HW124317   0.369   0.881   0.367  0.1451  0.1353  0.0190
 4228SOL    HW224318   0.478   0.799   0.415 -0.0612 -1.6805  0.2873
 4229SOL     OW24319   2.598   4.489  10.361  1.1532 -0.0388  0.3427
 4229SOL    HW124320   2.608   4.584  10.359 -1.7890  0.2978  2.5216
 4229SOL    HW224321   2.673   4.455  10.312 -0.5871 -2.0143 -0.9638
 4230SOL     OW24322   2.256   2.640   4.646 -0.2300  0.2032 -0.5353
 4230SOL    HW124323   2.198   2.578   4.603  1.4113 -0.1101 -2.2924
 4230SOL    HW224324   2.237   2.631   4.740  1.9638  2.3678  0.1478
 4231SOL     OW24325   2.241   0.225  12.425 -0.6282  0.2604  0.3953
 4231SOL    HW124326   2.271   0.256  12.510 -0.0546 -0.4817  0.4572
 4231SOL    HW224327   2.316   0.167  12.415 -0.6902  0.0106  1.3348
 4232SOL     OW24328   1.776   2.743   8.660  0.6302  0.7500  0.5919
 4232SOL    HW124329   1.712   2.728   8.730  0.9576 -1.0932  0.5027
 4232SOL    HW224330   1.839   2.794   8.711  1.3002  1.8587 -1.3735
 4233SOL     OW24331   2.569   2.853  10.574 -0.4044  0.4564  0.0463
 4233SOL    HW124332   2.621   2.805  10.509 -0.4141  2.2509 -1.2958
 4233SOL    HW224333   2.603   2.942  10.570  1.1738 -0.0892  1.4550
 4234SOL     OW24334   2.225   1.701   8.989 -0.3309  0.2312  0.6974
 4234SOL    HW124335   2.150   1.646   9.009 -0.3673 -0.2555 -0.7713
 4234SOL    HW224336   2.304   1.652   9.013 -0.0401 -0.8046 -2.3000
 4235SOL     OW24337   4.088   2.471  12.856 -0.0356 -0.1983  0.0836
 4235SOL    HW124338   4.172   2.496  12.816 -0.2026  2.1053  1.2248
 4235SOL    HW224339   4.058   2.430  12.775  1.1659 -0.1594 -0.3861
 4236SOL     OW24340   0.310   2.194  14.628  0.6695 -0.5702 -0.8126
 4236SOL    HW124341   0.367   2.120  14.648  0.4722 -0.4915  0.0522
 4236SOL    HW224342   0.370   2.256  14.587  0.0557 -0.0506 -0.9245
 4237SOL     OW24343   1.506   4.553   5.267  0.1985 -0.4392 -0.3115
 4237SOL    HW124344   1.436   4.502   5.308 -0.0540 -1.1028 -1.5762
 4237SOL    HW224345   1.546   4.597   5.342  2.2522  1.5904 -2.5954
 4238SOL     OW24346   4.133   3.204  16.061 -0.1684  0.1118  0.1433
 4238SOL    HW124347   4.063   3.159  16.109  1.9500 -1.1619  2.0142
 4238SOL    HW224348   4.079   3.240  15.990  1.1615  1.4767 -0.1726
 4239SOL     OW24349   1.483   0.227   6.899 -0.3424 -0.3045  0.3147
 4239SOL    HW124350   1.572   0.209   6.869 -0.7665 -0.2534 -0.9660
 4239SOL    HW224351   1.454   0.287   6.829  1.2764 -0.3302 -0.3705
 4240SOL     OW24352   3.792   0.919   8.795 -0.2181  0.3638 -0.1124
 4240SOL    HW124353   3.862   0.854   8.795 -0.9126 -0.3830 -0.8318
 4240SOL    HW224354   3.748   0.893   8.876  1.4427 -2.5479 -0.1645
 4241SOL     OW24355   0.237   4.655   9.237  0.2142  0.4397 -0.0057
 4241SOL    HW124356   0.315   4.599   9.231  1.5654  2.4961 -1.6080
 4241SOL    HW224357   0.274   4.708   9.308  2.2800 -0.4216 -0.4401
 4242SOL     OW24358   3.295   2.739   5.127  0.7003 -0.1004  0.4851
 4242SOL    HW124359   3.257   2.729   5.040  2.7858  1.5116 -0.6012
 4242SOL    HW224360   3.353   2.814   5.114 -0.6830  0.6583 -1.3424
 4243SOL     OW24361   2.926   4.676   5.815 -0.4164 -0.3527  0.3237
 4243SOL    HW124362   3.009   4.652   5.776 -0.4342  2.9772 -1.7130
 4243SOL    HW224363   2.852   4.642   5.765 -0.4847  0.4916 -0.1476
 4244SOL     OW24364   3.649   4.121   5.451 -0.3521 -0.4215 -0.6427
 4244SOL    HW124365   3.556   4.108   5.464  0.0490 -2.9813 -0.5026
 4244SOL    HW224366   3.666   4.072   5.371  0.3944 -2.6579  0.8987
 4245SOL     OW24367   0.632   3.079  13.872 -0.5915  0.8131 -0.2265
 4245SOL    HW124368   0.606   3.063  13.962 -2.1683 -3.2484 -1.3900
 4245SOL    HW224369   0.547   3.063  13.832  0.6237  1.2168 -2.9797
 4246SOL     OW24370   0.078   1.264   7.934 -0.3960 -0.3085  0.8365
 4246SOL    HW124371   0.036   1.340   7.894  0.7188 -0.5154 -0.7673
 4246SOL    HW224372   0.143   1.308   7.989  2.0608  1.0130 -3.0890
 4247SOL     OW24373   0.459   3.813   5.556  0.3580 -0.0260 -0.3239
 4247SOL    HW124374   0.495   3.796   5.643  1.7176 -3.1549 -1.4930
 4247SOL    HW224375   0.421   3.731   5.527 -2.6742  0.9952  0.7765
 4248SOL     OW24376   1.460   3.157   1.094  0.3636  0.0063  0.4131
 4248SOL    HW124377   1.484   3.124   1.181 -2.2815  0.7220  1.4249
 4248SOL    HW224378   1.527   3.224   1.079 -0.4055  0.3069 -1.6317
 4249SOL     OW24379   2.287   3.445   2.354  0.0166 -0.1823 -0.3352
 4249SOL    HW124380   2.247   3.524   2.318 -0.8369 -0.2813  0.3996
 4249SOL    HW224381   2.207   3.396   2.372  0.0266 -0.3529 -0.7554
 4250SOL     OW24382   2.971   1.121   1.849 -0.0941 -0.5213 -0.1429
 4250SOL    HW124383   2.880   1.097   1.830 -0.1285 -0.9209  0.5273
 4250SOL    HW224384   3.013   1.076   1.775  0.9246 -0.2834  0.2914
 4251SOL     OW24385   3.495   1.925  13.678 -0.0633 -0.1916 -0.3796
 4251SOL    HW124386   3.498   1.872  13.758 -1.3930  1.6139  0.8694
 4251SOL    HW224387   3.485   1.856  13.612 -0.9163  1.0486 -1.5341
 4252SOL     OW24388   1.103   3.153   8.641 -0.1383  0.2725 -0.5076
 4252SOL    HW124389   1.027   3.139   8.697  1.0671  0.5531  1.2001
 4252SOL    HW224390   1.057   3.151   8.558 -0.4896 -0.1132 -0.3048
 4253SOL     OW24391   3.901   1.673   5.816 -0.6751  0.4677  0.3585
 4253SOL    HW124392   3.982   1.678   5.866 -0.9337 -0.3351  0.8658
 4253SOL    HW224393   3.889   1.579   5.831 -0.3356  0.3918  0.1578
 4254SOL     OW24394   3.092   2.138  14.503  0.0770  0.1957 -0.1264
 4254SOL    HW124395   3.165   2.083  14.477 -1.4367 -1.1417 -1.5128
 4254SOL    HW224396   3.033   2.075  14.545  1.1867 -0.4920  0.4027
 4255SOL     OW24397   2.253   4.517   7.665  0.5323  0.0504  0.1721
 4255SOL    HW124398   2.313   4.591   7.667 -1.3662  1.5939 -0.7288
 4255SOL    HW224399   2.306   4.438   7.650 -0.2601 -0.5284  0.3888
 4256SOL     OW24400   0.309   2.451   4.909  0.1347 -0.0430 -0.4569
 4256SOL    HW124401   0.335   2.504   4.834 -2.6168 -0.4272 -1.6937
 4256SOL    HW224402   0.359   2.371   4.897  0.8728  0.5491 -1.2988
 4257SOL     OW24403   0.343   0.116  17.062 -0.1206  0.3278  0.2931
 4257SOL    HW124404   0.404   0.056  17.106 -1.0391  1.2415  2.8319
 4257SOL    HW224405   0.361   0.207  17.084 -3.3578  1.2809 -0.9450
 4258SOL     OW24406   2.507   4.532   5.636  0.5038 -0.1852 -0.6164
 4258SOL    HW124407   2.425   4.501   5.596  0.9483 -2.7288  0.4250
 4258SOL    HW224408   2.496   4.624   5.612  1.7934  0.3693  0.9310
 4259SOL     OW24409   4.724   3.067   5.430 -0.6825  0.0139 -0.2603
 4259SOL    HW124410   0.031   3.028   5.505 -1.8367  2.7000  1.8739
 4259SOL    HW224411   4.715   2.987   5.378  1.2994  0.1739 -0.8636
 4260SOL     OW24412   1.411   1.337  12.639  0.0101  0.3285 -0.3743
 4260SOL    HW124413   1.502   1.320  12.615 -1.1001 -3.5881 -1.8852
 4260SOL    HW224414   1.398   1.281  12.716 -4.6041  2.9565  0.7408
 4261SOL     OW24415   4.002   1.258   8.675 -0.0215 -0.6821  0.4128
 4261SOL    HW124416   3.988   1.340   8.628 -1.9531 -1.4600 -0.3751
 4261SOL    HW224417   4.090   1.283   8.703  0.9223 -2.2350 -1.1695
 4262SOL     OW24418   1.141   3.371   1.613 -0.0161  0.0201  0.8250
 4262SOL    HW124419   1.139   3.420   1.531 -5.5136  0.6923  1.4102
 4262SOL    HW224420   1.154   3.279   1.591  0.9965  0.4551 -0.4267
 4263SOL     OW24421   3.605   0.195   2.187  0.0947  0.2172 -0.2249
 4263SOL    HW124422   3.577   0.201   2.095  1.5698  0.4373 -0.6545
 4263SOL    HW224423   3.642   0.280   2.212 -0.9627  0.4833  0.4168
 4264SOL     OW24424   3.505   1.061  11.541  0.3228 -0.0552 -0.2790
 4264SOL    HW124425   3.417   1.049  11.503  0.7634 -0.8619 -1.0644
 4264SOL    HW224426   3.478   1.129  11.603 -0.5264 -1.5485  0.9917
 4265SOL     OW24427   2.699   3.546   1.493  0.4466 -0.4170  0.1350
 4265SOL    HW124428   2.670   3.475   1.550  0.5146 -0.3850  0.2097
 4265SOL    HW224429   2.749   3.612   1.541 -1.2284  1.8687 -1.2822
 4266SOL     OW24430   3.378   1.779  10.450  0.3838 -0.3629  0.0834
 4266SOL    HW124431   3.332   1.705  10.488 -1.9253  1.7039  1.3129
 4266SOL    HW224432   3.469   1.751  10.463  0.2626 -1.2647 -1.0485
 4267SOL     OW24433   3.730   2.855   7.933  0.1645  0.3396 -0.2118
 4267SOL    HW124434   3.747   2.773   7.888  0.4892  0.9301 -1.1668
 4267SOL    HW224435   3.715   2.812   8.017  0.6551  1.5591  0.4954
 4268SOL     OW24436   4.591   1.026   0.159  0.4230 -0.6982 -0.1680
 4268SOL    HW124437   4.537   1.009   0.082 -0.4474 -0.2646  0.3423
 4268SOL    HW224438   4.539   1.079   0.220 -0.9064 -2.5711  0.3338
 4269SOL     OW24439   1.127   4.711   6.373 -0.9364 -0.2964 -0.2559
 4269SOL    HW124440   1.136   0.062   6.403  2.1229  0.7699 -4.3262
 4269SOL    HW224441   1.055   4.686   6.431 -1.5219 -0.9862 -1.2673
 4270SOL     OW24442   0.790   0.322   6.960  0.3218  0.3358  0.4377
 4270SOL    HW124443   0.830   0.301   6.876 -0.8344 -2.3853  0.5391
 4270SOL    HW224444   0.728   0.387   6.927  0.2993 -0.9842 -2.1788
 4271SOL     OW24445   0.983   3.482   3.571  0.8042 -0.1378  0.6786
 4271SOL    HW124446   0.939   3.398   3.583  0.3954 -0.2198 -1.4105
 4271SOL    HW224447   1.049   3.466   3.504  0.0992  2.6616 -0.6930
 4272SOL     OW24448   4.207   1.185   7.674  0.4870  0.3637 -0.7635
 4272SOL    HW124449   4.232   1.098   7.707  0.3835  0.7767  0.4055
 4272SOL    HW224450   4.289   1.226   7.644  0.9778 -2.2167 -2.9188
 4273SOL     OW24451   4.478   2.821   3.672 -0.1775  0.1604 -0.2492
 4273SOL    HW124452   4.411   2.760   3.704 -1.2974  2.1446  1.1764
 4273SOL    HW224453   4.428   2.891   3.631 -0.9679 -0.5167 -0.4234
 4274SOL     OW24454   0.818   3.005   1.832 -0.1428 -0.1120 -0.4279
 4274SOL    HW124455   0.791   3.007   1.923 -0.8878 -1.4465 -0.6144
 4274SOL    HW224456   0.739   2.983   1.783 -1.1740  1.3197  0.6036
 4275SOL     OW24457   0.096   2.301   5.005  0.0378 -0.5850 -0.0429
 4275SOL    HW124458   0.057   2.366   5.063 -2.4089 -0.1221 -2.2105
 4275SOL    HW224459   0.153   2.347   4.944 -1.9907 -1.6423 -2.7111
 4276SOL     OW24460   3.354   2.009   2.538 -0.1822  0.3732  0.0453
 4276SOL    HW124461   3.388   2.097   2.551  0.5768  0.5333 -2.8568
 4276SOL    HW224462   3.260   2.027   2.539 -0.4287 -0.7980 -0.6074
 4277SOL     OW24463   2.597   1.974   3.256  0.0626  0.0971  0.3064
 4277SOL    HW124464   2.504   1.968   3.231  0.0292 -0.6817  0.6326
 4277SOL    HW224465   2.602   2.069   3.240 -4.4980  0.6840  2.2091
 4278SOL     OW24466   4.346   4.624   5.736 -0.1263  0.3440 -0.9198
 4278SOL    HW124467   4.302   4.550   5.692  0.3969  0.8422 -2.2750
 4278SOL    HW224468   4.433   4.612   5.698  0.5418  0.2255  0.6659
 4279SOL     OW24469   2.332   4.117   2.425  0.1270 -0.0874  0.1140
 4279SOL    HW124470   2.347   4.025   2.403  2.0159  0.3189 -0.3351
 4279SOL    HW224471   2.409   4.127   2.482 -1.9499  0.3668  2.8402
 4280SOL     OW24472   2.246   0.355   5.928 -0.1323  0.9509  0.2794
 4280SOL    HW124473   2.154   0.348   5.904 -0.2193 -1.4872  1.2781
 4280SOL    HW224474   2.251   0.377   6.022  0.8108  0.6879  0.2891
 4281SOL     OW24475   3.741   3.473   8.251  0.5610 -0.1080 -0.3673
 4281SOL    HW124476   3.702   3.488   8.337  0.8226 -0.7416 -0.1389
 4281SOL    HW224477   3.664   3.461   8.195 -1.7721 -0.7177  2.9232
 4282SOL     OW24478   2.118   0.121   1.540  0.0683 -0.5600  0.2971
 4282SOL    HW124479   2.138   0.078   1.624  0.4167 -0.5586  0.2140
 4282SOL    HW224480   2.114   0.043   1.484 -2.4335  0.0980 -0.4445
 4283SOL     OW24481   1.625   0.891   2.642  0.0285  0.1262  0.3501
 4283SOL    HW124482   1.628   0.958   2.573 -3.0348 -1.1070 -1.0162
 4283SOL    HW224483   1.702   0.913   2.693  1.4836 -0.5787 -1.5592
 4284SOL     OW24484   2.094   1.399   3.944  0.1419 -0.1569 -0.5129
 4284SOL    HW124485   2.116   1.337   3.875 -1.9040 -0.1349 -1.1856
 4284SOL    HW224486   2.054   1.473   3.900  0.2263  1.3339  1.8993
 4285SOL     OW24487   1.390   0.571   4.533 -0.3054  0.3145 -0.0056
 4285SOL    HW124488   1.361   0.624   4.459  0.4524  0.6187 -0.0866
 4285SOL    HW224489   1.484   0.583   4.521 -0.6482  1.3849 -1.5108
 4286SOL     OW24490   3.622   1.379   8.882  0.5053 -0.9912 -0.9165
 4286SOL    HW124491   3.638   1.371   8.976 -0.3722  0.8287 -0.6090
 4286SOL    HW224492   3.621   1.289   8.850  1.7327 -0.9931 -0.9656
 4287SOL     OW24493   1.036   3.941  12.242 -0.1469  0.4154  0.3384
 4287SOL    HW124494   0.958   3.957  12.190 -0.6554  0.5448  1.1403
 4287SOL    HW224495   1.104   3.920  12.178 -0.3364  3.1419 -0.7297
 4288SOL     OW24496   3.971   2.283   2.624  0.0106 -0.1687  0.1359
 4288SOL    HW124497   4.014   2.267   2.708  0.6752 -0.3652 -0.2438
 4288SOL    HW224498   3.948   2.374   2.644 -0.9641  0.0872 -2.2356
 4289SOL     OW24499   2.322   3.056   2.893 -0.0790  0.4886  0.1807
 4289SOL    HW124500   2.338   3.026   2.982  0.1142  0.5755  0.1748
 4289SOL    HW224501   2.226   3.066   2.895  0.0557  1.7968  0.4515
 4290SOL     OW24502   3.682   2.611   8.718 -0.5629  0.1486  0.2199
 4290SOL    HW124503   3.762   2.663   8.712  1.0649 -2.2491  1.2051
 4290SOL    HW224504   3.613   2.655   8.668  0.6387 -0.4410 -1.9708
 4291SOL     OW24505   0.904   2.574   8.727  0.3105  0.3153  0.0642
 4291SOL    HW124506   0.945   2.515   8.664  0.4292 -2.0863  2.3788
 4291SOL    HW224507   0.981   2.625   8.754  0.1857  0.4583  0.1498
 4292SOL     OW24508   4.087   4.229  17.739  0.4450  0.5261  0.0897
 4292SOL    HW124509   4.041   4.284   0.046 -0.4876  0.6355 -0.6885
 4292SOL    HW224510   4.095   4.296  17.671  0.7185  0.1197 -0.2756
 4293SOL     OW24511   1.771   0.266   1.234 -0.2161  0.4510  0.3973
 4293SOL    HW124512   1.688   0.255   1.281 -0.6843 -0.1252 -0.5705
 4293SOL    HW224513   1.839   0.273   1.300 -0.0878 -3.4559  0.6816
 4294SOL     OW24514   2.633   4.541   8.054 -0.4468 -0.2433 -0.4875
 4294SOL    HW124515   2.711   4.487   8.040  0.1368 -0.5913  4.2613
 4294SOL    HW224516   2.589   4.515   7.973  0.1840 -2.8221  0.0002
 4295SOL     OW24517   1.742   2.917   8.406 -0.1985 -0.3448 -0.4237
 4295SOL    HW124518   1.664   2.972   8.404  0.8150  1.0900 -0.4840
 4295SOL    HW224519   1.738   2.866   8.488  0.4507  1.0688  0.4796
 4296SOL     OW24520   1.954   3.656   9.719 -0.0686  0.6107 -0.4384
 4296SOL    HW124521   2.020   3.716   9.754  0.7054 -0.6973  0.3348
 4296SOL    HW224522   1.984   3.571   9.751  0.9312  0.5636 -1.5090
 4297SOL     OW24523   1.546   0.745   2.976  0.3636  0.1936  0.4477
 4297SOL    HW124524   1.560   0.678   3.043  0.8887 -0.4868 -0.3454
 4297SOL    HW224525   1.634   0.783   2.976  0.9364 -1.1489  0.1364
 4298SOL     OW24526   4.149   3.310  11.674  0.2138  0.1606 -0.3440
 4298SOL    HW124527   4.125   3.321  11.582  3.6814  1.0581 -1.1119
 4298SOL    HW224528   4.150   3.215  11.684  1.3042 -0.0048 -2.1789
 4299SOL     OW24529   2.819   1.099   5.497 -0.0391 -0.0371  0.8527
 4299SOL    HW124530   2.795   1.117   5.407  1.1686  1.8643  0.9386
 4299SOL    HW224531   2.901   1.051   5.489  0.4426  0.9817 -0.1291
 4300SOL     OW24532   4.727   2.691  16.262  0.2864 -0.0449 -0.2733
 4300SOL    HW124533   4.724   2.751  16.187  0.5597 -0.9124 -0.9888
 4300SOL    HW224534   0.075   2.712  16.295  0.4116 -0.1245 -0.5513
 4301SOL     OW24535   0.023   3.858   5.514  0.0019 -0.2348  0.1809
 4301SOL    HW124536   0.105   3.908   5.509  0.0365 -0.1963  1.2517
 4301SOL    HW224537   0.028   3.810   5.431  2.3793 -2.2362  1.4905
 4302SOL     OW24538   2.207   3.178   2.631  0.1335  0.3433  0.3336
 4302SOL    HW124539   2.232   3.204   2.720  1.9767  1.6890 -0.5853
 4302SOL    HW224540   2.128   3.231   2.623 -0.8730 -1.3454 -0.8593
 4303SOL     OW24541   0.530   0.129   0.834  0.6547 -0.1985 -0.1096
 4303SOL    HW124542   0.442   0.109   0.803  0.4061  1.9630 -0.8022
 4303SOL    HW224543   0.521   0.218   0.868  1.7644  0.0109 -0.3534
 4304SOL     OW24544   3.077   4.073  13.249 -0.4616  0.2643  0.7600
 4304SOL    HW124545   2.984   4.070  13.230  0.0080 -0.1814 -1.4742
 4304SOL    HW224546   3.065   4.056  13.343 -0.6011  0.5978  0.8024
 4305SOL     OW24547   1.943   2.258   9.338  0.7385  0.0721  0.4258
 4305SOL    HW124548   1.892   2.177   9.337 -1.1736  1.2910  0.0816
 4305SOL    HW224549   1.876   2.319   9.307  1.3427  0.0554 -0.9148
 4306SOL     OW24550   4.204   4.413  14.727  0.4468 -0.2622  0.6451
 4306SOL    HW124551   4.143   4.485  14.714  0.0836 -0.5760  0.6248
 4306SOL    HW224552   4.276   4.461  14.768  0.8902 -1.2397  1.0049
 4307SOL     OW24553   3.660   0.373  16.615  0.1293  0.9243 -0.2708
 4307SOL    HW124554   3.578   0.360  16.663  1.1882 -0.6723  1.1498
 4307SOL    HW224555   3.664   0.299  16.554  0.4124  0.4305  0.3398
 4308SOL     OW24556   0.429   4.229   5.388  0.5177 -0.6163  0.4913
 4308SOL    HW124557   0.437   4.301   5.325  3.9866 -1.0664  0.4050
 4308SOL    HW224558   0.519   4.232   5.421  0.4850  0.5467  0.4755
 4309SOL     OW24559   4.357   4.320   0.838 -0.1471 -0.3979  0.0622
 4309SOL    HW124560   4.334   4.356   0.924 -0.1822 -0.6022  0.1376
 4309SOL    HW224561   4.383   4.405   0.801 -0.0535 -1.4302 -2.2088
 4310SOL     OW24562   3.037   0.799   1.721  0.2696  0.1735 -0.3749
 4310SOL    HW124563   2.943   0.784   1.726 -0.0833  2.0966 -1.2893
 4310SOL    HW224564   3.055   0.785   1.814  0.6037  1.4648 -0.2400
 4311SOL     OW24565   3.960   3.008   4.697  0.4306 -0.3663 -0.0552
 4311SOL    HW124566   4.045   2.981   4.732  0.3369 -0.3949  0.1468
 4311SOL    HW224567   3.943   2.937   4.634  1.8402  1.3236 -2.3687
 4312SOL     OW24568   4.314   2.566  12.751 -0.8713  0.2072  0.0698
 4312SOL    HW124569   4.319   2.633  12.682 -0.9805 -0.3962 -0.5222
 4312SOL    HW224570   4.381   2.517  12.704 -1.2945  0.9599 -1.3446
 4313SOL     OW24571   0.628   1.446  12.705 -0.2214 -0.5351  0.1263
 4313SOL    HW124572   0.698   1.473  12.765 -0.3618  1.4165 -0.5756
 4313SOL    HW224573   0.666   1.468  12.620  1.3447  1.0968  1.2205
 4314SOL     OW24574   2.246   0.505   3.581  0.0938  0.3198  0.0781
 4314SOL    HW124575   2.208   0.463   3.504 -2.1970  1.1736  0.7461
 4314SOL    HW224576   2.324   0.454   3.602 -0.2819  0.0364  0.7585
 4315SOL     OW24577   3.793   1.150  11.203 -0.2032 -0.6114  0.1120
 4315SOL    HW124578   3.740   1.078  11.236 -0.5750 -0.2306  0.3416
 4315SOL    HW224579   3.727   1.218  11.213 -0.2996 -0.7983  0.7794
 4316SOL     OW24580   2.717   0.961   1.716 -0.0836  0.6892  0.4468
 4316SOL    HW124581   2.722   0.873   1.752  1.4521  1.0306  1.0557
 4316SOL    HW224582   2.653   0.945   1.647  1.6121 -1.4392 -0.6431
 4317SOL     OW24583   2.273   3.512   8.538 -0.1790  0.2026 -0.0704
 4317SOL    HW124584   2.211   3.489   8.608 -1.5437 -1.2419 -1.7373
 4317SOL    HW224585   2.266   3.607   8.540 -0.1569  0.2441 -1.8857
 4318SOL     OW24586   2.045   4.174   7.699  0.1338 -0.0692 -0.2864
 4318SOL    HW124587   2.061   4.133   7.614 -0.6156 -1.0753  0.0574
 4318SOL    HW224588   2.115   4.138   7.754 -0.1436  0.0764  0.1638
 4319SOL     OW24589   0.866   1.495   6.763 -0.0217 -0.2113  0.4114
 4319SOL    HW124590   0.803   1.490   6.691  2.2979 -3.4162 -1.3958
 4319SOL    HW224591   0.927   1.421   6.758  0.2937  0.0013  1.2695
 4320SOL     OW24592   1.388   1.447   7.538 -0.1963 -0.0567  0.5342
 4320SOL    HW124593   1.361   1.357   7.520  0.0902 -0.6796  3.2806
 4320SOL    HW224594   1.388   1.438   7.633  0.2393  1.6444  0.6996
 4321SOL     OW24595   3.554   1.768  12.534 -0.0059 -0.2467  0.3250
 4321SOL    HW124596   3.540   1.679  12.567  1.3133 -0.9175 -0.8866
 4321SOL    HW224597   3.638   1.764  12.488  0.1560  1.4234  0.4833
 4322SOL     OW24598   3.759   4.678   8.566  0.3004 -0.0935  0.3572
 4322SOL    HW124599   3.775   0.032   8.555 -0.4864  0.0220  0.1706
 4322SOL    HW224600   3.761   4.648   8.476  1.7906  1.5287 -0.1454
 4323SOL     OW24601   3.839   3.687  16.962 -0.0189  0.1105  0.1813
 4323SOL    HW124602   3.925   3.655  16.990  0.3463  1.0568  0.1445
 4323SOL    HW224603   3.787   3.606  16.967 -1.6087  1.1631  0.8229
 4324SOL     OW24604   0.554   1.167   6.508  0.1979  0.1431  0.2609
 4324SOL    HW124605   0.589   1.185   6.595  0.8423  2.0451 -0.3954
 4324SOL    HW224606   0.621   1.192   6.445 -0.8599  1.6363 -0.2681
 4325SOL     OW24607   0.729   1.710  10.618 -0.3482  0.3519  0.2040
 4325SOL    HW124608   0.700   1.620  10.634  0.4426  0.1213  0.3332
 4325SOL    HW224609   0.824   1.697  10.609 -0.7519 -0.1388 -3.2148
 4326SOL     OW24610   1.865   3.672   3.287  0.0023  0.0760 -0.3407
 4326SOL    HW124611   1.796   3.658   3.352  0.3910  1.8597  0.4629
 4326SOL    HW224612   1.859   3.765   3.264  3.0260  0.2279 -0.6000
 4327SOL     OW24613   1.880   3.347   3.270 -0.2911  0.5773  0.0276
 4327SOL    HW124614   1.911   3.437   3.277  0.2683  0.2484  1.6814
 4327SOL    HW224615   1.910   3.308   3.352  1.1373  3.3678  0.8195
 4328SOL     OW24616   2.584   2.827   4.576  0.1889  0.3283  0.1799
 4328SOL    HW124617   2.677   2.813   4.558  0.5801  1.3988  1.3447
 4328SOL    HW224618   2.570   2.750   4.631  0.9638 -1.3915 -2.0476
 4329SOL     OW24619   4.086   2.292   1.263 -0.5160  0.2979  0.3024
 4329SOL    HW124620   4.171   2.248   1.263 -1.4526 -1.5367  3.8594
 4329SOL    HW224621   4.102   2.379   1.227 -1.1118 -0.4151 -1.6466
 4330SOL     OW24622   4.553   0.367   5.097  0.8082 -0.2960  0.3209
 4330SOL    HW124623   4.560   0.288   5.043  0.1600 -0.2142  0.1247
 4330SOL    HW224624   4.536   0.325   5.181  1.0628  0.8212  0.9310
 4331SOL     OW24625   4.543   3.141   4.783  0.4912 -0.1743 -0.0244
 4331SOL    HW124626   4.583   3.227   4.772  1.1389 -0.4966 -0.2051
 4331SOL    HW224627   4.461   3.160   4.740  0.7370  3.1143  0.9388
 4332SOL     OW24628   4.370   0.940   7.728 -0.2438 -0.0971  0.0808
 4332SOL    HW124629   4.301   0.873   7.729 -0.5358  0.2109  0.5890
 4332SOL    HW224630   4.439   0.905   7.784  0.1499 -1.6390 -1.3535
 4333SOL     OW24631   0.280   1.300   9.488 -0.0247 -0.0541 -0.0837
 4333SOL    HW124632   0.233   1.230   9.442  2.8606 -1.1221 -1.3928
 4333SOL    HW224633   0.332   1.335   9.416  2.2373  0.8626  2.0101
 4334SOL     OW24634   3.320   4.100   9.124  0.0648 -0.3202  0.0830
 4334SOL    HW124635   3.408   4.087   9.161 -0.1777  0.7245  1.0247
 4334SOL    HW224636   3.285   4.018   9.159 -0.0545 -0.4276 -0.2869
 4335SOL     OW24637   2.088   3.243   5.000 -0.2544 -0.1385  0.3699
 4335SOL    HW124638   2.073   3.210   4.911 -0.7121  0.3820  0.2544
 4335SOL    HW224639   2.156   3.307   4.978 -0.6895  0.2358  0.0954
 4336SOL     OW24640   0.632   0.656   6.119 -0.0443 -0.2279 -0.8776
 4336SOL    HW124641   0.592   0.686   6.037  1.4927  0.9349 -1.1961
 4336SOL    HW224642   0.627   0.738   6.170  1.9347 -1.9396  2.0965
 4337SOL     OW24643   0.829   1.670   2.829  0.4348 -0.6697 -0.3704
 4337SOL    HW124644   0.786   1.753   2.850  2.1344  0.0134  0.4451
 4337SOL    HW224645   0.894   1.675   2.899  1.5462 -0.9525 -1.3814
 4338SOL     OW24646   1.694   3.443   2.987 -0.1094  0.0861 -0.3185
 4338SOL    HW124647   1.699   3.432   2.892 -2.8338 -3.1711 -0.0810
 4338SOL    HW224648   1.608   3.408   3.010 -0.7826  0.7064 -1.8874
 4339SOL     OW24649   3.167   4.314  11.856  0.2761 -0.5612 -0.0089
 4339SOL    HW124650   3.197   4.230  11.890 -2.6085 -1.1288  1.1221
 4339SOL    HW224651   3.202   4.365  11.929 -0.8756 -1.2461  1.0144
 4340SOL     OW24652   2.061   4.340  11.008  0.2255  0.3034  0.1596
 4340SOL    HW124653   2.073   4.434  11.019  1.2347  0.4425 -2.2183
 4340SOL    HW224654   2.033   4.329  10.917 -0.2664 -0.8217  0.4382
 4341SOL     OW24655   2.647   0.854   6.006 -0.0153 -0.6189 -0.0193
 4341SOL    HW124656   2.558   0.834   5.976 -0.8731  1.0967  1.3302
 4341SOL    HW224657   2.662   0.936   5.960  0.7012  0.1185  1.5493
 4342SOL     OW24658   1.172   3.625   5.113 -0.1908 -0.4731 -0.1549
 4342SOL    HW124659   1.237   3.696   5.116 -0.8727  0.2110 -2.0405
 4342SOL    HW224660   1.111   3.646   5.184  0.8836  1.6474  0.1706
 4343SOL     OW24661   1.323   2.661   5.981 -0.4815 -0.2519 -0.0268
 4343SOL    HW124662   1.308   2.675   6.074  0.9827 -2.0147  0.4710
 4343SOL    HW224663   1.410   2.621   5.977  0.5217  1.8072  1.6856
 4344SOL     OW24664   1.063   0.648  13.450  0.2029 -0.4795 -0.6151
 4344SOL    HW124665   1.008   0.702  13.506 -2.3306 -1.2497 -2.3589
 4344SOL    HW224666   1.043   0.556  13.464  2.2392 -0.9404 -0.7836
 4345SOL     OW24667   2.994   1.737  14.996 -0.4843  0.2728  0.3854
 4345SOL    HW124668   3.020   1.645  14.992  0.5816  0.6405 -1.3511
 4345SOL    HW224669   2.907   1.733  15.036  1.4875 -0.0727  4.6262
 4346SOL     OW24670   1.852   3.318  10.293  0.4187  0.1291 -0.2362
 4346SOL    HW124671   1.770   3.295  10.338  0.1754  1.0667 -0.2055
 4346SOL    HW224672   1.901   3.346  10.370 -3.0905  0.9528  1.6691
 4347SOL     OW24673   0.247   4.041   9.668 -0.5002  0.5824  0.1298
 4347SOL    HW124674   0.238   4.103   9.595 -1.3879 -0.2536 -0.4663
 4347SOL    HW224675   0.165   3.993   9.669 -1.2331  1.8044 -0.2554
 4348SOL     OW24676   2.039   1.777   7.167 -0.4137  0.3304 -0.4791
 4348SOL    HW124677   1.978   1.761   7.239 -1.6668 -1.4463 -1.9350
 4348SOL    HW224678   2.119   1.738   7.202  0.0721  0.2283 -1.7022
 4349SOL     OW24679   4.205   1.607  15.468 -0.4966  0.2319 -0.3318
 4349SOL    HW124680   4.174   1.596  15.558 -1.3435 -2.5731 -0.9461
 4349SOL    HW224681   4.177   1.529  15.420 -1.0825  0.1615  0.1223
 4350SOL     OW24682   3.889   0.032   8.984  0.0289 -0.1316 -0.0345
 4350SOL    HW124683   3.899   0.115   8.936  0.6789 -0.1896 -0.0020
 4350SOL    HW224684   3.899   0.063   9.074  2.1905 -0.5243 -0.1527
 4351SOL     OW24685   2.108   3.673   5.742 -0.2851 -0.6699 -0.0704
 4351SOL    HW124686   2.054   3.603   5.706 -0.0613 -0.1654 -1.3866
 4351SOL    HW224687   2.162   3.695   5.667  3.1262  0.8501  2.7986
 4352SOL     OW24688   0.665   1.830   7.639 -0.2895 -0.3218 -0.5486
 4352SOL    HW124689   0.681   1.793   7.726  1.8713  1.9642  0.0393
 4352SOL    HW224690   0.618   1.910   7.662  1.3434  0.4481  0.1399
 4353SOL     OW24691   0.221   1.160   4.471  0.1346 -0.5369  0.3327
 4353SOL    HW124692   0.239   1.234   4.413  3.3213  0.0803  2.1400
 4353SOL    HW224693   0.298   1.104   4.463 -1.3005 -2.4610 -0.1092
 4354SOL     OW24694   3.017   2.234   2.126 -0.4234 -0.4094  0.2140
 4354SOL    HW124695   3.047   2.208   2.213 -0.4334 -0.9657  0.0520
 4354SOL    HW224696   2.926   2.204   2.135 -1.0634  1.2130 -0.8130
 4355SOL     OW24697   1.054   0.005  11.678  0.9164  0.5699 -0.0546
 4355SOL    HW124698   0.979   0.014  11.619  0.6815 -0.7852  0.0510
 4355SOL    HW224699   1.100   0.086  11.654 -0.8930  2.4087  2.6363
 4356SOL     OW24700   2.627   0.959   8.652 -0.2598 -0.2504 -0.0816
 4356SOL    HW124701   2.593   1.037   8.609  0.5730  1.1490  1.8085
 4356SOL    HW224702   2.720   0.980   8.659 -0.3479  0.7134 -1.8081
 4357SOL     OW24703   3.309   1.995   5.581 -0.0783 -0.5976  0.0191
 4357SOL    HW124704   3.362   1.916   5.590  0.8185 -0.1192 -1.0863
 4357SOL    HW224705   3.332   2.019   5.491 -0.6142 -1.0774 -0.2476
 4358SOL     OW24706   0.185   0.997   8.610  0.0010 -0.5723 -0.4998
 4358SOL    HW124707   0.101   1.023   8.572  0.9471  0.4034 -1.8948
 4358SOL    HW224708   0.154   0.990   8.700  0.5081  1.5628 -0.1612
 4359SOL     OW24709   1.132   4.158   7.234  0.1577  0.3324  0.0143
 4359SOL    HW124710   1.133   4.160   7.329 -0.1648 -0.6217  0.0325
 4359SOL    HW224711   1.183   4.235   7.206  0.9687  0.8084  2.8584
 4360SOL     OW24712   0.932   2.939  16.361  0.5591 -0.4693 -0.6489
 4360SOL    HW124713   0.884   2.892  16.429 -1.5224  1.3240 -0.8872
 4360SOL    HW224714   0.939   3.019  16.415  0.1623 -0.1299 -1.1034
 4361SOL     OW24715   2.572   1.290  11.449 -0.1982  0.2146 -0.3319
 4361SOL    HW124716   2.518   1.286  11.527  0.6019  1.0650  0.2614
 4361SOL    HW224717   2.532   1.363  11.402  0.2283  1.0331  0.5858
 4362SOL     OW24718   4.729   2.246   8.041 -0.2445  0.3492 -0.1807
 4362SOL    HW124719   4.708   2.236   7.948  0.2187 -1.2156 -0.1192
 4362SOL    HW224720   4.671   2.187   8.088  0.0522 -0.3114 -0.6459
 4363SOL     OW24721   3.477   1.800   8.199  0.5147 -0.4927 -0.1716
 4363SOL    HW124722   3.475   1.864   8.270 -0.0983  0.2475 -0.8545
 4363SOL    HW224723   3.460   1.851   8.120  1.9762  3.0006  1.7905
 4364SOL     OW24724   0.813   3.727   9.066 -0.0968 -0.2283 -0.5714
 4364SOL    HW124725   0.903   3.702   9.044  0.5208  1.6531 -0.2722
 4364SOL    HW224726   0.781   3.661   9.126  1.7870 -0.1021  0.5933
 4365SOL     OW24727   3.218   0.450  10.229 -0.0413  0.0973  0.0894
 4365SOL    HW124728   3.286   0.394  10.267 -1.8234 -1.9245  0.2763
 4365SOL    HW224729   3.225   0.529  10.282  1.6524 -0.2959  0.4324
 4366SOL     OW24730   1.906   2.947   1.930 -0.0157  0.1400  0.2089
 4366SOL    HW124731   1.829   2.948   1.988  0.3876 -0.1394  0.7551
 4366SOL    HW224732   1.882   3.015   1.867 -2.2875  0.1092  1.0216
 4367SOL     OW24733   4.057   0.111   6.792  0.3794 -0.7791  0.1351
 4367SOL    HW124734   3.971   0.148   6.812 -0.1583 -2.2206  0.4985
 4367SOL    HW224735   4.017   0.041   6.740  2.1303 -1.2771 -0.5200
 4368SOL     OW24736   1.458   2.157  12.278  0.4504 -0.2147 -0.6115
 4368SOL    HW124737   1.510   2.146  12.358  1.7116 -2.1435 -1.6934
 4368SOL    HW224738   1.390   2.090  12.280  0.8426 -0.5866  0.2648
 4369SOL     OW24739   0.600   4.429   8.355 -0.0539  0.2279 -0.3847
 4369SOL    HW124740   0.599   4.449   8.448  1.0543 -0.6422 -0.1994
 4369SOL    HW224741   0.538   4.356   8.347  1.9518 -1.6209  1.0368
 4370SOL     OW24742   3.989   4.533  12.300  0.2651 -0.2804 -0.2205
 4370SOL    HW124743   3.964   4.557  12.389  1.9136 -0.7932  0.3915
 4370SOL    HW224744   4.069   4.481  12.307  1.7372  2.1268  0.8990
 4371SOL     OW24745   2.475   0.710   8.600  0.3786 -0.0982  0.1643
 4371SOL    HW124746   2.505   0.797   8.574 -2.7167  0.4055 -1.6996
 4371SOL    HW224747   2.393   0.727   8.648  2.2392 -0.2242  3.4348
 4372SOL     OW24748   0.514   3.488   4.650  0.0557  0.0415 -0.0431
 4372SOL    HW124749   0.459   3.541   4.707  0.6374  0.6719 -0.0743
 4372SOL    HW224750   0.548   3.551   4.587  0.0454  0.0936  0.0034
 4373SOL     OW24751   2.767   0.761   6.409 -0.0487 -0.0389 -0.0642
 4373SOL    HW124752   2.832   0.756   6.339  0.1747 -3.1996  0.3668
 4373SOL    HW224753   2.704   0.824   6.374 -2.8926 -2.1095  1.2894
 4374SOL     OW24754   2.364   1.459   2.805  0.4782 -0.0142 -0.1417
 4374SOL    HW124755   2.320   1.374   2.796  0.8681 -0.0379 -1.6912
 4374SOL    HW224756   2.448   1.422   2.779  1.1400  0.7010  1.0002
 4375SOL     OW24757   0.547   1.097  15.195 -0.2973 -0.0117 -0.6315
 4375SOL    HW124758   0.475   1.035  15.184  1.3745 -1.5532 -3.0587
 4375SOL    HW224759   0.625   1.061  15.151  1.0113  1.7392  0.2400
 4376SOL     OW24760   2.015   0.834   1.743  0.1397 -0.0751 -0.0384
 4376SOL    HW124761   2.000   0.889   1.820 -0.4278  0.3534 -0.4521
 4376SOL    HW224762   1.962   0.883   1.680  1.1011 -0.9316 -1.4934
 4377SOL     OW24763   2.504   0.616  10.103  0.0434 -0.3770 -0.1232
 4377SOL    HW124764   2.455   0.584  10.026 -0.3228 -0.9307  0.3398
 4377SOL    HW224765   2.435   0.608  10.169 -0.2785  0.4676 -0.3555
 4378SOL     OW24766   2.677   2.308   6.155  0.1013  0.0403  0.2693
 4378SOL    HW124767   2.712   2.234   6.105  0.0150  0.0999  0.1204
 4378SOL    HW224768   2.756   2.361   6.163 -0.7193  1.3060 -0.0681
 4379SOL     OW24769   3.960   2.179  13.192 -0.1693 -0.1532 -0.2598
 4379SOL    HW124770   4.034   2.216  13.240 -2.9168  2.0237  2.2824
 4379SOL    HW224771   3.895   2.187  13.262 -0.2499 -4.5161  0.1966
 4380SOL     OW24772   1.489   2.901   5.139  0.0257  0.3610 -0.3518
 4380SOL    HW124773   1.422   2.858   5.193  0.1144  0.2434 -0.3362
 4380SOL    HW224774   1.446   2.949   5.068 -1.0531  2.6891  1.9130
 4381SOL     OW24775   1.170   0.268  17.407 -0.4059 -0.5943 -0.2146
 4381SOL    HW124776   1.166   0.343  17.347 -0.8530  0.3611  1.0190
 4381SOL    HW224777   1.208   0.202  17.348 -0.8609  0.1813 -1.3780
 4382SOL     OW24778   3.735   0.427   7.066 -0.5486 -0.1311 -0.7714
 4382SOL    HW124779   3.653   0.476   7.059 -0.4404 -0.1249 -1.9529
 4382SOL    HW224780   3.741   0.425   7.162  1.4036 -0.2760 -0.8978
 4383SOL     OW24781   3.634   4.247   6.928 -0.8512  0.3290  0.2363
 4383SOL    HW124782   3.623   4.160   6.889  1.8980  0.3717 -0.6297
 4383SOL    HW224783   3.572   4.298   6.875 -1.2601  1.2188  1.5622
 4384SOL     OW24784   0.672   2.532   6.833  0.3649 -0.0062 -0.2469
 4384SOL    HW124785   0.734   2.604   6.822  2.2385 -1.7335 -0.9485
 4384SOL    HW224786   0.672   2.530   6.928 -1.3637 -2.5172 -0.2875
 4385SOL     OW24787   2.375   2.984   4.310 -0.3156  0.1049  0.2054
 4385SOL    HW124788   2.442   3.033   4.263  0.9388  0.3072  2.1784
 4385SOL    HW224789   2.385   3.008   4.402 -0.4691 -3.5253  1.1922
 4386SOL     OW24790   3.733   2.348  17.553  0.4513  0.1877 -0.0049
 4386SOL    HW124791   3.642   2.344  17.525  0.3215  0.0442  0.4341
 4386SOL    HW224792   3.765   2.260  17.531 -0.4627 -0.0908 -0.2051
 4387SOL     OW24793   1.135   2.736   0.987 -0.3614 -0.1894 -0.0165
 4387SOL    HW124794   1.065   2.671   0.973 -0.7820  0.1405  0.5455
 4387SOL    HW224795   1.127   2.802   0.919  0.6922  0.2916  0.3408
 4388SOL     OW24796   3.297   3.227   0.107  0.0909 -0.6194 -0.3985
 4388SOL    HW124797   3.287   3.252   0.015 -0.6212 -0.9592 -0.4120
 4388SOL    HW224798   3.296   3.312   0.151  1.8625 -1.8796  2.0447
 4389SOL     OW24799   1.979   2.453  11.499  0.6164  0.5016  0.4167
 4389SOL    HW124800   1.901   2.397  11.507 -0.8917  2.6042  0.4288
 4389SOL    HW224801   1.997   2.475  11.408 -0.8666 -0.3996 -0.0966
 4390SOL     OW24802   4.552   4.182   4.811 -0.1105 -0.2495  0.0784
 4390SOL    HW124803   4.592   4.107   4.767  0.1289 -0.5519  0.8152
 4390SOL    HW224804   4.574   4.246   4.743 -0.7255 -1.6447 -1.4349
 4391SOL     OW24805   4.542   1.008  16.099  0.4484 -0.7335 -0.8674
 4391SOL    HW124806   4.543   1.003  16.194  1.8388 -1.1598 -0.9091
 4391SOL    HW224807   4.515   1.100  16.093  0.7643 -0.6060 -0.3002
 4392SOL     OW24808   4.650   1.478  12.261  0.3581 -0.0206  0.4752
 4392SOL    HW124809   4.683   1.566  12.280  0.8748  0.2205 -1.5382
 4392SOL    HW224810   4.624   1.481  12.169  0.5455 -2.4269  0.3417
 4393SOL     OW24811   0.541   1.915   1.679  0.0275 -0.0176 -0.0244
 4393SOL    HW124812   0.482   1.876   1.743  0.1838  0.2779  0.3001
 4393SOL    HW224813   0.597   1.969   1.735 -0.4418  0.7784 -0.3087
 4394SOL     OW24814   2.782   0.147  11.294 -0.6361 -0.4002  0.6923
 4394SOL    HW124815   2.821   0.214  11.237  0.2239  0.4182  2.2452
 4394SOL    HW224816   2.738   0.212  11.350 -0.4904 -2.1076  2.7549
 4395SOL     OW24817   1.943   3.908   8.621  0.2470 -0.3594 -0.5250
 4395SOL    HW124818   1.857   3.915   8.662  0.5955 -1.9912  0.4675
 4395SOL    HW224819   1.970   3.827   8.664 -1.0388  0.0600  1.0444
 4396SOL     OW24820   0.025   1.540  12.747 -0.1763 -0.2385  0.0506
 4396SOL    HW124821   0.061   1.527  12.834  1.0662  3.6518  0.1060
 4396SOL    HW224822   4.697   1.605  12.767  1.3502  1.2175  0.4680
 4397SOL     OW24823   1.163   0.402   3.221  0.3552 -0.3142  0.0592
 4397SOL    HW124824   1.161   0.310   3.247  0.1842  0.4694  2.8727
 4397SOL    HW224825   1.082   0.445   3.247  1.4370  1.2869  0.8474
 4398SOL     OW24826   1.278   2.292   6.848 -0.0505 -0.2020  0.1431
 4398SOL    HW124827   1.201   2.347   6.861  0.0694 -0.9224  3.7551
 4398SOL    HW224828   1.226   2.222   6.809 -0.9266  2.2390 -3.0843
 4399SOL     OW24829   2.496   0.433   0.722 -0.6245  0.6668 -0.3131
 4399SOL    HW124830   2.558   0.463   0.789 -1.5965  1.6984  0.1336
 4399SOL    HW224831   2.427   0.406   0.782  1.5386 -0.0777  1.8340
 4400SOL     OW24832   0.985   1.470  16.190 -0.0834  0.7557  0.2366
 4400SOL    HW124833   0.922   1.400  16.173  2.6106 -1.9588  1.4333
 4400SOL    HW224834   0.953   1.539  16.133 -2.4225 -2.0937 -1.8820
 4401SOL     OW24835   3.601   2.744   2.594  0.3498  0.8210 -0.2098
 4401SOL    HW124836   3.552   2.689   2.654 -1.0250  1.0652 -1.1092
 4401SOL    HW224837   3.548   2.738   2.515 -0.5360 -0.1487  0.4669
 4402SOL     OW24838   4.723   4.208   4.271 -0.3523 -0.0039  0.0913
 4402SOL    HW124839   0.045   4.249   4.332  3.2927 -1.0258 -2.9158
 4402SOL    HW224840   4.718   4.119   4.305  1.2087 -0.0463  0.2082
 4403SOL     OW24841   4.370   3.448   7.661 -0.5872  0.6527  0.4701
 4403SOL    HW124842   4.323   3.515   7.710  0.2383 -1.2515  3.8730
 4403SOL    HW224843   4.375   3.379   7.727  0.0799 -1.1573 -1.4672
 4404SOL     OW24844   0.408   0.256   8.149  0.4487 -0.0756  0.3085
 4404SOL    HW124845   0.390   0.175   8.100  0.2269  1.9168 -2.9390
 4404SOL    HW224846   0.503   0.249   8.158  0.5585 -0.8442 -1.4308
 4405SOL     OW24847   3.480   4.632   3.940  0.4234 -0.0243 -0.5648
 4405SOL    HW124848   3.491   4.537   3.952 -1.4958 -0.4209 -1.9386
 4405SOL    HW224849   3.490   4.634   3.845 -0.3589  2.1714 -0.5828
 4406SOL     OW24850   4.521   4.538   8.570 -0.5310  0.0957  0.4166
 4406SOL    HW124851   4.462   4.613   8.573 -1.3567 -0.5807  1.1983
 4406SOL    HW224852   4.456   4.468   8.573  1.1627 -1.5082 -0.0921
 4407SOL     OW24853   0.942   3.285   6.856 -0.0102  0.1493  0.0727
 4407SOL    HW124854   1.019   3.333   6.888 -1.3706  1.5291  1.2115
 4407SOL    HW224855   0.934   3.217   6.922 -0.6351  0.1385 -0.0209
 4408SOL     OW24856   1.522   0.360   5.886  0.4350  0.3202  0.1404
 4408SOL    HW124857   1.449   0.410   5.849 -0.1428  0.0457  0.8949
 4408SOL    HW224858   1.590   0.424   5.904 -0.6950  1.2697  1.0662
 4409SOL     OW24859   3.334   1.679   0.323  0.1849  0.5169 -0.2422
 4409SOL    HW124860   3.320   1.650   0.233  0.7929 -1.4995  0.3194
 4409SOL    HW224861   3.369   1.601   0.365  1.5976  0.7658 -0.9610
 4410SOL     OW24862   4.171   2.248  15.049 -0.1608 -0.1209 -0.2179
 4410SOL    HW124863   4.077   2.253  15.065 -0.2527 -1.9710 -0.1903
 4410SOL    HW224864   4.206   2.174  15.098 -0.0550  0.3846  0.4701
 4411SOL     OW24865   3.342   2.816   7.994  0.4034  0.3851  0.4416
 4411SOL    HW124866   3.276   2.845   8.056 -1.0248  0.1312 -0.9360
 4411SOL    HW224867   3.417   2.805   8.052  0.6617  3.3260  0.6486
 4412SOL     OW24868   0.275   0.791  10.886 -0.3428  0.5827 -0.1316
 4412SOL    HW124869   0.203   0.846  10.854 -1.0421 -0.9137 -1.1341
 4412SOL    HW224870   0.345   0.821  10.829  1.2179 -1.4633  0.7106
 4413SOL     OW24871   3.260   1.575  10.580  0.1093  0.3300  0.3965
 4413SOL    HW124872   3.177   1.590  10.625 -0.4432 -1.1775 -0.0866
 4413SOL    HW224873   3.261   1.483  10.553 -0.9958  0.5284 -0.3195
 4414SOL     OW24874   4.511   1.482   3.764  0.7734  0.7911  0.1374
 4414SOL    HW124875   4.420   1.464   3.741 -0.1481  2.7393  2.2272
 4414SOL    HW224876   4.556   1.398   3.753  1.4277  1.1313  0.1795
 4415SOL     OW24877   3.147   0.491   5.521 -0.1690 -0.1719 -0.0142
 4415SOL    HW124878   3.076   0.429   5.505 -0.9009  0.9638 -1.1541
 4415SOL    HW224879   3.200   0.452   5.590 -3.4032 -1.7892  1.5687
 4416SOL     OW24880   4.203   4.202   5.984 -0.1990 -0.4171  0.2274
 4416SOL    HW124881   4.253   4.162   5.913  2.4444  0.7053  1.4669
 4416SOL    HW224882   4.121   4.156   5.964  0.7169 -1.2511 -1.5857
 4417SOL     OW24883   0.293   2.372   7.564 -0.4941 -0.8480 -0.3311
 4417SOL    HW124884   0.378   2.414   7.556 -0.3096 -1.0273  0.6414
 4417SOL    HW224885   0.236   2.447   7.578  0.4861  0.0955 -1.4734
 4418SOL     OW24886   4.655   0.304   4.256 -0.4286 -0.6067  0.1194
 4418SOL    HW124887   4.693   0.336   4.338 -0.8890  0.2682 -0.0102
 4418SOL    HW224888   4.662   0.391   4.217 -2.9402 -0.8842 -0.9441
 4419SOL     OW24889   3.512   2.832   8.651 -0.1842  0.3199 -0.2585
 4419SOL    HW124890   3.478   2.890   8.582  0.5073 -0.3150 -1.1363
 4419SOL    HW224891   3.482   2.859   8.737 -1.3178  1.9543 -1.1593
 4420SOL     OW24892   0.673   0.637   4.765  0.2068 -0.6027 -0.3098
 4420SOL    HW124893   0.674   0.658   4.671 -3.2425  1.6647  0.1491
 4420SOL    HW224894   0.651   0.727   4.790  0.3822 -0.7483  0.3674
 4421SOL     OW24895   1.060   3.073  11.116 -0.4070  0.0973  0.0721
 4421SOL    HW124896   1.111   3.007  11.069 -0.4374  1.6816 -2.1521
 4421SOL    HW224897   1.090   3.056  11.205  0.5168 -0.1930 -0.2935
 4422SOL     OW24898   3.890   1.121   3.450 -0.2578 -0.4318 -0.2262
 4422SOL    HW124899   3.928   1.159   3.529  1.4734 -0.0545 -1.2462
 4422SOL    HW224900   3.966   1.101   3.396  0.4296 -0.1474  0.6326
 4423SOL     OW24901   4.554   1.803  14.897 -0.2373  0.1653 -0.3960
 4423SOL    HW124902   4.629   1.757  14.859 -1.1467 -2.9066  1.5170
 4423SOL    HW224903   4.568   1.887  14.853  0.2353  0.0463 -0.4702
 4424SOL     OW24904   2.292   0.277   8.485  0.3308 -0.0627  0.0579
 4424SOL    HW124905   2.303   0.287   8.391 -1.7476 -1.6912 -0.3630
 4424SOL    HW224906   2.212   0.225   8.482  0.4429 -0.1507 -1.1447
 4425SOL     OW24907   2.581   2.649   2.018  0.2411 -0.0263  0.0217
 4425SOL    HW124908   2.647   2.713   1.993 -0.0659 -0.5616 -2.2351
 4425SOL    HW224909   2.598   2.583   1.950 -3.0074 -0.6673 -0.1754
 4426SOL     OW24910   2.112   0.048  14.747 -0.3514 -0.0935  0.2433
 4426SOL    HW124911   2.077   0.121  14.695  0.1684  0.1872  0.2860
 4426SOL    HW224912   2.203   0.074  14.765 -0.0036 -0.7278 -0.5920
 4427SOL     OW24913   1.784   2.810   7.538 -0.6319 -0.1155  0.2054
 4427SOL    HW124914   1.740   2.811   7.453 -0.2093 -2.1197 -0.0310
 4427SOL    HW224915   1.878   2.810   7.519 -0.2674  1.6714  1.9998
 4428SOL     OW24916   1.317   2.928   7.300  0.3786  0.0499 -0.2593
 4428SOL    HW124917   1.232   2.910   7.341  0.0289  3.1770  0.4347
 4428SOL    HW224918   1.292   3.006   7.250  0.4504 -0.5782 -1.2739
 4429SOL     OW24919   0.063   4.649   8.840  0.5979  0.2619 -0.0233
 4429SOL    HW124920   0.081   4.643   8.934  1.4347  1.1392 -0.1235
 4429SOL    HW224921   0.054   4.556   8.817  2.4642  0.5792 -1.9785
 4430SOL     OW24922   3.302   3.840   9.014  0.0910  0.3937 -0.1232
 4430SOL    HW124923   3.370   3.795   9.064  0.0047  0.5892  0.1739
 4430SOL    HW224924   3.225   3.810   9.061  0.9881 -0.2415  0.9480
 4431SOL     OW24925   3.246   4.502   5.246 -0.3254 -0.4645 -0.6318
 4431SOL    HW124926   3.258   4.597   5.256 -2.1297 -0.3753  0.7988
 4431SOL    HW224927   3.278   4.499   5.156  2.3950  2.3605  0.2423
 4432SOL     OW24928   1.839   4.437  14.683  0.5608  0.0439 -0.6729
 4432SOL    HW124929   1.806   4.381  14.753  0.7572  0.5803 -0.1533
 4432SOL    HW224930   1.919   4.388  14.668 -0.2404 -1.1275 -1.1128
 4433SOL     OW24931   2.739   0.084  12.365  0.1537  0.1818 -0.0109
 4433SOL    HW124932   2.662   0.083  12.421  1.2275  1.1587  1.4659
 4433SOL    HW224933   2.703   0.043  12.286 -1.4291  0.5947  0.4993
 4434SOL     OW24934   2.901   3.266   3.368 -0.2204  0.2995  0.4696
 4434SOL    HW124935   2.922   3.351   3.407  0.1539  0.5106 -0.1957
 4434SOL    HW224936   2.960   3.265   3.293 -1.1617 -3.7838 -0.2144
 4435SOL     OW24937   0.181   3.768  16.242 -0.0693 -0.6091 -0.6096
 4435SOL    HW124938   0.141   3.800  16.161 -1.7342 -1.6135 -0.1970
 4435SOL    HW224939   0.161   3.835  16.307 -1.7004 -0.9925 -0.7023
 4436SOL     OW24940   1.815   0.761   3.968  0.0107 -0.1147 -0.2419
 4436SOL    HW124941   1.877   0.816   3.920  0.6058  0.2086  0.8954
 4436SOL    HW224942   1.763   0.827   4.013  0.7351  0.7535 -0.6806
 4437SOL     OW24943   2.529   1.574   5.036  0.0961  0.1135 -0.2646
 4437SOL    HW124944   2.434   1.588   5.026  0.0754  1.5493  1.9292
 4437SOL    HW224945   2.532   1.481   5.060  1.7011  0.8602  2.4177
 4438SOL     OW24946   4.098   0.777   3.183 -0.8350 -0.2808  0.7295
 4438SOL    HW124947   4.065   0.863   3.208 -0.1632 -0.2101  1.3622
 4438SOL    HW224948   4.173   0.772   3.242 -0.4299  0.6618  0.2930
 4439SOL     OW24949   1.403   3.512  12.904  0.3082  0.0603 -0.4562
 4439SOL    HW124950   1.435   3.438  12.853  1.4015 -0.1439  0.5298
 4439SOL    HW224951   1.428   3.489  12.993 -0.4377 -1.3154 -0.6008
 4440SOL     OW24952   4.389   2.946   3.314 -0.8790 -0.0342  0.3793
 4440SOL    HW124953   4.427   3.027   3.281 -0.1365 -0.2127  0.8160
 4440SOL    HW224954   4.425   2.889   3.246 -1.9893  1.7807 -1.7383
 4441SOL     OW24955   2.748   3.363  11.062  0.4283  0.0898  0.3663
 4441SOL    HW124956   2.772   3.331  11.149 -0.0999  0.4803  0.6542
 4441SOL    HW224957   2.833   3.383  11.021  0.3331  0.6417  0.4289
 4442SOL     OW24958   3.924   0.235  15.506 -0.0132  0.5732  0.0842
 4442SOL    HW124959   3.925   0.141  15.492 -0.7222  0.4195  1.0492
 4442SOL    HW224960   3.931   0.268  15.416 -1.3341  1.3295  0.2531
 4443SOL     OW24961   2.436   2.852   9.044  0.2285  0.2377 -0.4806
 4443SOL    HW124962   2.468   2.777   8.995  0.3409 -1.0945  1.6304
 4443SOL    HW224963   2.485   2.829   9.122 -0.5641 -1.4027 -0.4779
 4444SOL     OW24964   3.755   1.739   8.243  0.0246 -0.1535  0.1891
 4444SOL    HW124965   3.662   1.747   8.223 -0.5196  0.4828  3.1116
 4444SOL    HW224966   3.794   1.771   8.161 -1.1356  0.0622 -0.2874
 4445SOL     OW24967   3.713   4.362  14.806  0.3442 -0.1808 -0.2020
 4445SOL    HW124968   3.766   4.308  14.748 -2.1004 -0.7712 -1.9086
 4445SOL    HW224969   3.638   4.365  14.746 -0.7422 -0.6434  1.1442
 4446SOL     OW24970   2.034   4.333   0.688  0.0833  0.0262 -0.1817
 4446SOL    HW124971   1.952   4.288   0.704 -0.2694  0.3675 -1.0257
 4446SOL    HW224972   1.998   4.409   0.642 -2.1356 -0.3305  0.9940
 4447SOL     OW24973   0.214   4.437  13.842 -0.4846 -0.0644  0.3900
 4447SOL    HW124974   0.277   4.368  13.865  0.6939 -0.1787 -3.1407
 4447SOL    HW224975   0.262   4.499  13.788  0.5167 -0.2965  1.0012
 4448SOL     OW24976   3.902   3.302   7.433 -0.9049 -0.3423  0.0174
 4448SOL    HW124977   3.869   3.392   7.439 -1.6584 -0.6462  0.4126
 4448SOL    HW224978   3.972   3.315   7.369 -0.8959 -2.7245 -0.4606
 4449SOL     OW24979   4.159   4.124   2.784 -0.4306 -0.0972  0.1931
 4449SOL    HW124980   4.101   4.172   2.725  0.5811  0.9315  0.0430
 4449SOL    HW224981   4.106   4.129   2.864 -0.0616 -3.6290  0.6510
 4450SOL     OW24982   3.693   1.399   7.205  0.1059  0.9202 -0.4356
 4450SOL    HW124983   3.783   1.367   7.205  0.7191  2.6210  0.1723
 4450SOL    HW224984   3.667   1.364   7.290 -0.5922  2.0507 -0.1750
 4451SOL     OW24985   1.710   4.637  10.010  0.3709 -0.1047 -0.3713
 4451SOL    HW124986   1.691   4.730  10.001 -0.3902 -0.1865  0.3374
 4451SOL    HW224987   1.699   4.633  10.105  0.6479  0.9905 -0.2962
 4452SOL     OW24988   4.014   2.300  16.140  0.2342  0.1002  0.2417
 4452SOL    HW124989   3.938   2.323  16.086  0.3930  2.0412  0.8205
 4452SOL    HW224990   4.068   2.267  16.068 -1.4837 -1.5579 -0.2790
 4453SOL     OW24991   4.433   0.523   0.110 -0.3441  0.4191 -0.5382
 4453SOL    HW124992   4.459   0.614   0.098  0.7435 -0.1336 -2.4850
 4453SOL    HW224993   4.351   0.535   0.158  0.7381  0.7349  1.2242
 4454SOL     OW24994   2.047   3.491   2.813  0.4786 -0.4474 -0.0906
 4454SOL    HW124995   2.055   3.515   2.721  1.1890 -0.2147  0.0274
 4454SOL    HW224996   1.963   3.446   2.809  0.7125 -0.8213 -0.8546
 4455SOL     OW24997   3.884   3.226   7.864 -0.2163  0.3248 -0.2941
 4455SOL    HW124998   3.847   3.199   7.948 -0.2729  0.5480 -0.2487
 4455SOL    HW224999   3.803   3.263   7.830 -0.1441 -0.0299 -0.8449
 4456SOL     OW25000   4.422   4.371   6.015  0.1285  0.2268 -0.6561
 4456SOL    HW125001   4.450   4.349   5.926  1.0811 -1.6199  0.1053
 4456SOL    HW225002   4.361   4.301   6.037  0.7960 -0.0716  0.2571
 4457SOL     OW25003   3.438   3.141  13.590  0.4986 -0.6539 -0.0053
 4457SOL    HW125004   3.363   3.082  13.598 -0.4821  0.4182 -1.1813
 4457SOL    HW225005   3.509   3.077  13.596  0.6929 -0.5409 -1.0786
 4458SOL     OW25006   3.423   2.373  14.667 -0.0424  0.0910  0.6858
 4458SOL    HW125007   3.478   2.311  14.619 -2.1353 -0.7421 -0.5854
 4458SOL    HW225008   3.399   2.326  14.747 -0.0226  2.0015  1.8260
 4459SOL     OW25009   2.647   3.735  16.235  0.1135 -0.1015  0.2880
 4459SOL    HW125010   2.739   3.754  16.252  0.7678 -1.2361 -1.9654
 4459SOL    HW225011   2.649   3.640  16.245  0.1060 -0.2794 -1.5034
 4460SOL     OW25012   3.852   1.563  12.601  0.2404  0.3766  0.0518
 4460SOL    HW125013   3.822   1.489  12.653  1.3296  0.0477  0.2169
 4460SOL    HW225014   3.789   1.541  12.532  0.5889  0.2190 -0.2139
 4461SOL     OW25015   0.517   4.328   3.936  0.9039 -0.2675 -0.1363
 4461SOL    HW125016   0.508   4.361   3.847 -0.3979  2.3112  0.9669
 4461SOL    HW225017   0.611   4.342   3.944  1.2544 -1.1105 -2.8615
 4462SOL     OW25018   3.886   4.019   6.165 -0.5711 -0.1897 -0.2340
 4462SOL    HW125019   3.832   4.058   6.233 -1.3352 -0.2505 -0.8090
 4462SOL    HW225020   3.966   3.983   6.204 -0.7837 -1.0194 -0.5710
 4463SOL     OW25021   0.316   3.388  13.873  0.2831  0.1081 -0.2656
 4463SOL    HW125022   0.246   3.435  13.829 -0.0443  1.2026  1.4426
 4463SOL    HW225023   0.390   3.448  13.860 -0.6804  1.6889  1.7244
 4464SOL     OW25024   4.076   4.270  12.109  0.2308  0.2821 -0.3753
 4464SOL    HW125025   4.059   4.364  12.098 -1.7493 -0.0905 -0.4366
 4464SOL    HW225026   4.151   4.268  12.169 -1.0889 -0.3604  1.2337
 4465SOL     OW25027   4.070   4.545   3.028 -0.2452 -0.0249  0.2021
 4465SOL    HW125028   4.046   4.608   3.097  0.1357  0.6317 -0.2622
 4465SOL    HW225029   4.050   4.465   3.077 -1.5794  0.5851  0.6709
 4466SOL     OW25030   1.252   1.867  12.835  0.3142 -0.2227 -0.4256
 4466SOL    HW125031   1.313   1.810  12.789  0.2985  1.5992 -2.6970
 4466SOL    HW225032   1.317   1.901  12.897  1.1038 -3.5722  0.5652
 4467SOL     OW25033   3.328   0.243  16.076 -0.6253 -0.1674  0.0162
 4467SOL    HW125034   3.366   0.156  16.083  1.4484  0.7338  0.0069
 4467SOL    HW225035   3.233   0.231  16.070 -0.6996 -0.6602  2.1924
 4468SOL     OW25036   4.520   0.999  15.406 -0.5585  0.6404  0.4874
 4468SOL    HW125037   4.519   1.071  15.469  0.6710  1.0482  0.0517
 4468SOL    HW225038   4.428   0.973  15.405 -0.6285  0.8492  1.5073
 4469SOL     OW25039   0.626   0.919   4.783  0.1717 -0.0018  0.5236
 4469SOL    HW125040   0.618   1.013   4.802 -0.9929 -0.3485  1.7156
 4469SOL    HW225041   0.720   0.914   4.767  0.2950  1.5535  0.7084
 4470SOL     OW25042   2.981   2.139   0.847 -0.5672 -0.4210 -0.4601
 4470SOL    HW125043   2.933   2.057   0.854 -0.8273 -0.3478 -1.4879
 4470SOL    HW225044   3.037   2.142   0.925  0.6163  2.9188 -1.4351
 4471SOL     OW25045   4.515   2.643   4.324  0.0821  0.1001  0.1357
 4471SOL    HW125046   4.523   2.638   4.229  0.8743 -1.4119  0.2862
 4471SOL    HW225047   4.578   2.580   4.359  0.2335  0.6043  0.7659
 4472SOL     OW25048   4.372   3.063   6.813  0.2394  0.0662  0.2063
 4472SOL    HW125049   4.316   2.994   6.847  1.5531 -0.5785  1.0545
 4472SOL    HW225050   4.314   3.090   6.742  1.2480 -0.7595 -0.9384
 4473SOL     OW25051   2.972   1.589  10.624 -0.0408 -0.3515 -0.4141
 4473SOL    HW125052   2.980   1.581  10.719  1.8082  0.9641 -0.4600
 4473SOL    HW225053   2.952   1.497  10.604 -1.1704 -0.1675 -0.1378
 4474SOL     OW25054   3.401   0.028   4.516  0.2532  0.3455  0.4911
 4474SOL    HW125055   3.311   0.062   4.519 -0.1535 -0.4861 -2.1927
 4474SOL    HW225056   3.426   0.057   4.428 -1.1574  1.3192  0.4099
 4475SOL     OW25057   1.416   3.224   9.323  0.3998 -0.0953  0.3425
 4475SOL    HW125058   1.393   3.141   9.366 -0.0804  0.2287  0.7137
 4475SOL    HW225059   1.362   3.288   9.370  0.1466  0.5361 -0.8089
 4476SOL     OW25060   1.130   0.189   9.069 -0.7086  0.4633 -0.0713
 4476SOL    HW125061   1.188   0.259   9.100  0.1649 -0.8316  1.2376
 4476SOL    HW225062   1.169   0.154   8.990  1.7320  0.8501  0.9627
 4477SOL     OW25063   4.495   1.402   6.128  0.3964 -0.3982  0.4094
 4477SOL    HW125064   4.442   1.375   6.054 -0.2497  1.4780  0.1811
 4477SOL    HW225065   4.546   1.324   6.151  2.7514  0.5017 -1.8333
 4478SOL     OW25066   0.529   2.204   2.795  0.5943  0.2273  0.2422
 4478SOL    HW125067   0.452   2.209   2.737 -0.1526 -3.5784  0.9033
 4478SOL    HW225068   0.544   2.292   2.830 -0.9656  0.8042 -0.5273
 4479SOL     OW25069   0.905   2.275   4.679  0.5271  0.2319  0.1042
 4479SOL    HW125070   0.977   2.338   4.684  0.2224  0.4941  1.1908
 4479SOL    HW225071   0.951   2.191   4.682 -0.7444 -0.4805 -0.6699
 4480SOL     OW25072   3.395   2.641   1.918  0.3840  0.0397 -0.0128
 4480SOL    HW125073   3.414   2.548   1.906 -1.2600 -0.5334  1.6770
 4480SOL    HW225074   3.326   2.658   1.854  1.9342  1.1616 -1.3670
 4481SOL     OW25075   2.136   3.363   7.287  0.0338  0.2410 -0.8503
 4481SOL    HW125076   2.048   3.391   7.262 -0.0889  0.8649  0.2903
 4481SOL    HW225077   2.125   3.350   7.382 -2.1493 -0.3038 -1.1773
 4482SOL     OW25078   3.973   0.001   1.314  0.4164 -0.3062  0.3716
 4482SOL    HW125079   3.917   0.011   1.391  0.9271  0.7506  0.6049
 4482SOL    HW225080   3.931   0.069   1.261  0.6173 -0.9582 -0.6186
 4483SOL     OW25081   3.224   2.068   1.460  0.5715  0.2143 -0.0243
 4483SOL    HW125082   3.137   2.108   1.464  0.9534  1.0482 -0.2728
 4483SOL    HW225083   3.208   1.987   1.509 -0.1445  0.8797  0.8357
 4484SOL     OW25084   0.816   1.574   7.782  0.6488  0.2606 -0.3178
 4484SOL    HW125085   0.728   1.537   7.769  1.0466 -0.3487 -1.3169
 4484SOL    HW225086   0.790   1.655   7.825  0.8593  0.6418 -0.9026
 4485SOL     OW25087   4.317   4.661   2.925 -0.6365 -0.1492  0.5842
 4485SOL    HW125088   4.244   4.638   2.983 -2.0660  2.7868 -0.0461
 4485SOL    HW225089   4.340   4.572   2.898 -2.5605 -0.0881 -1.3456
 4486SOL     OW25090   4.354   2.269   9.070 -0.2240  0.3085  0.3898
 4486SOL    HW125091   4.385   2.301   8.985  0.1668 -1.4338 -0.1080
 4486SOL    HW225092   4.263   2.291   9.047  0.4565 -0.0221 -2.6299
 4487SOL     OW25093   2.248   0.852   9.892  0.4947  0.3160  0.1651
 4487SOL    HW125094   2.335   0.869   9.928  0.3862 -2.1819  1.6359
 4487SOL    HW225095   2.277   0.811   9.811  1.3002  3.1838 -0.9776
 4488SOL     OW25096   2.431   1.100  17.233  0.1000 -0.5360  0.1137
 4488SOL    HW125097   2.369   1.098  17.160 -0.1116  2.5444  0.2000
 4488SOL    HW225098   2.420   1.006  17.251 -0.9630 -0.4632 -0.1470
 4489SOL     OW25099   2.344   2.837   8.388 -0.2152 -0.5183  0.1922
 4489SOL    HW125100   2.409   2.854   8.456 -0.7527  0.2723  0.5019
 4489SOL    HW225101   2.315   2.748   8.407 -0.7745 -0.7224 -1.5916
 4490SOL     OW25102   3.240   2.924   3.344 -0.1033 -0.2504 -0.0212
 4490SOL    HW125103   3.170   2.875   3.387 -1.3869  2.0890  0.5506
 4490SOL    HW225104   3.236   2.886   3.256 -0.1915 -1.9257  0.7021
 4491SOL     OW25105   4.249   4.258  13.732  0.5278 -0.1958  0.2918
 4491SOL    HW125106   4.282   4.168  13.729  4.2455  1.1950 -0.3253
 4491SOL    HW225107   4.280   4.301  13.812  1.6464  0.3945 -0.4587
 4492SOL     OW25108   2.646   4.638  11.181 -0.2769  0.4104  0.4365
 4492SOL    HW125109   2.657   4.733  11.182 -0.9034  0.4558  2.3172
 4492SOL    HW225110   2.591   4.623  11.258  0.0990  0.0097  0.6234
 4493SOL     OW25111   0.140   3.998   1.442  0.4612 -0.2194 -0.0359
 4493SOL    HW125112   0.170   3.965   1.357 -0.1295  2.6094 -1.3390
 4493SOL    HW225113   0.184   4.082   1.453  1.2337 -0.5628 -0.4727
 4494SOL     OW25114   0.855   1.597   4.126 -0.4461  0.1738  0.1600
 4494SOL    HW125115   0.948   1.614   4.115 -0.1854 -0.3552  1.5379
 4494SOL    HW225116   0.826   1.660   4.061  2.4451  2.9465  1.5881
 4495SOL     OW25117   1.622   3.482   7.786  0.6944  0.2784  0.3422
 4495SOL    HW125118   1.558   3.497   7.716 -0.8904 -1.1226  1.4910
 4495SOL    HW225119   1.597   3.393   7.812  2.1154 -0.5571 -1.1922
 4496SOL     OW25120   1.164   2.552  11.845 -0.0857  0.1626  0.2105
 4496SOL    HW125121   1.074   2.560  11.812 -0.8761 -1.6304  1.9484
 4496SOL    HW225122   1.157   2.620  11.911 -3.5621 -0.7045  0.7468
 4497SOL     OW25123   1.941   4.316   3.733 -0.2502  0.4442  0.2720
 4497SOL    HW125124   1.891   4.243   3.697 -0.2444  1.3853 -1.6169
 4497SOL    HW225125   2.018   4.324   3.677 -0.9484 -0.8012 -0.8508
 4498SOL     OW25126   1.440   2.070   9.261  0.2573 -0.3159 -0.2328
 4498SOL    HW125127   1.352   2.042   9.283  0.3447 -0.4441 -0.0441
 4498SOL    HW225128   1.436   2.166   9.269  0.7365 -0.2018 -1.2481
 4499SOL     OW25129   0.311   0.972  15.214  0.4290 -0.4132  0.5912
 4499SOL    HW125130   0.231   1.025  15.216 -0.5531 -1.8367 -1.7726
 4499SOL    HW225131   0.297   0.931  15.300  1.8301  0.3722  1.1986
 4500SOL     OW25132   4.605   0.004   5.379 -0.1729  0.0156  0.3100
 4500SOL    HW125133   4.694   0.010   5.342 -0.2696  1.5244  0.3277
 4500SOL    HW225134   4.563   0.088   5.365  0.1774 -0.0076 -0.9193
 4501SOL     OW25135   1.820   0.653   5.349  0.0903 -0.5234  0.1521
 4501SOL    HW125136   1.747   0.593   5.339  0.0490 -0.5394  0.5545
 4501SOL    HW225137   1.896   0.600   5.322 -2.0612 -2.7210 -1.6304
 4502SOL     OW25138   1.839   4.701   4.251  0.3073 -0.2443  0.1508
 4502SOL    HW125139   1.751   4.731   4.229  1.0616 -0.0027 -2.4969
 4502SOL    HW225140   1.817   4.608   4.254  0.3018 -0.2374  0.3088
 4503SOL     OW25141   3.968   2.435   8.000 -0.4010 -0.5907  0.2516
 4503SOL    HW125142   4.022   2.375   7.948 -2.1076 -2.0220  0.1443
 4503SOL    HW225143   3.902   2.369   8.024 -0.0468 -0.7501  0.7877
 4504SOL     OW25144   2.394   2.909  16.380 -0.6536 -0.0573  0.6167
 4504SOL    HW125145   2.334   2.838  16.357 -1.7989  1.3119 -0.6179
 4504SOL    HW225146   2.337   2.983  16.400  0.4383  1.6525 -2.6642
 4505SOL     OW25147   2.461   1.428   8.464  0.1932 -0.1009 -0.3532
 4505SOL    HW125148   2.478   1.481   8.541 -3.2634  1.5718 -0.7426
 4505SOL    HW225149   2.365   1.429   8.458  0.2339  2.5553 -0.6396
 4506SOL     OW25150   1.818   1.134   7.719  0.3837  0.6882  0.2557
 4506SOL    HW125151   1.807   1.063   7.782  1.2108  0.6157  0.3195
 4506SOL    HW225152   1.729   1.156   7.691 -0.5910 -0.6079  2.3208
 4507SOL     OW25153   4.424   0.030  11.637  0.3351 -0.1576  0.6592
 4507SOL    HW125154   4.336   0.068  11.642  0.4479  0.5906 -3.0798
 4507SOL    HW225155   4.458   0.088  11.570  1.3148 -1.2926  0.1711
 4508SOL     OW25156   2.260   4.482   4.376 -0.5699  0.1103  0.2285
 4508SOL    HW125157   2.172   4.496   4.409  0.3584 -0.1549  2.8121
 4508SOL    HW225158   2.271   4.573   4.349  0.5724 -0.0624  0.0835
 4509SOL     OW25159   4.669   1.762   1.628 -0.3976 -0.3604  0.0929
 4509SOL    HW125160   4.626   1.745   1.712  0.6590 -0.3933  0.6290
 4509SOL    HW225161   4.634   1.689   1.577  1.0459  0.7098 -2.4511
 4510SOL     OW25162   2.979   2.488   7.884  0.6782  0.0294 -0.1604
 4510SOL    HW125163   3.024   2.403   7.882  1.0428  0.2090  0.3596
 4510SOL    HW225164   3.021   2.522   7.805 -2.2504  1.4430 -1.1077
 4511SOL     OW25165   3.453   2.849   2.129  0.6564 -0.0210  0.1239
 4511SOL    HW125166   3.453   2.777   2.065 -0.6685  0.4539 -0.4229
 4511SOL    HW225167   3.461   2.924   2.071  2.3814  0.3682  0.8792
 4512SOL     OW25168   2.158   1.541   8.475 -0.2802 -0.4446 -0.1021
 4512SOL    HW125169   2.131   1.609   8.537 -1.4268  0.4792 -1.6240
 4512SOL    HW225170   2.140   1.596   8.400  1.2621  0.2428  0.0271
 4513SOL     OW25171   2.060   2.138   6.352 -0.2705 -0.2104  0.1682
 4513SOL    HW125172   2.000   2.174   6.287 -1.4488 -0.4210  1.1397
 4513SOL    HW225173   2.063   2.044   6.333 -1.5104 -1.1462  4.4913
 4514SOL     OW25174   3.276   3.884   7.879  0.1424  0.0972  0.4824
 4514SOL    HW125175   3.228   3.966   7.869  1.8513  1.2771  1.9778
 4514SOL    HW225176   3.213   3.826   7.924  1.5379 -1.8040 -0.0125
 4515SOL     OW25177   3.897   0.845   2.834  0.5622 -0.1386 -0.2573
 4515SOL    HW125178   3.879   0.887   2.918  0.4549 -0.5903 -0.0529
 4515SOL    HW225179   3.883   0.925   2.783 -2.5422 -1.1561 -1.0464
 4516SOL     OW25180   2.104   4.197   8.677  0.0581  0.5372  0.2300
 4516SOL    HW125181   2.094   4.109   8.714 -1.1841  1.8753  3.0688
 4516SOL    HW225182   2.158   4.176   8.601 -1.1342  1.6792 -0.9299
 4517SOL     OW25183   1.451   0.698  12.918 -0.9656 -0.1791 -0.0242
 4517SOL    HW125184   1.391   0.740  12.981 -1.4623  2.0622 -1.9807
 4517SOL    HW225185   1.468   0.605  12.933 -1.3721 -0.3948 -0.9025
 4518SOL     OW25186   1.540   1.817   7.779  0.5255 -0.0807  0.6858
 4518SOL    HW125187   1.449   1.796   7.801  0.4778  0.0742  0.6382
 4518SOL    HW225188   1.586   1.815   7.863  0.4128 -1.5811  0.7045
 4519SOL     OW25189   3.746   4.217   6.315 -0.1962  0.2181  0.0182
 4519SOL    HW125190   3.691   4.290   6.344 -0.4881 -0.3721  0.9484
 4519SOL    HW225191   3.806   4.259   6.254  3.7998 -0.4139  3.5088
 4520SOL     OW25192   2.435   2.116   1.306  0.3557  0.1401  0.5637
 4520SOL    HW125193   2.343   2.092   1.296  0.6367 -0.3602 -0.9215
 4520SOL    HW225194   2.480   2.112   1.221  0.9338 -2.0699  0.9547
 4521SOL     OW25195   2.772   2.798   9.511  0.1351  0.1307  0.0652
 4521SOL    HW125196   2.804   2.887   9.530  1.7854 -0.7265  1.3400
 4521SOL    HW225197   2.832   2.765   9.445  2.2742  1.3364  1.4037
 4522SOL     OW25198   2.445   3.487   3.145 -0.5833 -0.6004 -0.5857
 4522SOL    HW125199   2.514   3.425   3.121  0.2675 -0.1565  0.7255
 4522SOL    HW225200   2.366   3.456   3.100 -0.4884  0.8709 -1.7501
 4523SOL     OW25201   1.027   4.414   6.874 -0.0589  0.0192 -0.1601
 4523SOL    HW125202   1.116   4.417   6.840 -0.3692  3.0237 -0.7017
 4523SOL    HW225203   1.027   4.507   6.897 -0.6609  0.3412 -1.4278
 4524SOL     OW25204   0.714   0.293   0.598  0.3178 -0.4341  0.1177
 4524SOL    HW125205   0.735   0.210   0.640 -1.0078  0.8235  3.2198
 4524SOL    HW225206   0.676   0.343   0.670  0.8671  1.7606 -1.1052
 4525SOL     OW25207   1.610   4.704   7.914 -0.6449  0.4883  0.4606
 4525SOL    HW125208   1.539   4.713   7.849 -1.5678 -2.8684  0.9811
 4525SOL    HW225209   1.652   4.622   7.889  0.4783  1.0521  0.5094
 4526SOL     OW25210   2.036   3.853   7.089 -0.2527  0.7684 -0.0562
 4526SOL    HW125211   1.961   3.835   7.145 -1.1151  1.0146 -1.1354
 4526SOL    HW225212   2.073   3.933   7.127  1.1936  1.1941 -2.3328
 4527SOL     OW25213   0.444   0.400   1.266 -0.5482  0.1102  0.2963
 4527SOL    HW125214   0.353   0.372   1.262 -0.1831 -1.0692  0.2426
 4527SOL    HW225215   0.452   0.471   1.202 -0.8003 -1.0499 -1.0131
 4528SOL     OW25216   0.027   0.374   0.942 -0.6305 -0.2962 -0.4977
 4528SOL    HW125217   0.057   0.337   1.025  2.2999  0.8152 -1.0554
 4528SOL    HW225218   0.067   0.315   0.878 -1.2690  0.8354 -1.9383
 4529SOL     OW25219   4.337   3.842   2.979 -0.5862 -0.4278 -0.4887
 4529SOL    HW125220   4.286   3.787   3.039 -2.2925  0.8461 -0.7660
 4529SOL    HW225221   4.294   3.927   2.992  1.7123  0.7615 -0.7132
 4530SOL     OW25222   2.778   3.224  11.597 -0.1953 -0.2718 -0.6371
 4530SOL    HW125223   2.760   3.144  11.645  1.1862 -0.9262 -1.2206
 4530SOL    HW225224   2.819   3.271  11.669 -1.3288  1.3886 -1.0732
 4531SOL     OW25225   2.950   0.258  13.418 -0.1824 -0.3388 -0.4610
 4531SOL    HW125226   2.996   0.189  13.369 -0.9204 -0.8204 -0.4691
 4531SOL    HW225227   3.017   0.296  13.474 -0.9308  1.0599 -0.5148
 4532SOL     OW25228   0.369   3.745  11.889 -0.4194  0.4897 -0.3889
 4532SOL    HW125229   0.311   3.671  11.877 -2.5792  1.8473  1.7888
 4532SOL    HW225230   0.410   3.767  11.805  3.4358 -2.5219  0.6862
 4533SOL     OW25231   1.641   0.543  12.743  0.1266 -0.5622  0.3884
 4533SOL    HW125232   1.563   0.583  12.781 -0.5509 -1.0976 -0.4330
 4533SOL    HW225233   1.699   0.617  12.761 -0.5845  0.1222 -0.1109
 4534SOL     OW25234   3.379   0.772   4.512  0.2587 -0.4980 -0.0021
 4534SOL    HW125235   3.359   0.766   4.419  1.0600  0.6908 -0.2430
 4534SOL    HW225236   3.464   0.814   4.515 -0.3902  0.7080  1.6191
 4535SOL     OW25237   3.167   0.131   5.818  0.0312 -0.8487 -0.2129
 4535SOL    HW125238   3.224   0.203   5.791  0.0837 -0.9978 -0.4941
 4535SOL    HW225239   3.081   0.167   5.799 -0.7109 -0.4814  3.8345
 4536SOL     OW25240   1.334   2.035   5.930  0.0543  0.5232 -0.2915
 4536SOL    HW125241   1.259   1.993   5.972  1.8546 -0.4438  1.9868
 4536SOL    HW225242   1.308   2.041   5.838 -2.6011  3.7674  0.6592
 4537SOL     OW25243   4.201   2.562   8.459 -0.4087 -0.5062  0.0339
 4537SOL    HW125244   4.129   2.559   8.396 -0.1033 -0.9295 -0.2950
 4537SOL    HW225245   4.254   2.626   8.411  0.9930  1.0413  3.6712
 4538SOL     OW25246   1.009   4.335   9.885  0.3674  0.0141  0.1537
 4538SOL    HW125247   1.067   4.406   9.857  0.3181 -0.2042 -0.5125
 4538SOL    HW225248   1.071   4.280   9.932 -0.4636 -0.5683  0.5663
 4539SOL     OW25249   0.513   0.078  14.675  0.1135  0.5816 -0.1963
 4539SOL    HW125250   0.516   0.164  14.631 -2.1880  0.5368 -0.4706
 4539SOL    HW225251   0.429   0.047  14.641  0.5393 -0.0200 -0.6951
 4540SOL     OW25252   2.901   1.118   6.848 -0.1079  0.3311  0.4048
 4540SOL    HW125253   2.839   1.046   6.859 -0.0693  0.0817 -1.0285
 4540SOL    HW225254   2.975   1.084   6.898 -0.4051 -1.3638 -0.3316
 4541SOL     OW25255   0.339   3.177  10.444 -0.4136  0.4849 -0.0170
 4541SOL    HW125256   0.283   3.254  10.439 -0.5265  0.2963 -1.6431
 4541SOL    HW225257   0.274   3.123  10.490  0.9542 -1.9160 -0.8630
 4542SOL     OW25258   4.276   3.411   3.432 -0.3679 -0.2853 -0.2148
 4542SOL    HW125259   4.293   3.401   3.338 -0.6868 -0.4979 -0.2508
 4542SOL    HW225260   4.255   3.319   3.451  0.9738 -0.4582  0.4913
 4543SOL     OW25261   4.672   2.121   4.834  0.3960  0.5729 -0.4731
 4543SOL    HW125262   4.730   2.156   4.901  2.1488 -0.5478 -1.4092
 4543SOL    HW225263   4.719   2.137   4.753  3.1013 -1.3581  0.7034
 4544SOL     OW25264   4.253   4.288   3.282  0.0468  0.6951  0.3307
 4544SOL    HW125265   4.247   4.380   3.254  0.6550  0.3670 -0.9289
 4544SOL    HW225266   4.349   4.283   3.277 -0.1411 -2.5561  0.3221
 4545SOL     OW25267   2.685   4.172  13.535 -0.3631  0.1881 -0.0140
 4545SOL    HW125268   2.644   4.256  13.516 -0.4188  0.2313  0.3057
 4545SOL    HW225269   2.638   4.114  13.475  1.3487  0.9757 -2.1352
 4546SOL     OW25270   4.311   3.496   4.297 -0.4469 -0.3876 -0.3859
 4546SOL    HW125271   4.348   3.442   4.367 -0.9081  0.3347  0.4147
 4546SOL    HW225272   4.218   3.499   4.317 -0.5901  2.2789 -1.4010
 4547SOL     OW25273   1.792   4.492   6.116 -0.3803  0.2177 -0.4810
 4547SOL    HW125274   1.711   4.539   6.136 -0.4181 -0.0160 -0.0801
 4547SOL    HW225275   1.844   4.538   6.051  1.2270  0.1102  0.7294
 4548SOL     OW25276   3.914   2.937   4.291 -0.4688  0.5575  0.0536
 4548SOL    HW125277   3.951   2.860   4.248  1.1684  0.7104  1.1880
 4548SOL    HW225278   3.988   2.996   4.305 -0.4182  1.1474 -2.7576
 4549SOL     OW25279   4.538   4.204   8.374 -0.3419  0.1599  0.5083
 4549SOL    HW125280   4.484   4.204   8.452 -0.5398  0.8705  0.3648
 4549SOL    HW225281   4.621   4.228   8.415 -0.5600  0.6895  0.6331
 4550SOL     OW25282   4.291   2.839   4.181  0.1321 -0.3044 -0.1121
 4550SOL    HW125283   4.275   2.885   4.264  0.9821 -1.3676  0.6402
 4550SOL    HW225284   4.229   2.769   4.200 -0.7087  0.1324 -1.2771
 4551SOL     OW25285   1.842   0.140   4.793  0.2563 -0.0393  0.1631
 4551SOL    HW125286   1.752   0.145   4.825  0.3440 -2.7198  0.8204
 4551SOL    HW225287   1.850   0.046   4.775  1.7476 -0.3031  2.1739
 4552SOL     OW25288   3.120   2.202   1.830 -0.2040  0.3581 -0.0050
 4552SOL    HW125289   3.159   2.114   1.826 -0.2480  0.3566 -0.3798
 4552SOL    HW225290   3.116   2.220   1.924 -1.1244 -2.6597  0.5530
 4553SOL     OW25291   1.174   2.335   8.758  0.0686  0.1545  0.2408
 4553SOL    HW125292   1.125   2.398   8.706 -0.3821 -0.1657  0.2811
 4553SOL    HW225293   1.245   2.308   8.699 -0.8688 -2.1760  0.1852
 4554SOL     OW25294   3.941   2.367   0.037 -0.1028 -0.2638 -0.1975
 4554SOL    HW125295   3.853   2.380   0.004  0.4524 -1.5538 -2.1496
 4554SOL    HW225296   3.917   2.355   0.129 -1.7168  0.2719 -0.5628
 4555SOL     OW25297   2.713   0.041   8.119 -0.6060  0.2825 -0.1347
 4555SOL    HW125298   2.688   4.691   8.096 -1.4201  0.7777 -1.1709
 4555SOL    HW225299   2.681   0.039   8.210 -2.4190  1.8502 -0.7474
 4556SOL     OW25300   1.838   3.307   5.379 -0.2339  0.4405 -0.0069
 4556SOL    HW125301   1.888   3.279   5.457 -2.2967 -1.3549  0.6694
 4556SOL    HW225302   1.787   3.384   5.403 -1.2059  0.0098 -0.7004
 4557SOL     OW25303   1.695   4.707   5.107  0.4584  0.3556  0.0147
 4557SOL    HW125304   1.621   4.654   5.137 -0.7449  2.2559  0.4268
 4557SOL    HW225305   1.729   4.653   5.035 -0.0822 -0.2812  0.2357
 4558SOL     OW25306   0.928   2.887   9.878  0.2522  0.2321  0.0477
 4558SOL    HW125307   0.955   2.891   9.970  1.1422  1.6234 -0.2734
 4558SOL    HW225308   0.944   2.977   9.850 -1.0668  0.1635 -0.9551
 4559SOL     OW25309   0.026   2.924   5.201  0.6813  0.0719  0.5186
 4559SOL    HW125310   0.106   2.962   5.167  0.5211 -2.3507 -2.5136
 4559SOL    HW225311   4.693   2.964   5.152  1.3381  0.6329  0.0121
 4560SOL     OW25312   0.815   3.322  15.835 -0.3734 -0.1724 -0.4522
 4560SOL    HW125313   0.885   3.257  15.837 -0.3174 -0.1313 -1.0448
 4560SOL    HW225314   0.794   3.335  15.742 -0.9882 -6.5149 -1.2033
 4561SOL     OW25315   2.241   4.115   7.866 -0.3077 -0.6666 -0.3653
 4561SOL    HW125316   2.260   4.205   7.891 -1.3147 -0.8833  1.1524
 4561SOL    HW225317   2.322   4.093   7.819  0.5715  2.5699 -0.4053
 4562SOL     OW25318   0.635   0.093   9.022 -0.1164 -0.4956 -0.2562
 4562SOL    HW125319   0.627   0.146   9.102 -0.7139 -2.2308  0.8533
 4562SOL    HW225320   0.645   0.163   8.958  1.9986  0.0694  0.7079
 4563SOL     OW25321   3.194   0.189   3.802 -0.5185  0.3442 -0.0509
 4563SOL    HW125322   3.264   0.191   3.737 -0.6345 -3.4344 -0.2886
 4563SOL    HW225323   3.233   0.231   3.879 -0.8036  1.0644 -0.2975
 4564SOL     OW25324   2.594   4.717   5.245 -0.0346  0.1659  0.2999
 4564SOL    HW125325   2.545   0.014   5.319 -1.7069  1.6117 -1.5299
 4564SOL    HW225326   2.661   0.046   5.237  0.5013 -0.3671  0.2897
 4565SOL     OW25327   3.346   4.228   8.811 -0.0603  0.2893  0.6351
 4565SOL    HW125328   3.267   4.269   8.845 -0.9506 -0.1441 -0.9351
 4565SOL    HW225329   3.325   4.134   8.808 -0.3440  0.2795  2.8600
 4566SOL     OW25330   4.326   3.497   5.832 -0.0691  0.1978 -0.1518
 4566SOL    HW125331   4.399   3.508   5.893  0.4016 -1.5446 -0.3907
 4566SOL    HW225332   4.275   3.424   5.867 -0.1107  0.5115  0.4376
 4567SOL     OW25333   0.963   0.560   5.899  0.6635 -0.6196  0.2980
 4567SOL    HW125334   0.887   0.536   5.846  0.6209  1.6402 -0.6438
 4567SOL    HW225335   0.995   0.472   5.923  1.5719 -0.1546  0.7918
 4568SOL     OW25336   0.263   1.391   5.614  0.3595  1.1340 -0.0984
 4568SOL    HW125337   0.316   1.312   5.605 -0.4667  0.5466  0.1976
 4568SOL    HW225338   0.237   1.373   5.704 -0.4983 -0.0041 -0.5717
 4569SOL     OW25339   1.439   2.443   6.491 -0.1316  0.8509  0.4256
 4569SOL    HW125340   1.469   2.353   6.499  2.2874  1.7739  2.0517
 4569SOL    HW225341   1.346   2.435   6.510 -0.3989  1.3052 -0.6690
 4570SOL     OW25342   4.292   2.090   1.509  0.1451  0.9215  0.0820
 4570SOL    HW125343   4.330   2.002   1.511 -0.8286  0.5068  0.2489
 4570SOL    HW225344   4.320   2.116   1.421  0.3052  0.3193 -0.0419
 4571SOL     OW25345   3.462   2.645   2.795 -0.1627  0.8113  0.1622
 4571SOL    HW125346   3.368   2.656   2.811 -0.5951 -1.0544 -1.1508
 4571SOL    HW225347   3.467   2.552   2.819  0.4892  1.1521  1.3477
 4572SOL     OW25348   3.568   3.779   6.917 -0.1461 -0.1222  0.3227
 4572SOL    HW125349   3.474   3.788   6.903 -0.5909 -0.0386  3.3597
 4572SOL    HW225350   3.609   3.863   6.939 -1.9929  0.7185  0.5628
 4573SOL     OW25351   1.572   2.027   5.123 -0.1071 -0.2878  0.2789
 4573SOL    HW125352   1.520   2.099   5.088  0.3604  0.0667  0.3051
 4573SOL    HW225353   1.536   2.012   5.210  0.2275  1.5924  0.7364
 4574SOL     OW25354   0.361   3.059   8.666  0.3992 -0.2955  0.1528
 4574SOL    HW125355   0.386   3.111   8.742 -0.4772 -0.0004  0.2391
 4574SOL    HW225356   0.443   3.012   8.648  0.2999  0.9034 -3.4357
 4575SOL     OW25357   1.133   2.700   8.147  0.8873  0.2302 -0.2884
 4575SOL    HW125358   1.163   2.773   8.201  0.4723  1.0719 -1.2148
 4575SOL    HW225359   1.105   2.737   8.064 -2.4154 -0.3117  0.5714
 4576SOL     OW25360   1.184   3.092   8.116 -0.1027 -0.2954  0.8200
 4576SOL    HW125361   1.242   3.168   8.120 -0.9170  0.2820  1.6101
 4576SOL    HW225362   1.193   3.054   8.204 -1.9790 -2.4786  0.0737
 4577SOL     OW25363   1.983   3.030  16.031  0.2629  0.3014 -0.4538
 4577SOL    HW125364   2.071   3.019  16.066  0.5018  1.7374 -0.6108
 4577SOL    HW225365   2.003   2.992  15.945 -3.2157 -2.9343  0.1503
 4578SOL     OW25366   1.840   3.930   4.828 -0.7494  0.2227 -0.2014
 4578SOL    HW125367   1.823   3.841   4.859 -0.1188 -0.8724 -3.0267
 4578SOL    HW225368   1.905   3.910   4.760  0.3378  3.1893 -0.0510
 4579SOL     OW25369   1.007   2.708   3.754 -0.5461  0.1302 -0.5924
 4579SOL    HW125370   1.005   2.783   3.813 -0.0027 -0.1073 -0.2739
 4579SOL    HW225371   0.918   2.719   3.720 -0.8619  0.5653  0.3607
 4580SOL     OW25372   2.742   2.353  16.934 -0.4202 -0.0676  0.0357
 4580SOL    HW125373   2.760   2.272  16.981 -1.0849  0.3337  0.9900
 4580SOL    HW225374   2.824   2.359  16.884 -0.8093 -1.4053 -0.7598
 4581SOL     OW25375   1.871   4.010   5.915 -0.2642 -0.7637  0.6540
 4581SOL    HW125376   1.898   3.991   6.005 -2.0614 -2.4046  0.8466
 4581SOL    HW225377   1.808   4.079   5.935  1.2682  1.0185 -0.6968
 4582SOL     OW25378   3.875   3.355   3.952  0.1927 -0.0549 -1.0330
 4582SOL    HW125379   3.875   3.296   3.876  0.9743 -1.0712 -0.2398
 4582SOL    HW225380   3.784   3.380   3.963  1.3391  3.1456  1.2071
 4583SOL     OW25381   0.834   0.383   8.645 -0.1039  0.2312  0.3388
 4583SOL    HW125382   0.911   0.345   8.601 -1.2790 -0.2433 -1.2903
 4583SOL    HW225383   0.832   0.462   8.591  1.4360 -0.1219 -0.2334
 4584SOL     OW25384   2.479   0.208   7.003 -0.2968 -0.3196 -0.0124
 4584SOL    HW125385   2.406   0.258   6.967 -1.5906 -2.9933 -1.1595
 4584SOL    HW225386   2.491   0.248   7.090  0.1439  1.1739 -0.7636
 4585SOL     OW25387   4.258   1.056   3.613  0.5674 -0.5571  0.5612
 4585SOL    HW125388   4.167   1.070   3.640  1.2178  2.2156  1.2637
 4585SOL    HW225389   4.255   0.966   3.581 -1.2865  0.1903 -1.3923
 4586SOL     OW25390   1.044   2.531   9.081 -0.1609  0.1335 -0.5643
 4586SOL    HW125391   0.956   2.504   9.053  0.1292 -0.9505 -0.4287
 4586SOL    HW225392   1.100   2.502   9.009  1.4937  1.8945  0.0284
 4587SOL     OW25393   3.991   1.415   7.234  0.4757 -0.1714  0.3760
 4587SOL    HW125394   4.038   1.469   7.299  2.4903  1.4097 -2.4079
 4587SOL    HW225395   4.065   1.381   7.184 -0.6573 -1.1284 -0.6153
 4588SOL     OW25396   0.464   0.509   5.654 -0.1597 -0.6008 -0.5649
 4588SOL    HW125397   0.471   0.414   5.660 -2.0959 -0.7911 -1.2052
 4588SOL    HW225398   0.484   0.523   5.562  1.0732 -0.6105 -0.2904
 4589SOL     OW25399   4.411   3.893   2.188 -0.1862  0.2841 -0.2396
 4589SOL    HW125400   4.464   3.814   2.192  0.8361  0.8936 -1.6596
 4589SOL    HW225401   4.425   3.925   2.098  1.1596 -0.3981 -0.2587
 4590SOL     OW25402   1.031   1.626  12.549 -0.5251 -0.4890  0.2086
 4590SOL    HW125403   0.939   1.602  12.539 -0.6160 -0.1565  0.2369
 4590SOL    HW225404   1.047   1.589  12.635 -1.1382 -0.1894  0.4463
 4591SOL     OW25405   3.419   0.224   5.973  0.3251 -0.0760  0.2428
 4591SOL    HW125406   3.426   0.292   6.039  0.2096 -0.7284  0.9355
 4591SOL    HW225407   3.409   0.282   5.898  2.8044 -0.7086 -0.5763
 4592SOL     OW25408   3.406   3.995   5.450  0.1622  0.1136  0.6593
 4592SOL    HW125409   3.338   3.963   5.509 -1.7242 -0.2496 -1.7005
 4592SOL    HW225410   3.392   3.952   5.365 -2.6424  2.3403 -0.0134
 4593SOL     OW25411   3.458   1.301   5.883 -0.0851 -0.8663  0.3554
 4593SOL    HW125412   3.416   1.365   5.942 -0.5713 -0.6302 -0.2455
 4593SOL    HW225413   3.549   1.288   5.907 -0.3331 -1.8912  0.7542
 4594SOL     OW25414   3.010   3.629   2.672 -0.2783  0.2423  0.3098
 4594SOL    HW125415   2.943   3.686   2.709 -1.4275 -0.5040 -0.5979
 4594SOL    HW225416   3.065   3.696   2.632  0.6826 -0.8637 -0.2256
 4595SOL     OW25417   2.346   3.470   3.409  0.3748  0.9022  0.4706
 4595SOL    HW125418   2.391   3.477   3.324  0.8748 -2.0220  0.5011
 4595SOL    HW225419   2.256   3.497   3.392 -0.3876 -0.5850  2.2160
 4596SOL     OW25420   3.169   4.109   8.574  0.0974 -0.0701 -0.3027
 4596SOL    HW125421   3.200   4.061   8.497  1.3341  0.1547  0.0660
 4596SOL    HW225422   3.214   4.065   8.646 -0.3767  0.3991  0.2791
 4597SOL     OW25423   1.026   4.448   2.534 -0.1713  0.0211  0.1828
 4597SOL    HW125424   0.997   4.449   2.443  1.6842 -2.6933 -0.4309
 4597SOL    HW225425   0.940   4.447   2.577 -0.3757  1.5239 -0.1811
 4598SOL     OW25426   3.045   3.146   6.175 -0.6267 -0.2124  0.1423
 4598SOL    HW125427   2.965   3.194   6.197  0.0353 -0.4100  2.9661
 4598SOL    HW225428   3.110   3.215   6.165 -0.0416 -0.7659  0.1418
 4599SOL     OW25429   3.407   3.913  10.259  0.6992 -0.2391 -0.1077
 4599SOL    HW125430   3.371   3.925  10.346  0.9994  1.0307 -0.1529
 4599SOL    HW225431   3.495   3.950  10.269 -0.1188  1.8541 -0.7406
 4600SOL     OW25432   3.984   1.150  14.900 -0.0037  0.7256 -0.4585
 4600SOL    HW125433   4.031   1.068  14.884 -0.3689  0.2313  0.9713
 4600SOL    HW225434   3.914   1.149  14.835 -1.4487 -0.5501  1.0981
 4601SOL     OW25435   3.468   4.361   5.626  0.0668  0.7393  0.2356
 4601SOL    HW125436   3.406   4.309   5.676  0.3007 -0.7904 -1.0487
 4601SOL    HW225437   3.426   4.362   5.540  0.5122 -1.6447  0.0148
 4602SOL     OW25438   0.414   1.989   6.033 -0.2295 -0.3062 -0.3437
 4602SOL    HW125439   0.409   1.936   5.953  1.1949 -0.8199 -0.0957
 4602SOL    HW225440   0.467   2.061   6.000 -2.2269  1.2898 -0.0272
 4603SOL     OW25441   2.003   4.497   5.452  0.3354 -0.1672  0.1752
 4603SOL    HW125442   1.954   4.551   5.514  0.6706 -1.5343  1.6291
 4603SOL    HW225443   1.979   4.527   5.365  0.7590  1.5700  0.6431
 4604SOL     OW25444   1.770   1.718   1.329 -0.1114  0.2448 -0.0579
 4604SOL    HW125445   1.739   1.727   1.419 -0.6577 -1.2939 -0.0855
 4604SOL    HW225446   1.703   1.763   1.278  1.5111  2.9147  0.1454
 4605SOL     OW25447   3.749   0.119   9.350  0.2523 -0.1785  0.1589
 4605SOL    HW125448   3.810   0.121   9.424  2.5525 -0.6937 -1.7188
 4605SOL    HW225449   3.739   0.025   9.340  1.1989 -0.0972 -1.4217
 4606SOL     OW25450   1.139   3.254   7.566 -0.4268 -0.0817 -0.2708
 4606SOL    HW125451   1.114   3.335   7.522  0.4575  0.2411 -0.1697
 4606SOL    HW225452   1.087   3.258   7.646  0.8422  0.7242  0.5018
 4607SOL     OW25453   2.575   4.396   3.484  0.9042 -0.1417  0.1692
 4607SOL    HW125454   2.670   4.394   3.494  0.9728  0.2706 -0.4157
 4607SOL    HW225455   2.560   4.481   3.444 -0.2270 -1.3491 -2.0067
 4608SOL     OW25456   0.582   1.080   0.981  1.0082  0.0611  0.1972
 4608SOL    HW125457   0.496   1.075   1.023  0.7766 -0.5001 -0.3355
 4608SOL    HW225458   0.574   1.152   0.919  1.5459 -0.1384 -0.1084
 4609SOL     OW25459   1.225   1.428   5.737 -0.6780 -0.0801 -0.4139
 4609SOL    HW125460   1.299   1.404   5.792 -0.6388 -1.9751 -1.2858
 4609SOL    HW225461   1.155   1.364   5.752 -0.7154 -0.1415 -0.8462
 4610SOL     OW25462   4.264   1.707   2.227  0.1188  0.0731  0.2348
 4610SOL    HW125463   4.290   1.787   2.182  0.9110  0.3040  1.1093
 4610SOL    HW225464   4.173   1.734   2.244  0.0707  0.2937 -0.3908
 4611SOL     OW25465   2.392   1.579   6.012 -0.0779  0.3327 -0.4476
 4611SOL    HW125466   2.321   1.606   5.955 -1.7809 -1.4543  0.8032
 4611SOL    HW225467   2.473   1.586   5.962  0.3421  1.4701  0.3963
 4612SOL     OW25468   2.927   3.643   7.311 -0.1621  0.4859  0.0446
 4612SOL    HW125469   2.925   3.675   7.401 -1.8663  2.1596 -0.5799
 4612SOL    HW225470   2.983   3.565   7.313  0.3309  0.8961  2.6453
 4613SOL     OW25471   4.061   0.750   9.549  0.1334 -0.3686  0.0128
 4613SOL    HW125472   3.988   0.800   9.587  0.1352 -1.0097  0.8724
 4613SOL    HW225473   4.046   0.679   9.612  0.3258 -0.2524  0.1911
 4614SOL     OW25474   1.455   3.784  10.438  0.1083  0.4064  0.1006
 4614SOL    HW125475   1.502   3.857  10.397  0.5748 -0.4422 -0.9001
 4614SOL    HW225476   1.484   3.789  10.529 -1.3318  2.3910  0.4344
 4615SOL     OW25477   4.604   0.613   9.752  0.2795  0.3678 -0.0191
 4615SOL    HW125478   4.529   0.584   9.805 -0.7845  0.8769 -1.2244
 4615SOL    HW225479   4.619   0.530   9.706  1.6146  1.9621 -2.4304
 4616SOL     OW25480   1.328   1.489   4.920 -0.0735 -0.3520  0.0362
 4616SOL    HW125481   1.311   1.517   5.009  1.5908  0.1177  0.2044
 4616SOL    HW225482   1.247   1.442   4.904 -0.4407  0.8712 -1.7398
 4617SOL     OW25483   1.873   4.596   7.056  0.0050 -0.5673  0.7008
 4617SOL    HW125484   1.883   4.507   7.089  0.7710 -0.5634  0.4806
 4617SOL    HW225485   1.952   4.603   7.001  0.6806 -3.3711  1.3258
 4618SOL     OW25486   1.927   0.853   1.283  0.4784  0.3418 -0.0284
 4618SOL    HW125487   1.918   0.884   1.373 -0.5962 -0.6067  0.1873
 4618SOL    HW225488   1.856   0.905   1.245  0.3710  0.2891  0.0993
 4619SOL     OW25489   3.146   2.201   8.190 -0.1672 -0.2024 -0.3831
 4619SOL    HW125490   3.201   2.155   8.126  0.3861  0.7069 -0.5545
 4619SOL    HW225491   3.172   2.162   8.273  2.7367  0.2431 -1.0994
 4620SOL     OW25492   0.299   2.425   7.020  0.4042  0.3291  0.3946
 4620SOL    HW125493   0.214   2.432   7.062  0.0109 -1.7652 -0.0481
 4620SOL    HW225494   0.358   2.412   7.094 -1.1783 -0.2771  1.5459
 4621SOL     OW25495   4.313   1.249   7.344  0.4203  0.2231 -0.1488
 4621SOL    HW125496   4.334   1.250   7.438  0.6939 -1.5314 -0.1799
 4621SOL    HW225497   4.231   1.201   7.349  1.2553 -1.2035  0.1514
 4622SOL     OW25498   3.501   1.022   9.138 -0.0401  0.4973  0.2603
 4622SOL    HW125499   3.523   1.111   9.162  1.0812  0.2967 -0.0456
 4622SOL    HW225500   3.426   1.004   9.195  0.2177  3.2772  1.4322
 4623SOL     OW25501   2.289   0.624  10.296  0.0158  0.2820 -0.0464
 4623SOL    HW125502   2.203   0.641  10.257  0.5458 -0.3246 -1.4475
 4623SOL    HW225503   2.293   0.711  10.337  0.4082  2.1065 -4.0291
 4624SOL     OW25504   0.511   1.383   7.488  0.4641 -0.2829 -0.0983
 4624SOL    HW125505   0.434   1.377   7.432 -0.4031  1.3421  0.9475
 4624SOL    HW225506   0.579   1.343   7.432  1.9138  0.8928  0.8346
 4625SOL     OW25507   4.715   0.535   3.888 -0.6426  0.4249  0.5450
 4625SOL    HW125508   4.733   0.540   3.982  1.4961  0.5363  0.1328
 4625SOL    HW225509   0.063   0.538   3.850 -0.2381 -0.9929  1.3886
 4626SOL     OW25510   3.568   3.535  13.256  0.2388  0.1950  0.1102
 4626SOL    HW125511   3.564   3.453  13.304  0.4969  0.5260  0.6984
 4626SOL    HW225512   3.634   3.519  13.189  0.3267 -0.9429  0.4770
 4627SOL     OW25513   0.337   4.163  15.642 -0.4352 -0.5139  0.1951
 4627SOL    HW125514   0.277   4.101  15.601 -2.6554 -0.1949  2.8850
 4627SOL    HW225515   0.316   4.142  15.733  0.3422  0.2959  0.5637
 4628SOL     OW25516   2.502   2.683   4.789 -0.3304  0.2855 -0.0095
 4628SOL    HW125517   2.414   2.685   4.750 -0.4079 -0.4593  0.1376
 4628SOL    HW225518   2.517   2.591   4.809 -1.2950  0.1416  0.0611
 4629SOL     OW25519   3.749   3.286  10.375  0.3620  0.1856  0.9489
 4629SOL    HW125520   3.680   3.352  10.378  0.7973  0.6186  1.5624
 4629SOL    HW225521   3.717   3.213  10.427 -0.9426 -0.7181 -1.1211
 4630SOL     OW25522   1.265   3.266   0.576 -0.5454  0.2551 -0.2675
 4630SOL    HW125523   1.270   3.185   0.526  2.8234  0.6324 -0.5465
 4630SOL    HW225524   1.356   3.289   0.558 -0.8843  0.2969 -1.8751
 4631SOL     OW25525   1.794   2.405   8.157 -0.2563 -0.5511 -0.0459
 4631SOL    HW125526   1.760   2.455   8.083 -1.5580  0.6884  1.3867
 4631SOL    HW225527   1.716   2.355   8.182  0.9714 -2.8409 -0.8025
 4632SOL     OW25528   2.950   0.350  15.324  0.0006 -0.0307  0.2829
 4632SOL    HW125529   3.005   0.410  15.274 -0.5426 -0.1658 -0.4662
 4632SOL    HW225530   2.882   0.414  15.344 -0.8689 -0.2031 -2.1277
 4633SOL     OW25531   4.217   4.654   7.895  0.1262 -0.2452  0.0701
 4633SOL    HW125532   4.133   4.627   7.859  0.1190 -0.6397  0.3797
 4633SOL    HW225533   4.271   4.660   7.816 -1.1555  1.5389 -0.6725
 4634SOL     OW25534   4.228   0.016   1.870  0.4833  0.3461  0.5626
 4634SOL    HW125535   4.216   4.732   1.778 -2.0337 -2.3625  1.5959
 4634SOL    HW225536   4.290   4.688   1.896 -2.1526 -1.4341  2.2899
 4635SOL     OW25537   3.855   4.265   4.253 -0.2729  0.1498 -0.5114
 4635SOL    HW125538   3.883   4.197   4.191  1.6839 -1.2613  1.9076
 4635SOL    HW225539   3.877   4.221   4.335  1.1081  0.3665 -0.7584
 4636SOL     OW25540   4.224   0.402  12.891 -0.3479 -0.3486 -0.0622
 4636SOL    HW125541   4.249   0.381  12.981  1.4911 -0.2599 -0.5584
 4636SOL    HW225542   4.300   0.364  12.848 -0.0710  0.1991 -0.0576
 4637SOL     OW25543   0.692   3.818  10.943 -0.3765 -0.0816  0.0052
 4637SOL    HW125544   0.724   3.735  10.979 -0.6260  0.0163  0.4480
 4637SOL    HW225545   0.616   3.836  10.997 -0.0568  0.6240  0.2194
 4638SOL     OW25546   1.007   0.624   8.099  0.0122  0.4256 -0.5745
 4638SOL    HW125547   0.992   0.561   8.028  2.5854 -1.1172  0.2782
 4638SOL    HW225548   0.915   0.643   8.119  0.2268  1.3877 -0.5125
 4639SOL     OW25549   0.351   1.101   0.626  0.2737  0.1574  0.0371
 4639SOL    HW125550   0.341   1.047   0.547  0.2559  1.5254 -0.8916
 4639SOL    HW225551   0.257   1.110   0.642 -0.2055 -1.7730 -1.7043
 4640SOL     OW25552   2.370   1.357   5.371 -0.2596  0.3352  0.5143
 4640SOL    HW125553   2.293   1.312   5.405 -0.2181  0.5401  0.8800
 4640SOL    HW225554   2.422   1.298   5.427  1.3375 -0.4828 -1.8487
 4641SOL     OW25555   1.414   3.505   4.216 -0.6361 -0.4556 -0.4746
 4641SOL    HW125556   1.324   3.473   4.221 -1.2962  1.5409  0.1043
 4641SOL    HW225557   1.424   3.553   4.298 -0.8519 -0.8111 -0.2387
 4642SOL     OW25558   1.931   1.450   5.078  0.1986  0.4348 -1.4709
 4642SOL    HW125559   2.015   1.415   5.048 -0.3936 -1.0799 -1.3770
 4642SOL    HW225560   1.883   1.377   5.117 -0.1892  0.4897 -1.8399
 4643SOL     OW25561   2.935   4.475  16.481  0.3837  0.2182  0.5875
 4643SOL    HW125562   2.840   4.463  16.490  0.3627 -0.8912 -1.1061
 4643SOL    HW225563   2.939   4.537  16.408  1.4366 -3.0209 -2.0998
 4644SOL     OW25564   0.117   1.228   6.260 -0.2686 -0.5508  0.6067
 4644SOL    HW125565   0.081   1.206   6.174 -0.7541  0.1740  0.6254
 4644SOL    HW225566   0.106   1.144   6.305  2.8289 -0.4036  1.6435
 4645SOL     OW25567   4.449   0.863   2.947 -0.0331 -0.2274 -0.6046
 4645SOL    HW125568   4.416   0.786   2.992 -0.3396  1.1896  1.5722
 4645SOL    HW225569   4.385   0.931   2.965  1.5216  1.2650 -0.7207
 4646SOL     OW25570   1.833   1.481   9.790 -0.0928 -0.1368  0.2445
 4646SOL    HW125571   1.922   1.465   9.821 -0.5254 -1.3695  0.8611
 4646SOL    HW225572   1.803   1.502   9.879 -0.9287 -0.7708  0.1076
 4647SOL     OW25573   0.712   2.393   2.454  0.2191  0.0053  0.0764
 4647SOL    HW125574   0.638   2.438   2.413  0.2837 -0.1030 -0.1568
 4647SOL    HW225575   0.685   2.410   2.544  2.0802  0.2434  0.5830
 4648SOL     OW25576   3.690   1.183   0.555 -0.3499  0.1093  0.1226
 4648SOL    HW125577   3.676   1.129   0.477  0.6877  2.4890 -1.7067
 4648SOL    HW225578   3.704   1.267   0.512  1.6472  0.1436  0.8632
 4649SOL     OW25579   3.033   3.841   9.112 -0.6749  0.2921  0.1518
 4649SOL    HW125580   2.971   3.789   9.060 -1.5162  2.4321 -1.0201
 4649SOL    HW225581   3.001   3.922   9.073 -0.9359 -0.6085 -1.5330
 4650SOL     OW25582   1.062   3.340   7.257  0.0673 -0.3835  0.0262
 4650SOL    HW125583   1.097   3.398   7.325  1.3986  1.4560 -2.2293
 4650SOL    HW225584   0.976   3.305   7.281  0.3364 -0.0583  1.4604
 4651SOL     OW25585   1.424   4.709   3.223 -0.0699  0.3678 -0.1881
 4651SOL    HW125586   1.359   4.641   3.243 -0.2110  0.4321 -0.4213
 4651SOL    HW225587   1.440   4.679   3.133 -1.6314 -1.2328  0.0722
 4652SOL     OW25588   4.522   0.587   5.430 -0.0245 -0.7809  0.4984
 4652SOL    HW125589   4.498   0.626   5.346 -2.0856  0.7693  1.8072
 4652SOL    HW225590   4.455   0.521   5.445  0.0981 -1.0097  0.0269
 4653SOL     OW25591   2.110   1.774  12.437 -0.2645  0.1221  0.1048
 4653SOL    HW125592   2.205   1.785  12.445 -0.4041  0.6079  1.1684
 4653SOL    HW225593   2.078   1.724  12.512 -1.0903  2.3212  1.2504
 4654SOL     OW25594   3.221   4.564   7.353  0.2211  1.0293  0.5678
 4654SOL    HW125595   3.225   4.605   7.266 -0.1906 -2.1690 -0.9634
 4654SOL    HW225596   3.315   4.568   7.369  0.1251 -2.1348  1.9043
 4655SOL     OW25597   4.680   0.873   8.554  0.3846  0.5002 -0.0617
 4655SOL    HW125598   4.614   0.854   8.621 -1.8936  2.0721 -1.8141
 4655SOL    HW225599   4.736   0.798   8.536 -0.3478 -0.6193  2.3364
 4656SOL     OW25600   4.214   0.824   6.752 -0.2538 -0.2613 -0.3347
 4656SOL    HW125601   4.287   0.771   6.783  1.2165  2.0055  0.0921
 4656SOL    HW225602   4.262   0.888   6.699 -0.4380 -0.1243 -0.3344
 4657SOL     OW25603   3.184   3.899  12.838 -0.3518  0.2822 -0.1881
 4657SOL    HW125604   3.122   3.863  12.774  0.9502 -3.2298  0.5012
 4657SOL    HW225605   3.178   3.819  12.891 -0.7439  0.2417 -0.2962
 4658SOL     OW25606   0.572   4.422   7.954  0.1749 -0.0710  0.3908
 4658SOL    HW125607   0.658   4.380   7.958  0.3960  0.2891 -0.6017
 4658SOL    HW225608   0.599   4.511   7.973  0.5247 -0.0105 -0.4086
 4659SOL     OW25609   3.729   1.869   6.581 -0.2572 -0.1067  0.0068
 4659SOL    HW125610   3.787   1.879   6.656 -0.0221  2.8140 -0.5713
 4659SOL    HW225611   3.644   1.865   6.624  1.1035 -0.4684  2.6383
 4660SOL     OW25612   4.712   0.495  17.015 -0.4968 -0.4952  0.0981
 4660SOL    HW125613   4.737   0.422  17.072  2.0854 -0.7973 -1.4213
 4660SOL    HW225614   0.030   0.568  17.038 -1.4791  0.0420  0.8011
 4661SOL     OW25615   3.509   3.014   6.375 -0.2282  0.5302 -0.2534
 4661SOL    HW125616   3.427   2.966   6.363  0.6173 -1.5322  2.2361
 4661SOL    HW225617   3.468   3.100   6.384  1.8318  1.4116  0.5936
 4662SOL     OW25618   0.852   0.620   8.536  0.1488 -0.0693 -0.0554
 4662SOL    HW125619   0.861   0.649   8.445  2.0719  1.2075  0.5518
 4662SOL    HW225620   0.911   0.680   8.580 -0.6854 -1.2561  2.6598
 4663SOL     OW25621   2.814   1.323  12.849  0.0754  0.4286  0.3250
 4663SOL    HW125622   2.845   1.270  12.775 -1.8779  0.8265 -0.7807
 4663SOL    HW225623   2.781   1.251  12.903 -0.4938 -0.0011 -0.5938
 4664SOL     OW25624   0.373   3.459   2.612  0.1237 -0.0774  0.3866
 4664SOL    HW125625   0.302   3.511   2.576 -0.1131 -0.4781  0.2738
 4664SOL    HW225626   0.411   3.521   2.674  0.8760 -1.3534  1.2193
 4665SOL     OW25627   3.924   2.650   5.663  0.1817  0.3244 -0.5809
 4665SOL    HW125628   3.889   2.703   5.735 -0.5974 -0.2369 -0.5473
 4665SOL    HW225629   3.969   2.583   5.715 -0.7156  0.2411  0.0878
 4666SOL     OW25630   3.860   4.559   2.815 -0.5581 -0.1453 -0.5468
 4666SOL    HW125631   3.916   4.628   2.777 -0.8102 -0.0236 -0.6965
 4666SOL    HW225632   3.928   4.528   2.875 -2.0201  2.4416  2.4486
 4667SOL     OW25633   3.162   4.093   7.596 -0.8546 -0.3009 -0.1462
 4667SOL    HW125634   3.187   4.126   7.682  0.5829 -0.5198 -0.4826
 4667SOL    HW225635   3.180   4.165   7.535  0.6424  0.3755  1.1142
 4668SOL     OW25636   0.618   4.268   6.622 -0.3235  0.0698  0.1903
 4668SOL    HW125637   0.686   4.232   6.680  0.4326 -0.0785 -0.7928
 4668SOL    HW225638   0.626   4.184   6.576 -0.5003 -0.3729  0.9632
 4669SOL     OW25639   3.630   2.272   5.065  0.1018 -0.1807 -0.4508
 4669SOL    HW125640   3.553   2.216   5.079 -1.4206  1.4737 -2.1790
 4669SOL    HW225641   3.611   2.315   4.981  1.3392  0.7047 -0.2719
 4670SOL     OW25642   2.153   2.363  11.704  0.6532  0.3747 -0.4105
 4670SOL    HW125643   2.078   2.412  11.669 -0.5600 -0.4135  1.1008
 4670SOL    HW225644   2.224   2.415  11.667  0.1976  1.8230  0.7263
 4671SOL     OW25645   3.031   4.698  16.343  0.2239 -0.1634 -0.2006
 4671SOL    HW125646   2.968   4.693  16.271  0.2911 -0.3500 -0.2473
 4671SOL    HW225647   3.038   0.053  16.338 -0.9009 -0.0056  1.0949
 4672SOL     OW25648   2.629   4.429   2.148  0.2799 -0.0118 -0.1851
 4672SOL    HW125649   2.660   4.389   2.067  0.9116  1.6948 -0.8016
 4672SOL    HW225650   2.555   4.372   2.168 -0.8619  1.6194  0.2424
 4673SOL     OW25651   4.485   0.630  15.401 -0.3996 -0.2368 -0.1522
 4673SOL    HW125652   4.476   0.682  15.321  0.0407  0.6662  0.3839
 4673SOL    HW225653   4.569   0.655  15.439 -0.2766  1.5729 -1.6262
 4674SOL     OW25654   1.604   2.267  15.055 -0.0236 -0.1333  0.5374
 4674SOL    HW125655   1.629   2.357  15.077  2.5265 -0.9272  0.8426
 4674SOL    HW225656   1.571   2.265  14.965  3.2891 -3.0246 -0.5674
 4675SOL     OW25657   0.650   2.405   4.405  0.4568 -0.2483  0.3953
 4675SOL    HW125658   0.676   2.336   4.344  0.2690  1.0715 -1.2007
 4675SOL    HW225659   0.637   2.354   4.485 -0.8392 -0.1384  0.2529
 4676SOL     OW25660   3.068   2.089   7.635  0.4082 -0.2622  0.0936
 4676SOL    HW125661   3.053   2.141   7.556 -0.7884 -0.0067  0.4892
 4676SOL    HW225662   3.100   2.004   7.607  1.8153  0.6775 -1.1681
 4677SOL     OW25663   4.012   1.163   3.012  0.2527 -0.4069 -0.1443
 4677SOL    HW125664   4.005   1.227   3.082 -0.0008  0.6446 -1.1197
 4677SOL    HW225665   3.956   1.096   3.052 -0.3092 -0.3416 -0.8131
 4678SOL     OW25666   3.657   2.851  11.785 -0.5830  0.0090 -0.0114
 4678SOL    HW125667   3.706   2.778  11.825 -2.8628 -2.8426 -2.3724
 4678SOL    HW225668   3.686   2.828  11.697 -0.0105 -1.3737  0.5286
 4679SOL     OW25669   1.112   1.088   7.472  0.1846  0.0951  0.0650
 4679SOL    HW125670   1.122   1.139   7.553  1.3592  0.1037 -0.0854
 4679SOL    HW225671   1.040   1.033   7.501  1.3302 -0.9339  0.9530
 4680SOL     OW25672   3.543   2.893  14.615 -0.3287  0.3332 -0.0421
 4680SOL    HW125673   3.558   2.919  14.525 -0.4388 -0.7161 -0.3612
 4680SOL    HW225674   3.620   2.836  14.627 -0.8933  0.0247  2.1059
 4681SOL     OW25675   3.156   2.613   7.629  0.0615  0.3409 -0.1915
 4681SOL    HW125676   3.200   2.696   7.646  1.3630 -0.8073  1.9712
 4681SOL    HW225677   3.227   2.569   7.582 -0.3975  1.5048 -1.9895
 4682SOL     OW25678   4.357   1.999   0.034  0.5869 -0.2870 -0.7532
 4682SOL    HW125679   4.354   1.959   0.121  0.2747 -0.0970 -0.6733
 4682SOL    HW225680   4.326   2.089   0.048  1.3194 -0.2249  0.4248
 4683SOL     OW25681   0.786   3.604   6.474 -0.0733  0.5306 -0.4480
 4683SOL    HW125682   0.787   3.585   6.568  0.7805 -0.1973 -0.6086
 4683SOL    HW225683   0.803   3.695   6.495 -0.0994  0.1027  1.4619
 4684SOL     OW25684   1.438   1.222   1.358 -0.0725  0.1071 -0.1012
 4684SOL    HW125685   1.510   1.179   1.403 -2.1891 -0.3736  2.8315
 4684SOL    HW225686   1.458   1.309   1.393  1.8800 -0.6635  0.7246
 4685SOL     OW25687   1.764   3.127  11.196 -0.0845 -1.0140  0.0924
 4685SOL    HW125688   1.765   3.125  11.292  2.7443  0.8789  0.0653
 4685SOL    HW225689   1.850   3.160  11.173 -0.7681  0.3362 -0.4781
 4686SOL     OW25690   0.484   0.010   3.744  0.8629 -0.1962 -0.0540
 4686SOL    HW125691   0.394   0.042   3.731  0.8162 -0.5739 -0.6820
 4686SOL    HW225692   0.526   0.080   3.793  0.7954 -0.7197  0.7564
 4687SOL     OW25693   4.014   2.958   7.934 -0.5331 -0.2286  0.9232
 4687SOL    HW125694   3.931   2.914   7.949  0.4719 -2.4820 -0.1725
 4687SOL    HW225695   3.975   3.043   7.911  2.6690  0.7446 -0.9668
 4688SOL     OW25696   2.904   4.685  11.387 -0.3630 -0.1739  0.4033
 4688SOL    HW125697   2.851   4.605  11.389 -1.8234  0.7253 -1.4983
 4688SOL    HW225698   2.843   0.013  11.355  1.2314 -0.2752 -2.8693
 4689SOL     OW25699   1.677   3.171   2.304 -0.3094 -0.0278  0.0973
 4689SOL    HW125700   1.678   3.095   2.246 -0.3951 -1.5318  2.0679
 4689SOL    HW225701   1.736   3.125   2.364  0.3475 -1.1481 -1.3934
 4690SOL     OW25702   3.623   3.383   4.467 -0.1512 -0.1639  0.0423
 4690SOL    HW125703   3.577   3.343   4.541  0.8937 -0.8661  0.2975
 4690SOL    HW225704   3.677   3.450   4.508  0.5345  0.6778 -2.2386
 4691SOL     OW25705   4.253   1.828  17.242 -0.4721  0.4137  0.2241
 4691SOL    HW125706   4.284   1.780  17.319 -1.0953  2.2958  1.6717
 4691SOL    HW225707   4.302   1.909  17.256  0.8284 -0.5951  1.4867
 4692SOL     OW25708   1.345   3.629  10.762 -0.2772  0.3575 -0.5493
 4692SOL    HW125709   1.428   3.650  10.804  0.6800  1.8888 -3.2007
 4692SOL    HW225710   1.358   3.544  10.720  0.3809  1.1949 -2.0376
 4693SOL     OW25711   4.072   1.375   2.704 -0.2651 -0.4656 -0.0242
 4693SOL    HW125712   4.108   1.290   2.677  0.3417  0.3688 -1.8053
 4693SOL    HW225713   4.078   1.423   2.622  2.4338 -0.0654  0.4100
 4694SOL     OW25714   0.649   0.732   7.347 -0.0289 -0.2544 -0.2295
 4694SOL    HW125715   0.606   0.681   7.277  0.6545  0.4483 -1.1642
 4694SOL    HW225716   0.655   0.663   7.413  0.3309  1.0099  1.0402
 4695SOL     OW25717   3.115   3.800  17.646 -0.5230 -0.0369  0.2670
 4695SOL    HW125718   3.059   3.876  17.632 -1.0505 -0.3350  0.7447
 4695SOL    HW225719   3.191   3.840  17.605 -0.3589 -0.1067  0.4985
 4696SOL     OW25720   1.197   1.499  11.559 -0.3777 -0.3305  0.5369
 4696SOL    HW125721   1.228   1.474  11.472 -1.4892  1.4888 -0.3857
 4696SOL    HW225722   1.261   1.450  11.611 -0.1576 -0.3175  0.2783
 4697SOL     OW25723   0.666   1.901   3.254 -0.0568  0.4043  0.3308
 4697SOL    HW125724   0.609   1.824   3.254 -1.5891  1.5285  0.6841
 4697SOL    HW225725   0.635   1.950   3.330  1.9575  0.2299  1.2568
 4698SOL     OW25726   2.732   3.171   1.462  0.2183 -0.0823 -0.2841
 4698SOL    HW125727   2.661   3.173   1.397 -0.3094 -0.0975  0.2911
 4698SOL    HW225728   2.696   3.219   1.537  0.9545 -2.1991  1.4081
 4699SOL     OW25729   3.474   4.560  16.703  0.5185 -0.9131 -0.0874
 4699SOL    HW125730   3.546   4.622  16.695 -0.3714  0.0993 -0.2132
 4699SOL    HW225731   3.400   4.597  16.654 -0.5207 -2.3473  0.3927
 4700SOL     OW25732   1.484   3.909   5.599 -0.1745  0.1746 -0.1053
 4700SOL    HW125733   1.506   3.924   5.690  0.4977  1.2635 -0.4431
 4700SOL    HW225734   1.551   3.935   5.536  1.7106 -1.8862  1.0925
 4701SOL     OW25735   2.669   0.561   8.722 -0.6742 -0.3005 -0.4191
 4701SOL    HW125736   2.605   0.514   8.776 -2.2725  0.8319 -1.3230
 4701SOL    HW225737   2.621   0.636   8.687  0.2665  0.5533  0.1261
 4702SOL     OW25738   2.967   4.283   4.883 -0.6575  0.0631 -0.6743
 4702SOL    HW125739   3.035   4.300   4.817 -0.6385  1.2317 -0.3587
 4702SOL    HW225740   2.981   4.196   4.920  1.7487  1.0725  0.7956
 4703SOL     OW25741   1.279   2.937   7.741 -0.2317  0.1255 -0.0740
 4703SOL    HW125742   1.335   2.953   7.817  0.5933 -0.5795 -0.5302
 4703SOL    HW225743   1.340   2.885   7.690  1.5874 -0.1241  2.3391
 4704SOL     OW25744   0.600   3.876   9.874  0.0792  0.3083 -0.2661
 4704SOL    HW125745   0.675   3.887   9.816  1.0969  3.4810  1.6892
 4704SOL    HW225746   0.625   3.919   9.955  0.6287 -3.3060  1.4539
 4705SOL     OW25747   0.736   0.522   9.298  0.4812  0.1520  0.1001
 4705SOL    HW125748   0.796   0.449   9.283  2.5527  1.6081  1.2555
 4705SOL    HW225749   0.691   0.474   9.368 -1.0912 -1.2947 -1.9271
 4706SOL     OW25750   3.081   1.998   4.506  0.1768  0.3255 -0.4254
 4706SOL    HW125751   3.154   1.953   4.464 -0.5600  0.1360 -1.5337
 4706SOL    HW225752   3.117   2.018   4.592  2.9557 -0.1443 -1.4968
 4707SOL     OW25753   3.243   2.423  16.518 -0.0670 -0.2053 -0.6037
 4707SOL    HW125754   3.200   2.338  16.528 -0.6949  0.0809 -0.9281
 4707SOL    HW225755   3.294   2.403  16.440 -0.5086 -1.6322 -0.5322
 4708SOL     OW25756   2.528   1.170   3.652  0.3195 -0.2922 -0.0047
 4708SOL    HW125757   2.508   1.077   3.659  0.2479 -0.3547 -0.9567
 4708SOL    HW225758   2.494   1.196   3.566  1.2893  1.8708  0.2653
 4709SOL     OW25759   0.703   0.660   3.312  1.0745  0.0238 -0.1326
 4709SOL    HW125760   0.623   0.689   3.268  1.4661 -1.3138 -1.7184
 4709SOL    HW225761   0.720   0.577   3.268 -1.1109  0.9915 -2.7870
 4710SOL     OW25762   0.886   2.231   4.228 -0.0026  0.1429  0.1205
 4710SOL    HW125763   0.919   2.151   4.187  2.3886  1.1314  0.1253
 4710SOL    HW225764   0.802   2.198   4.260 -0.1346 -2.1225 -2.4954
 4711SOL     OW25765   3.985   1.337   3.198  0.1228  1.0114  0.4255
 4711SOL    HW125766   4.054   1.403   3.195 -2.0211  3.3263  1.9957
 4711SOL    HW225767   3.909   1.391   3.218 -0.0732  0.4150  1.3414
 4712SOL     OW25768   0.814   0.307   3.403 -0.0766 -0.2981  0.6153
 4712SOL    HW125769   0.839   0.303   3.495  0.5941  2.1640  0.5286
 4712SOL    HW225770   0.721   0.322   3.418 -0.5724 -0.8125 -1.8831
 4713SOL     OW25771   2.796   0.678  15.079 -0.0775  0.3351  0.1412
 4713SOL    HW125772   2.876   0.626  15.077 -0.0489  0.3571  0.5390
 4713SOL    HW225773   2.754   0.633  15.154  0.5854  0.1517  0.4022
 4714SOL     OW25774   1.276   4.515   8.102  0.4011 -0.0848 -0.1053
 4714SOL    HW125775   1.347   4.562   8.147  0.7801  0.1678 -0.9603
 4714SOL    HW225776   1.322   4.444   8.056 -1.1242 -0.3832 -1.1776
 4715SOL     OW25777   4.356   4.726   4.227 -0.6151 -0.1094  0.6490
 4715SOL    HW125778   4.404   4.662   4.279 -0.9995  0.0085  1.1429
 4715SOL    HW225779   4.364   0.061   4.286  1.2896 -1.1098  1.6408
 4716SOL     OW25780   1.546   4.267   8.478  0.5486 -0.3319 -0.0872
 4716SOL    HW125781   1.452   4.271   8.490  1.0241  3.4981  2.0675
 4716SOL    HW225782   1.576   4.357   8.485  1.3877 -0.6526  0.5308
 4717SOL     OW25783   0.880   3.853   4.005  0.5276 -0.0651  0.1302
 4717SOL    HW125784   0.951   3.915   4.024 -0.7180  2.0451 -2.0647
 4717SOL    HW225785   0.803   3.899   4.036  1.6421  1.0999  1.1583
 4718SOL     OW25786   1.463   2.652   6.687  0.4824  0.1700 -0.1478
 4718SOL    HW125787   1.531   2.614   6.744  0.8277  1.7237  0.4860
 4718SOL    HW225788   1.484   2.596   6.612  0.2043  2.1914 -1.7266
 4719SOL     OW25789   2.344   3.979   4.437 -0.4364 -0.2042  0.4483
 4719SOL    HW125790   2.258   4.012   4.461 -0.1819  1.5751 -1.0919
 4719SOL    HW225791   2.373   4.046   4.375  2.5041 -0.2427  1.7787
 4720SOL     OW25792   2.781   0.150   4.045 -0.2119  0.0673 -0.3850
 4720SOL    HW125793   2.787   0.149   3.949  1.6911 -1.0830 -0.2426
 4720SOL    HW225794   2.843   0.079   4.059 -2.0373 -1.3519  0.5439
 4721SOL     OW25795   1.921   3.055   5.245 -0.1427 -0.5427 -0.5835
 4721SOL    HW125796   1.997   3.052   5.303 -0.3397 -1.1985 -0.3615
 4721SOL    HW225797   1.883   3.139   5.270 -2.3482 -1.7729  0.1952
 4722SOL     OW25798   0.874   2.265   7.421  0.6689  0.9480 -0.2304
 4722SOL    HW125799   0.824   2.262   7.503  1.4310  0.3169  0.2142
 4722SOL    HW225800   0.831   2.339   7.377 -1.7968 -0.4084 -0.1309
 4723SOL     OW25801   2.066   3.967   1.326 -0.9730  0.0177  0.1692
 4723SOL    HW125802   2.026   3.980   1.412  0.7389 -1.7570  1.2254
 4723SOL    HW225803   2.095   4.055   1.301 -1.8284  0.3081  0.1781
 4724SOL     OW25804   1.387   3.884  16.531 -0.3283  0.1127  0.1667
 4724SOL    HW125805   1.303   3.841  16.512 -0.6774  1.2120 -0.7898
 4724SOL    HW225806   1.349   3.971  16.543 -0.3775  0.1417 -0.1790
 4725SOL     OW25807   3.401   1.782   3.527  0.2788  0.4251 -0.5272
 4725SOL    HW125808   3.369   1.780   3.617  0.8354 -2.7845 -0.3876
 4725SOL    HW225809   3.475   1.843   3.532  0.1221  0.3770  2.2004
 4726SOL     OW25810   1.758   4.192  12.915  0.3077 -0.2603 -0.0111
 4726SOL    HW125811   1.789   4.234  12.995  1.0217  1.8070 -1.3785
 4726SOL    HW225812   1.695   4.256  12.883 -0.4299 -0.9789  0.0066
 4727SOL     OW25813   3.025   1.426   0.230 -0.1062  0.0741  0.4612
 4727SOL    HW125814   2.948   1.476   0.203  0.1929 -0.4741 -1.3936
 4727SOL    HW225815   3.043   1.371   0.154  1.2030 -1.2850  1.7290
 4728SOL     OW25816   0.207   3.439   9.097  0.0613 -0.7114  0.0584
 4728SOL    HW125817   0.264   3.395   9.160  0.8109 -1.7903 -1.3793
 4728SOL    HW225818   0.246   3.526   9.083 -0.8633  0.0717  2.3862
 4729SOL     OW25819   2.949   2.423   0.155 -0.8819 -0.0289 -0.2271
 4729SOL    HW125820   2.893   2.464   0.221  0.5127  0.0705  0.8958
 4729SOL    HW225821   2.990   2.503   0.122 -0.1050 -1.4940 -2.8315
 4730SOL     OW25822   1.996   4.222   2.202  0.0989 -0.7319  0.1811
 4730SOL    HW125823   2.021   4.249   2.290  1.1870  2.3993 -1.0709
 4730SOL    HW225824   1.916   4.272   2.191 -1.4043 -3.0102  0.6637
 4731SOL     OW25825   4.579   2.679   8.352  0.0564  0.1071  0.3691
 4731SOL    HW125826   4.568   2.761   8.304 -0.4271 -0.5452 -0.6437
 4731SOL    HW225827   4.661   2.696   8.397  0.1736  0.7672 -0.0972
 4732SOL     OW25828   2.604   3.058  16.297  0.1710 -0.1478  0.6662
 4732SOL    HW125829   2.671   3.001  16.336  0.4254 -0.2659  0.0598
 4732SOL    HW225830   2.527   3.004  16.312  0.6362 -1.6247 -2.2395
 4733SOL     OW25831   4.595   4.201  15.240  0.3718  0.7288  0.3088
 4733SOL    HW125832   4.504   4.222  15.264  0.7179  0.7714  1.5793
 4733SOL    HW225833   4.597   4.117  15.194 -0.8855 -0.0946  1.7505
 4734SOL     OW25834   0.808   4.636   4.205 -0.6263  0.2261 -0.3991
 4734SOL    HW125835   0.863   4.630   4.282  0.3089  0.1895 -1.0656
 4734SOL    HW225836   0.722   4.604   4.231  0.2245 -1.5103  0.2544
 4735SOL     OW25837   4.458   1.672   7.129 -0.1878 -0.3235  0.3009
 4735SOL    HW125838   4.410   1.607   7.078  1.1520  0.3284 -1.7570
 4735SOL    HW225839   4.531   1.684   7.069 -0.6545  3.7660  0.5832
 4736SOL     OW25840   2.546   3.734   3.139  0.6331  0.3951  0.1631
 4736SOL    HW125841   2.612   3.678   3.100 -0.7102 -1.4297  0.4992
 4736SOL    HW225842   2.476   3.669   3.150  0.4134  0.5315 -0.4571
 4737SOL     OW25843   4.404   0.793  15.657  0.2118 -0.4624  0.6714
 4737SOL    HW125844   4.353   0.799  15.576  1.2987  1.7784  0.1584
 4737SOL    HW225845   4.384   0.881  15.687 -1.8610 -1.1664  1.3373
 4738SOL     OW25846   2.847   0.715   3.543 -0.5001 -0.2644  0.2930
 4738SOL    HW125847   2.913   0.681   3.482  0.6092 -1.5988  2.2252
 4738SOL    HW225848   2.818   0.786   3.486  0.2210 -0.5370 -0.4086
 4739SOL     OW25849   3.942   2.491   6.340  0.2816  0.2481 -0.8436
 4739SOL    HW125850   4.024   2.541   6.329  1.2759 -1.2570 -0.2014
 4739SOL    HW225851   3.938   2.444   6.256  0.4132 -1.9399  0.3907
 4740SOL     OW25852   0.549   2.968   6.900  0.1300 -0.4453  0.4499
 4740SOL    HW125853   0.526   3.059   6.918  0.5312 -0.2558  0.0272
 4740SOL    HW225854   0.480   2.923   6.948 -0.4497 -0.1922 -0.1424
 4741SOL     OW25855   3.571   1.921   0.696 -0.3921 -1.2191 -0.0891
 4741SOL    HW125856   3.538   1.877   0.774 -0.9471  1.2843  1.0864
 4741SOL    HW225857   3.497   1.914   0.636 -0.2994  0.9078 -0.4426
 4742SOL     OW25858   2.816   0.792  17.287 -0.1047 -0.1071 -0.0981
 4742SOL    HW125859   2.743   0.848  17.316  0.3932  1.8852 -2.6498
 4742SOL    HW225860   2.852   0.780  17.375  0.7077  2.4266 -0.0608
 4743SOL     OW25861   4.259   4.094   8.367  0.2477  0.3773  0.3035
 4743SOL    HW125862   4.301   4.089   8.281 -2.4624  2.0827 -1.1254
 4743SOL    HW225863   4.303   4.031   8.424 -0.6472 -0.3178  0.2164
 4744SOL     OW25864   1.385   3.914  13.179 -0.3602  0.3683  0.0527
 4744SOL    HW125865   1.435   3.908  13.098  0.5574 -0.8991  0.7090
 4744SOL    HW225866   1.297   3.933  13.148  0.3056 -0.0986 -2.1087
 4745SOL     OW25867   2.158   0.734   3.190 -0.6332 -0.5074 -0.6079
 4745SOL    HW125868   2.196   0.647   3.181  1.4505  0.2814  0.6810
 4745SOL    HW225869   2.182   0.761   3.101  2.0145  0.2148  0.3354
 4746SOL     OW25870   0.771   1.854   6.397 -0.2223 -0.4522  0.4457
 4746SOL    HW125871   0.701   1.840   6.333 -0.4428 -0.4851  0.6911
 4746SOL    HW225872   0.735   1.932   6.440 -1.1297 -0.3283 -0.5518
 4747SOL     OW25873   4.264   3.207   5.526  0.4706 -0.0445 -0.9045
 4747SOL    HW125874   4.334   3.265   5.556 -1.1771  0.4074  2.1320
 4747SOL    HW225875   4.191   3.260   5.494  0.1287 -1.6275 -2.7425
 4748SOL     OW25876   2.323   2.482  17.145  0.9810 -0.1203  0.1087
 4748SOL    HW125877   2.234   2.504  17.119  0.7888 -1.3449 -0.2524
 4748SOL    HW225878   2.327   2.466  17.240 -2.2931  2.0082  0.6024
 4749SOL     OW25879   3.742   4.261   8.204  0.7705  0.4992  0.3337
 4749SOL    HW125880   3.707   4.348   8.223 -1.3664 -0.0733 -0.9196
 4749SOL    HW225881   3.676   4.233   8.140  0.8736 -0.8971  0.8530
 4750SOL     OW25882   2.558   3.790   0.896  0.2331  0.0138 -0.0197
 4750SOL    HW125883   2.555   3.859   0.830  0.8655  0.4219  0.3728
 4750SOL    HW225884   2.623   3.728   0.864  1.5655  2.1518 -1.4374
 4751SOL     OW25885   2.795   0.171   3.354  0.1832  0.1532 -0.0650
 4751SOL    HW125886   2.753   0.252   3.325 -0.1318  0.4075  1.1090
 4751SOL    HW225887   2.841   0.196   3.434 -1.2477 -0.5686  0.9964
 4752SOL     OW25888   2.517   2.291   2.911  0.2614  0.0165  0.3351
 4752SOL    HW125889   2.475   2.355   2.854  1.7170  0.1620 -0.5554
 4752SOL    HW225890   2.456   2.218   2.916 -0.7243  0.7609 -0.9985
 4753SOL     OW25891   3.258   2.894   4.024 -0.3858 -0.3943 -0.3185
 4753SOL    HW125892   3.266   2.836   3.949 -1.6126  0.2916 -0.9946
 4753SOL    HW225893   3.204   2.836   4.078  0.2135 -0.8717 -0.2294
 4754SOL     OW25894   4.519   2.476   2.494 -0.1620 -0.1683 -0.1163
 4754SOL    HW125895   4.468   2.484   2.413 -0.0064  1.5565 -0.0437
 4754SOL    HW225896   4.477   2.395   2.521 -2.2993  1.5482  1.6395
 4755SOL     OW25897   1.617   4.479   9.524  0.0580 -0.3360  0.4400
 4755SOL    HW125898   1.555   4.422   9.569  2.0527 -0.3934  3.1617
 4755SOL    HW225899   1.561   4.506   9.452  0.9407  0.0180 -0.1198
 4756SOL     OW25900   1.307   1.522  16.867 -0.2841 -0.1437 -0.2836
 4756SOL    HW125901   1.352   1.536  16.784 -0.4466  0.5369 -0.2552
 4756SOL    HW225902   1.259   1.604  16.866 -1.0197 -0.5961 -1.9665
 4757SOL     OW25903   4.011   1.325   3.890 -0.6183 -0.1477  0.8099
 4757SOL    HW125904   4.082   1.343   3.952  0.5815  0.9400 -0.8791
 4757SOL    HW225905   3.935   1.376   3.917 -0.7495  0.1581 -0.1337
 4758SOL     OW25906   4.346   3.988  14.230 -0.3179 -0.1409 -0.2228
 4758SOL    HW125907   4.255   3.956  14.232 -0.8555  1.4864  1.7913
 4758SOL    HW225908   4.367   3.975  14.138  0.7776  1.0915 -0.1432
 4759SOL     OW25909   3.876   2.114  17.463  0.1828 -0.1738 -0.3967
 4759SOL    HW125910   3.914   2.107  17.375  0.3561 -2.6303 -0.1200
 4759SOL    HW225911   3.917   2.041  17.509 -1.3261 -1.6861 -1.4477
 4760SOL     OW25912   4.068   0.384   3.457 -0.1146  0.1067 -0.0672
 4760SOL    HW125913   4.142   0.412   3.403 -0.4487 -2.7065 -1.9946
 4760SOL    HW225914   4.080   0.290   3.440  1.1341 -0.0315  1.6812
 4761SOL     OW25915   3.440   2.215  16.500  0.7110  0.3328  0.7566
 4761SOL    HW125916   3.355   2.196  16.539 -0.3954  1.4377 -1.1763
 4761SOL    HW225917   3.481   2.254  16.578 -0.5256 -0.2087  1.6785
 4762SOL     OW25918   0.677   2.296   3.877 -0.1114  0.4786 -0.2143
 4762SOL    HW125919   0.583   2.287   3.891  0.0936  0.3574  1.0157
 4762SOL    HW225920   0.665   2.261   3.789  0.4267  1.4471 -0.6831
 4763SOL     OW25921   4.044   0.801   2.552  0.1232 -0.1393  0.0592
 4763SOL    HW125922   3.986   0.724   2.553 -0.1071  0.0329 -0.2971
 4763SOL    HW225923   4.090   0.782   2.634  1.2092 -0.5955 -0.6534
 4764SOL     OW25924   4.352   0.555  13.292  0.2773  0.3307 -0.2967
 4764SOL    HW125925   4.257   0.543  13.292  0.5388 -1.7872 -0.1241
 4764SOL    HW225926   4.374   0.584  13.204  1.3961  2.0807  0.5693
 4765SOL     OW25927   0.095   2.169   4.622 -0.0128 -0.6323 -0.0786
 4765SOL    HW125928   0.141   2.232   4.567 -1.5487  0.9973  0.4794
 4765SOL    HW225929   0.161   2.100   4.622 -0.7376 -1.3242 -0.2002
 4766SOL     OW25930   0.018   0.667   0.073 -0.0997  0.3161  0.1833
 4766SOL    HW125931   0.086   0.669   0.006 -0.4349  1.5375 -0.1281
 4766SOL    HW225932   4.682   0.672   0.014 -0.4631  1.3842  0.7369
 4767SOL     OW25933   3.647   1.701  10.651 -0.0047  0.3526  0.0787
 4767SOL    HW125934   3.568   1.733  10.696 -1.6237 -1.7767 -1.2108
 4767SOL    HW225935   3.692   1.783  10.634 -0.5816  0.0111 -3.1039
 4768SOL     OW25936   2.949   0.877   7.300 -0.1144  0.1193 -0.7739
 4768SOL    HW125937   2.970   0.842   7.387 -1.9204 -1.1780 -0.8680
 4768SOL    HW225938   2.853   0.879   7.297 -0.1400 -0.1682 -0.0798
 4769SOL     OW25939   4.081   0.442   6.592 -0.0338  0.1023 -0.1973
 4769SOL    HW125940   4.060   0.533   6.572 -0.9050 -0.8664 -3.6454
 4769SOL    HW225941   4.044   0.397   6.516 -1.3939  1.6925 -0.4790
 4770SOL     OW25942   1.492   0.709  16.265 -0.1362  0.3037  0.4841
 4770SOL    HW125943   1.422   0.772  16.283 -3.8729 -3.7409  0.1815
 4770SOL    HW225944   1.557   0.771  16.232  2.1605 -1.7127  1.2864
 4771SOL     OW25945   3.207   3.358   6.124  0.0611 -0.0944  0.3504
 4771SOL    HW125946   3.206   3.440   6.173  0.0651  0.0843  0.0578
 4771SOL    HW225947   3.284   3.312   6.157  0.2857 -0.1675 -0.2624
 4772SOL     OW25948   4.664   2.213  17.599  0.0255  0.0918 -0.2879
 4772SOL    HW125949   4.573   2.243  17.599 -0.3970 -1.1868 -1.1882
 4772SOL    HW225950   4.697   2.275  17.664 -0.8548  0.3470 -0.0727
 4773SOL     OW25951   0.452   3.082   9.192 -0.1650 -0.4664  0.1353
 4773SOL    HW125952   0.495   3.100   9.109 -1.7487 -1.6518 -0.9283
 4773SOL    HW225953   0.435   2.989   9.179 -0.6407 -0.6053  1.7137
 4774SOL     OW25954   0.592   0.182   0.369 -0.4057  0.3675  0.6228
 4774SOL    HW125955   0.638   0.212   0.448  0.5814 -2.8374  1.2534
 4774SOL    HW225956   0.640   0.229   0.300 -0.4969 -1.4205 -0.6587
 4775SOL     OW25957   3.798   1.815   0.818 -0.5344 -0.3559  0.0462
 4775SOL    HW125958   3.753   1.785   0.897  1.0302  1.2148  1.4971
 4775SOL    HW225959   3.727   1.852   0.765 -0.4932 -0.3012  0.0296
 4776SOL     OW25960   0.926   1.431  11.869  0.5569  0.5109 -0.3386
 4776SOL    HW125961   0.962   1.499  11.927  0.5444  0.5529 -0.3804
 4776SOL    HW225962   0.842   1.421  11.914  0.7599 -0.2179 -0.1204
 4777SOL     OW25963   2.846   3.939  13.590 -0.3546 -0.1027  0.4978
 4777SOL    HW125964   2.936   3.929  13.559 -0.2070  1.1305  0.5196
 4777SOL    HW225965   2.829   4.033  13.580 -1.9993 -0.6071 -1.4286
 4778SOL     OW25966   4.569   2.794   9.752 -0.4877 -0.0149 -0.1824
 4778SOL    HW125967   4.592   2.880   9.787  2.1283 -0.3219 -1.1609
 4778SOL    HW225968   4.654   2.752   9.744  0.3929  2.2683 -2.9792
 4779SOL     OW25969   0.606   1.603   6.115 -0.5579  0.5265 -0.4106
 4779SOL    HW125970   0.687   1.577   6.159  0.4451  0.6215 -2.1785
 4779SOL    HW225971   0.576   1.679   6.163 -0.8129 -0.2312  0.6262
 4780SOL     OW25972   2.886   4.153   0.416 -0.7907 -0.4750 -0.5346
 4780SOL    HW125973   2.819   4.105   0.368 -1.7397  0.4462 -0.1321
 4780SOL    HW225974   2.840   4.185   0.494  0.6818  1.6750 -0.5638
 4781SOL     OW25975   1.553   0.087  13.194 -0.2145  0.2567 -0.4117
 4781SOL    HW125976   1.465   0.054  13.176 -0.3194 -0.8835  2.1724
 4781SOL    HW225977   1.596   0.059  13.113 -2.8402 -1.4294 -1.2131
 4782SOL     OW25978   4.551   0.532   8.332 -0.3443  0.5277  0.0412
 4782SOL    HW125979   4.489   0.462   8.311 -0.6509  1.4940 -2.2716
 4782SOL    HW225980   4.500   0.585   8.394 -0.4058 -0.2515  0.6584
 4783SOL     OW25981   2.356   4.321  12.124 -0.1535 -0.3206 -0.3868
 4783SOL    HW125982   2.367   4.327  12.029  0.8396 -2.6077 -0.4037
 4783SOL    HW225983   2.301   4.243  12.131 -0.5126 -0.1810 -1.6539
 4784SOL     OW25984   2.303   1.880   4.409 -0.2382 -0.5243 -0.4568
 4784SOL    HW125985   2.289   1.895   4.315  3.3112 -2.9712 -1.3742
 4784SOL    HW225986   2.214   1.893   4.442 -0.0522 -0.7768  0.1449
 4785SOL     OW25987   1.725   1.742   7.588 -0.3341  0.0699  0.3848
 4785SOL    HW125988   1.673   1.780   7.659 -0.2050  2.7057 -0.9234
 4785SOL    HW225989   1.783   1.694   7.648 -1.6101 -1.3827  0.4420
 4786SOL     OW25990   1.738   3.003  15.156  0.0192  0.1774 -0.8756
 4786SOL    HW125991   1.704   2.974  15.241 -2.7159  3.5932 -0.7729
 4786SOL    HW225992   1.827   2.967  15.161 -0.1409 -0.0677  0.3248
 4787SOL     OW25993   1.048   0.473  15.521 -0.1801  0.1055 -0.2875
 4787SOL    HW125994   1.031   0.403  15.458 -0.4525 -1.3299  1.3656
 4787SOL    HW225995   0.966   0.522  15.529  0.5021  0.8330  2.2253
 4788SOL     OW25996   0.260   1.369   7.394 -0.6344  0.2341 -0.7704
 4788SOL    HW125997   0.219   1.295   7.349 -3.2894  0.9700  0.4081
 4788SOL    HW225998   0.252   1.434   7.324  1.3248 -0.8552 -2.0239
 4789SOL     OW25999   3.860   2.738   2.466 -0.2358 -0.2212 -0.1195
 4789SOL    HW126000   3.802   2.761   2.538 -0.8688  2.3273 -1.4752
 4789SOL    HW226001   3.812   2.760   2.387 -0.9899 -0.2618  0.3329
 4790SOL     OW26002   0.040   0.639   1.594  0.6559 -0.6334 -0.3679
 4790SOL    HW126003   4.722   0.610   1.524 -1.3783 -2.3689  2.0173
 4790SOL    HW226004   0.085   0.558   1.619 -2.0880 -1.5560  1.5788
 4791SOL     OW26005   3.571   4.191   8.955 -0.0532 -0.5134  0.2880
 4791SOL    HW126006   3.581   4.104   8.915 -0.1912  0.0380 -0.9646
 4791SOL    HW226007   3.492   4.226   8.913 -0.5114 -1.0575  0.6958
 4792SOL     OW26008   1.528   4.083   4.540 -0.6429 -0.2868  0.2398
 4792SOL    HW126009   1.527   4.025   4.464 -0.6498  0.4408 -0.3242
 4792SOL    HW226010   1.601   4.137   4.508 -1.3170 -0.2054 -1.1588
 4793SOL     OW26011   2.221   3.127   9.078  0.3449  0.1207 -0.5383
 4793SOL    HW126012   2.176   3.058   9.030  0.3670 -0.1575 -0.1551
 4793SOL    HW226013   2.277   3.068   9.128 -1.7171 -1.8512 -0.5820
 4794SOL     OW26014   2.127   1.364   6.185  0.1021  0.2971 -0.0175
 4794SOL    HW126015   2.093   1.388   6.099 -0.5511 -2.1961 -0.4820
 4794SOL    HW226016   2.042   1.346   6.225  0.0964  0.5060  0.0602
 4795SOL     OW26017   3.214   4.369   5.799 -0.0238  0.6658  0.7516
 4795SOL    HW126018   3.210   4.462   5.776  2.5846  0.6502  0.1747
 4795SOL    HW226019   3.187   4.373   5.890 -1.9213  1.4833  0.1517
 4796SOL     OW26020   0.673   0.261   4.855  0.4370 -0.3210  0.2401
 4796SOL    HW126021   0.623   0.210   4.919 -0.1844 -1.9534 -1.5743
 4796SOL    HW226022   0.687   0.194   4.788  0.3335 -1.6100  1.4839
 4797SOL     OW26023   1.322   1.755   8.447 -0.3265  0.3180  0.4554
 4797SOL    HW126024   1.288   1.819   8.510 -0.9629  0.5691 -0.1449
 4797SOL    HW226025   1.404   1.727   8.489 -0.6743  1.3980  1.8722
 4798SOL     OW26026   2.744   2.919   6.079 -0.0709  0.1924 -0.1370
 4798SOL    HW126027   2.775   2.839   6.121  0.8587  0.7646  0.2733
 4798SOL    HW226028   2.758   2.894   5.988 -1.0640 -0.7127 -0.0343
 4799SOL     OW26029   3.168   4.275   6.673  0.3585 -0.1397  0.0690
 4799SOL    HW126030   3.208   4.276   6.586  3.5311  0.0508  1.5329
 4799SOL    HW226031   3.175   4.369   6.687 -0.1967  0.0174 -0.7175
 4800SOL     OW26032   1.368   3.437   1.137  0.7812 -0.2219 -0.3757
 4800SOL    HW126033   1.375   3.346   1.108  0.4567  0.3195 -2.1430
 4800SOL    HW226034   1.433   3.441   1.206  0.6318 -3.1963 -0.0406
 4801SOL     OW26035   2.228   2.017  16.763 -0.0101 -0.0777  0.3350
 4801SOL    HW126036   2.279   2.020  16.682  2.1161 -0.8194  1.6454
 4801SOL    HW226037   2.182   2.100  16.761 -0.5365 -0.4275 -1.5880
 4802SOL     OW26038   4.632   1.729  17.643  0.3426  0.3255  0.2618
 4802SOL    HW126039   4.603   1.646  17.605 -2.5477  0.9142  1.1773
 4802SOL    HW226040   4.583   1.801  17.605 -1.5262 -1.3955 -0.5754
 4803SOL     OW26041   3.204   3.976   8.346 -0.1256 -0.5459 -0.0597
 4803SOL    HW126042   3.262   3.900   8.337 -0.7172 -0.9116 -0.8096
 4803SOL    HW226043   3.137   3.951   8.282 -1.4542 -2.1802  1.9892
 4804SOL     OW26044   1.065   3.540   3.855  0.1206 -0.5910 -0.2526
 4804SOL    HW126045   0.972   3.534   3.879 -0.1718  1.5597 -0.8534
 4804SOL    HW226046   1.066   3.547   3.759  0.7706  0.0168 -0.1984
 4805SOL     OW26047   1.231   3.229  10.170 -0.2891 -0.0564 -0.2564
 4805SOL    HW126048   1.240   3.151  10.114  0.7183 -0.3711  0.3534
 4805SOL    HW226049   1.320   3.258  10.149 -1.0555  3.2924  1.2238
 4806SOL     OW26050   2.266   3.430   7.735  0.0674 -0.1548  0.2562
 4806SOL    HW126051   2.197   3.420   7.801  1.2562 -1.4836  1.3062
 4806SOL    HW226052   2.218   3.380   7.670  0.4889  0.6763 -0.6965
 4807SOL     OW26053   1.506   3.056   8.439 -0.2189  0.0879 -0.6794
 4807SOL    HW126054   1.423   3.061   8.487 -0.4663  1.1078 -1.2339
 4807SOL    HW226055   1.511   3.145   8.406  0.1799  0.8553  1.4595
 4808SOL     OW26056   0.826   3.889  10.063 -0.1748  0.0780  0.0933
 4808SOL    HW126057   0.888   3.822  10.036  1.0698  0.1111  2.8806
 4808SOL    HW226058   0.777   3.838  10.128 -1.0752 -0.0639 -0.7040
 4809SOL     OW26059   4.427   1.355   7.595  0.0300 -0.0577 -0.1215
 4809SOL    HW126060   4.521   1.358   7.612  0.0475  1.8044 -0.5240
 4809SOL    HW226061   4.428   1.427   7.531  0.4789 -2.3924 -2.7567
 4810SOL     OW26062   4.369   3.734   6.636 -0.0032 -0.0597 -0.4933
 4810SOL    HW126063   4.422   3.654   6.633  1.1187  0.5464  2.7544
 4810SOL    HW226064   4.432   3.802   6.660  0.3278 -0.5846  0.1295
 4811SOL     OW26065   2.562   0.819  11.801  0.1794 -0.1409 -0.4838
 4811SOL    HW126066   2.484   0.815  11.856 -0.3988  2.3277 -1.1281
 4811SOL    HW226067   2.634   0.835  11.862 -0.0207  2.3833 -0.9261
 4812SOL     OW26068   0.560   2.190  14.880 -0.0934 -0.4376 -0.2165
 4812SOL    HW126069   0.568   2.134  14.957  0.7485 -0.6131 -0.4238
 4812SOL    HW226070   0.586   2.275  14.914 -1.8835 -0.0145  0.0850
 4813SOL     OW26071   2.097   1.982  10.119 -0.2238 -0.3074 -0.0036
 4813SOL    HW126072   2.003   1.978  10.134  0.0554 -0.7348  1.6292
 4813SOL    HW226073   2.098   2.078  10.116 -0.2577 -0.3340 -0.7235
 4814SOL     OW26074   1.100   1.786   5.247 -0.5229 -0.1355  0.3110
 4814SOL    HW126075   1.030   1.775   5.311 -0.1526 -0.0954  0.7232
 4814SOL    HW226076   1.140   1.868   5.276 -1.9545 -0.3565  2.9243
 4815SOL     OW26077   2.762   3.213  11.304  0.5048  0.2419 -0.0372
 4815SOL    HW126078   2.752   3.247  11.393  2.1946  2.3859 -0.6731
 4815SOL    HW226079   2.842   3.162  11.311 -0.2574 -1.1356 -1.3194
 4816SOL     OW26080   2.466   2.739   2.389  0.5035  0.2541  0.1016
 4816SOL    HW126081   2.454   2.799   2.315  0.1311  0.7500  0.5705
 4816SOL    HW226082   2.377   2.705   2.391 -0.3120  2.3797 -0.3538
 4817SOL     OW26083   2.505   0.421   2.660  0.1934  1.1342 -0.0982
 4817SOL    HW126084   2.416   0.398   2.632  0.5236  0.3939 -0.5239
 4817SOL    HW226085   2.533   0.351   2.719 -0.3889  3.2463  2.7004
 4818SOL     OW26086   3.546   4.162   4.357 -0.1380  0.2266 -0.0655
 4818SOL    HW126087   3.593   4.130   4.280 -0.0912  0.3011 -0.0675
 4818SOL    HW226088   3.459   4.155   4.318 -0.8930  3.6588  1.0446
 4819SOL     OW26089   3.570   2.397  11.700  0.0046 -0.4831  0.3577
 4819SOL    HW126090   3.635   2.401  11.770  0.0199  2.2906  0.1962
 4819SOL    HW226091   3.492   2.402  11.755  1.2956 -1.3597  2.2442
 4820SOL     OW26092   1.746   0.598   6.566 -0.7970  1.1748  0.2058
 4820SOL    HW126093   1.703   0.645   6.637 -0.8184 -0.1081  1.0365
 4820SOL    HW226094   1.835   0.619   6.594  0.2042 -2.8001 -0.0030
 4821SOL     OW26095   2.871   3.794   7.837  0.4521 -0.0542 -0.1014
 4821SOL    HW126096   2.791   3.804   7.887 -1.1332  2.2758 -3.0728
 4821SOL    HW226097   2.932   3.756   7.900 -0.5056  1.9323  1.9917
 4822SOL     OW26098   2.410   1.634   6.940 -0.5290 -0.3525  0.0636
 4822SOL    HW126099   2.450   1.656   6.856  0.2975 -1.5852  0.1341
 4822SOL    HW226100   2.398   1.723   6.972  0.7536 -0.2132  0.1817
 4823SOL     OW26101   1.684   0.402  11.811 -0.1716 -0.2046  0.0378
 4823SOL    HW126102   1.646   0.391  11.899  3.0738  1.4688  1.6638
 4823SOL    HW226103   1.777   0.381  11.824 -0.1145 -0.3225 -0.5697
 4824SOL     OW26104   2.694   2.961  15.087  0.6451 -0.4270 -0.3752
 4824SOL    HW126105   2.672   2.929  15.174 -2.0372  0.0152 -0.8908
 4824SOL    HW226106   2.610   2.992  15.053  1.1565  1.3509 -0.0362
 4825SOL     OW26107   2.086   3.835   1.989  0.0613 -0.6405 -0.4702
 4825SOL    HW126108   2.163   3.828   1.934 -0.3129  2.1117 -1.3676
 4825SOL    HW226109   2.081   3.931   1.991  0.4428 -0.6389  0.3278
 4826SOL     OW26110   0.768   0.722   2.658 -0.0919 -0.0081  0.2935
 4826SOL    HW126111   0.753   0.631   2.633  0.9293  0.3300 -1.5334
 4826SOL    HW226112   0.682   0.753   2.687 -0.3486 -0.0256 -0.4666
 4827SOL     OW26113   3.212   3.959   4.886  0.8687  0.4237  0.2972
 4827SOL    HW126114   3.178   3.967   4.796 -1.4659  0.1549  1.1751
 4827SOL    HW226115   3.137   3.995   4.932  0.8650  0.5635  0.1828
 4828SOL     OW26116   3.769   1.994   0.327  0.1856 -0.2693  0.1436
 4828SOL    HW126117   3.709   2.012   0.255 -0.4435  2.5141  1.3543
 4828SOL    HW226118   3.716   2.016   0.404 -0.0680 -0.1316 -0.0705
 4829SOL     OW26119   1.134   0.052   7.434  0.2212  0.1928 -0.7621
 4829SOL    HW126120   1.049   0.055   7.391 -0.1504 -1.2328 -0.0971
 4829SOL    HW226121   1.192   0.017   7.367 -0.1442 -1.5773 -0.1410
 4830SOL     OW26122   0.851   4.114   9.898 -0.8625  0.7431  0.0135
 4830SOL    HW126123   0.874   4.082   9.986 -0.2822 -1.5137 -0.9476
 4830SOL    HW226124   0.905   4.192   9.903  0.8262 -0.4624  0.6932
 4831SOL     OW26125   3.621   2.633   5.790 -0.1026 -0.3265  0.7753
 4831SOL    HW126126   3.606   2.571   5.719 -3.2697  1.2419  0.0766
 4831SOL    HW226127   3.537   2.626   5.836  0.0632  1.5637  1.3821
 4832SOL     OW26128   3.460   3.034   0.698  0.1869  0.2678  0.2146
 4832SOL    HW126129   3.418   2.949   0.695  3.2268 -1.2884  1.9013
 4832SOL    HW226130   3.520   3.024   0.772 -0.8918 -0.3685  0.9850
 4833SOL     OW26131   0.771   3.717   4.291 -0.1207 -0.3000  0.2203
 4833SOL    HW126132   0.733   3.762   4.215 -0.0095 -0.8683 -0.1732
 4833SOL    HW226133   0.792   3.630   4.255  1.6404 -0.0258  0.5678
 4834SOL     OW26134   3.449   0.118  11.544  0.3208  0.4653  0.6049
 4834SOL    HW126135   3.479   0.169  11.470 -0.5585  1.0290  0.6444
 4834SOL    HW226136   3.476   0.169  11.621 -0.9802  0.5396  1.0207
 4835SOL     OW26137   3.744   3.818   6.434  0.1994  0.0805  0.6023
 4835SOL    HW126138   3.734   3.905   6.473 -0.8654 -0.3279  1.2334
 4835SOL    HW226139   3.769   3.777   6.517  1.3154 -1.5552 -0.5605
 4836SOL     OW26140   4.518   2.090   6.203  0.2464  0.0522 -0.5352
 4836SOL    HW126141   4.503   2.033   6.128 -1.3634  0.6164 -0.6352
 4836SOL    HW226142   4.593   2.143   6.175  1.3996 -1.3766 -0.1490
 4837SOL     OW26143   1.573   0.769  15.865 -0.2356 -0.0598  0.0140
 4837SOL    HW126144   1.581   0.724  15.780  1.9898  0.0582  0.1705
 4837SOL    HW226145   1.627   0.716  15.923  1.4785  2.1991  0.4900
 4838SOL     OW26146   2.286   3.299  11.217 -0.3597  0.3930  0.4427
 4838SOL    HW126147   2.354   3.329  11.276  0.0024 -1.1003  0.7814
 4838SOL    HW226148   2.330   3.256  11.143  1.2204  1.4996  0.7494
 4839SOL     OW26149   2.411   2.452  10.876  0.0097 -0.2923 -0.0373
 4839SOL    HW126150   2.455   2.374  10.909 -0.7233 -0.3997  0.6781
 4839SOL    HW226151   2.478   2.521  10.881  2.5140 -2.7496  0.0908
 4840SOL     OW26152   3.057   2.362   6.758 -0.1303 -0.0140 -0.1490
 4840SOL    HW126153   3.051   2.317   6.674  0.2370 -0.9068  0.2960
 4840SOL    HW226154   3.072   2.450   6.724  1.5939  0.4030  1.6902
 4841SOL     OW26155   0.071   0.474   2.155  0.0023  0.2896 -0.0186
 4841SOL    HW126156   0.056   0.491   2.248 -1.5081  1.6597 -0.5129
 4841SOL    HW226157   4.726   0.444   2.121 -0.4605 -0.3990  1.7500
 4842SOL     OW26158   2.993   4.328   2.209 -0.3988 -0.1963 -0.1145
 4842SOL    HW126159   3.086   4.344   2.192 -0.7161 -0.2402 -1.8735
 4842SOL    HW226160   2.960   4.415   2.231 -1.9993 -1.0776  0.9130
 4843SOL     OW26161   1.008   4.073  10.182 -0.7574 -0.5891  0.7041
 4843SOL    HW126162   0.949   4.001  10.161 -1.0277 -0.6264  1.5645
 4843SOL    HW226163   1.025   4.066  10.276  1.6947 -2.0904  0.1422
 4844SOL     OW26164   1.618   1.644   6.103  0.4016 -0.0886  0.2776
 4844SOL    HW126165   1.686   1.656   6.037 -1.2577 -1.3989 -1.6293
 4844SOL    HW226166   1.640   1.716   6.163 -1.7554  0.8112 -0.0218
 4845SOL     OW26167   1.016   4.725   7.688 -0.4045 -0.3813 -0.5120
 4845SOL    HW126168   1.080   4.672   7.736 -0.6761 -1.6042 -1.5067
 4845SOL    HW226169   1.062   4.722   7.604  0.4515  1.9379 -0.1365
 4846SOL     OW26170   2.525   1.819   1.050  0.1418  0.4833  0.2378
 4846SOL    HW126171   2.552   1.910   1.065  0.8881  0.3019 -0.0324
 4846SOL    HW226172   2.439   1.829   1.010  1.2716  1.5765 -1.9091
 4847SOL     OW26173   0.024   4.521   9.760  0.1867 -0.0855 -0.1386
 4847SOL    HW126174   0.110   4.504   9.724  1.6646  0.7320  2.9375
 4847SOL    HW226175   0.043   4.498   9.851 -1.1792  1.8419  0.6491
 4848SOL     OW26176   2.628   0.614  14.892 -0.1251 -0.1735  0.5932
 4848SOL    HW126177   2.686   0.658  14.954 -1.0023  1.0722  0.5411
 4848SOL    HW226178   2.673   0.629  14.809 -0.1751 -1.9215  0.2577
 4849SOL     OW26179   0.215   2.331   8.185 -0.4916 -0.0993  0.4704
 4849SOL    HW126180   0.153   2.332   8.111 -0.4600  0.4798  0.4521
 4849SOL    HW226181   0.294   2.366   8.143 -0.3614  0.1766  0.9460
 4850SOL     OW26182   4.090   1.174   8.023 -0.3795 -0.3724 -0.3651
 4850SOL    HW126183   4.091   1.260   8.065 -0.7390 -0.8025  0.5068
 4850SOL    HW226184   4.015   1.189   7.965 -1.5499 -0.3100  1.1804
 4851SOL     OW26185   2.737   1.308   4.106  0.4549  0.0934 -0.0256
 4851SOL    HW126186   2.681   1.314   4.028 -0.4863  0.9083  0.7208
 4851SOL    HW226187   2.667   1.291   4.169  0.9312 -0.3152  0.3887
 4852SOL     OW26188   1.364   3.213  12.452  0.0797  0.4004 -0.4922
 4852SOL    HW126189   1.383   3.120  12.448  1.1220  0.6105 -0.5917
 4852SOL    HW226190   1.277   3.216  12.491  0.9657 -0.2147  1.5707
 4853SOL     OW26191   4.016   4.230  10.891 -0.3474 -0.2794 -0.7506
 4853SOL    HW126192   4.040   4.313  10.850  0.1775  0.8474  1.8419
 4853SOL    HW226193   4.060   4.238  10.976 -1.8242 -0.8032  0.0645
 4854SOL     OW26194   2.523   4.614   2.726 -0.2149 -0.2590  0.2038
 4854SOL    HW126195   2.596   4.654   2.774 -0.1668 -0.4059  0.2548
 4854SOL    HW226196   2.525   4.525   2.761 -0.5634 -0.2035  0.3574
 4855SOL     OW26197   0.633   0.375   4.161 -0.1555  0.2464 -0.0261
 4855SOL    HW126198   0.684   0.431   4.103  1.1406 -0.1760  0.6954
 4855SOL    HW226199   0.547   0.365   4.121 -0.0355 -1.7882  0.2266
 4856SOL     OW26200   1.603   3.222  10.383  0.0644 -0.0180  0.6307
 4856SOL    HW126201   1.587   3.161  10.311 -1.6268 -0.2007  1.1838
 4856SOL    HW226202   1.634   3.158  10.447  1.0480 -0.3289 -0.1610
 4857SOL     OW26203   3.952   2.032   3.421 -0.3241  0.4494 -0.5165
 4857SOL    HW126204   4.043   2.039   3.450 -0.6495  0.0951  0.5763
 4857SOL    HW226205   3.955   1.938   3.405  0.0864  0.6542 -1.6281
 4858SOL     OW26206   3.871   1.369   6.905 -0.0733  0.2090 -0.5231
 4858SOL    HW126207   3.949   1.424   6.907 -0.6753  1.0383  0.1066
 4858SOL    HW226208   3.887   1.304   6.973  0.5145 -0.7098 -1.5419
 4859SOL     OW26209   1.773   3.743   6.501 -1.0232  0.3917  0.3235
 4859SOL    HW126210   1.690   3.755   6.548 -1.3217 -2.2553  0.4543
 4859SOL    HW226211   1.782   3.649   6.515  0.8839  0.8463  2.1502
 4860SOL     OW26212   3.845   2.990   5.538  0.3939 -0.2986 -0.0786
 4860SOL    HW126213   3.908   3.047   5.581  0.5999  0.8733 -1.9454
 4860SOL    HW226214   3.807   2.944   5.613 -0.7299 -1.9187 -1.6229
 4861SOL     OW26215   0.923   1.176   4.346  0.1560 -0.1311 -0.4232
 4861SOL    HW126216   0.991   1.149   4.285  1.6524  2.0500  0.2585
 4861SOL    HW226217   0.860   1.106   4.329 -0.5511 -0.0856  2.0181
 4862SOL     OW26218   4.467   0.019   3.669  0.1379  0.1236 -0.7267
 4862SOL    HW126219   4.454   4.678   3.620  2.1102 -0.4176 -0.3250
 4862SOL    HW226220   4.426   4.735   3.752  1.4952  2.0323  0.4897
 4863SOL     OW26221   4.039   1.144   7.280  0.4977 -0.2998  0.4437
 4863SOL    HW126222   3.990   1.144   7.198  2.6064 -1.1987 -0.8352
 4863SOL    HW226223   4.001   1.223   7.318 -2.9240 -0.2802 -3.0949
 4864SOL     OW26224   0.668   3.752   6.741  0.0923  0.5361 -0.5383
 4864SOL    HW126225   0.686   3.658   6.744 -1.2722  0.2316 -1.7153
 4864SOL    HW226226   0.732   3.796   6.795 -0.8549  1.1161  0.0997
 4865SOL     OW26227   1.898   1.556   4.391 -0.3311  0.4822 -0.2103
 4865SOL    HW126228   1.942   1.589   4.312 -0.8841  0.9997 -0.2966
 4865SOL    HW226229   1.956   1.586   4.461 -1.7360 -0.9375  1.5495
 4866SOL     OW26230   3.993   2.927   8.896 -0.1732 -0.0394  0.5373
 4866SOL    HW126231   3.953   2.983   8.962 -2.1241  0.1727 -0.8172
 4866SOL    HW226232   3.920   2.866   8.906 -1.8437  1.6440 -1.0862
 4867SOL     OW26233   2.908   3.694   7.595 -0.0324  0.1014 -0.1606
 4867SOL    HW126234   2.911   3.729   7.684  1.0776  3.7691 -1.6391
 4867SOL    HW226235   2.815   3.711   7.575 -0.6699 -1.3867  1.5610
 4868SOL     OW26236   3.145   4.721   0.043  0.5033 -0.3605  0.0862
 4868SOL    HW126237   3.182   4.648   0.093  2.4184  0.4159 -0.2123
 4868SOL    HW226238   3.108   0.039   0.110  0.8375  0.2504 -0.2567
 4869SOL     OW26239   0.055   1.312  17.126 -0.0956 -0.5150 -0.0003
 4869SOL    HW126240   0.009   1.298  17.043 -0.3831  4.0884 -0.6286
 4869SOL    HW226241   0.142   1.303  17.089 -0.0551  1.7869 -0.4627
 4870SOL     OW26242   3.870   3.596   9.187 -0.2364 -0.0993  0.1915
 4870SOL    HW126243   3.844   3.642   9.266  0.8556 -0.5210  0.7935
 4870SOL    HW226244   3.796   3.538   9.168 -0.7116  0.9718 -1.2062
 4871SOL     OW26245   1.582   0.308   3.855 -0.5312 -0.2133  1.0755
 4871SOL    HW126246   1.633   0.381   3.889  0.7140  0.4118 -2.1402
 4871SOL    HW226247   1.558   0.263   3.936 -0.0437 -0.8080  0.8903
 4872SOL     OW26248   1.776   0.933   7.890 -0.0471  0.3294 -0.0952
 4872SOL    HW126249   1.726   0.875   7.947  0.0589 -0.2661 -0.5963
 4872SOL    HW226250   1.852   0.952   7.945  0.1073  0.6844 -0.4337
 4873SOL     OW26251   2.387   3.542  16.249  0.3562  0.4927  0.5076
 4873SOL    HW126252   2.345   3.590  16.319 -1.4560 -2.2371  1.3245
 4873SOL    HW226253   2.320   3.487  16.206 -2.0846  1.9206  2.5155
 4874SOL     OW26254   3.690   2.105   3.520 -0.8437 -0.0038  0.3760
 4874SOL    HW126255   3.765   2.157   3.492 -0.9389 -1.1885 -2.0693
 4874SOL    HW226256   3.683   2.049   3.443  2.7760  0.5324 -0.3212
 4875SOL     OW26257   0.874   1.684  16.019  0.1366  0.3375 -0.1954
 4875SOL    HW126258   0.916   1.730  15.946  2.8348 -2.0531 -0.1531
 4875SOL    HW226259   0.783   1.714  16.016  0.3449  0.9984  0.1267
 4876SOL     OW26260   3.056   1.385   9.593 -0.0782 -0.1190  0.3127
 4876SOL    HW126261   3.009   1.445   9.651  1.9545  1.2571  0.5432
 4876SOL    HW226262   2.999   1.308   9.593  2.3583 -1.9163 -0.0213
 4877SOL     OW26263   0.383   2.587   1.983 -0.2140  0.0299 -0.5783
 4877SOL    HW126264   0.475   2.587   1.955  0.0172 -0.1420  0.1854
 4877SOL    HW226265   0.337   2.520   1.933  1.4826  0.6694 -3.0134
 4878SOL     OW26266   3.749   2.968   2.954 -0.2601  0.1111 -0.1417
 4878SOL    HW126267   3.691   2.993   3.027  0.6375 -0.3114  0.7134
 4878SOL    HW226268   3.728   2.875   2.946 -1.5923  0.4116 -0.1493
 4879SOL     OW26269   3.607   0.917   4.533 -0.7114 -0.3722 -0.2203
 4879SOL    HW126270   3.594   0.982   4.465  2.9797 -0.1170 -0.6770
 4879SOL    HW226271   3.665   0.971   4.586  1.2420 -3.1488  0.4518
 4880SOL     OW26272   2.299   4.179   2.922  0.1455  0.6338  0.1103
 4880SOL    HW126273   2.359   4.161   2.995  1.3664  1.2860 -0.7486
 4880SOL    HW226274   2.361   4.180   2.850 -1.0077  2.4316 -0.8500
 4881SOL     OW26275   1.419   0.999  17.317 -0.1577  0.0809  0.3382
 4881SOL    HW126276   1.425   0.918  17.267 -0.8114 -0.3429  0.9548
 4881SOL    HW226277   1.508   1.033  17.310 -0.1407 -0.0647 -0.1449
 4882SOL     OW26278   1.642   2.935   9.183  0.0468 -0.9762  0.2955
 4882SOL    HW126279   1.653   3.011   9.126 -0.6780 -0.5403  0.7479
 4882SOL    HW226280   1.704   2.962   9.250 -0.2695 -1.2231  0.6869
 4883SOL     OW26281   3.894   3.709  12.458  0.0764 -0.1733  0.2480
 4883SOL    HW126282   3.878   3.746  12.372 -0.5629 -2.1141 -0.4620
 4883SOL    HW226283   3.973   3.758  12.484 -0.3123  0.8070 -0.4395
 4884SOL     OW26284   1.743   0.635  16.050 -0.0874  0.3903 -0.0130
 4884SOL    HW126285   1.732   0.540  16.043 -0.4788  0.4968 -0.8632
 4884SOL    HW226286   1.826   0.645  16.004  0.7571  0.1656  1.4990
 4885SOL     OW26287   1.426   1.626   6.458  0.0278 -0.0129  0.2496
 4885SOL    HW126288   1.516   1.639   6.488  0.9406  0.5961 -2.7093
 4885SOL    HW226289   1.376   1.678   6.522  1.6762 -0.6200  2.0226
 4886SOL     OW26290   4.138   0.586   4.039  0.0191 -0.1003 -0.3183
 4886SOL    HW126291   4.059   0.537   4.017  0.1406 -0.5696  0.2711
 4886SOL    HW226292   4.195   0.511   4.056 -1.9659 -1.7486 -0.9971
 4887SOL     OW26293   4.601   0.823   3.668 -0.4025  0.0307  0.0462
 4887SOL    HW126294   4.595   0.888   3.598 -0.1773 -0.2197 -0.2035
 4887SOL    HW226295   4.678   0.851   3.717  0.1264  0.8754 -1.2702
 4888SOL     OW26296   1.339   0.553   7.134  0.0375  0.4008  0.0572
 4888SOL    HW126297   1.377   0.472   7.168 -1.6617 -0.3115  0.2625
 4888SOL    HW226298   1.402   0.577   7.066  0.7223  0.2489  0.6425
 4889SOL     OW26299   1.239   4.299   4.533  0.7522  0.3717  0.1935
 4889SOL    HW126300   1.231   4.225   4.594  0.1377  0.2317 -0.0555
 4889SOL    HW226301   1.152   4.339   4.530 -0.0486 -1.4038 -0.5333
 4890SOL     OW26302   4.122   0.918  14.860  0.4069 -0.4543  0.1003
 4890SOL    HW126303   4.158   0.832  14.881  1.1431 -0.4524 -1.1532
 4890SOL    HW226304   4.047   0.895  14.806  1.2046 -0.6605 -0.9208
 4891SOL     OW26305   3.483   2.762  14.065  0.0244  0.0748  0.4359
 4891SOL    HW126306   3.531   2.679  14.062 -0.7306 -0.3823  1.1311
 4891SOL    HW226307   3.394   2.727  14.061 -0.2574  0.7784  0.7398
 4892SOL     OW26308   2.904   3.969   5.664  0.0218  0.3246 -0.1139
 4892SOL    HW126309   2.947   4.054   5.657  0.5591  0.0006 -0.6546
 4892SOL    HW226310   2.976   3.927   5.618 -0.2565 -1.4197  1.0891
 4893SOL     OW26311   3.601   1.655   5.454  0.3460 -0.3371 -0.1295
 4893SOL    HW126312   3.648   1.680   5.374 -0.0442  2.6011  0.5757
 4893SOL    HW226313   3.562   1.577   5.414  1.4412 -0.8685 -0.1879
 4894SOL     OW26314   0.103   1.832   8.706 -0.8482  0.1023  0.6577
 4894SOL    HW126315   0.025   1.791   8.670  0.6259  0.1440 -2.6124
 4894SOL    HW226316   0.103   1.806   8.798 -0.3499 -1.1320  0.3183
 4895SOL     OW26317   1.002   2.708   7.682 -1.0032 -0.2223  1.0178
 4895SOL    HW126318   1.035   2.723   7.770  1.9450 -0.0369 -0.1319
 4895SOL    HW226319   0.992   2.613   7.674 -0.2583 -0.1793 -0.5340
 4896SOL     OW26320   0.448   1.088   8.562  0.3600  0.4425 -0.0813
 4896SOL    HW126321   0.490   1.014   8.517 -2.2295 -1.4872  0.6869
 4896SOL    HW226322   0.363   1.050   8.582  1.9867 -2.3202  1.7162
 4897SOL     OW26323   2.574   3.345   8.961  0.3577 -0.2075  0.4178
 4897SOL    HW126324   2.528   3.264   8.938  0.9900 -0.0522 -1.4136
 4897SOL    HW226325   2.507   3.410   8.939 -0.5642 -0.4749  2.3721
 4898SOL     OW26326   3.815   3.870   4.382  0.3314 -0.0258 -0.3942
 4898SOL    HW126327   3.784   3.784   4.353 -0.6279 -0.2867  1.4599
 4898SOL    HW226328   3.777   3.920   4.309  0.7548 -0.2990 -0.8025
 4899SOL     OW26329   2.719   0.915   8.182 -0.7354  0.8701  0.1327
 4899SOL    HW126330   2.679   0.829   8.195 -0.3024  0.3023 -2.1545
 4899SOL    HW226331   2.645   0.967   8.151 -1.3355  1.0769  1.9364
 4900SOL     OW26332   1.111   3.913   8.921  0.5314 -0.1825 -0.7680
 4900SOL    HW126333   1.101   4.008   8.926 -1.9445 -0.3993 -1.7750
 4900SOL    HW226334   1.174   3.907   8.849  2.7933 -0.5377  1.2239
 4901SOL     OW26335   3.623   2.411   4.851 -0.6618  0.3117 -0.0945
 4901SOL    HW126336   3.575   2.455   4.780  1.5539 -0.5598 -2.1090
 4901SOL    HW226337   3.695   2.474   4.848  0.6257 -0.9536  4.1019
 4902SOL     OW26338   1.764   2.850   5.721  0.2711  0.3724  0.0300
 4902SOL    HW126339   1.756   2.757   5.700 -1.7305  0.5744 -0.1113
 4902SOL    HW226340   1.669   2.866   5.720  0.3962  1.1314  1.3360
 4903SOL     OW26341   3.717   2.467   8.485  0.1180 -0.7259 -0.3216
 4903SOL    HW126342   3.811   2.458   8.467  0.2203  2.5070 -1.3608
 4903SOL    HW226343   3.712   2.491   8.578  0.3814  0.1089 -0.5212
 4904SOL     OW26344   3.272   0.673  17.527 -0.1119 -0.0340 -0.6284
 4904SOL    HW126345   3.305   0.631  17.606  0.7292 -0.5101 -1.2353
 4904SOL    HW226346   3.329   0.749  17.512  2.2679 -1.1869  2.8163
 4905SOL     OW26347   2.507   3.640   1.260 -0.2394  0.0315  0.6593
 4905SOL    HW126348   2.526   3.581   1.333  0.0441 -0.7762 -0.0540
 4905SOL    HW226349   2.593   3.681   1.254  0.0617 -1.0425 -2.5145
 4906SOL     OW26350   0.888   1.440  12.867 -0.5353  0.7061 -0.5626
 4906SOL    HW126351   0.969   1.471  12.826 -0.3528 -2.9299 -2.9285
 4906SOL    HW226352   0.890   1.470  12.958 -0.2604 -2.4155  0.4520
 4907SOL     OW26353   0.189   1.742  15.467 -0.5449  0.5760 -0.7286
 4907SOL    HW126354   0.243   1.739  15.545  0.3884  2.3509 -1.3069
 4907SOL    HW226355   0.206   1.653  15.438  1.7640  1.7711 -3.0296
 4908SOL     OW26356   3.110   2.690  10.325 -0.2688 -0.4979  0.1916
 4908SOL    HW126357   3.094   2.603  10.286  1.0255 -0.4281 -0.4909
 4908SOL    HW226358   3.186   2.732  10.285 -2.1154  0.8368 -1.9086
 4909SOL     OW26359   2.666   4.026   4.017 -0.0410  0.5647  0.0924
 4909SOL    HW126360   2.604   3.954   4.027  0.0967  0.4668  0.2463
 4909SOL    HW226361   2.694   4.016   3.926 -1.7137 -0.3171 -0.3308
 4910SOL     OW26362   1.489   2.256   3.142  0.8300 -0.0830 -0.5038
 4910SOL    HW126363   1.508   2.179   3.197  1.7409 -0.3795 -1.2481
 4910SOL    HW226364   1.565   2.267   3.086  0.4300  1.1959 -0.7821
 4911SOL     OW26365   2.660   3.201  10.816 -0.1645 -0.6113  0.4026
 4911SOL    HW126366   2.715   3.141  10.867  2.1249  1.9375  0.8870
 4911SOL    HW226367   2.598   3.225  10.884 -2.1049 -1.4593 -1.0487
 4912SOL     OW26368   3.684   3.922   1.893 -0.4557  0.0956 -0.1772
 4912SOL    HW126369   3.700   3.877   1.976  1.4644 -1.7168 -1.5328
 4912SOL    HW226370   3.605   3.877   1.864 -0.5609  0.2238 -0.0897
 4913SOL     OW26371   3.744   3.970   7.250 -0.3233 -0.3727  1.0612
 4913SOL    HW126372   3.773   4.053   7.289  1.7391 -0.2692 -0.6238
 4913SOL    HW226373   3.803   3.969   7.174 -3.8723  0.6616 -1.6685
 4914SOL     OW26374   1.005   2.672   7.363  0.4069  0.2828 -0.7050
 4914SOL    HW126375   1.013   2.675   7.459  0.3577  0.3169 -0.7019
 4914SOL    HW226376   1.085   2.636   7.327  1.4945  0.5159  1.4744
 4915SOL     OW26377   1.811   1.321   1.796 -0.3939 -0.0596 -0.1223
 4915SOL    HW126378   1.842   1.348   1.883 -0.0823  1.5084 -0.7296
 4915SOL    HW226379   1.855   1.391   1.747 -0.9989 -0.1591 -0.8017
 4916SOL     OW26380   1.774   3.202   2.859 -0.3683 -0.7961  0.4203
 4916SOL    HW126381   1.699   3.143   2.857 -1.7753  0.9783  1.3172
 4916SOL    HW226382   1.746   3.244   2.940  0.0825  1.2795 -0.5133
 4917SOL     OW26383   0.218   0.697   8.094 -0.5121 -0.4756  0.7356
 4917SOL    HW126384   0.221   0.611   8.134 -0.0703 -1.3574 -1.2088
 4917SOL    HW226385   0.126   0.714   8.113 -1.2657 -1.3656 -2.2374
 4918SOL     OW26386   0.376   4.294   0.498 -0.1931 -0.3488  0.1858
 4918SOL    HW126387   0.402   4.242   0.422 -0.1104  2.8117 -1.9423
 4918SOL    HW226388   0.385   4.386   0.473 -0.2224 -0.5260 -0.4833
 4919SOL     OW26389   4.258   0.212   7.962  0.2993 -0.0777 -0.0539
 4919SOL    HW126390   4.186   0.255   7.916 -0.2314 -0.4170  0.4588
 4919SOL    HW226391   4.263   0.127   7.918 -2.4802 -0.2348 -0.0521
 4920SOL     OW26392   3.673   1.256   3.354  0.5347  0.1237  0.4142
 4920SOL    HW126393   3.692   1.321   3.422  0.7605  0.2829  0.1966
 4920SOL    HW226394   3.748   1.197   3.364 -0.3111 -0.5802  2.7492
 4921SOL     OW26395   1.006   3.212   5.378  0.3341 -0.2700 -0.0970
 4921SOL    HW126396   0.977   3.259   5.457 -1.2283  0.2015 -0.9537
 4921SOL    HW226397   1.098   3.187   5.390  0.8784  1.3383 -1.0118
 4922SOL     OW26398   0.515   2.713  10.439  0.3441  0.6308  0.7169
 4922SOL    HW126399   0.538   2.634  10.486  2.7586 -0.0602 -1.5968
 4922SOL    HW226400   0.540   2.787  10.494  0.0245  1.0510  0.3044
 4923SOL     OW26401   3.591   3.028   2.666  0.1857  0.0791  0.0979
 4923SOL    HW126402   3.633   2.943   2.656 -0.3925 -0.2043  0.0607
 4923SOL    HW226403   3.568   3.052   2.576  0.7799 -2.3534 -0.6992
 4924SOL     OW26404   4.517   1.845   4.446  0.2649 -0.4177  0.1066
 4924SOL    HW126405   4.500   1.830   4.353  0.7004 -0.5808  0.0522
 4924SOL    HW226406   4.434   1.859   4.491 -0.2771  1.5663 -1.5097
 4925SOL     OW26407   4.598   3.927   7.365  0.1459  0.0755 -0.1985
 4925SOL    HW126408   4.672   3.866   7.358  0.6524  0.4482  1.9907
 4925SOL    HW226409   4.576   3.925   7.458 -2.7487  3.6551 -0.8116
 4926SOL     OW26410   0.795   4.636   0.881 -0.0288  0.0273  0.4431
 4926SOL    HW126411   0.853   4.586   0.938  0.9947  0.3828 -0.2947
 4926SOL    HW226412   0.734   4.667   0.948 -2.1925  1.5420 -2.1818
 4927SOL     OW26413   2.826   3.702  13.420  0.0871  0.0625  0.4358
 4927SOL    HW126414   2.752   3.699  13.360  2.1954 -1.6601 -2.1141
 4927SOL    HW226415   2.804   3.768  13.486 -0.0175  1.7171 -1.2686
 4928SOL     OW26416   0.711   0.396   6.086  0.0898  0.0776  0.5324
 4928SOL    HW126417   0.690   0.489   6.085  1.4878  0.3923  0.6230
 4928SOL    HW226418   0.719   0.368   5.995  0.3307 -2.3667  1.2998
 4929SOL     OW26419   0.278   2.558  13.588 -0.4362 -0.5096  0.2932
 4929SOL    HW126420   0.357   2.506  13.605 -0.4366 -0.2504  1.0955
 4929SOL    HW226421   0.249   2.584  13.676 -0.9860 -1.3472  0.3692
 4930SOL     OW26422   3.129   0.492   1.719  0.1927  0.1779 -0.1116
 4930SOL    HW126423   3.148   0.451   1.803  0.6835  1.6032  0.4716
 4930SOL    HW226424   3.213   0.524   1.689 -0.0344 -0.6494 -1.6321
 4931SOL     OW26425   2.533   1.720   4.741  0.5038 -0.0577 -0.6189
 4931SOL    HW126426   2.594   1.752   4.675 -0.2882  0.5038 -1.0839
 4931SOL    HW226427   2.467   1.790   4.741  1.1616  0.5487  0.8831
 4932SOL     OW26428   4.435   3.161  12.777 -0.1306 -0.1512 -0.2255
 4932SOL    HW126429   4.526   3.192  12.774  0.9317 -3.3620 -0.8594
 4932SOL    HW226430   4.440   3.087  12.716 -0.4700 -0.4758  0.1417
 4933SOL     OW26431   3.349   3.703  16.906  0.5710 -0.1382 -0.3000
 4933SOL    HW126432   3.384   3.616  16.925  1.8947  0.0648 -1.8201
 4933SOL    HW226433   3.435   3.743  16.897  0.6021  0.2309  1.5467
 4934SOL     OW26434   1.780   0.837   3.092 -0.6397 -0.5725 -0.1577
 4934SOL    HW126435   1.802   0.786   3.170  1.5787 -0.8623 -0.9758
 4934SOL    HW226436   1.835   0.912   3.114  0.8976 -2.2177  1.6499
 4935SOL     OW26437   0.266   1.537   7.164 -0.0429 -0.0878  0.2752
 4935SOL    HW126438   0.252   1.474   7.093 -0.9450  2.1160 -1.5144
 4935SOL    HW226439   0.231   1.617   7.123  0.2332  0.2806  0.7560
 4936SOL     OW26440   2.985   2.563   7.416  0.5717 -0.2187 -0.0264
 4936SOL    HW126441   3.072   2.568   7.376 -0.2314  0.9670 -1.6227
 4936SOL    HW226442   3.007   2.589   7.505 -1.5553  0.7487  0.2234
 4937SOL     OW26443   1.487   0.328   6.594 -0.3305  0.0236 -0.4511
 4937SOL    HW126444   1.520   0.368   6.513  2.8737  0.6899  1.1884
 4937SOL    HW226445   1.430   0.401   6.616  1.4958  1.5012 -0.6487
 4938SOL     OW26446   1.248   1.847   5.663  0.2392 -0.5416 -0.1615
 4938SOL    HW126447   1.192   1.770   5.660 -1.1169  0.3650  2.2453
 4938SOL    HW226448   1.214   1.905   5.594 -0.4892 -0.8069 -0.0219
 4939SOL     OW26449   0.784   1.933   2.941 -0.2231 -0.0681 -0.4223
 4939SOL    HW126450   0.809   1.959   3.029 -1.2495 -2.9564  0.6847
 4939SOL    HW226451   0.689   1.930   2.937 -0.1769 -1.3018 -0.7571
 4940SOL     OW26452   0.461   3.228   8.434 -0.1741 -0.1603  0.0262
 4940SOL    HW126453   0.397   3.182   8.379  1.6174 -1.2666 -1.1229
 4940SOL    HW226454   0.466   3.314   8.392  1.0452 -0.3190 -0.1579
 4941SOL     OW26455   1.470   1.166  17.729 -0.3815  0.6314  0.9269
 4941SOL    HW126456   1.382   1.167   0.011 -0.2751  0.2344  1.1845
 4941SOL    HW226457   1.465   1.252  17.686 -0.4242 -0.3085 -0.9554
 4942SOL     OW26458   4.184   0.957  16.343 -0.6047  0.1664  0.3408
 4942SOL    HW126459   4.271   0.944  16.380  0.0626 -0.1670 -1.3450
 4942SOL    HW226460   4.197   0.929  16.253 -1.0909  2.1119 -0.3286
 4943SOL     OW26461   2.980   3.743   4.746 -0.2781 -0.0242  0.2113
 4943SOL    HW126462   2.913   3.811   4.752  0.7492  0.9670  0.4164
 4943SOL    HW226463   2.958   3.675   4.810 -1.3335 -0.1396 -0.2697
 4944SOL     OW26464   3.731   3.609   2.361 -0.1792 -0.6081 -0.6427
 4944SOL    HW126465   3.688   3.606   2.446 -2.6479 -1.3593 -1.9117
 4944SOL    HW226466   3.822   3.586   2.379 -0.1638 -0.5236 -0.6134
 4945SOL     OW26467   4.714   4.725   5.091 -0.1016  0.0192  0.2469
 4945SOL    HW126468   0.006   4.665   5.024 -1.4667 -0.1594 -0.2354
 4945SOL    HW226469   4.635   0.019   5.048 -0.0178 -0.0810  0.0173
 4946SOL     OW26470   1.866   0.747   9.478  0.6770  0.2780  0.0438
 4946SOL    HW126471   1.854   0.793   9.396  0.8275  0.2452  0.0032
 4946SOL    HW226472   1.932   0.803   9.520  1.5676 -2.4424  2.2565
 4947SOL     OW26473   4.270   3.568  11.422 -0.6342  0.6844 -0.0453
 4947SOL    HW126474   4.198   3.524  11.377  1.8505 -2.0182 -1.3695
 4947SOL    HW226475   4.221   3.601  11.497 -0.5556  1.0426 -0.1505
 4948SOL     OW26476   3.935   4.309   2.248 -0.7353 -0.0333  0.0531
 4948SOL    HW126477   4.020   4.319   2.206 -1.6590 -1.9544 -2.3156
 4948SOL    HW226478   3.903   4.395   2.272 -3.7274 -1.1634  0.1682
 4949SOL     OW26479   4.140   1.946  17.575 -0.4278  0.1192  0.5787
 4949SOL    HW126480   4.164   1.985  17.659 -0.2411 -1.0812  1.0838
 4949SOL    HW226481   4.207   1.986  17.519 -0.7820  0.8975  0.7088
 4950SOL     OW26482   0.306   3.535  15.106 -0.6683 -0.0108  1.0044
 4950SOL    HW126483   0.281   3.560  15.017  2.0701  1.8879  0.7868
 4950SOL    HW226484   0.387   3.586  15.114 -2.3556  2.4787  2.2797
 4951SOL     OW26485   0.153   3.159   7.633 -0.3854 -0.1074  0.0885
 4951SOL    HW126486   0.246   3.179   7.621  0.0497 -1.2090  1.6071
 4951SOL    HW226487   0.128   3.158   7.540  1.0509 -1.3514 -0.2881
 4952SOL     OW26488   4.090   2.096   9.997 -0.0177  0.4460  0.2357
 4952SOL    HW126489   4.098   2.006   9.964  1.9591  0.7078  0.0035
 4952SOL    HW226490   4.175   2.125   9.964 -0.5194  0.8822 -0.6747
 4953SOL     OW26491   3.298   3.194   3.324  0.2319 -0.0706 -0.1115
 4953SOL    HW126492   3.230   3.180   3.259  0.8665 -0.9067 -0.5988
 4953SOL    HW226493   3.281   3.103   3.348 -0.6893 -0.1916 -1.2418
 4954SOL     OW26494   0.119   3.053   9.085 -0.0896 -0.4315  0.1494
 4954SOL    HW126495   0.091   2.974   9.039 -1.1487 -0.3974  0.7466
 4954SOL    HW226496   0.212   3.051   9.061  0.3656  2.2399  1.6125
 4955SOL     OW26497   4.143   2.649   5.164 -0.0506  0.3453 -0.3741
 4955SOL    HW126498   4.197   2.602   5.228 -1.3539  2.5313  2.3425
 4955SOL    HW226499   4.066   2.592   5.157 -0.5000  0.8408  0.5578
 4956SOL     OW26500   3.793   1.786  14.313 -0.1457 -0.0013 -0.0030
 4956SOL    HW126501   3.744   1.752  14.388 -1.2233  1.5448 -0.0177
 4956SOL    HW226502   3.876   1.801  14.357 -0.2416  2.8171 -0.7842
 4957SOL     OW26503   3.644   3.557   2.603 -0.2090  0.2485  0.2953
 4957SOL    HW126504   3.565   3.586   2.649  1.0414  0.7882  2.1023
 4957SOL    HW226505   3.703   3.537   2.675  0.6863  2.5582  0.2242
 4958SOL     OW26506   2.972   1.460   0.680 -0.5588  0.2132  0.0485
 4958SOL    HW126507   2.977   1.368   0.653  0.2574  0.4013 -0.4451
 4958SOL    HW226508   3.009   1.493   0.598 -0.0461  0.3739  0.3485
 4959SOL     OW26509   2.772   1.213   4.486  0.0380 -0.3804  0.0355
 4959SOL    HW126510   2.731   1.262   4.557  0.7262  2.2811 -1.3782
 4959SOL    HW226511   2.708   1.218   4.415 -0.0374 -1.0553  0.0581
 4960SOL     OW26512   1.405   0.761   6.693 -0.6072 -0.1237  0.2726
 4960SOL    HW126513   1.499   0.756   6.714 -0.0906 -1.6184 -2.4831
 4960SOL    HW226514   1.374   0.674   6.720 -1.2207  0.3845  1.2153
 4961SOL     OW26515   4.189   1.640   0.990  0.2561  0.1664 -0.3397
 4961SOL    HW126516   4.268   1.625   0.938  0.6152  0.2962  0.1745
 4961SOL    HW226517   4.121   1.635   0.922 -0.3151  0.8996  0.1726
 4962SOL     OW26518   2.408   3.740   5.245  0.1497  0.3328 -0.4080
 4962SOL    HW126519   2.460   3.669   5.282  0.7929  1.4377  0.8197
 4962SOL    HW226520   2.339   3.700   5.194  0.5920 -0.1496 -0.6253
 4963SOL     OW26521   3.955   2.636  13.609 -0.0613 -0.1702 -0.4952
 4963SOL    HW126522   3.941   2.672  13.697  3.2465  1.3634 -0.5635
 4963SOL    HW226523   3.937   2.714  13.557 -0.4720  1.0406  1.4316
 4964SOL     OW26524   3.716   4.589   2.076  0.2243 -0.1269 -0.4519
 4964SOL    HW126525   3.805   4.623   2.068  0.1407  0.2800  0.3607
 4964SOL    HW226526   3.734   4.507   2.030  3.0008  0.2489 -0.0564
 4965SOL     OW26527   3.798   2.570  13.306  0.0709 -0.1928 -0.0027
 4965SOL    HW126528   3.764   2.503  13.247  1.6318 -1.9507  1.0977
 4965SOL    HW226529   3.863   2.526  13.361  1.1665  0.3224 -0.8957
 4966SOL     OW26530   0.249   0.045   0.828  0.2747 -0.2862 -0.6629
 4966SOL    HW126531   0.186   0.069   0.896  0.8799 -0.4917 -0.0294
 4966SOL    HW226532   0.254   0.124   0.774  2.7322 -0.5393 -0.7947
 4967SOL     OW26533   4.205   1.656  14.683 -0.5745 -0.2658  0.3203
 4967SOL    HW126534   4.194   1.561  14.679  0.9940 -0.3830 -1.0745
 4967SOL    HW226535   4.297   1.672  14.661 -0.7946 -0.7016 -0.9366
 4968SOL     OW26536   2.278   0.606   7.842 -0.3083  0.3957 -0.7033
 4968SOL    HW126537   2.308   0.671   7.906  0.0179 -0.8727  0.4387
 4968SOL    HW226538   2.288   0.654   7.760 -1.2150  1.5367 -0.1524
 4969SOL     OW26539   0.988   0.324  17.676 -0.6036 -0.0889 -0.4273
 4969SOL    HW126540   0.995   0.311  17.582  1.9461 -1.3845 -0.0617
 4969SOL    HW226541   0.995   0.241  17.724  1.2652  1.1525  1.4454
 4970SOL     OW26542   0.801   1.952  16.648  0.0067 -1.0232  0.0532
 4970SOL    HW126543   0.725   2.006  16.668  1.9830  1.1811  1.5331
 4970SOL    HW226544   0.854   1.969  16.727  0.1997  1.9461 -0.7234
 4971SOL     OW26545   1.258   1.067   9.660 -0.4427 -0.1650 -0.1931
 4971SOL    HW126546   1.172   1.035   9.633 -0.8774  0.4589  0.4484
 4971SOL    HW226547   1.269   1.125   9.585 -0.9138 -1.9560 -1.6523
 4972SOL     OW26548   3.034   0.622   3.389  0.3121 -1.0825 -0.0992
 4972SOL    HW126549   3.054   0.529   3.389 -0.0120 -1.1568  1.3850
 4972SOL    HW226550   3.050   0.645   3.297  1.1051  0.3629  0.3987
 4973SOL     OW26551   1.724   1.274   4.591 -0.3619  0.3987 -0.0827
 4973SOL    HW126552   1.660   1.215   4.551  0.0054  1.1940 -1.8746
 4973SOL    HW226553   1.693   1.363   4.573 -0.1646  1.1846  3.5344
 4974SOL     OW26554   4.136   1.796   7.111 -0.0215  0.0723  0.3693
 4974SOL    HW126555   4.144   1.796   7.206 -0.8259 -0.7315  0.4401
 4974SOL    HW226556   4.196   1.869   7.095  0.4334 -0.1195  1.2075
 4975SOL     OW26557   2.780   3.243  14.613  0.1585  0.5531 -0.1135
 4975SOL    HW126558   2.859   3.189  14.618  0.7363  1.3939 -0.2149
 4975SOL    HW226559   2.738   3.217  14.694 -0.8019  3.9964  0.4879
 4976SOL     OW26560   0.439   3.868   3.391 -0.3941 -0.1688  0.0738
 4976SOL    HW126561   0.517   3.910   3.426 -1.8537 -0.3121  3.4624
 4976SOL    HW226562   0.420   3.921   3.313 -0.1953 -0.1988  0.0033
 4977SOL     OW26563   2.382   2.469  13.032  0.7847  0.0294 -0.0881
 4977SOL    HW126564   2.332   2.393  13.000  2.4878 -1.5863  1.0812
 4977SOL    HW226565   2.393   2.515  12.949 -2.5852 -0.7711 -1.0039
 4978SOL     OW26566   1.829   3.157   4.421 -0.1591  0.4624 -0.3420
 4978SOL    HW126567   1.858   3.240   4.382  0.0714  0.3758 -0.3563
 4978SOL    HW226568   1.912   3.109   4.418 -1.2155 -1.4068  0.7461
 4979SOL     OW26569   0.305   3.588   9.643  0.2352  1.3856  0.1239
 4979SOL    HW126570   0.233   3.620   9.589 -0.0233 -0.1260 -0.4283
 4979SOL    HW226571   0.372   3.657   9.641  0.5543  1.1107  1.7885
 4980SOL     OW26572   3.787   3.056  14.373  0.2569 -0.0049  0.5517
 4980SOL    HW126573   3.715   2.998  14.349 -0.3484  0.1784  1.8990
 4980SOL    HW226574   3.862   2.998  14.365 -0.3667 -1.0868  2.3464
 4981SOL     OW26575   2.077   2.327   1.999  0.2771 -0.2478 -0.0626
 4981SOL    HW126576   2.018   2.251   1.997  0.6129 -0.4836 -1.1870
 4981SOL    HW226577   2.155   2.292   1.955 -0.1873 -1.1196 -0.2059
 4982SOL     OW26578   4.369   2.665   1.037  0.4840 -0.3785 -0.5271
 4982SOL    HW126579   4.364   2.738   1.099  1.0461  0.3607 -1.3501
 4982SOL    HW226580   4.420   2.593   1.075  0.4299 -0.7769 -1.2062
 4983SOL     OW26581   0.056   1.811   0.748 -0.3918  0.3031  0.8771
 4983SOL    HW126582   0.140   1.846   0.778  0.6479 -0.7572 -0.8155
 4983SOL    HW226583   0.100   1.743   0.697  0.6448  1.1512  0.6347
 4984SOL     OW26584   2.820   1.132   1.506  0.4516  0.1174 -0.2439
 4984SOL    HW126585   2.878   1.058   1.491  0.5655 -0.1735  1.6592
 4984SOL    HW226586   2.795   1.118   1.597 -2.7767  0.4842 -1.0699
 4985SOL     OW26587   1.359   1.611   6.038  0.1847  0.4484  0.3895
 4985SOL    HW126588   1.440   1.634   6.082 -0.6749 -1.9037  3.1562
 4985SOL    HW226589   1.313   1.692   6.061 -0.5009  0.5203 -1.1672
 4986SOL     OW26590   1.608   3.525   8.999  0.0728 -0.8013  0.1917
 4986SOL    HW126591   1.551   3.496   9.071  1.2247 -2.4452  0.4279
 4986SOL    HW226592   1.556   3.585   8.946 -0.7927 -0.7993  1.0291
 4987SOL     OW26593   2.608   4.289   0.221 -0.7412  0.2586  0.3362
 4987SOL    HW126594   2.544   4.218   0.219 -0.0219 -0.3620 -0.9564
 4987SOL    HW226595   2.563   4.369   0.193  1.3407  1.8647  1.5363
 4988SOL     OW26596   3.125   4.572  17.516 -0.8159 -0.3065 -0.7123
 4988SOL    HW126597   3.109   4.533  17.602  2.1013 -0.4142 -0.2223
 4988SOL    HW226598   3.116   4.662  17.546 -1.0247 -0.5519 -0.0451
 4989SOL     OW26599   0.087   2.912   4.331 -0.4381 -0.5936 -0.0593
 4989SOL    HW126600   0.012   2.865   4.368  0.6952 -0.2705  2.6793
 4989SOL    HW226601   0.130   2.945   4.410 -0.5023  1.5937 -0.9454
 4990SOL     OW26602   4.017   1.964   4.539 -0.1496  0.0492 -1.2481
 4990SOL    HW126603   3.923   1.956   4.556  0.2552  0.2260  1.0145
 4990SOL    HW226604   4.028   2.052   4.575 -0.4505  0.2776 -1.7076
 4991SOL     OW26605   2.675   0.073   8.408 -0.4056  0.6020 -0.2362
 4991SOL    HW126606   2.676   0.167   8.426  0.5277  0.3926  0.8085
 4991SOL    HW226607   2.626   0.041   8.484 -0.4253  0.1729 -0.4317
 4992SOL     OW26608   0.445   1.990   5.623  0.1277  0.0701 -0.0864
 4992SOL    HW126609   0.405   1.935   5.556 -1.2652  2.0044 -0.8517
 4992SOL    HW226610   0.507   1.926   5.658 -1.7234 -1.1388  1.0112
 4993SOL     OW26611   4.286   1.480   9.874 -0.4349 -0.1923  0.2221
 4993SOL    HW126612   4.354   1.520   9.928 -0.3975 -1.0388  0.7975
 4993SOL    HW226613   4.244   1.556   9.834 -0.7031 -1.5776 -2.1403
 4994SOL     OW26614   1.489   0.942   7.647  0.5216  0.2116 -0.3296
 4994SOL    HW126615   1.578   0.953   7.612  1.0998 -0.7734  0.8269
 4994SOL    HW226616   1.475   1.029   7.682 -0.9414 -0.1805  0.0390
 4995SOL     OW26617   2.796   4.520   3.707  0.0466 -0.0447  0.0808
 4995SOL    HW126618   2.762   4.581   3.642  0.9250  0.1480 -0.1902
 4995SOL    HW226619   2.861   4.477   3.652 -0.3378  1.6473 -1.6776
 4996SOL     OW26620   3.524   3.085   5.707 -0.4103  0.0988 -0.5378
 4996SOL    HW126621   3.477   3.148   5.763 -2.2597 -1.3599 -0.4714
 4996SOL    HW226622   3.462   3.051   5.643  0.8681 -1.3667 -0.9867
 4997SOL     OW26623   4.558   0.607   7.739 -0.0494 -0.2007  0.9266
 4997SOL    HW126624   4.639   0.557   7.740 -0.7158 -1.2823  0.2678
 4997SOL    HW226625   4.539   0.609   7.646 -1.5585  0.9968  1.2521
 4998SOL     OW26626   0.908   2.187   8.593  0.2031  0.0951 -0.5131
 4998SOL    HW126627   0.895   2.097   8.564 -0.4835  0.2308 -0.6233
 4998SOL    HW226628   1.002   2.197   8.610  0.6221 -1.7621 -1.7509
 4999SOL     OW26629   3.500   0.817  11.093  0.7027 -0.1133 -0.2305
 4999SOL    HW126630   3.567   0.806  11.160  2.0867 -0.3557 -1.6487
 4999SOL    HW226631   3.501   0.909  11.065 -2.5075  0.5669  1.8383
 5000SOL     OW26632   0.506   2.718   5.155 -0.0356  0.2661 -0.7602
 5000SOL    HW126633   0.474   2.776   5.224  0.8178 -0.3857  0.1788
 5000SOL    HW226634   0.521   2.780   5.084  1.8000 -1.2352 -1.6595
 5001SOL     OW26635   1.172   2.820  11.677 -0.5082 -0.1190 -0.1008
 5001SOL    HW126636   1.222   2.740  11.660  1.2782  0.6065  1.8484
 5001SOL    HW226637   1.231   2.861  11.740 -1.2711  1.0581 -0.1578
 5002SOL     OW26638   4.460   1.204   2.555  0.3021  0.1429 -0.2890
 5002SOL    HW126639   4.474   1.249   2.639  0.2852  1.2135 -0.8593
 5002SOL    HW226640   4.425   1.270   2.495 -0.2042  1.6949  1.6957
 5003SOL     OW26641   0.480   2.190   5.249  0.1345  0.0888 -0.3257
 5003SOL    HW126642   0.443   2.275   5.222 -0.0863  0.0623 -0.1028
 5003SOL    HW226643   0.400   2.164   5.295  2.7710 -2.3557  2.8364
 5004SOL     OW26644   4.493   3.115  17.232 -0.1227 -0.0964 -0.0196
 5004SOL    HW126645   4.544   3.196  17.239  1.3873 -0.8711 -2.4805
 5004SOL    HW226646   4.559   3.064  17.186 -0.8340 -0.2113 -0.9040
 5005SOL     OW26647   3.526   0.090  15.256 -0.6288 -0.1059 -0.4805
 5005SOL    HW126648   3.441   0.116  15.221 -1.1338  0.4751  1.1612
 5005SOL    HW226649   3.520   0.138  15.339 -1.3267 -0.9273 -0.0537
 5006SOL     OW26650   3.415   2.388   0.530 -0.1009  0.4015  0.4091
 5006SOL    HW126651   3.379   2.407   0.443 -1.1796 -0.9656  0.5620
 5006SOL    HW226652   3.350   2.334   0.576 -0.0019 -0.7415 -0.8059
 5007SOL     OW26653   1.246   1.451   6.746 -0.8267  0.1535 -0.0921
 5007SOL    HW126654   1.202   1.530   6.712 -1.9100 -1.0909 -1.5649
 5007SOL    HW226655   1.172   1.393   6.732 -0.8358  0.1763 -0.1381
 5008SOL     OW26656   4.424   2.671   7.304 -0.4035 -0.1442 -0.4921
 5008SOL    HW126657   4.374   2.645   7.382 -0.7039  0.9415 -0.3221
 5008SOL    HW226658   4.377   2.742   7.261 -1.3612 -2.5136 -3.3803
 5009SOL     OW26659   0.332   3.652   0.834 -0.3506 -0.6558 -0.1033
 5009SOL    HW126660   0.407   3.609   0.875 -0.9875  0.2612  1.9783
 5009SOL    HW226661   0.350   3.623   0.744  1.3627  1.4871 -0.4342
 5010SOL     OW26662   1.930   3.181   5.998 -0.3720  0.5340  0.4400
 5010SOL    HW126663   1.960   3.268   6.024 -1.1665  0.9216  0.0662
 5010SOL    HW226664   1.835   3.186   6.006 -0.1302  0.0301  3.4683
 5011SOL     OW26665   4.323   4.053  10.990  0.3847 -0.4469 -0.2379
 5011SOL    HW126666   4.277   4.111  11.052  1.2475 -0.1524  0.1205
 5011SOL    HW226667   4.384   4.006  11.046 -0.7408  0.1190  1.4818
 5012SOL     OW26668   4.474   4.028   8.958  0.5566  0.4945  0.1408
 5012SOL    HW126669   4.513   3.985   9.034 -0.3271 -1.4312 -0.4800
 5012SOL    HW226670   4.487   4.121   8.972  1.5449  0.5259 -1.0040
 5013SOL     OW26671   0.116   2.434   2.495 -0.4443 -0.4636  0.0440
 5013SOL    HW126672   0.171   2.471   2.563  1.8756 -1.6189 -1.1987
 5013SOL    HW226673   0.115   2.342   2.522  1.0581  0.0345  1.7616
 5014SOL     OW26674   3.344   4.390   7.717 -0.0659  0.2692  0.5591
 5014SOL    HW126675   3.429   4.362   7.751  0.6658  0.7713 -0.8309
 5014SOL    HW226676   3.276   4.339   7.761 -0.9923  1.6457  0.7055
 5015SOL     OW26677   3.886   3.986   3.848  0.5369  0.3369  0.0598
 5015SOL    HW126678   3.979   4.000   3.831  0.5846  0.6307  0.5918
 5015SOL    HW226679   3.862   3.946   3.764 -1.6629 -0.3228  1.0027
 5016SOL     OW26680   0.225   0.282   0.698  0.2961 -0.2705 -0.8801
 5016SOL    HW126681   0.200   0.375   0.694 -0.2201 -0.3270  0.8514
 5016SOL    HW226682   0.212   0.260   0.606 -1.9931  1.9823 -1.1123
 5017SOL     OW26683   1.131   1.308   4.925 -0.2002  0.3739 -0.0145
 5017SOL    HW126684   1.053   1.257   4.947  0.3443  0.1036  1.2798
 5017SOL    HW226685   1.175   1.296   5.009 -1.8466 -0.6735  0.7137
 5018SOL     OW26686   0.043   0.803   6.233 -0.5295 -0.7392 -0.2629
 5018SOL    HW126687   4.735   0.873   6.277  1.2882 -1.1589  2.3609
 5018SOL    HW226688   0.084   0.759   6.307  1.4266  1.5904  0.0486
 5019SOL     OW26689   4.305   1.040   6.207  0.5850  0.2898 -1.0210
 5019SOL    HW126690   4.358   1.022   6.129  0.5695 -0.4123 -0.8670
 5019SOL    HW226691   4.218   1.015   6.177  0.5154 -1.6144  0.7578
 5020SOL     OW26692   3.571   0.147   8.969  0.7023 -0.0142  0.0163
 5020SOL    HW126693   3.624   0.071   8.994  0.2246 -0.6077 -0.7478
 5020SOL    HW226694   3.491   0.106   8.935  1.0612 -0.5180 -0.2385
 5021SOL     OW26695   2.736   1.394  10.871  0.0279 -0.2305  0.8486
 5021SOL    HW126696   2.710   1.483  10.848 -1.8841 -0.8673  0.5685
 5021SOL    HW226697   2.808   1.371  10.812 -2.1256 -1.8983 -1.1384
 5022SOL     OW26698   3.591   0.548   2.032  0.2722 -0.7742  0.1894
 5022SOL    HW126699   3.662   0.484   2.037  0.3722 -0.6646  0.1751
 5022SOL    HW226700   3.630   0.611   1.972 -0.9006 -1.7367 -1.5649
 5023SOL     OW26701   4.026   1.629   6.923 -0.0573 -0.0129 -0.2803
 5023SOL    HW126702   4.069   1.685   6.988 -0.2114 -0.1852 -0.0341
 5023SOL    HW226703   3.937   1.657   6.944  1.2954  1.6529  3.3276
 5024SOL     OW26704   1.977   1.732   1.156 -0.2175  0.0728 -0.3560
 5024SOL    HW126705   1.900   1.717   1.210  1.7877  0.0163  2.5056
 5024SOL    HW226706   1.933   1.703   1.077  0.2409 -4.1576  0.9469
 5025SOL     OW26707   0.468   0.088   6.225  0.2637  0.0418 -0.1051
 5025SOL    HW126708   0.376   0.113   6.212  1.1868  3.0777 -0.8346
 5025SOL    HW226709   0.501   0.158   6.282  1.7688  1.2589 -2.4738
 5026SOL     OW26710   1.844   4.355   4.993 -0.0453  0.1585 -0.2235
 5026SOL    HW126711   1.890   4.399   5.064 -2.2627  0.0023  1.2996
 5026SOL    HW226712   1.822   4.271   5.031 -0.6581  0.1244 -0.6487
 5027SOL     OW26713   0.685   2.274   3.282 -0.1228  0.5964 -0.0466
 5027SOL    HW126714   0.688   2.287   3.377  1.7424  1.3088 -0.2087
 5027SOL    HW226715   0.772   2.236   3.270 -0.5656  0.0168 -1.4678
 5028SOL     OW26716   4.358   1.712  16.495  0.4621 -0.5048 -0.3611
 5028SOL    HW126717   4.325   1.761  16.570 -1.1813 -2.0423 -0.0807
 5028SOL    HW226718   4.328   1.757  16.416  2.7169 -1.1765 -1.6173
 5029SOL     OW26719   0.945   2.486   6.663  0.2029 -0.2624 -0.2890
 5029SOL    HW126720   0.869   2.463   6.717  0.2334  1.0908  0.3050
 5029SOL    HW226721   0.950   2.580   6.674 -0.0847 -0.5220  1.9934
 5030SOL     OW26722   3.974   4.015   7.075 -0.1690 -0.6602  0.1117
 5030SOL    HW126723   3.957   4.096   7.026  1.1407 -1.5392 -1.7642
 5030SOL    HW226724   4.049   4.038   7.130 -2.0783  0.8013  2.1290
 5031SOL     OW26725   3.417   2.364  14.369 -0.2885  0.1671  0.0156
 5031SOL    HW126726   3.474   2.286  14.364 -1.0722 -0.5050  1.5297
 5031SOL    HW226727   3.402   2.367  14.463  1.6215  2.5266  0.2466
 5032SOL     OW26728   1.659   3.013   5.335  0.5841  0.0907 -0.1948
 5032SOL    HW126729   1.605   2.997   5.258  2.0276 -0.9538 -0.9937
 5032SOL    HW226730   1.748   3.021   5.301  1.2439 -0.8078  1.3473
 5033SOL     OW26731   1.776   0.187   5.306  0.2948  0.1551  0.7480
 5033SOL    HW126732   1.733   0.129   5.242 -0.1998 -0.1041  1.3150
 5033SOL    HW226733   1.721   0.264   5.317  0.1359  0.6497 -3.3732
 5034SOL     OW26734   3.912   0.696  13.688 -0.1925 -0.1315  0.0485
 5034SOL    HW126735   3.865   0.744  13.619 -2.1712  0.8647  2.0971
 5034SOL    HW226736   3.862   0.720  13.766  1.5427 -1.0923  1.4386
 5035SOL     OW26737   2.622   2.565   8.534  0.2426  0.4843  0.1922
 5035SOL    HW126738   2.712   2.536   8.547 -0.2528  0.0288  2.5828
 5035SOL    HW226739   2.605   2.527   8.447  2.3645  0.6311 -0.2799
 5036SOL     OW26740   0.166   2.546  12.427 -0.4102 -0.8973 -0.2380
 5036SOL    HW126741   0.086   2.556  12.480 -1.6618 -0.2647 -2.2613
 5036SOL    HW226742   0.183   2.453  12.436 -1.5439 -1.1069 -0.2042
 5037SOL     OW26743   3.585   1.453  15.669  0.1519  0.3368  0.1111
 5037SOL    HW126744   3.539   1.527  15.629  0.8145  1.0003  0.5824
 5037SOL    HW226745   3.674   1.448  15.634  0.7127 -1.0921  1.7406
 5038SOL     OW26746   1.157   3.300  10.837 -0.0208  0.0672 -0.2345
 5038SOL    HW126747   1.120   3.348  10.763 -0.4886  0.4214  0.2311
 5038SOL    HW226748   1.243   3.277  10.802  0.4211  1.5398 -0.1452
 5039SOL     OW26749   2.192   4.064   3.479  0.2628  0.3393 -0.7587
 5039SOL    HW126750   2.182   4.157   3.501  0.3085  0.2968 -0.5589
 5039SOL    HW226751   2.154   4.055   3.392  0.1212 -1.1605 -0.5424
 5040SOL     OW26752   4.224   2.909   6.123 -0.1299  0.7098 -0.4283
 5040SOL    HW126753   4.133   2.931   6.142  0.1769  1.7060 -0.1530
 5040SOL    HW226754   4.196   2.859   6.046  1.6730  0.0346 -0.6491
 5041SOL     OW26755   1.402   3.915   7.216  0.0035  0.0886 -0.2708
 5041SOL    HW126756   1.417   3.959   7.300 -0.8437  0.8358 -0.5156
 5041SOL    HW226757   1.375   3.985   7.156 -0.2694 -0.7280 -1.0997
 5042SOL     OW26758   1.696   0.742   3.697  0.3067  0.2282 -0.2222
 5042SOL    HW126759   1.784   0.759   3.665  1.8618 -1.8421  2.8991
 5042SOL    HW226760   1.724   0.690   3.773 -0.1299 -0.5710 -0.6156
 5043SOL     OW26761   0.887   0.013  12.758  0.0771  0.2358 -0.6963
 5043SOL    HW126762   0.887   4.704  12.675  1.1361  0.1036 -0.6105
 5043SOL    HW226763   0.861   0.103  12.735 -2.3234  0.2342  2.0188
 5044SOL     OW26764   2.621   0.601   7.442 -0.0447 -0.6344  0.1389
 5044SOL    HW126765   2.663   0.521   7.473  1.0824  0.3288  1.1339
 5044SOL    HW226766   2.584   0.633   7.525 -1.7282  0.4519 -1.0366
 5045SOL     OW26767   3.425   3.819  16.164  0.4236 -0.2516 -0.0764
 5045SOL    HW126768   3.464   3.812  16.077  2.0552 -0.4348  0.6768
 5045SOL    HW226769   3.339   3.795  16.129  0.4837  0.7604 -0.9219
 5046SOL     OW26770   1.521   2.456   6.090  0.2438 -0.2895  0.2874
 5046SOL    HW126771   1.594   2.403   6.059  1.2215  0.2285  1.7007
 5046SOL    HW226772   1.440   2.405   6.081 -0.1165  0.3457 -0.0698
 5047SOL     OW26773   0.186   2.341  14.170 -0.1850  0.3082 -0.0090
 5047SOL    HW126774   0.146   2.355  14.084 -2.1568  0.6681  0.9581
 5047SOL    HW226775   0.237   2.262  14.150 -1.0204 -0.0470 -0.7716
 5048SOL     OW26776   0.510   4.284   7.711  0.3119  0.0054  0.4082
 5048SOL    HW126777   0.518   4.330   7.794 -1.8609  4.3590 -1.8521
 5048SOL    HW226778   0.415   4.283   7.704  0.2548  1.6729  0.9900
 5049SOL     OW26779   3.565   1.021   8.481 -0.3878 -0.1924 -0.6989
 5049SOL    HW126780   3.566   1.104   8.528 -3.0902  0.5929 -2.0557
 5049SOL    HW226781   3.530   0.956   8.541  1.9743 -0.0720  0.8202
 5050SOL     OW26782   2.842   1.869  17.675  0.0015 -0.3326 -0.0671
 5050SOL    HW126783   2.921   1.865  17.729 -1.2887 -3.3884  1.6502
 5050SOL    HW226784   2.799   1.938  17.726  2.6146  0.6818  0.7871
 5051SOL     OW26785   3.614   0.284   8.357 -0.1840  0.7047 -0.4252
 5051SOL    HW126786   3.545   0.237   8.404  2.0065 -0.8399  1.2662
 5051SOL    HW226787   3.569   0.365   8.334 -0.8195  1.1862  2.5526
 5052SOL     OW26788   2.610   1.303   1.465  0.0269  0.1022 -0.8763
 5052SOL    HW126789   2.681   1.239   1.463 -0.0705 -0.0920  1.9316
 5052SOL    HW226790   2.591   1.296   1.559  0.3475 -0.2936 -0.8376
 5053SOL     OW26791   1.475   3.646   3.656 -0.2017  0.3092  0.4087
 5053SOL    HW126792   1.396   3.698   3.646 -0.7197 -0.3883  0.9170
 5053SOL    HW226793   1.500   3.675   3.744 -1.5598 -1.2959  1.3142
 5054SOL     OW26794   1.487   2.866   6.401 -1.1757  0.2766  0.7616
 5054SOL    HW126795   1.502   2.777   6.369  1.1723  1.1750 -0.5480
 5054SOL    HW226796   1.504   2.858   6.495 -3.3142 -2.6777  0.9033
 5055SOL     OW26797   2.304   1.905   8.362  0.3807 -0.0484  0.1169
 5055SOL    HW126798   2.375   1.913   8.425 -0.6230 -2.2402  1.5088
 5055SOL    HW226799   2.304   1.995   8.328 -0.7022  0.6142  1.8645
 5056SOL     OW26800   2.827   2.997  10.971 -0.4265 -0.4582  0.2414
 5056SOL    HW126801   2.885   3.044  11.031  1.1098  0.3174 -1.8358
 5056SOL    HW226802   2.865   2.994  10.883 -1.6650  0.5769 -0.3530
 5057SOL     OW26803   3.886   1.771  13.016  0.7456 -0.6241 -0.3521
 5057SOL    HW126804   3.839   1.835  12.963 -0.0748  0.7406  1.9958
 5057SOL    HW226805   3.875   1.809  13.103  0.8353 -2.3085  0.3905
 5058SOL     OW26806   4.532   1.918   8.566 -0.3735 -0.7008  0.3406
 5058SOL    HW126807   4.567   1.970   8.638  1.6069 -4.0213  1.7640
 5058SOL    HW226808   4.598   1.928   8.498 -0.7184 -1.2766 -0.0841
 5059SOL     OW26809   2.031   1.455  11.878  0.3958 -0.1452 -0.6737
 5059SOL    HW126810   2.050   1.465  11.971 -0.7946 -0.2759 -0.4217
 5059SOL    HW226811   2.012   1.548  11.860  3.0615  0.9678  2.2979
 5060SOL     OW26812   4.449   1.312   1.527  0.3520 -0.0148 -0.1153
 5060SOL    HW126813   4.536   1.292   1.561  0.8033  0.3712 -1.0363
 5060SOL    HW226814   4.412   1.370   1.594  0.1436 -1.1660  0.7585
 5061SOL     OW26815   4.022   0.795   7.159  0.1285 -0.4058 -0.0354
 5061SOL    HW126816   4.017   0.855   7.085  0.9298  1.1410  1.1335
 5061SOL    HW226817   3.970   0.730   7.112  0.4681 -0.2032 -0.6912
 5062SOL     OW26818   2.459   1.506   8.714 -0.3217  0.6038  0.1551
 5062SOL    HW126819   2.533   1.476   8.766 -2.3163  1.0593  3.2381
 5062SOL    HW226820   2.394   1.440   8.737  1.6276 -0.7382  1.7536
 5063SOL     OW26821   1.500   2.001  13.844  0.0273 -0.1328  0.7887
 5063SOL    HW126822   1.406   2.016  13.845 -0.0904 -0.8825  0.9457
 5063SOL    HW226823   1.511   2.045  13.760 -0.9463 -0.0132  0.7337
 5064SOL     OW26824   0.736   3.159  11.812 -0.4535  0.1069 -0.1234
 5064SOL    HW126825   0.759   3.090  11.873 -0.1109  1.3364  1.1453
 5064SOL    HW226826   0.780   3.130  11.732 -0.1218  3.5639 -1.2366
 5065SOL     OW26827   3.817   3.859  14.955  0.0234 -0.4639  0.1209
 5065SOL    HW126828   3.882   3.832  15.020  0.7165 -0.7622 -0.6902
 5065SOL    HW226829   3.746   3.795  14.959  0.1233 -0.4322  2.5355
 5066SOL     OW26830   3.274   1.781   4.491  0.1984 -0.4073  0.1438
 5066SOL    HW126831   3.217   1.730   4.433  1.0964 -0.6913 -0.4913
 5066SOL    HW226832   3.245   1.743   4.574 -0.2673 -0.6682 -0.1389
 5067SOL     OW26833   3.961   1.779   6.441  0.0419  0.4215  0.2171
 5067SOL    HW126834   3.934   1.687   6.440  0.5812  0.2535  1.3315
 5067SOL    HW226835   3.897   1.814   6.503 -0.4287 -1.7225  0.9448
 5068SOL     OW26836   1.814   1.014   3.428  0.0540 -0.1127 -0.2182
 5068SOL    HW126837   1.883   0.950   3.413  1.2303  1.4303 -1.4033
 5068SOL    HW226838   1.742   0.964   3.390  1.1610 -1.6615 -0.2652
 5069SOL     OW26839   0.272   2.222   1.134  0.3760 -0.2225 -0.0662
 5069SOL    HW126840   0.178   2.236   1.141  0.1804  0.0830 -3.4010
 5069SOL    HW226841   0.284   2.164   1.059  1.1799 -1.1307  0.7462
 5070SOL     OW26842   0.649   2.195   7.251  1.0366  0.1193  0.6089
 5070SOL    HW126843   0.741   2.222   7.249 -0.0160  3.4338 -1.6524
 5070SOL    HW226844   0.657   2.099   7.252  1.1925  0.1348  0.9786
 5071SOL     OW26845   4.290   0.724   2.089  0.1366 -0.2941  0.0889
 5071SOL    HW126846   4.332   0.809   2.101 -0.9139  0.2074  0.2415
 5071SOL    HW226847   4.269   0.697   2.178 -0.6947 -2.2866 -0.6985
 5072SOL     OW26848   1.409   0.238  17.053 -0.0390 -0.5169 -0.4552
 5072SOL    HW126849   1.413   0.194  16.968  3.1536  0.0605 -0.5935
 5072SOL    HW226850   1.364   0.317  17.022 -1.0679 -1.2836 -0.9296
 5073SOL     OW26851   4.038   4.623  14.705 -0.4479 -0.6133 -0.1568
 5073SOL    HW126852   3.974   4.683  14.667  0.2468 -0.4503 -1.0812
 5073SOL    HW226853   4.048   4.664  14.791  0.4153  2.4067 -1.6853
 5074SOL     OW26854   3.511   2.519  13.824 -0.6426  0.0198 -0.1487
 5074SOL    HW126855   3.419   2.548  13.829  0.5565  3.5182  1.7852
 5074SOL    HW226856   3.527   2.524  13.919  0.6365 -0.6184 -0.3410
 5075SOL     OW26857   3.616   4.731   5.393 -0.0456 -0.3259 -0.0896
 5075SOL    HW126858   3.624   4.730   5.297 -3.1922  0.3477 -0.3551
 5075SOL    HW226859   3.678   4.664   5.421  1.7410  0.6765 -1.6575
 5076SOL     OW26860   1.377   2.330   8.963 -0.3692 -0.1248  0.1826
 5076SOL    HW126861   1.348   2.334   8.872  2.1776 -2.3423 -0.7331
 5076SOL    HW226862   1.380   2.419   8.997 -1.2828 -0.2352  0.5510
 5077SOL     OW26863   1.427   0.044  16.864 -0.1980 -0.1540  0.2016
 5077SOL    HW126864   1.473   4.701  16.880  1.7675  1.1866  1.5153
 5077SOL    HW226865   1.334   0.021  16.864 -0.8045  2.2615  1.9537
 5078SOL     OW26866   3.845   0.262   4.892  0.0979 -0.1480  0.4136
 5078SOL    HW126867   3.892   0.260   4.809  0.4504  2.4732  0.5493
 5078SOL    HW226868   3.810   0.351   4.902  1.3050  0.3487  0.1517
 5079SOL     OW26869   3.227   1.300   1.660 -0.3490 -0.0769 -0.1396
 5079SOL    HW126870   3.170   1.312   1.585 -1.2227 -1.6005  0.2888
 5079SOL    HW226871   3.230   1.388   1.697  1.1047 -0.2933  0.2617
 5080SOL     OW26872   1.434   2.907   5.469  0.2403 -0.4163  0.4159
 5080SOL    HW126873   1.422   2.833   5.409  0.4952 -0.3346  0.2630
 5080SOL    HW226874   1.524   2.938   5.454 -0.3068 -0.0269 -2.0934
 5081SOL     OW26875   3.977   0.240   2.482  0.4111  0.5480 -0.3600
 5081SOL    HW126876   3.954   0.179   2.412 -1.7855 -1.7849  2.3597
 5081SOL    HW226877   3.959   0.322   2.436 -0.1304  0.0906 -0.9557
 5082SOL     OW26878   1.894   4.124  17.705  0.7427  0.2956 -0.5745
 5082SOL    HW126879   1.921   4.214  17.722  0.0432  0.1571  1.2809
 5082SOL    HW226880   1.946   4.100  17.629  3.7655  0.9388  1.2561
 5083SOL     OW26881   4.032   0.577  15.230  0.9472  0.0021 -0.3268
 5083SOL    HW126882   4.105   0.577  15.292  1.0156  0.2108 -0.4062
 5083SOL    HW226883   4.017   0.486  15.205  0.4951 -1.0027  3.5831
 5084SOL     OW26884   3.027   1.226   4.574 -0.8982 -1.0128 -0.0189
 5084SOL    HW126885   2.936   1.232   4.545 -1.3393 -1.1659  1.3670
 5084SOL    HW226886   3.019   1.140   4.614 -0.0391 -0.6770  0.8634
 5085SOL     OW26887   3.947   4.122  11.355  0.4695  0.8428  0.3297
 5085SOL    HW126888   3.859   4.136  11.320  0.3959 -2.1531 -0.6831
 5085SOL    HW226889   3.935   4.147  11.446 -0.7667  1.2095  0.0581
 5086SOL     OW26890   2.422   0.309   1.960  0.5949  0.6012 -0.4964
 5086SOL    HW126891   2.372   0.323   2.040 -1.0139 -0.8398 -1.2367
 5086SOL    HW226892   2.359   0.320   1.888  0.5443  0.8268 -0.4155
 5087SOL     OW26893   1.744   4.424  15.579 -1.1713  0.4084  0.2336
 5087SOL    HW126894   1.726   4.512  15.613  2.2370  1.2087 -0.0620
 5087SOL    HW226895   1.815   4.439  15.516 -1.2725 -2.1153 -0.4620
 5088SOL     OW26896   1.272   2.940  11.398  0.2090  0.3552 -0.1241
 5088SOL    HW126897   1.316   2.876  11.455 -0.4735  0.9349  1.0700
 5088SOL    HW226898   1.320   2.938  11.315 -2.0660  0.5995 -1.4315
 5089SOL     OW26899   0.940   2.138   3.332  0.1839 -0.4357  0.1691
 5089SOL    HW126900   0.967   2.154   3.242  0.5861  0.7333  0.4977
 5089SOL    HW226901   0.985   2.211   3.373  0.4883 -0.0592 -0.8347
 5090SOL     OW26902   2.607   2.518  17.117  0.0861  0.2329  0.3447
 5090SOL    HW126903   2.627   2.453  17.049  1.0186  1.6060 -0.6859
 5090SOL    HW226904   2.516   2.497  17.140  0.5187 -1.5469  0.4366
 5091SOL     OW26905   2.305   0.532   6.703 -0.4822 -0.1183 -0.1383
 5091SOL    HW126906   2.392   0.572   6.703 -1.6347  2.3672  2.3688
 5091SOL    HW226907   2.293   0.497   6.615  0.8387  0.8697 -0.7046
 5092SOL     OW26908   3.821   2.672  11.887  0.1347 -0.3026 -0.2116
 5092SOL    HW126909   3.885   2.642  11.822  1.5037  2.7584 -0.2981
 5092SOL    HW226910   3.870   2.679  11.969  1.0545 -1.7930 -0.6333
 5093SOL     OW26911   3.239   2.311  12.122  0.0610 -0.1072  0.4328
 5093SOL    HW126912   3.279   2.270  12.199 -1.5688  0.6851  1.7077
 5093SOL    HW226913   3.146   2.287  12.130  0.1767 -0.6740  0.0766
 5094SOL     OW26914   3.348   2.465   7.820 -0.3829  0.3355  0.5641
 5094SOL    HW126915   3.300   2.539   7.784  1.2483  1.0920 -0.0593
 5094SOL    HW226916   3.352   2.493   7.912  0.1667  1.5785  0.1545
 5095SOL     OW26917   2.301   2.192   6.429  0.1587 -0.6345 -0.0691
 5095SOL    HW126918   2.342   2.167   6.347  1.7981 -1.0363  0.8785
 5095SOL    HW226919   2.209   2.176   6.404 -0.1794  0.0972  0.7095
 5096SOL     OW26920   3.200   0.938   8.350  0.1618  0.1589 -0.4305
 5096SOL    HW126921   3.173   0.894   8.431  0.9600 -2.8749 -1.8320
 5096SOL    HW226922   3.121   0.934   8.295  0.4369 -0.2873 -0.7990
 5097SOL     OW26923   3.238   1.706  13.704  0.6241 -0.2046 -0.1418
 5097SOL    HW126924   3.296   1.727  13.777  1.9126 -0.9669 -0.9391
 5097SOL    HW226925   3.238   1.791  13.659  1.0079 -0.8728 -1.3900
 5098SOL     OW26926   0.771   4.489   3.957 -0.4871 -0.1096  0.2219
 5098SOL    HW126927   0.797   4.549   4.027  1.9133 -1.8250  0.7845
 5098SOL    HW226928   0.844   4.427   3.959 -0.4341 -0.0681 -0.3870
 5099SOL     OW26929   2.934   1.920   4.039  0.3248 -0.4675 -0.1827
 5099SOL    HW126930   2.862   1.859   4.025  0.1375 -0.6828  1.6076
 5099SOL    HW226931   2.902   1.959   4.121 -2.0608 -2.5383 -0.1202
 5100SOL     OW26932   4.195   2.928   4.813 -0.2071 -0.5204 -0.0985
 5100SOL    HW126933   4.236   2.843   4.798 -1.2934 -1.4292  2.1180
 5100SOL    HW226934   4.222   2.948   4.903  2.2207 -2.0838 -0.4796
 5101SOL     OW26935   4.208   1.719   0.133 -0.4058 -0.5507  0.1212
 5101SOL    HW126936   4.232   1.797   0.182 -0.8520  0.1156 -0.7242
 5101SOL    HW226937   4.279   1.706   0.069 -0.3131 -1.7126  0.4525
 5102SOL     OW26938   3.946   3.832  13.723 -0.0414 -0.0278 -0.2128
 5102SOL    HW126939   3.951   3.744  13.761 -1.1862 -0.0547 -0.1368
 5102SOL    HW226940   3.863   3.814  13.678 -0.8755  1.6607  0.6602
 5103SOL     OW26941   4.346   3.871   8.499  0.4312 -0.6483  0.0552
 5103SOL    HW126942   4.433   3.832   8.508  0.5471 -0.8995 -2.2523
 5103SOL    HW226943   4.312   3.835   8.417  2.2575  1.6469 -1.7261
 5104SOL     OW26944   4.708   2.204   3.741  0.6013 -0.7976  0.2742
 5104SOL    HW126945   0.004   2.126   3.784  0.3550 -0.2264  1.5050
 5104SOL    HW226946   4.644   2.223   3.809 -0.2696 -0.7602 -0.5489
 5105SOL     OW26947   4.586   0.593   6.198 -0.1951 -0.5651 -0.3343
 5105SOL    HW126948   4.615   0.579   6.108  3.5999  0.8879  0.6765
 5105SOL    HW226949   4.630   0.676   6.217 -1.1199 -0.6909  2.3197
 5106SOL     OW26950   1.364   0.259   7.422  0.4033 -0.1171 -0.5108
 5106SOL    HW126951   1.408   0.271   7.338  1.7398 -0.5698  0.1215
 5106SOL    HW226952   1.313   0.179   7.408 -1.2108  0.4180  2.1340
 5107SOL     OW26953   4.252   4.711   5.980  0.3398  0.4267 -0.0918
 5107SOL    HW126954   4.264   4.667   5.896 -1.2157  0.0089 -0.0869
 5107SOL    HW226955   4.334   4.693   6.026 -0.3342 -0.8481  0.6123
 5108SOL     OW26956   2.617   2.334  13.039 -0.1892  0.0799  0.3961
 5108SOL    HW126957   2.533   2.371  13.065  0.1947  1.6862 -0.6590
 5108SOL    HW226958   2.619   2.358  12.946 -1.6094 -1.6788 -0.0704
 5109SOL     OW26959   4.629   0.959   7.573 -0.3613 -0.3229  0.1345
 5109SOL    HW126960   4.538   0.928   7.579 -1.2759  2.0707 -1.5767
 5109SOL    HW226961   4.679   0.882   7.603  0.6018  0.3974  0.3710
 5110SOL     OW26962   1.187   1.041   8.616  0.1119 -0.0184  0.2941
 5110SOL    HW126963   1.190   1.130   8.582  0.7365  0.6636  2.1182
 5110SOL    HW226964   1.214   1.056   8.707 -0.6821 -0.5382  0.6152
 5111SOL     OW26965   4.123   3.547   4.967 -0.5674 -0.2983  0.2851
 5111SOL    HW126966   4.155   3.618   5.022 -1.4584 -0.7381  1.3703
 5111SOL    HW226967   4.194   3.530   4.906 -0.6431 -0.1164  0.1481
 5112SOL     OW26968   3.794   1.593  14.612  0.4280  0.1537  0.5228
 5112SOL    HW126969   3.862   1.530  14.633  2.2933  1.3680 -1.9903
 5112SOL    HW226970   3.723   1.538  14.580 -0.4223  1.3721  0.3026
 5113SOL     OW26971   1.099   1.366   4.022  0.0513 -0.1448 -0.5509
 5113SOL    HW126972   1.098   1.461   4.035  0.7322 -0.1701 -0.3090
 5113SOL    HW226973   1.094   1.358   3.927 -0.7982 -1.5085 -0.3892
 5114SOL     OW26974   3.581   3.722   2.905 -0.2948  0.2421 -0.1138
 5114SOL    HW126975   3.532   3.793   2.864  0.4433  0.0086 -1.3727
 5114SOL    HW226976   3.648   3.778   2.945  0.8360 -1.2338  0.0680
 5115SOL     OW26977   0.136   4.123  16.220  0.1448 -0.2484  0.0075
 5115SOL    HW126978   0.075   4.084  16.158  1.0955 -1.0403 -0.4293
 5115SOL    HW226979   0.217   4.122  16.169  1.4633  1.2362  2.1000
 5116SOL     OW26980   4.615   4.384   3.530 -0.0088 -0.1144 -0.4300
 5116SOL    HW126981   4.708   4.385   3.552 -0.4036 -0.1912  1.2268
 5116SOL    HW226982   4.603   4.305   3.581  0.4956  0.9532  1.3373
 5117SOL     OW26983   4.520   0.070   4.930  0.0486 -0.2766  0.0350
 5117SOL    HW126984   4.492   4.718   4.926 -1.9541  0.1970  2.6762
 5117SOL    HW226985   4.519   0.098   4.839  0.9371  0.0255  0.1230
 5118SOL     OW26986   0.444   2.593   4.296  0.7186  0.8418 -0.1780
 5118SOL    HW126987   0.460   2.667   4.355 -0.2653  0.7237  0.2340
 5118SOL    HW226988   0.493   2.525   4.344  0.0231  2.5343  2.9444
 5119SOL     OW26989   1.429   2.322   1.280  0.2527 -0.5346  0.6090
 5119SOL    HW126990   1.423   2.359   1.369  1.5638 -1.1467  0.9529
 5119SOL    HW226991   1.345   2.283   1.256  0.3498 -0.7112  0.5561
 5120SOL     OW26992   0.098   0.006   4.444 -0.2977  0.6116 -0.0765
 5120SOL    HW126993   0.028   4.715   4.502  0.5118  2.8481  2.0554
 5120SOL    HW226994   0.149   0.055   4.508 -0.6922  1.5564 -0.4941
 5121SOL     OW26995   3.001   0.547   4.237 -0.3482 -0.1078 -0.0692
 5121SOL    HW126996   2.978   0.472   4.291  2.3142 -1.1774 -0.4296
 5121SOL    HW226997   3.096   0.544   4.237 -0.2410  2.5587 -3.9052
 5122SOL     OW26998   4.349   0.609   6.307  0.2204  0.2690 -0.3508
 5122SOL    HW126999   4.427   0.590   6.255 -0.7439 -1.5835 -1.0968
 5122SOL    HW227000   4.289   0.630   6.235 -1.6351  0.2867  1.1909
 5123SOL     OW27001   3.635   0.068   5.993  0.0682  0.3580 -0.2934
 5123SOL    HW127002   3.550   0.104   5.966  0.0083  0.4479  0.0053
 5123SOL    HW227003   3.624   4.714   5.975  2.2696  0.5160 -2.3685
 5124SOL     OW27004   3.311   4.254   4.179 -0.3090  0.3493 -0.0091
 5124SOL    HW127005   3.329   4.342   4.210 -0.5345 -0.0030  1.1267
 5124SOL    HW227006   3.279   4.277   4.092  0.5363  0.0322 -0.4061
 5125SOL     OW27007   0.323   1.313   6.524 -0.5790  0.0083 -0.0236
 5125SOL    HW127008   0.252   1.248   6.522 -0.6381  0.0434  0.8071
 5125SOL    HW227009   0.399   1.255   6.518 -1.4432 -1.0586 -0.6479
 5126SOL     OW27010   2.597   2.600   6.059  0.3289 -0.0713  0.4574
 5126SOL    HW127011   2.611   2.515   6.017  0.0031 -0.6305  1.4714
 5126SOL    HW227012   2.547   2.648   5.993 -0.5065 -0.8497  0.5248
 5127SOL     OW27013   1.618   4.181   6.400  0.7166  0.1040  0.3471
 5127SOL    HW127014   1.545   4.214   6.347 -0.0760 -1.2256  0.6181
 5127SOL    HW227015   1.696   4.225   6.367  1.7558 -1.8990  0.1785
 5128SOL     OW27016   2.428   1.847   0.025  0.0276 -0.2311  0.2626
 5128SOL    HW127017   2.479   1.768   0.040  0.7913  0.1217 -0.4641
 5128SOL    HW227018   2.341   1.812   0.005 -0.4908  2.1620 -1.7005
 5129SOL     OW27019   0.634   2.947   3.753 -0.0686  0.1474  0.1432
 5129SOL    HW127020   0.658   3.005   3.681 -0.3556 -0.8412 -0.7414
 5129SOL    HW227021   0.577   3.008   3.800  1.3284  1.6703 -0.1379
 5130SOL     OW27022   3.435   4.051   7.113  0.1659  0.3095 -0.0989
 5130SOL    HW127023   3.477   4.125   7.157  0.2952 -0.0504  0.3929
 5130SOL    HW227024   3.401   4.087   7.032 -0.3615  0.0743  0.0166
 5131SOL     OW27025   3.451   2.448   3.982  0.2812  0.4436  0.1484
 5131SOL    HW127026   3.511   2.515   3.947  1.0005 -0.0331  0.4710
 5131SOL    HW227027   3.382   2.499   4.025 -0.3465  0.5144 -0.9315
 5132SOL     OW27028   4.697   0.784   4.567 -0.2260 -0.3879 -0.1708
 5132SOL    HW127029   4.603   0.797   4.572 -0.2832  0.0335 -2.3455
 5132SOL    HW227030   4.737   0.838   4.636 -0.4050 -0.5338  0.0457
 5133SOL     OW27031   1.369   0.246   3.032  0.0083 -0.2522 -0.3752
 5133SOL    HW127032   1.305   0.205   2.975 -1.8551  1.1388  0.7094
 5133SOL    HW227033   1.317   0.311   3.080 -0.9300  1.2736 -3.4628
 5134SOL     OW27034   0.119   0.907   2.444 -0.4322 -0.0366  0.0635
 5134SOL    HW127035   0.079   0.919   2.530  1.0101 -0.3170  0.7608
 5134SOL    HW227036   0.212   0.897   2.460 -0.6086  1.9362  2.2555
 5135SOL     OW27037   0.100   0.197   2.858 -0.4674 -0.6008  0.5036
 5135SOL    HW127038   0.184   0.232   2.886 -1.8390  2.1333  1.1510
 5135SOL    HW227039   0.131   0.114   2.821 -1.0216 -0.9331  0.7866
 5136SOL     OW27040   2.878   1.288   5.682 -0.2180 -0.4004  0.4363
 5136SOL    HW127041   2.924   1.371   5.666  0.8945 -1.3813 -1.4782
 5136SOL    HW227042   2.840   1.259   5.599  0.9910 -1.8996  0.4274
 5137SOL     OW27043   3.446   3.151  14.657 -0.0491 -0.5784 -0.1952
 5137SOL    HW127044   3.535   3.172  14.630  0.6198 -0.7574  1.8648
 5137SOL    HW227045   3.442   3.058  14.633 -1.2481 -0.9428  1.3627
 5138SOL     OW27046   1.348   0.792   3.208  0.1438  0.3082  0.3712
 5138SOL    HW127047   1.415   0.726   3.222 -0.6403 -0.3411  1.0659
 5138SOL    HW227048   1.362   0.816   3.116  1.5421 -2.5125 -0.1367
 5139SOL     OW27049   3.960   4.416   7.344 -0.3482 -0.1146  0.1153
 5139SOL    HW127050   4.006   4.499   7.336 -0.8981  0.2535  0.7086
 5139SOL    HW227051   3.903   4.430   7.269  0.2755  1.3488 -0.0868
 5140SOL     OW27052   2.593   2.182   1.592  0.3118  0.1785 -0.1135
 5140SOL    HW127053   2.549   2.098   1.604 -1.2947  1.1883  1.0916
 5140SOL    HW227054   2.621   2.223   1.674 -1.6692  0.6388  0.3419
 5141SOL     OW27055   3.953   1.610   3.772  0.2479  0.3505 -0.3945
 5141SOL    HW127056   3.947   1.661   3.853  2.2093  0.5217 -0.3578
 5141SOL    HW227057   3.875   1.556   3.784  1.4542 -1.3639 -0.1889
 5142SOL     OW27058   1.329   3.691   3.145  0.2595  0.3499  0.9697
 5142SOL    HW127059   1.328   3.786   3.135  0.5217  0.3403  0.8675
 5142SOL    HW227060   1.414   3.685   3.102  0.6437 -0.7862  1.8922
 5143SOL     OW27061   1.926   0.487   2.689  0.2864  0.4390 -0.1241
 5143SOL    HW127062   1.910   0.547   2.762 -1.1450  0.6014 -0.5629
 5143SOL    HW227063   1.835   0.472   2.662  0.3408 -0.7977  0.3761
 5144SOL     OW27064   3.912   1.137  12.121 -0.6458 -0.1161 -0.8556
 5144SOL    HW127065   3.850   1.150  12.193 -0.0639 -1.0615 -0.2022
 5144SOL    HW227066   3.895   1.044  12.106  0.6460 -0.6880  1.2559
 5145SOL     OW27067   3.900   0.306   1.298  0.1558 -0.4663  0.1883
 5145SOL    HW127068   3.841   0.380   1.279  0.0444 -0.3300  1.0722
 5145SOL    HW227069   3.971   0.328   1.237 -0.2165 -0.1896 -0.1450
 5146SOL     OW27070   2.559   3.769   4.038  0.3978  0.2047 -0.0431
 5146SOL    HW127071   2.508   3.700   3.995 -0.4576 -1.5353  3.6998
 5146SOL    HW227072   2.535   3.732   4.123 -1.9786  0.9889 -0.3718
 5147SOL     OW27073   4.206   0.541  16.617  0.2185  0.0725 -0.0602
 5147SOL    HW127074   4.158   0.606  16.566 -0.4097 -1.2558 -1.1828
 5147SOL    HW227075   4.144   0.470  16.596 -0.0275  0.1885  0.2714
 5148SOL     OW27076   1.484   3.360   6.543 -0.2688 -0.0962  0.0136
 5148SOL    HW127077   1.482   3.445   6.499 -5.3631 -1.0931 -1.6624
 5148SOL    HW227078   1.579   3.350   6.550 -0.1745  0.0649 -1.0168
 5149SOL     OW27079   4.384   3.679   3.425  0.4730  0.1188 -0.5142
 5149SOL    HW127080   4.465   3.656   3.469 -0.2204  1.1761  1.3000
 5149SOL    HW227081   4.346   3.599   3.388  1.3049  0.0281 -1.1878
 5150SOL     OW27082   1.515   1.544   6.772  0.0570  0.6508 -0.2364
 5150SOL    HW127083   1.515   1.636   6.746  1.0545  0.4871 -0.8002
 5150SOL    HW227084   1.423   1.517   6.773 -0.1175  1.2644  0.3197
 5151SOL     OW27085   2.949   1.229   6.171 -0.3612 -0.0391 -0.4262
 5151SOL    HW127086   2.891   1.259   6.101 -1.6221  1.4111  1.2328
 5151SOL    HW227087   2.882   1.194   6.230  1.4897 -1.1989  1.0065
 5152SOL     OW27088   0.303   4.482   8.095 -0.4548 -0.1458  0.2317
 5152SOL    HW127089   0.277   4.527   8.175  1.8450 -0.8482  1.3594
 5152SOL    HW227090   0.394   4.511   8.094  0.7887 -4.0464  0.1437
 5153SOL     OW27091   0.233   3.864  15.202  0.5502  0.4998 -0.2332
 5153SOL    HW127092   0.283   3.843  15.123 -2.1519  3.0941 -2.6199
 5153SOL    HW227093   0.229   3.959  15.205  1.3238  0.4929  0.7849
 5154SOL     OW27094   0.023   3.728   5.266 -0.3004  0.1386 -0.0103
 5154SOL    HW127095   4.730   3.729   5.176 -0.9798 -0.1192  0.2281
 5154SOL    HW227096   0.105   3.681   5.256 -0.6781 -0.3465 -0.8063
 5155SOL     OW27097   4.409   1.756   6.538  0.2376  0.0595  0.2350
 5155SOL    HW127098   4.458   1.707   6.604 -0.0486 -0.8979 -0.2664
 5155SOL    HW227099   4.478   1.803   6.491 -1.6130  0.9285 -1.6021
 5156SOL     OW27100   3.164   1.699   4.796  0.0722 -0.0405 -0.2507
 5156SOL    HW127101   3.243   1.662   4.836 -0.6267 -0.7566  0.4601
 5156SOL    HW227102   3.147   1.635   4.727 -0.0643  0.5501 -0.7561
 5157SOL     OW27103   0.264   3.150   5.985 -0.2329 -0.2107  0.4516
 5157SOL    HW127104   0.332   3.092   5.951 -0.6444 -1.4108  1.6471
 5157SOL    HW227105   0.307   3.199   6.054  0.6735  2.2369 -1.8753
 5158SOL     OW27106   2.204   3.307   4.196  0.1089  0.3515  0.6448
 5158SOL    HW127107   2.293   3.282   4.221 -0.2590 -2.4473 -0.7736
 5158SOL    HW227108   2.180   3.374   4.259  0.1491  1.5293 -0.5902
 5159SOL     OW27109   3.016   1.768   7.588 -0.0730  0.1898 -0.8063
 5159SOL    HW127110   3.092   1.716   7.615  1.1379  0.3709 -3.8208
 5159SOL    HW227111   2.953   1.733   7.651 -0.9656 -0.8946 -2.2865
 5160SOL     OW27112   3.568   0.657   1.611  0.4606  0.1541 -0.1448
 5160SOL    HW127113   3.502   0.722   1.636  0.2412  0.1176 -0.6372
 5160SOL    HW227114   3.620   0.714   1.554  1.1623  0.6658  1.0148
 5161SOL     OW27115   3.882   1.491   6.124  0.1633  0.2436 -0.2249
 5161SOL    HW127116   3.885   1.476   6.029  3.6031  1.2938 -0.3024
 5161SOL    HW227117   3.788   1.481   6.140 -0.3507  0.7392 -2.9594
 5162SOL     OW27118   2.264   4.459   7.062  0.2429 -0.2691  0.5993
 5162SOL    HW127119   2.271   4.450   7.157  2.1655  0.5460  0.5194
 5162SOL    HW227120   2.287   4.371   7.030  1.0374 -1.3101  4.0300
 5163SOL     OW27121   3.502   0.672   5.976  0.0936 -0.0787  0.5893
 5163SOL    HW127122   3.536   0.714   6.055  2.1110  0.2578 -0.4649
 5163SOL    HW227123   3.454   0.744   5.935  0.0445  0.5800  1.7879
 5164SOL     OW27124   0.188   1.790   6.019 -0.2510  0.0028 -0.3132
 5164SOL    HW127125   0.278   1.759   6.016  0.3984  1.5448  3.9187
 5164SOL    HW227126   0.178   1.801   5.924 -2.2342  1.6180  0.0885
 5165SOL     OW27127   3.714   3.859  15.389 -0.1351  0.5989 -0.3425
 5165SOL    HW127128   3.648   3.859  15.319  1.5814  0.8661 -1.9744
 5165SOL    HW227129   3.680   3.925  15.450 -0.7159  0.5637 -0.6224
 5166SOL     OW27130   1.710   1.223   8.822 -0.2577  0.0105  0.1116
 5166SOL    HW127131   1.625   1.192   8.791  0.8304  1.2347 -4.0618
 5166SOL    HW227132   1.763   1.217   8.742 -0.3255  2.0583 -0.1045
 5167SOL     OW27133   3.258   3.211   0.720  0.1491 -0.5725  0.6550
 5167SOL    HW127134   3.256   3.251   0.633  0.9732 -1.5442  0.1849
 5167SOL    HW227135   3.322   3.140   0.709  3.3479  2.4384  0.0444
 5168SOL     OW27136   4.191   4.408   8.723  0.1752  0.6195  0.5064
 5168SOL    HW127137   4.189   4.468   8.797  1.1231 -0.0100  1.0479
 5168SOL    HW227138   4.096   4.407   8.710  0.1755  3.3939  0.1948
 5169SOL     OW27139   1.133   2.158   8.360  0.3858 -0.1462  0.4870
 5169SOL    HW127140   1.128   2.067   8.332  0.4980 -0.3918  1.2880
 5169SOL    HW227141   1.047   2.183   8.324  1.8052  1.8908 -1.5286
 5170SOL     OW27142   4.556   1.552   1.426  0.1008 -0.0674  0.2791
 5170SOL    HW127143   4.531   1.470   1.468 -0.3333 -0.6645 -1.1281
 5170SOL    HW227144   4.511   1.549   1.341 -0.1932 -0.9993  0.4625
 5171SOL     OW27145   3.134   3.088  14.874  0.0722  0.4262 -0.4465
 5171SOL    HW127146   3.073   3.086  14.948 -0.4023  1.8027 -0.7948
 5171SOL    HW227147   3.072   3.095  14.802  0.5742  0.1924 -0.8953
 5172SOL     OW27148   4.648   3.729   3.953 -0.5385 -0.0387 -0.0026
 5172SOL    HW127149   4.648   3.734   4.049 -3.0365 -1.8626  0.0814
 5172SOL    HW227150   4.564   3.686   3.941 -0.3615  0.0505 -1.4624
 5173SOL     OW27151   2.967   1.529   3.318  0.0669 -0.2554 -0.4297
 5173SOL    HW127152   2.912   1.524   3.396  1.3455 -2.2427  0.3594
 5173SOL    HW227153   3.051   1.539   3.363  0.9781 -0.9599 -1.9702
 5174SOL     OW27154   1.125   1.462  12.753  0.2267 -0.1570 -0.5805
 5174SOL    HW127155   1.202   1.435  12.703  0.3526  0.2865 -0.6200
 5174SOL    HW227156   1.123   1.381  12.805 -0.0249  0.3059  0.1333
 5175SOL     OW27157   3.592   2.999   7.749  0.2939  0.4076 -0.0182
 5175SOL    HW127158   3.531   3.061   7.791  0.8958  1.0643 -0.1132
 5175SOL    HW227159   3.632   2.956   7.825  1.5312 -0.3020 -1.0826
 5176SOL     OW27160   4.076   1.252   0.477  0.1164 -0.1487 -0.0738
 5176SOL    HW127161   4.118   1.337   0.486 -1.1384  0.3925  0.6633
 5176SOL    HW227162   4.016   1.286   0.411  0.6122 -1.5778 -1.2460
 5177SOL     OW27163   2.910   2.420   5.882 -0.0427  0.7443 -0.0446
 5177SOL    HW127164   2.907   2.468   5.799 -0.7556 -1.8331 -1.5298
 5177SOL    HW227165   2.869   2.337   5.857  0.3593  0.7317 -0.6692
 5178SOL     OW27166   2.751   1.913  15.295  0.2691 -0.4761  0.4121
 5178SOL    HW127167   2.760   1.829  15.250 -1.1446 -0.8347  0.7888
 5178SOL    HW227168   2.714   1.890  15.381  0.1311 -0.8751  0.2475
 5179SOL     OW27169   3.276   2.822   0.680 -0.6537 -0.1546  0.3195
 5179SOL    HW127170   3.239   2.746   0.636 -2.1999 -0.2161  1.7376
 5179SOL    HW227171   3.204   2.881   0.658 -1.2750 -0.4331  1.6459
 5180SOL     OW27172   1.249   2.065  14.387  0.1684 -0.0603  0.4438
 5180SOL    HW127173   1.186   1.996  14.409  1.6274 -2.0482 -1.5703
 5180SOL    HW227174   1.221   2.074  14.296  0.8485  0.7476  0.3059
 5181SOL     OW27175   4.344   3.378   6.551  0.0241  0.0988 -0.7087
 5181SOL    HW127176   4.404   3.411   6.618 -0.1556  0.0180 -0.5075
 5181SOL    HW227177   4.403   3.347   6.482 -0.0120 -0.7560 -0.3652
 5182SOL     OW27178   0.815   3.767   9.438  0.1413  0.1197  0.4354
 5182SOL    HW127179   0.720   3.775   9.434  0.0561 -0.4673  1.2399
 5182SOL    HW227180   0.837   3.829   9.369  1.7548 -0.5462  0.3484
 5183SOL     OW27181   3.741   4.565   9.253 -0.0335 -0.4763  0.4656
 5183SOL    HW127182   3.821   4.553   9.202 -1.0385 -1.5675 -0.8340
 5183SOL    HW227183   3.698   4.481   9.240 -1.8101  0.2339  1.7751
 5184SOL     OW27184   2.793   1.690   9.349 -0.3953 -0.1186  0.4512
 5184SOL    HW127185   2.742   1.749   9.404 -2.2835  1.1449 -2.6600
 5184SOL    HW227186   2.869   1.744   9.331  0.0672 -1.8324 -2.8387
 5185SOL     OW27187   2.504   0.499   4.184 -0.0795  0.2231 -0.5526
 5185SOL    HW127188   2.561   0.565   4.144 -2.6419  2.4786 -0.4533
 5185SOL    HW227189   2.502   0.525   4.276 -2.5692  2.8310 -1.3554
 5186SOL     OW27190   4.232   2.371  13.769 -0.0458  0.4061 -0.3239
 5186SOL    HW127191   4.213   2.370  13.863 -0.8921 -0.9369 -0.5013
 5186SOL    HW227192   4.155   2.327  13.732 -0.1944  0.1224  0.3332
 5187SOL     OW27193   3.255   1.726   1.925  0.3716  0.0493  0.1690
 5187SOL    HW127194   3.316   1.799   1.926 -0.8505  1.0512  1.7992
 5187SOL    HW227195   3.182   1.783   1.901  1.1976 -0.2166 -2.9614
 5188SOL     OW27196   3.845   4.469   6.425  0.5502 -0.0101  0.2327
 5188SOL    HW127197   3.900   4.401   6.385  1.6446  0.7452  0.4279
 5188SOL    HW227198   3.861   4.547   6.371  1.4669  0.1553  0.7338
 5189SOL     OW27199   2.424   4.032   8.820  0.9611 -0.6674  0.4722
 5189SOL    HW127200   2.513   4.039   8.855  1.3441 -0.2571 -0.5851
 5189SOL    HW227201   2.374   4.064   8.894  0.2195 -1.4094  0.2910
 5190SOL     OW27202   1.504   1.061   7.074  0.4337  0.4123  0.0399
 5190SOL    HW127203   1.517   1.149   7.039 -1.7147  1.3654  1.6910
 5190SOL    HW227204   1.430   1.031   7.021  0.3185  0.7480  0.0142
 5191SOL     OW27205   4.064   2.946  13.360 -0.0138  0.7646 -0.0701
 5191SOL    HW127206   3.998   2.966  13.294 -0.2803 -0.1066 -0.0783
 5191SOL    HW227207   4.074   2.852  13.341  0.4386  1.2585 -2.2624
 5192SOL     OW27208   1.139   4.056   7.964 -0.5914  0.2930 -0.0800
 5192SOL    HW127209   1.059   4.049   7.913 -1.1101 -0.0202  0.7752
 5192SOL    HW227210   1.198   4.115   7.917  2.2045 -1.7054  0.9076
 5193SOL     OW27211   1.039   3.388   0.672 -0.5548  0.3739  0.4709
 5193SOL    HW127212   1.046   3.472   0.626 -2.4844  0.2475 -0.0377
 5193SOL    HW227213   1.125   3.352   0.653 -1.0403  0.5345 -1.9696
 5194SOL     OW27214   3.316   1.109   6.412  0.8141  0.2754 -0.3983
 5194SOL    HW127215   3.281   1.143   6.494 -0.9109  1.8733 -1.8082
 5194SOL    HW227216   3.276   1.164   6.346 -0.5682  2.0288  1.9001
 5195SOL     OW27217   2.161   4.492   1.839  0.3383 -0.3064  0.0274
 5195SOL    HW127218   2.196   4.480   1.927 -1.6118  0.9801  0.9755
 5195SOL    HW227219   2.162   4.403   1.805  0.2349  0.7712 -2.8518
 5196SOL     OW27220   3.415   2.242   4.380  0.2842 -1.1767  0.1543
 5196SOL    HW127221   3.349   2.196   4.328 -1.4099 -0.3010  1.5495
 5196SOL    HW227222   3.469   2.165   4.401  2.2949  0.2102 -0.0196
 5197SOL     OW27223   3.908   2.918   0.995 -0.1034 -0.4001 -0.0459
 5197SOL    HW127224   3.908   3.012   1.010  0.3729 -0.3652 -0.2900
 5197SOL    HW227225   3.992   2.881   1.022 -0.6104 -0.2304  1.8035
 5198SOL     OW27226   1.846   1.631   6.785  0.1904 -0.4414 -0.4099
 5198SOL    HW127227   1.777   1.693   6.809 -0.8089 -1.1668 -1.4132
 5198SOL    HW227228   1.821   1.625   6.693  0.6115 -1.5374 -0.4612
 5199SOL     OW27229   4.223   2.095   8.557  0.1498 -0.3717 -0.7062
 5199SOL    HW127230   4.136   2.134   8.571 -0.7653 -2.5769 -0.2194
 5199SOL    HW227231   4.275   2.172   8.533  0.2636 -0.4100 -0.5783
 5200SOL     OW27232   3.982   2.647   8.792 -0.0480 -0.1453  0.2678
 5200SOL    HW127233   3.984   2.682   8.881 -0.1203  0.5925 -0.0204
 5200SOL    HW227234   4.056   2.588   8.783 -0.9740 -1.1558 -0.7101
 5201SOL     OW27235   1.170   3.442   1.346  0.6712  0.5167  0.4737
 5201SOL    HW127236   1.227   3.402   1.280  1.3272 -2.4826  2.8476
 5201SOL    HW227237   1.219   3.520   1.375 -0.0758  2.1779 -2.7559
 5202SOL     OW27238   3.063   1.926   6.094 -0.5077  0.1217 -0.0690
 5202SOL    HW127239   3.120   1.925   6.171  0.0103  1.2657 -0.4354
 5202SOL    HW227240   3.098   2.007   6.057  1.1809 -1.0189 -0.9362
 5203SOL     OW27241   1.678   3.488   7.150  0.1294 -0.1664 -0.5134
 5203SOL    HW127242   1.637   3.572   7.133  1.0278  0.3056 -0.3586
 5203SOL    HW227243   1.610   3.435   7.192 -0.3305  0.4670 -0.4759
 5204SOL     OW27244   2.773   2.893   8.784 -0.6420 -0.5259  0.2580
 5204SOL    HW127245   2.746   2.896   8.692 -2.8027  0.4627  0.9365
 5204SOL    HW227246   2.751   2.803   8.811 -0.7421 -0.3341  0.8156
 5205SOL     OW27247   1.091   4.074   6.078  0.3740  0.1478  0.2266
 5205SOL    HW127248   1.133   3.988   6.084  0.8067  0.4817  1.9331
 5205SOL    HW227249   1.117   4.099   5.989  0.6747 -1.5694 -0.1608
 5206SOL     OW27250   4.660   4.344   5.420 -0.2671 -0.7956  0.5831
 5206SOL    HW127251   4.738   4.310   5.377 -1.3116 -0.3377 -1.6829
 5206SOL    HW227252   4.687   4.431   5.451  2.6635 -1.5776  0.2434
 5207SOL     OW27253   0.607   2.262   5.995  0.1242  0.2233 -0.1033
 5207SOL    HW127254   0.670   2.311   5.942 -1.0942  0.9479 -0.8758
 5207SOL    HW227255   0.537   2.247   5.933  0.1355  0.2447 -0.1211
 5208SOL     OW27256   1.140   0.616  16.363  0.0039  0.0746 -0.5100
 5208SOL    HW127257   1.169   0.703  16.335  0.9123  0.1101  0.5384
 5208SOL    HW227258   1.077   0.594  16.295  0.6261 -0.9155 -0.7456
 5209SOL     OW27259   2.919   2.987   8.537  0.0400 -0.4518  0.3280
 5209SOL    HW127260   2.950   3.077   8.546  0.1605 -0.1242 -3.4117
 5209SOL    HW227261   2.939   2.962   8.627  1.5541 -0.1196  0.0898
 5210SOL     OW27262   1.998   2.854   3.293 -0.0072  0.0773  0.1492
 5210SOL    HW127263   2.079   2.823   3.251  1.0653  1.7529  0.9291
 5210SOL    HW227264   2.034   2.907   3.364  1.7286 -1.6159  0.5437
 5211SOL     OW27265   0.987   1.940  11.739 -0.1003  0.9440  0.4173
 5211SOL    HW127266   0.907   1.893  11.764 -0.0800  0.4501 -0.4213
 5211SOL    HW227267   1.006   1.885  11.662  2.8899  2.7243 -0.1175
 5212SOL     OW27268   3.438   4.573  15.552  0.2671 -0.2298  0.2684
 5212SOL    HW127269   3.351   4.612  15.562  1.5479  2.7331 -0.0217
 5212SOL    HW227270   3.417   4.488  15.514 -1.6205  0.0732  0.6347
 5213SOL     OW27271   0.370   3.886  10.823  0.0276  0.4540  0.0598
 5213SOL    HW127272   0.280   3.856  10.813  1.4747 -3.3699 -1.5432
 5213SOL    HW227273   0.392   3.901  10.915  0.6315 -0.2497  0.0277
 5214SOL     OW27274   2.253   2.383   6.676  0.2316  0.4016 -0.2461
 5214SOL    HW127275   2.273   2.355   6.586  0.2736  1.5300 -0.5892
 5214SOL    HW227276   2.281   2.474   6.679  1.0377  0.2140 -1.7930
 5215SOL     OW27277   1.658   0.427   2.321 -0.3919  0.1041 -0.5348
 5215SOL    HW127278   1.715   0.350   2.330 -0.3401  0.4864  2.5752
 5215SOL    HW227279   1.681   0.473   2.402 -0.0756 -1.9881  0.5697
 5216SOL     OW27280   3.049   2.245   8.482 -0.2801 -0.3353 -0.0495
 5216SOL    HW127281   2.989   2.187   8.529  1.6464 -0.0278  2.7620
 5216SOL    HW227282   3.002   2.278   8.406  0.7294  0.4903 -0.3164
 5217SOL     OW27283   4.173   2.458   4.933 -0.0213 -0.2783  0.1381
 5217SOL    HW127284   4.148   2.535   4.984 -2.0857 -0.3185 -0.7903
 5217SOL    HW227285   4.224   2.421   5.004 -0.3198 -1.3987 -0.2347
 5218SOL     OW27286   2.109   0.637   9.667 -0.4279 -0.0359  0.0248
 5218SOL    HW127287   2.049   0.611   9.597 -0.5226  0.0684  0.0669
 5218SOL    HW227288   2.106   0.564   9.728 -2.0554 -0.5843 -0.7088
 5219SOL     OW27289   2.906   3.066   2.956 -0.6044  0.9418 -0.4365
 5219SOL    HW127290   2.865   3.136   2.906 -0.8217 -0.2331 -1.9314
 5219SOL    HW227291   2.831   3.030   3.003 -0.2253  0.8192  0.0684
 5220SOL     OW27292   1.914   3.738   7.655  0.3556 -0.1345 -0.7605
 5220SOL    HW127293   1.942   3.679   7.725  0.0962  1.5870  0.7840
 5220SOL    HW227294   1.832   3.772   7.689  1.1788  1.8442 -0.7437
 5221SOL     OW27295   3.379   1.274  11.667 -0.0777 -0.1541 -0.1979
 5221SOL    HW127296   3.382   1.368  11.648 -1.3638  0.2493  1.6108
 5221SOL    HW227297   3.291   1.250  11.698  0.5367 -1.0672  0.8449
 5222SOL     OW27298   1.743   0.111   9.569  0.5598 -0.0216 -0.3857
 5222SOL    HW127299   1.712   0.035   9.619  1.2252 -0.6607 -0.9563
 5222SOL    HW227300   1.718   0.081   9.482 -2.2171  0.2692  0.3101
 5223SOL     OW27301   4.200   3.162   6.632 -0.0823 -0.1159  0.1448
 5223SOL    HW127302   4.158   3.165   6.546 -3.7642 -2.9865  1.8583
 5223SOL    HW227303   4.266   3.231   6.619 -0.0988  0.3537  2.6194
 5224SOL     OW27304   3.223   1.233   6.164 -0.0396 -0.0067 -0.0896
 5224SOL    HW127305   3.207   1.262   6.074 -4.3118 -1.5035  0.2129
 5224SOL    HW227306   3.133   1.219   6.192  0.0962 -2.0796 -0.7342
 5225SOL     OW27307   1.740   2.814   3.225  0.3627 -0.1046 -0.2439
 5225SOL    HW127308   1.725   2.897   3.181 -3.0572 -0.2284  0.6345
 5225SOL    HW227309   1.833   2.825   3.242  0.1102  1.4589  0.0668
 5226SOL     OW27310   2.994   1.532   5.606 -0.1018 -0.6398  0.4654
 5226SOL    HW127311   3.039   1.520   5.690  1.4215 -0.3547 -0.3169
 5226SOL    HW227312   3.012   1.624   5.587  2.9215 -1.9005 -2.6687
 5227SOL     OW27313   0.697   3.129   5.833  0.5540  0.5645 -0.0454
 5227SOL    HW127314   0.689   3.224   5.823  0.7452  0.4291 -1.4681
 5227SOL    HW227315   0.772   3.103   5.780  0.9478 -0.3880  0.9830
 5228SOL     OW27316   4.660   2.637   8.736  0.0433 -0.5587 -0.1920
 5228SOL    HW127317   4.581   2.676   8.697  0.3171  1.3031  1.1228
 5228SOL    HW227318   4.707   2.606   8.659 -0.0887 -0.4665 -0.3099
 5229SOL     OW27319   2.875   4.077  11.983 -0.3129 -0.2920  0.5454
 5229SOL    HW127320   2.815   4.090  12.056  1.3046  0.0061  1.8116
 5229SOL    HW227321   2.813   4.040  11.920  0.6168 -1.7595  0.4985
 5230SOL     OW27322   2.259   4.562   4.005  0.4372 -0.0951  0.2818
 5230SOL    HW127323   2.266   4.606   4.090  0.0987 -2.0616  1.3486
 5230SOL    HW227324   2.337   4.507   4.013  0.3250 -0.6796 -2.9048
 5231SOL     OW27325   0.217   1.952   2.945 -0.4583  0.1728  0.6017
 5231SOL    HW127326   0.228   1.904   2.863  0.8065  0.1533  0.7747
 5231SOL    HW227327   0.130   1.988   2.933  0.8518  3.2752  0.3472
 5232SOL     OW27328   2.138   2.660   8.752  0.1786 -0.8640  0.2461
 5232SOL    HW127329   2.231   2.682   8.753  0.1346 -0.6903  0.3807
 5232SOL    HW227330   2.106   2.712   8.826 -0.3845 -1.2715  0.2880
 5233SOL     OW27331   4.581   1.043   3.511  0.2794  0.0547  0.0516
 5233SOL    HW127332   4.657   1.049   3.453  0.3295 -1.0704  0.0025
 5233SOL    HW227333   4.507   1.062   3.452 -0.5396  0.6658  1.2842
 5234SOL     OW27334   2.547   1.251   1.732 -0.0636 -0.0721 -0.1888
 5234SOL    HW127335   2.518   1.330   1.779  2.7876  2.0597 -1.9780
 5234SOL    HW227336   2.555   1.186   1.801 -3.4468  0.1664  0.4055
 5235SOL     OW27337   1.806   4.605  10.780  0.2769 -0.1768  0.1357
 5235SOL    HW127338   1.753   4.596  10.860 -0.7744  0.0328 -0.5310
 5235SOL    HW227339   1.883   4.554  10.806  0.5584  0.7165  1.0574
 5236SOL     OW27340   2.726   0.997   3.010 -0.4786  0.5662 -0.2585
 5236SOL    HW127341   2.804   0.943   3.014 -2.9973 -2.9054  2.0378
 5236SOL    HW227342   2.748   1.071   3.067 -2.0050  0.2053  0.8269
 5237SOL     OW27343   0.354   2.371  10.394 -0.5547 -0.4800  0.7605
 5237SOL    HW127344   0.429   2.396  10.448 -0.4336 -1.1830  0.9108
 5237SOL    HW227345   0.280   2.380  10.455 -1.9610 -1.1705 -0.8571
 5238SOL     OW27346   2.989   4.487   8.646 -0.2640  0.5471 -0.1136
 5238SOL    HW127347   2.996   4.460   8.737  0.3127  2.4540  0.4133
 5238SOL    HW227348   3.036   4.423   8.592  0.2958  1.2145 -0.4185
 5239SOL     OW27349   3.220   1.030   9.611 -0.0218  0.5527  0.1144
 5239SOL    HW127350   3.252   1.076   9.689 -0.0560  0.5929  0.1047
 5239SOL    HW227351   3.130   1.007   9.637 -0.3734  1.9298  0.0798
 5240SOL     OW27352   0.952   0.192  13.179 -0.0268 -0.0768 -1.0734
 5240SOL    HW127353   0.936   0.265  13.238 -0.1566 -2.0249  1.2835
 5240SOL    HW227354   1.031   0.228  13.139  0.1475 -0.2301 -0.8668
 5241SOL     OW27355   1.875   0.350   9.837  0.1193  0.5213 -0.0945
 5241SOL    HW127356   1.964   0.379   9.821 -0.2311  0.6124 -1.8946
 5241SOL    HW227357   1.838   0.373   9.752 -0.7732  1.9264  0.6521
 5242SOL     OW27358   0.751   0.793   5.587  0.3827  0.2917  0.0372
 5242SOL    HW127359   0.708   0.803   5.502 -1.6832  0.1074  1.0747
 5242SOL    HW227360   0.819   0.726   5.573 -0.7507 -0.6487 -0.9324
 5243SOL     OW27361   1.494   3.666   2.306  0.1520  0.3668  0.7440
 5243SOL    HW127362   1.515   3.748   2.262  1.1878 -1.3046 -1.8460
 5243SOL    HW227363   1.534   3.605   2.244  2.9207  2.5600  0.4015
 5244SOL     OW27364   1.448   1.369   9.588  0.2174  0.4408  0.2268
 5244SOL    HW127365   1.462   1.313   9.512 -1.7985  1.6596 -1.0262
 5244SOL    HW227366   1.503   1.316   9.646  2.2001  0.7274 -1.3890
 5245SOL     OW27367   4.511   4.593   7.385  0.4308  0.0587  0.0474
 5245SOL    HW127368   4.511   4.519   7.325  1.6716 -0.5353  0.7815
 5245SOL    HW227369   4.456   4.653   7.334  0.3332 -0.8343 -0.9021
 5246SOL     OW27370   0.493   1.823  11.384 -0.1783  0.0453  0.0039
 5246SOL    HW127371   0.583   1.796  11.367 -0.7588  0.8973 -4.4517
 5246SOL    HW227372   0.466   1.834  11.292  0.9772 -0.2814 -0.3735
 5247SOL     OW27373   0.533   3.495  16.300 -0.1069  0.3246 -0.1415
 5247SOL    HW127374   0.550   3.505  16.206 -0.8513  2.5888 -0.0559
 5247SOL    HW227375   0.445   3.456  16.303 -0.1107  0.4617  1.4551
 5248SOL     OW27376   2.317   3.331   5.914 -0.1923  0.7364 -0.2171
 5248SOL    HW127377   2.320   3.427   5.915 -1.5244  0.7842 -1.0161
 5248SOL    HW227378   2.250   3.310   5.979  0.9417  0.0320  0.7165
 5249SOL     OW27379   2.802   2.854   1.995  0.5098  0.0440 -0.1047
 5249SOL    HW127380   2.842   2.908   1.927  1.5533  0.5601  0.9135
 5249SOL    HW227381   2.719   2.899   2.007  0.8930  0.6666  0.2254
 5250SOL     OW27382   3.913   2.055   5.421 -0.3656 -0.0371  0.1662
 5250SOL    HW127383   3.903   2.007   5.503 -0.1368 -0.9631 -0.3427
 5250SOL    HW227384   3.888   2.145   5.442  2.8207  1.2961 -1.8061
 5251SOL     OW27385   3.194   4.617   0.854 -0.1675 -0.6895  0.1959
 5251SOL    HW127386   3.117   4.578   0.812 -0.6561 -2.0237  2.3256
 5251SOL    HW227387   3.265   4.585   0.799  0.5370  1.3891 -0.0765
 5252SOL     OW27388   4.664   3.796  15.583 -0.2039  0.0559 -0.0209
 5252SOL    HW127389   4.687   3.814  15.492  0.4929 -2.0139 -0.2534
 5252SOL    HW227390   4.582   3.751  15.568  1.4386 -2.8284 -0.3229
 5253SOL     OW27391   0.046   0.761   7.652  0.7401  0.6119  0.1732
 5253SOL    HW127392   0.073   0.671   7.668  0.4002  0.1055 -2.0018
 5253SOL    HW227393   0.062   0.788   7.742 -3.0474 -0.8613  1.3011
 5254SOL     OW27394   2.876   4.600   9.500  0.4103 -0.1482 -0.0739
 5254SOL    HW127395   2.929   4.660   9.554  2.7040 -2.3822  0.1636
 5254SOL    HW227396   2.786   4.619   9.526 -0.1046  0.1251 -2.0458
 5255SOL     OW27397   0.041   2.226   6.088 -0.3320  0.1848 -0.1847
 5255SOL    HW127398   0.059   2.196   5.999 -0.1416 -0.4056  0.0496
 5255SOL    HW227399   0.129   2.220   6.126 -0.3941  1.7452  0.1895
 5256SOL     OW27400   0.127   1.836   6.275 -0.1223 -0.9912 -0.3007
 5256SOL    HW127401   0.033   1.823   6.283 -0.4766  0.7603 -1.7143
 5256SOL    HW227402   0.140   1.832   6.180 -1.6839  2.4668 -0.6256
 5257SOL     OW27403   3.389   4.699   8.837  0.5207 -0.0091  0.3305
 5257SOL    HW127404   3.440   4.651   8.772  2.6474  3.4553 -0.5798
 5257SOL    HW227405   3.410   4.646   8.913  0.7885  0.9275  0.9143
 5258SOL     OW27406   0.021   2.137   6.884  0.3673  0.2429 -0.0532
 5258SOL    HW127407   0.006   2.231   6.896  0.2679  0.8375 -4.9852
 5258SOL    HW227408   0.100   2.133   6.830  0.3915  0.2929 -0.0214
 5259SOL     OW27409   0.216   3.388   7.905  0.7940  0.1797  0.1748
 5259SOL    HW127410   0.125   3.415   7.919  0.1132 -1.5325 -0.9009
 5259SOL    HW227411   0.272   3.432   7.968 -1.2829  2.6429  0.3029
 5260SOL     OW27412   4.599   1.223  12.351 -0.4034 -0.1728  0.8581
 5260SOL    HW127413   4.612   1.311  12.318  0.6111  0.7494  3.7425
 5260SOL    HW227414   4.514   1.228  12.394 -0.7595 -1.1540  0.2959
 5261SOL     OW27415   3.206   4.308   7.415 -0.5191 -0.2235 -0.1500
 5261SOL    HW127416   3.198   4.400   7.388  3.3114 -0.6427 -2.8298
 5261SOL    HW227417   3.184   4.261   7.334 -1.9091  1.3746 -0.6860
 5262SOL     OW27418   3.701   3.896  15.817  0.1467 -0.0849  0.1347
 5262SOL    HW127419   3.658   3.951  15.753 -2.1530 -2.2438 -0.1691
 5262SOL    HW227420   3.629   3.854  15.865  0.4058 -0.2419  0.3880
 5263SOL     OW27421   2.858   2.150   4.856  0.6013  0.5378 -0.4079
 5263SOL    HW127422   2.902   2.066   4.872  0.3047  0.6086  0.7885
 5263SOL    HW227423   2.848   2.156   4.761  1.4795 -1.1185 -0.6184
 5264SOL     OW27424   3.989   3.072   0.324 -0.2544 -0.4447 -0.1541
 5264SOL    HW127425   3.971   3.147   0.381  1.0654 -0.3036  0.0694
 5264SOL    HW227426   3.961   3.094   0.235 -0.8284  1.5693  0.5360
 5265SOL     OW27427   1.027   0.925   5.666  0.0797  0.4433 -0.4935
 5265SOL    HW127428   0.963   0.957   5.730  2.5200 -0.6174  2.4792
 5265SOL    HW227429   0.998   0.973   5.588 -0.1969 -0.0231 -0.6740
 5266SOL     OW27430   1.411   2.442   7.443 -0.3790  0.2736  0.5890
 5266SOL    HW127431   1.319   2.416   7.432 -0.9308  2.5883 -0.1608
 5266SOL    HW227432   1.456   2.373   7.393  0.8961  2.0516 -0.6818
 5267SOL     OW27433   2.430   0.498   0.452 -0.0580  0.0300 -0.0845
 5267SOL    HW127434   2.455   0.480   0.543  0.0114 -0.4364 -0.1977
 5267SOL    HW227435   2.493   0.446   0.403  0.2137  1.5743 -1.3690
 5268SOL     OW27436   1.391   1.080  12.060  0.8048  0.1655 -0.1939
 5268SOL    HW127437   1.430   1.153  12.108 -0.7645  1.4828 -0.9385
 5268SOL    HW227438   1.311   1.127  12.036  1.0730 -0.7726 -2.9247
 5269SOL     OW27439   0.501   4.594   9.143 -0.1722  0.0218 -0.2692
 5269SOL    HW127440   0.512   4.642   9.061 -1.4069 -1.0876 -1.0838
 5269SOL    HW227441   0.561   4.641   9.200 -0.2601 -0.6631  0.3835
 5270SOL     OW27442   1.424   1.797   7.368  0.3730  0.6853  0.2962
 5270SOL    HW127443   1.491   1.772   7.432 -0.7114  0.6642  1.4278
 5270SOL    HW227444   1.385   1.710   7.352 -1.5345  1.2558  1.7470
 5271SOL     OW27445   4.032   3.872   7.730 -0.4531  0.0814 -0.4158
 5271SOL    HW127446   4.089   3.800   7.756  0.1294  0.3647 -0.9313
 5271SOL    HW227447   3.966   3.872   7.800 -1.1069  0.0693 -1.0317
 5272SOL     OW27448   3.004   4.081  17.735 -0.2171 -0.0155 -0.8112
 5272SOL    HW127449   2.991   4.175  17.720  0.3837  0.4407  1.5276
 5272SOL    HW227450   3.095   4.081   0.009 -0.2656  2.4481 -0.6167
 5273SOL     OW27451   0.952   3.402   6.304 -0.0367 -0.0313  0.0318
 5273SOL    HW127452   0.878   3.406   6.243  0.2167  2.1657 -0.1122
 5273SOL    HW227453   0.915   3.463   6.368 -0.1534 -0.0214 -0.0445
 5274SOL     OW27454   1.791   0.212  11.516 -0.0999 -0.4006  0.1437
 5274SOL    HW127455   1.874   0.254  11.539 -0.2078  0.4381 -1.0074
 5274SOL    HW227456   1.741   0.294  11.514 -0.7912 -0.8047  0.6911
 5275SOL     OW27457   1.765   3.144   4.987 -0.2991 -0.1685  0.1601
 5275SOL    HW127458   1.855   3.136   5.017  0.0668  1.5759 -0.4612
 5275SOL    HW227459   1.766   3.114   4.897 -0.2601 -2.3931  0.8956
 5276SOL     OW27460   4.669   0.801   3.226 -0.1930 -0.1709  0.3756
 5276SOL    HW127461   4.719   0.775   3.148 -0.0420 -1.1066  0.7774
 5276SOL    HW227462   4.658   0.895   3.212 -1.1472 -0.2609  0.5565
 5277SOL     OW27463   0.211   4.556   6.382 -0.3453 -0.5362  0.0026
 5277SOL    HW127464   0.156   4.628   6.350  2.1135  0.5490 -1.7831
 5277SOL    HW227465   0.275   4.610   6.429 -1.0148  0.5811 -0.3731
 5278SOL     OW27466   1.053   2.308   1.391  0.3078 -0.0311  0.2604
 5278SOL    HW127467   1.029   2.335   1.302  1.6025  0.6877  0.1385
 5278SOL    HW227468   1.111   2.235   1.367  0.0443 -0.5784  1.3014
 5279SOL     OW27469   4.399   0.809   4.289  0.3992 -0.0406 -0.6376
 5279SOL    HW127470   4.393   0.715   4.308  1.7512 -0.2442 -1.2325
 5279SOL    HW227471   4.378   0.859   4.368  0.5497  1.3254 -1.4742
 5280SOL     OW27472   2.117   0.949   9.175 -0.5504 -0.4402 -0.4503
 5280SOL    HW127473   2.152   0.961   9.263 -1.4875  2.3447 -0.4434
 5280SOL    HW227474   2.031   0.909   9.189 -2.2609  2.7788 -1.5552
 5281SOL     OW27475   0.528   1.093   1.564  0.5349 -0.0640 -0.5500
 5281SOL    HW127476   0.594   1.116   1.499  1.7420  2.0282  1.3730
 5281SOL    HW227477   0.570   1.122   1.646  0.0486  1.0915 -0.7139
 5282SOL     OW27478   0.641   4.479   7.088 -0.0232 -0.2340 -0.6777
 5282SOL    HW127479   0.629   4.523   7.172  1.3562 -1.5365  0.2096
 5282SOL    HW227480   0.592   4.537   7.029 -1.1466  0.6868  1.1593
 5283SOL     OW27481   0.561   2.122   9.159  0.2348 -0.3900  0.8391
 5283SOL    HW127482   0.535   2.038   9.120  1.7384 -0.6243  0.3307
 5283SOL    HW227483   0.505   2.185   9.114  1.2542  1.3034  1.9336
 5284SOL     OW27484   3.311   0.714   1.932 -0.0932  0.1467  0.4153
 5284SOL    HW127485   3.312   0.758   1.847  0.6803  1.6927  1.2047
 5284SOL    HW227486   3.370   0.771   1.983 -0.1917  2.5087 -2.0969
 5285SOL     OW27487   4.525   2.872   3.054  0.7244  0.0133 -0.2644
 5285SOL    HW127488   4.444   2.907   3.016  2.0458  2.6393 -0.6171
 5285SOL    HW227489   4.589   2.937   3.025  0.4443  1.0373  1.3999
 5286SOL     OW27490   3.480   0.806  15.569  0.3338  0.6908  0.5294
 5286SOL    HW127491   3.396   0.814  15.524  1.5155  2.2715 -1.4141
 5286SOL    HW227492   3.452   0.770  15.652  4.7989  4.0100  3.4763
 5287SOL     OW27493   3.845   1.236  10.413  0.5058  0.5004 -0.0044
 5287SOL    HW127494   3.857   1.253  10.319 -0.8646  0.2021 -0.2382
 5287SOL    HW227495   3.807   1.315  10.451  2.8376  0.9944  1.2320
 5288SOL     OW27496   3.609   2.752   9.685  0.7563  0.1478 -0.1171
 5288SOL    HW127497   3.694   2.772   9.647 -0.3324  0.7021 -2.2531
 5288SOL    HW227498   3.635   2.675   9.736 -0.9379 -0.9244 -0.8947
 5289SOL     OW27499   2.186   2.659   3.165  0.7209  0.2893  0.9284
 5289SOL    HW127500   2.220   2.573   3.190  2.1370  1.1715  2.0764
 5289SOL    HW227501   2.158   2.658   3.074 -0.8616  2.3189  1.3738
 5290SOL     OW27502   3.048   0.376   3.507 -0.4038  0.4284 -0.1763
 5290SOL    HW127503   3.051   0.285   3.537  0.4695 -0.4997 -3.1299
 5290SOL    HW227504   2.970   0.414   3.550 -1.8992 -0.0061 -2.4986
 5291SOL     OW27505   0.025   1.064  15.220 -0.2282 -0.1149 -0.0806
 5291SOL    HW127506   4.691   1.050  15.280 -1.2958  2.5523 -0.7691
 5291SOL    HW227507   0.001   1.006  15.147  0.9456 -0.4645 -0.1786
 5292SOL     OW27508   0.801   3.464   8.689 -0.7969  0.1792 -0.1203
 5292SOL    HW127509   0.887   3.456   8.730 -1.8596 -2.5391  1.6007
 5292SOL    HW227510   0.817   3.440   8.598  0.2816  0.4003  0.0187
 5293SOL     OW27511   1.491   1.979   6.177 -0.4911  0.6324  0.2845
 5293SOL    HW127512   1.451   2.037   6.112  1.3437  2.0729  0.4155
 5293SOL    HW227513   1.443   1.898   6.163  0.2526  0.3282 -0.4979
 5294SOL     OW27514   0.743   0.058   7.076 -0.1738 -0.4746  0.4305
 5294SOL    HW127515   0.724   0.149   7.054  0.0936 -0.1369  1.6005
 5294SOL    HW227516   0.662   0.011   7.052 -0.6321 -1.5058  4.0092
 5295SOL     OW27517   4.084   4.326   5.409 -0.0892  0.0309  0.0561
 5295SOL    HW127518   4.099   4.240   5.370 -2.6509  0.6688 -2.2735
 5295SOL    HW227519   3.991   4.327   5.386 -0.1629 -1.4565  0.3275
 5296SOL     OW27520   2.273   0.463  15.977 -0.3310  0.1248 -0.1838
 5296SOL    HW127521   2.336   0.535  15.976 -0.2034 -0.0124 -2.5675
 5296SOL    HW227522   2.306   0.394  15.919 -0.6518 -0.4712  0.3462
 5297SOL     OW27523   4.088   2.497   9.234 -0.3161  0.2402  0.1730
 5297SOL    HW127524   4.076   2.420   9.289 -1.3880  0.4919  0.2798
 5297SOL    HW227525   4.100   2.454   9.149  3.3806  2.6587 -0.5098
 5298SOL     OW27526   1.861   2.932   4.176  0.3105 -0.1882  0.9649
 5298SOL    HW127527   1.868   2.839   4.157  2.2642  0.0756  0.4166
 5298SOL    HW227528   1.953   2.959   4.166  0.6442 -1.0583  1.7342
 5299SOL     OW27529   3.477   0.342   1.337  0.6391 -0.1454  0.2208
 5299SOL    HW127530   3.402   0.307   1.290  1.0426  1.2100 -1.4133
 5299SOL    HW227531   3.535   0.270   1.363  0.5750  0.0608  0.9178
 5300SOL     OW27532   2.374   1.660   2.567  0.0913 -0.2806  0.3444
 5300SOL    HW127533   2.419   1.706   2.638  1.3063  0.9820 -1.2665
 5300SOL    HW227534   2.320   1.733   2.537 -0.7552 -1.2072 -0.3821
 5301SOL     OW27535   1.761   3.674   4.930 -0.0594  0.0288  0.1221
 5301SOL    HW127536   1.841   3.632   4.898  0.6546 -1.9124  4.4668
 5301SOL    HW227537   1.684   3.620   4.912  1.7127 -1.8230 -1.9570
 5302SOL     OW27538   0.795   1.085   5.742  0.2139 -0.1645 -0.0364
 5302SOL    HW127539   0.775   1.010   5.686 -0.5900  1.1637 -1.5211
 5302SOL    HW227540   0.779   1.165   5.692 -1.2761  0.4757  1.4216
 5303SOL     OW27541   4.278   0.893  16.124 -0.3726 -0.0230 -0.5302
 5303SOL    HW127542   4.374   0.890  16.129 -0.3635  0.4857 -0.4017
 5303SOL    HW227543   4.267   0.949  16.047  0.7514 -1.6134 -1.8440
 5304SOL     OW27544   4.346   0.276  11.050  0.6678 -0.4916  0.0296
 5304SOL    HW127545   4.279   0.251  11.115  3.4053 -0.2576  2.9391
 5304SOL    HW227546   4.315   0.366  11.042  0.7238 -0.3259  1.6424
 5305SOL     OW27547   3.607   2.750   8.159  0.2007 -0.1447  0.4802
 5305SOL    HW127548   3.617   2.656   8.169 -0.0528  0.1293  3.3384
 5305SOL    HW227549   3.537   2.771   8.221  0.2348  1.2051  0.0749
 5306SOL     OW27550   1.842   1.624   9.546 -0.1292 -0.4506 -0.2027
 5306SOL    HW127551   1.824   1.560   9.615  1.7679 -1.2056 -0.4092
 5306SOL    HW227552   1.899   1.573   9.489 -1.4855 -0.2754 -1.6863
 5307SOL     OW27553   0.307   2.742   7.964 -0.0967  0.0845  0.0586
 5307SOL    HW127554   0.239   2.809   7.964  1.4809  1.6844 -0.2908
 5307SOL    HW227555   0.376   2.784   7.913  0.2597 -0.4705  0.0842
 5308SOL     OW27556   0.009   1.057   2.233 -0.3672  0.4947  0.1667
 5308SOL    HW127557   0.100   1.073   2.258 -0.2516  0.0830  0.0106
 5308SOL    HW227558   4.738   0.982   2.293  0.9648 -0.6854 -1.0939
 5309SOL     OW27559   3.864   2.293   5.526  0.4596 -0.2797  0.2729
 5309SOL    HW127560   3.799   2.264   5.590  1.7139 -0.4908  1.4636
 5309SOL    HW227561   3.852   2.388   5.532  0.1942 -0.2277 -1.0919
 5310SOL     OW27562   3.234   0.976   1.351 -0.2537  0.0993  0.1988
 5310SOL    HW127563   3.214   0.893   1.309  0.1213  0.0065  0.2041
 5310SOL    HW227564   3.212   1.039   1.282 -0.3613  0.1004  0.2347
 5311SOL     OW27565   1.307   3.906   9.255  0.4976  0.3086  0.0251
 5311SOL    HW127566   1.383   3.950   9.217  2.4492 -1.2350  2.0931
 5311SOL    HW227567   1.241   3.967   9.222 -0.4149 -1.0212 -0.5810
 5312SOL     OW27568   3.370   2.787  12.852 -0.7709  0.0501  0.0232
 5312SOL    HW127569   3.319   2.858  12.814 -0.7096  0.6414  1.0579
 5312SOL    HW227570   3.320   2.714  12.817 -0.9636  0.3635 -0.3499
 5313SOL     OW27571   2.523   3.842  17.264 -0.2785  0.0048 -0.1452
 5313SOL    HW127572   2.460   3.905  17.231 -0.6740 -0.4748 -0.2998
 5313SOL    HW227573   2.607   3.871  17.229  0.6422 -2.7083 -0.1926
 5314SOL     OW27574   1.668   1.651   7.162 -0.3923  0.1415  0.0623
 5314SOL    HW127575   1.584   1.607   7.151 -2.5577  3.4313  3.6791
 5314SOL    HW227576   1.666   1.701   7.080  1.7616  1.3553  0.7433
 5315SOL     OW27577   1.436   0.057   2.426 -0.0921  0.5789  0.0127
 5315SOL    HW127578   1.349   0.053   2.385  0.5287  1.8646 -1.4364
 5315SOL    HW227579   1.429   0.120   2.498 -3.6948 -0.4789  0.5998
 5316SOL     OW27580   4.148   1.252   5.764 -0.0613  0.0752  0.1311
 5316SOL    HW127581   4.240   1.243   5.738  0.3755  2.2522  0.9438
 5316SOL    HW227582   4.137   1.328   5.707  1.3721  0.6854  0.6500
 5317SOL     OW27583   2.278   0.327  10.327  0.0830 -0.1315 -0.5933
 5317SOL    HW127584   2.183   0.334  10.315  0.4110  1.9057 -2.0030
 5317SOL    HW227585   2.300   0.420  10.332  0.4651 -0.2842  0.6442
 5318SOL     OW27586   4.496   0.897   4.975 -0.3887 -0.3524  0.5305
 5318SOL    HW127587   4.438   0.844   4.920  0.0739 -1.0454  0.7073
 5318SOL    HW227588   4.465   0.987   4.966  1.2036  0.2617  1.0749
 5319SOL     OW27589   4.652   0.203  15.565 -0.2576  0.6154  0.3382
 5319SOL    HW127590   4.629   0.217  15.474  2.5640  1.2928 -0.2686
 5319SOL    HW227591   4.604   0.120  15.574 -3.0685  1.9757 -2.1354
 5320SOL     OW27592   3.098   2.483  14.367 -0.1057  0.1057 -0.0520
 5320SOL    HW127593   3.097   2.400  14.413  4.7533 -1.7617 -3.3597
 5320SOL    HW227594   3.180   2.520  14.400 -0.4063  2.4009 -1.8646
 5321SOL     OW27595   2.938   2.020   8.627 -0.1326 -0.3418 -1.0160
 5321SOL    HW127596   3.000   1.960   8.586 -0.2055 -1.1959  0.1081
 5321SOL    HW227597   2.886   1.954   8.674 -0.8477 -0.0640 -1.4060
 5322SOL     OW27598   4.121   2.750   0.684  0.4889  0.0342 -0.1280
 5322SOL    HW127599   4.032   2.750   0.648  0.0632  1.1335  0.9331
 5322SOL    HW227600   4.167   2.812   0.628 -1.6766  0.8706 -0.9774
 5323SOL     OW27601   4.651   1.508   2.466  0.0721 -0.5072 -0.8698
 5323SOL    HW127602   4.580   1.571   2.453  0.1985 -0.2498 -0.3354
 5323SOL    HW227603   4.649   1.448   2.391  1.3344 -0.5206 -0.8926
 5324SOL     OW27604   3.943   4.381  15.083  0.2771 -0.1238  0.0319
 5324SOL    HW127605   3.919   4.467  15.115 -0.9590 -0.0609 -1.0806
 5324SOL    HW227606   4.037   4.385  15.100  0.1673  1.4914  0.2034
 5325SOL     OW27607   1.299   2.296   6.058 -0.2508 -0.2926 -0.4124
 5325SOL    HW127608   1.264   2.347   5.985  0.6826  1.0913  0.1082
 5325SOL    HW227609   1.320   2.210   6.022 -0.5003 -1.0008  1.1428
 5326SOL     OW27610   0.910   0.878   8.832 -0.7411  0.5523 -0.0485
 5326SOL    HW127611   0.832   0.930   8.814 -0.4142 -0.0384 -3.1703
 5326SOL    HW227612   0.885   0.800   8.881 -0.6232 -0.3379 -1.4179
 5327SOL     OW27613   3.177   0.804   8.588  0.1058  0.2656 -0.1124
 5327SOL    HW127614   3.133   0.791   8.672 -0.4175 -0.5390 -0.5084
 5327SOL    HW227615   3.271   0.811   8.603  0.0489 -1.3926  1.0214
 5328SOL     OW27616   1.284   3.477   9.709 -0.6545  1.0146 -0.1391
 5328SOL    HW127617   1.379   3.485   9.710 -0.5308 -0.2646 -1.0824
 5328SOL    HW227618   1.264   3.562   9.747 -1.0442  0.7175  0.3098
 5329SOL     OW27619   3.611   3.434   6.644  0.1506  0.2269  0.5383
 5329SOL    HW127620   3.684   3.372   6.656  1.8717  2.6727  2.5865
 5329SOL    HW227621   3.613   3.479   6.728 -1.1352  0.1229  0.6195
 5330SOL     OW27622   1.418   1.009   3.856 -0.6652  0.4046 -0.2750
 5330SOL    HW127623   1.332   1.050   3.841 -0.5550  1.2550  1.4216
 5330SOL    HW227624   1.430   0.969   3.770 -0.9411  1.4243 -0.7987
 5331SOL     OW27625   2.755   3.102   2.615 -0.3674  0.4604 -0.5155
 5331SOL    HW127626   2.685   3.147   2.664  0.4483  1.6873 -0.4644
 5331SOL    HW227627   2.715   3.089   2.529  1.1860 -1.6602 -0.8980
 5332SOL     OW27628   4.012   4.619   9.661  0.2761 -0.0542  0.5341
 5332SOL    HW127629   4.064   4.550   9.702  0.2972 -0.3994 -0.0781
 5332SOL    HW227630   4.013   4.579   9.573  1.7339  0.8321  0.1436
 5333SOL     OW27631   0.720   1.776  17.131 -0.2237 -0.4070 -0.7130
 5333SOL    HW127632   0.677   1.706  17.082  0.5064  0.7954 -3.1124
 5333SOL    HW227633   0.648   1.801  17.189  0.3278  0.5522 -0.4374
 5334SOL     OW27634   0.803   3.224   3.042 -0.0311  0.6818 -0.2947
 5334SOL    HW127635   0.726   3.238   2.986 -0.2948 -1.6033 -0.5270
 5334SOL    HW227636   0.846   3.144   3.012 -0.0065  0.7005 -0.3093
 5335SOL     OW27637   0.804   2.566   5.544 -0.1974 -0.0919  0.1634
 5335SOL    HW127638   0.817   2.660   5.555 -0.0462  0.0959 -1.5070
 5335SOL    HW227639   0.743   2.566   5.470 -3.6582 -1.2866  3.0712
 5336SOL     OW27640   0.965   3.741   2.810 -0.4794 -0.4195  0.2546
 5336SOL    HW127641   1.051   3.770   2.839 -0.6248 -0.2524  0.5186
 5336SOL    HW227642   0.919   3.804   2.866  0.5275 -1.0491  1.7794
 5337SOL     OW27643   4.152   3.128   3.024  0.0497 -0.0670 -0.1282
 5337SOL    HW127644   4.101   3.085   3.093 -2.1630  1.4173 -0.8465
 5337SOL    HW227645   4.223   3.064   3.023  0.8106  0.7741  0.2455
 5338SOL     OW27646   0.861   3.424   9.390 -0.0533  0.5575 -0.4970
 5338SOL    HW127647   0.797   3.479   9.344  0.2014  0.1617 -1.3234
 5338SOL    HW227648   0.797   3.366   9.431 -0.6393  0.9523 -0.8479
 5339SOL     OW27649   2.452   4.271   6.939 -0.0200  0.0016  0.6906
 5339SOL    HW127650   2.394   4.207   6.979  0.7608 -1.7663 -1.0072
 5339SOL    HW227651   2.455   4.251   6.845 -2.0800 -1.9508  1.0542
 5340SOL     OW27652   3.801   2.170  12.125 -0.1175 -0.1083 -0.1086
 5340SOL    HW127653   3.833   2.260  12.124 -3.0789  0.9664 -0.6064
 5340SOL    HW227654   3.748   2.172  12.046  0.5698 -0.0221 -0.5620
 5341SOL     OW27655   3.559   2.218   3.156  0.5634 -0.5245 -0.4262
 5341SOL    HW127656   3.512   2.178   3.229  0.5186 -2.7187 -1.6480
 5341SOL    HW227657   3.630   2.154   3.156  0.2915 -0.8295 -0.5922
 5342SOL     OW27658   3.096   2.814   9.950 -0.7039 -0.0283 -0.2831
 5342SOL    HW127659   3.078   2.859  10.032  1.2076  0.0930  0.0808
 5342SOL    HW227660   3.189   2.791   9.957 -0.6527  0.4167  0.5310
 5343SOL     OW27661   2.279   3.107   6.436 -0.3907  0.4384 -0.1862
 5343SOL    HW127662   2.216   3.155   6.383  0.2835  0.0335 -1.3487
 5343SOL    HW227663   2.229   3.026   6.445 -0.5560  0.6723  1.0430
 5344SOL     OW27664   2.800   3.418   4.750 -0.5271 -0.3381 -0.2604
 5344SOL    HW127665   2.817   3.365   4.828  1.6828  0.1350 -0.3957
 5344SOL    HW227666   2.879   3.397   4.700 -0.6661  3.3131 -2.0084
 5345SOL     OW27667   2.200   4.347   1.134 -0.4417 -0.7981 -0.3726
 5345SOL    HW127668   2.267   4.342   1.066  0.1500  1.6338  0.0191
 5345SOL    HW227669   2.254   4.325   1.209 -0.1989  1.5631  0.1422
 5346SOL     OW27670   3.070   1.751   2.528  0.9005  0.3373 -0.2999
 5346SOL    HW127671   3.032   1.788   2.449  0.7853  2.4963  0.7705
 5346SOL    HW227672   3.082   1.829   2.582  1.0017  0.2452 -0.1888
 5347SOL     OW27673   3.368   1.408   5.650  0.3092  0.6429 -0.0122
 5347SOL    HW127674   3.284   1.438   5.685  0.8746  0.2842  1.6615
 5347SOL    HW227675   3.397   1.361   5.728 -1.8276  0.4739  0.6784
 5348SOL     OW27676   1.066   4.275   9.608 -0.5477  0.1125 -0.3754
 5348SOL    HW127677   1.005   4.270   9.682  2.2244  1.0411  1.9480
 5348SOL    HW227678   1.114   4.192   9.608 -0.4023  0.1978 -0.3052
 5349SOL     OW27679   1.948   4.360   3.229  0.2984  0.3426 -0.5626
 5349SOL    HW127680   1.881   4.338   3.294 -0.6098  0.1433 -1.5595
 5349SOL    HW227681   2.020   4.313   3.271  0.9648 -0.8010 -2.9635
 5350SOL     OW27682   4.675   0.063   2.244 -0.7888 -0.2939 -0.0888
 5350SOL    HW127683   4.656   0.133   2.306 -0.9610  0.4281 -0.9575
 5350SOL    HW227684   4.587   0.029   2.229 -1.2209  0.5713  0.4748
 5351SOL     OW27685   1.674   0.008   2.992  0.7033 -0.4658  0.3562
 5351SOL    HW127686   1.603   4.687   2.972  0.2604 -0.5049  1.9983
 5351SOL    HW227687   1.750   4.697   2.963 -0.5526 -0.4521 -2.9000
 5352SOL     OW27688   4.324   4.279   9.329 -0.2257 -0.5082 -0.0862
 5352SOL    HW127689   4.359   4.243   9.410  0.5303 -0.8889 -0.5823
 5352SOL    HW227690   4.312   4.198   9.280  1.7789 -0.6123 -0.4202
 5353SOL     OW27691   3.393   2.597  15.001  0.1172  0.1970 -0.4609
 5353SOL    HW127692   3.361   2.632  14.918 -0.8628  1.6976  0.5657
 5353SOL    HW227693   3.455   2.667  15.019 -1.6753  1.5104  0.5384
 5354SOL     OW27694   0.173   1.579   1.823 -0.4671 -0.1968 -0.5896
 5354SOL    HW127695   0.141   1.493   1.851 -2.4232  0.3473 -1.1613
 5354SOL    HW227696   0.137   1.641   1.887  0.8892 -0.0726  0.0641
 5355SOL     OW27697   1.246   3.116  17.001  0.5321 -0.2850  0.2412
 5355SOL    HW127698   1.262   3.202  17.040  2.0115  0.0903 -1.1503
 5355SOL    HW227699   1.165   3.089  17.043  0.0831  2.6656  1.2572
 5356SOL     OW27700   3.692   1.221   3.063 -0.0426 -0.0416 -0.3078
 5356SOL    HW127701   3.661   1.293   3.118 -0.9215 -0.7630  0.1491
 5356SOL    HW227702   3.715   1.268   2.984  0.3066 -0.2804 -0.3498
 5357SOL     OW27703   1.857   1.449   3.316  0.9912 -0.1319  0.6600
 5357SOL    HW127704   1.890   1.537   3.336 -0.9796  0.7178  0.1890
 5357SOL    HW227705   1.940   1.408   3.292  0.3883 -2.0812  1.9098
 5358SOL     OW27706   4.453   3.010   7.468 -0.2127  0.7596 -0.2878
 5358SOL    HW127707   4.416   2.924   7.445  0.0894  0.4112  0.5541
 5358SOL    HW227708   4.392   3.027   7.539  0.1191 -1.8753  0.6389
 5359SOL     OW27709   0.580   4.029   6.160  0.0378 -0.1630 -0.5796
 5359SOL    HW127710   0.561   4.099   6.098  0.4753 -1.5484 -2.2821
 5359SOL    HW227711   0.669   4.056   6.184 -0.0216  0.3812 -0.9851
 5360SOL     OW27712   3.522   0.927   5.424 -0.0672 -0.1216  0.7643
 5360SOL    HW127713   3.513   0.832   5.422  2.7198 -0.4048  1.1587
 5360SOL    HW227714   3.455   0.946   5.359 -0.1565 -0.2068  0.8305
 5361SOL     OW27715   3.317   3.630   3.643  0.0475 -0.1763 -0.4475
 5361SOL    HW127716   3.359   3.651   3.560 -1.6478 -0.0401 -1.2835
 5361SOL    HW227717   3.307   3.534   3.642 -2.4717  0.0823 -0.4599
 5362SOL     OW27718   3.877   4.544   4.365  0.3902  0.4030 -0.0001
 5362SOL    HW127719   3.953   4.511   4.318  0.4802 -0.9207  1.0825
 5362SOL    HW227720   3.811   4.476   4.352  0.2363  0.6795 -0.6872
 5363SOL     OW27721   3.282   0.523   4.253 -0.0404 -0.0923 -0.3275
 5363SOL    HW127722   3.371   0.545   4.282 -0.9954  1.9961  1.0031
 5363SOL    HW227723   3.284   0.429   4.272 -3.6004 -0.0178  0.3974
 5364SOL     OW27724   1.326   3.514  14.067 -0.2979  0.3651  0.5684
 5364SOL    HW127725   1.400   3.522  14.007 -1.9756  2.4342 -1.2015
 5364SOL    HW227726   1.281   3.430  14.056 -1.4470  1.1392 -0.6225
 5365SOL     OW27727   4.333   1.221  17.207  0.9836  0.2530 -0.1868
 5365SOL    HW127728   4.330   1.151  17.273  0.4613  0.5616  0.1171
 5365SOL    HW227729   4.426   1.241  17.198  1.0055  0.6659  0.9994
 5366SOL     OW27730   1.192   2.952   4.496  0.1720 -0.0383  0.0803
 5366SOL    HW127731   1.162   2.865   4.467  2.9168 -0.7814 -0.5355
 5366SOL    HW227732   1.218   2.938   4.588 -2.2540 -0.8108  0.6507
 5367SOL     OW27733   3.628   4.577   0.759  1.0263 -0.1065 -0.2143
 5367SOL    HW127734   3.623   4.509   0.692 -0.3179 -0.1796 -0.0337
 5367SOL    HW227735   3.687   4.536   0.823  0.2715 -0.4504  0.2725
 5368SOL     OW27736   4.014   0.410   9.328  0.0943  0.2248  0.6615
 5368SOL    HW127737   4.098   0.389   9.370  1.4814 -0.5529 -2.4999
 5368SOL    HW227738   3.986   0.326   9.294  0.2987  0.8850 -1.1381
 5369SOL     OW27739   3.120   3.435   7.868 -0.2930 -0.3441 -0.0181
 5369SOL    HW127740   3.098   3.419   7.777  1.1526 -0.4041 -0.3511
 5369SOL    HW227741   3.095   3.361   7.923  0.0509 -0.5877 -0.1970
 5370SOL     OW27742   2.139   2.379   7.830 -0.4007  0.2441  0.4523
 5370SOL    HW127743   2.103   2.380   7.919  0.2131 -3.3962  0.7312
 5370SOL    HW227744   2.089   2.312   7.784  1.3972 -1.3126  0.7926
 5371SOL     OW27745   3.920   2.102   2.446  0.0462  0.2061  0.5752
 5371SOL    HW127746   3.932   2.031   2.508 -1.3020  0.1766  0.8065
 5371SOL    HW227747   3.951   2.174   2.501 -0.8511  1.6166 -0.7536
 5372SOL     OW27748   4.397   3.634   2.393 -0.5357  0.6063  0.2901
 5372SOL    HW127749   4.461   3.637   2.321  0.5613 -0.5131  1.2217
 5372SOL    HW227750   4.385   3.541   2.412 -1.0687  1.2227  2.9965
 5373SOL     OW27751   1.849   4.343   7.609 -0.3886  0.1150 -0.3145
 5373SOL    HW127752   1.935   4.302   7.611 -1.1888 -1.5156  0.3198
 5373SOL    HW227753   1.874   4.433   7.631 -0.8216  0.6139 -1.8266
 5374SOL     OW27754   2.874   1.296   8.722  0.1371  0.6883  0.5263
 5374SOL    HW127755   2.866   1.220   8.780 -2.1573  1.7279  1.5805
 5374SOL    HW227756   2.865   1.246   8.641  2.4792  0.9083  0.1346
 5375SOL     OW27757   2.279   4.473   5.834  0.6586 -0.1567 -0.2957
 5375SOL    HW127758   2.284   4.419   5.755 -2.8389  1.6174 -1.7141
 5375SOL    HW227759   2.360   4.447   5.877  0.9057 -0.1657 -0.7628
 5376SOL     OW27760   1.902   0.092   5.535  0.3731 -0.3430  0.1304
 5376SOL    HW127761   1.992   0.064   5.514  0.5202  1.0374 -1.1197
 5376SOL    HW227762   1.878   0.144   5.458  1.1770 -0.4784 -0.2153
 5377SOL     OW27763   1.007   2.603   3.402 -0.0264  0.1724 -0.0163
 5377SOL    HW127764   0.951   2.655   3.459  0.9555 -0.3950  1.4545
 5377SOL    HW227765   1.088   2.640   3.438  0.3817 -0.4364 -0.3032
 5378SOL     OW27766   2.065   3.303   3.939 -0.3419  0.9019 -0.1171
 5378SOL    HW127767   2.125   3.272   3.871 -1.1605  0.4121 -0.6161
 5378SOL    HW227768   2.113   3.294   4.020 -2.4149  1.0714  1.1308
 5379SOL     OW27769   0.795   1.219   6.366 -0.7534 -0.7431  0.1679
 5379SOL    HW127770   0.818   1.170   6.287  0.1899  1.3482 -0.8474
 5379SOL    HW227771   0.831   1.169   6.441  0.5098 -0.4070 -0.2079
 5380SOL     OW27772   0.320   3.794   7.520  0.3591  0.1278 -0.6216
 5380SOL    HW127773   0.410   3.826   7.528  0.7482 -0.9981 -0.5431
 5380SOL    HW227774   0.321   3.708   7.479  0.7418 -0.2529  0.1876
 5381SOL     OW27775   1.569   1.497  13.719 -1.0499 -0.1150 -0.2550
 5381SOL    HW127776   1.512   1.422  13.737 -1.2333  0.3466  1.0948
 5381SOL    HW227777   1.646   1.456  13.758  0.7305 -0.5076 -4.1939
 5382SOL     OW27778   1.051   3.182  15.784 -0.0484  0.6165 -0.2833
 5382SOL    HW127779   1.100   3.206  15.706  1.1966  2.9929  1.2135
 5382SOL    HW227780   1.086   3.094  15.797  2.3211  1.7245  0.8065
 5383SOL     OW27781   3.520   2.505   4.582 -0.7001  0.6083 -1.2120
 5383SOL    HW127782   3.585   2.471   4.521 -0.2556 -1.1931  0.2775
 5383SOL    HW227783   3.441   2.472   4.539  0.6373 -2.5051 -1.3329
 5384SOL     OW27784   2.555   3.152   7.706 -0.6521  0.8907 -0.8600
 5384SOL    HW127785   2.531   3.085   7.642 -1.0637 -0.4617  0.7293
 5384SOL    HW227786   2.597   3.212   7.644 -0.0115  0.6749 -0.6388
 5385SOL     OW27787   3.673   4.197   4.964 -0.0847  0.1084 -0.8347
 5385SOL    HW127788   3.704   4.209   4.874 -0.1670 -0.5615 -0.9545
 5385SOL    HW227789   3.585   4.161   4.951  0.3397 -0.8547 -1.0090
 5386SOL     OW27790   2.617   2.431   5.841  0.0878 -0.5104  0.3965
 5386SOL    HW127791   2.606   2.489   5.766  3.7042  0.8263  0.8972
 5386SOL    HW227792   2.570   2.350   5.818  1.0692 -0.1055 -2.9800
 5387SOL     OW27793   4.423   1.220   1.896  0.1405 -0.2301  0.1208
 5387SOL    HW127794   4.517   1.226   1.911  0.6526  1.6137 -3.7992
 5387SOL    HW227795   4.413   1.161   1.821  0.8650  1.2450 -1.1522
 5388SOL     OW27796   2.813   1.531   4.476  0.5038  0.3236  0.3302
 5388SOL    HW127797   2.825   1.519   4.382 -1.1714  2.4666 -0.1479
 5388SOL    HW227798   2.737   1.589   4.476  0.1132 -0.2141 -0.9906
 5389SOL     OW27799   4.240   1.977   9.634 -0.0689  0.0955  0.0847
 5389SOL    HW127800   4.258   2.017   9.549 -1.0413 -0.5848 -0.4491
 5389SOL    HW227801   4.281   2.035   9.697 -0.2500 -0.8430  1.0656
 5390SOL     OW27802   1.752   2.009  10.425  0.1351  0.2333  0.4079
 5390SOL    HW127803   1.815   1.963  10.480 -1.8261 -0.9794  1.6616
 5390SOL    HW227804   1.819   2.060  10.380  1.5948 -2.4087 -0.4022
 5391SOL     OW27805   3.540   4.438  10.117 -0.0384  0.1796  0.0008
 5391SOL    HW127806   3.521   4.485  10.198  0.5437 -2.1842  1.5173
 5391SOL    HW227807   3.472   4.370  10.120  0.0161  0.0769 -1.2437
 5392SOL     OW27808   1.141   2.572  10.764 -0.1241  0.4001 -0.3289
 5392SOL    HW127809   1.097   2.596  10.682  2.6805  0.8334 -1.7184
 5392SOL    HW227810   1.064   2.586  10.817  0.1146 -0.1321  0.1605
 5393SOL     OW27811   4.412   4.040   4.354 -0.2650  0.1896 -0.1627
 5393SOL    HW127812   4.360   3.962   4.371  0.5444 -0.4995 -0.8842
 5393SOL    HW227813   4.435   4.027   4.262  0.6043 -2.3071  0.4155
 5394SOL     OW27814   2.558   2.409   2.164  0.0148  0.1633  0.9366
 5394SOL    HW127815   2.640   2.389   2.210  1.1501  1.3230 -0.5572
 5394SOL    HW227816   2.568   2.495   2.122 -3.6433  0.1756  0.1262
 5395SOL     OW27817   1.566   0.201   4.887  0.8563 -0.0682  0.2789
 5395SOL    HW127818   1.528   0.240   4.966 -0.2192  1.0423 -0.7732
 5395SOL    HW227819   1.529   0.258   4.819 -1.5484 -2.1696 -0.1665
 5396SOL     OW27820   1.682   3.535   3.465 -0.5043 -0.1638  0.4419
 5396SOL    HW127821   1.616   3.585   3.416 -0.0591 -0.1862 -0.1853
 5396SOL    HW227822   1.626   3.470   3.506 -0.0723  0.1014  1.4376
 5397SOL     OW27823   0.314   4.558   7.831 -0.3245  0.1424  0.7043
 5397SOL    HW127824   0.231   4.528   7.793 -0.5520 -1.2088  2.2958
 5397SOL    HW227825   0.319   4.496   7.903 -1.8877 -0.4393  0.3188
 5398SOL     OW27826   0.604   1.439   4.621  0.3411  0.3652 -0.5059
 5398SOL    HW127827   0.674   1.380   4.650  1.4940  1.5027 -0.9646
 5398SOL    HW227828   0.625   1.423   4.529 -1.6600  2.5089 -1.3194
 5399SOL     OW27829   4.470   1.330  11.788  0.0858  0.0354  0.3569
 5399SOL    HW127830   4.466   1.238  11.760 -1.4421  0.1638  0.1711
 5399SOL    HW227831   4.564   1.347  11.799  0.0392 -0.1815  1.0770
 5400SOL     OW27832   0.725   4.222   4.251  0.7898 -0.3892 -0.0328
 5400SOL    HW127833   0.730   4.185   4.339 -0.4489  0.2883  0.3162
 5400SOL    HW227834   0.710   4.315   4.268  2.1392  0.0277 -1.1421
 5401SOL     OW27835   0.069   1.704  13.903 -0.6784  0.5077  0.1436
 5401SOL    HW127836   0.091   1.763  13.831 -0.1872  1.7099  1.2717
 5401SOL    HW227837   0.125   1.634  13.870 -1.0908  0.6373 -0.8270
 5402SOL     OW27838   4.562   1.259  12.691  0.1068 -0.2429  0.2034
 5402SOL    HW127839   4.589   1.287  12.604  0.7899  2.6816  1.3414
 5402SOL    HW227840   4.495   1.324  12.713 -0.1024 -0.3747 -0.0488
 5403SOL     OW27841   3.632   0.956  11.322  0.1369 -0.1928  0.5116
 5403SOL    HW127842   3.621   0.867  11.353 -1.3320 -0.2819 -0.2535
 5403SOL    HW227843   3.590   1.007  11.391  1.1041  1.1350  0.1214
 5404SOL     OW27844   3.026   0.786   1.997 -0.2494 -0.1357 -0.2909
 5404SOL    HW127845   3.106   0.734   1.998 -1.7787 -2.4573 -0.6818
 5404SOL    HW227846   2.963   0.715   2.007 -0.2994 -0.1068 -0.3923
 5405SOL     OW27847   2.194   1.815   9.930  0.2569  0.1433 -0.5579
 5405SOL    HW127848   2.116   1.762   9.915 -0.0318  0.2862  0.4407
 5405SOL    HW227849   2.159   1.864  10.004  0.2522  0.6972 -0.9231
 5406SOL     OW27850   3.762   3.626   9.510  0.1689 -0.0136 -0.2379
 5406SOL    HW127851   3.746   3.721   9.515 -0.9370 -0.1565 -1.1847
 5406SOL    HW227852   3.858   3.618   9.507  0.1317 -0.3752 -0.4435
 5407SOL     OW27853   4.646   0.323   2.715 -0.3059 -0.5352  0.2471
 5407SOL    HW127854   4.701   0.400   2.701 -1.6946 -0.0246 -2.4231
 5407SOL    HW227855   4.701   0.268   2.771  0.9495 -0.1427 -0.6152
 5408SOL     OW27856   3.140   3.539   7.514  0.2234 -1.0547 -0.6565
 5408SOL    HW127857   3.219   3.556   7.462  0.6775  0.0069  0.3606
 5408SOL    HW227858   3.115   3.629   7.537  1.6789 -0.9033  0.3290
 5409SOL     OW27859   0.117   4.392   3.264 -0.3142  0.3766  0.1513
 5409SOL    HW127860   0.106   4.486   3.248  1.4123  0.6502  0.5093
 5409SOL    HW227861   0.146   4.355   3.181 -1.1721 -2.1533  0.9778
 5410SOL     OW27862   0.071   4.630   7.297  0.1106 -0.5543  0.6898
 5410SOL    HW127863   0.037   4.709   7.254 -0.7888 -1.6921 -0.6701
 5410SOL    HW227864   0.012   4.565   7.260 -0.2746 -0.5066  1.2132
 5411SOL     OW27865   4.402   0.264   7.172 -0.0222  0.3459  0.5598
 5411SOL    HW127866   4.451   0.343   7.148  1.7435 -0.5085  1.3733
 5411SOL    HW227867   4.314   0.297   7.152  0.6023  1.9449  0.4838
 5412SOL     OW27868   3.256   0.519   4.630 -0.6684  0.0347 -0.5976
 5412SOL    HW127869   3.252   0.584   4.560  0.1127  0.3556 -0.3379
 5412SOL    HW227870   3.331   0.471   4.596  0.7345  1.5387  0.3602
 5413SOL     OW27871   1.196   4.531   9.852 -0.0494 -0.2953  0.2311
 5413SOL    HW127872   1.174   4.619   9.823 -1.0613 -0.3044  0.9725
 5413SOL    HW227873   1.263   4.535   9.920  0.2795  1.8529 -0.2428
 5414SOL     OW27874   0.991   3.402   8.240  0.1086  0.3793 -0.0100
 5414SOL    HW127875   0.996   3.495   8.259  0.8008  0.8894 -2.7301
 5414SOL    HW227876   1.069   3.393   8.185 -0.4248  0.2088 -0.7399
 5415SOL     OW27877   4.528   1.129   8.240  0.6691  0.3716  0.7475
 5415SOL    HW127878   4.471   1.111   8.315 -0.1918 -0.2036 -0.0444
 5415SOL    HW227879   4.487   1.079   8.170  2.7136 -0.8677  0.4313
 5416SOL     OW27880   2.496   1.017   9.854 -0.3248  0.1480 -0.9975
 5416SOL    HW127881   2.551   1.087   9.890 -0.0445  0.0458 -1.2288
 5416SOL    HW227882   2.481   1.045   9.764  1.2146  0.4857 -1.1555
 5417SOL     OW27883   0.008   3.443   6.434 -0.5075 -0.1790  0.4418
 5417SOL    HW127884   4.706   3.426   6.349  2.2843 -1.5064 -0.6308
 5417SOL    HW227885   4.708   3.388   6.502 -1.9706  1.0229  0.5696
 5418SOL     OW27886   1.836   3.143  11.558  0.8437 -0.6726  0.0428
 5418SOL    HW127887   1.893   3.172  11.628  0.2708  1.0064 -0.1927
 5418SOL    HW227888   1.874   3.058  11.537  0.6654 -0.5382 -0.8404
 5419SOL     OW27889   3.041   1.126   7.177 -0.1274  0.4919  0.0784
 5419SOL    HW127890   2.995   1.065   7.234  1.3420  0.5421  1.3318
 5419SOL    HW227891   3.010   1.206   7.218 -1.7722 -0.0478 -0.1104
 5420SOL     OW27892   1.110   3.798  14.351 -0.4126 -0.4721  0.3106
 5420SOL    HW127893   1.152   3.792  14.265  0.2271  1.1658  0.5064
 5420SOL    HW227894   1.169   3.852  14.402 -0.2538  0.5520 -0.9435
 5421SOL     OW27895   4.667   2.114   8.754 -0.2026 -0.5013 -0.1122
 5421SOL    HW127896   4.642   2.181   8.691 -0.4746 -0.9231 -0.4509
 5421SOL    HW227897   0.016   2.091   8.728 -0.1706 -0.8338  0.2874
 5422SOL     OW27898   3.337   3.165   2.030 -0.2230  0.3083 -0.0654
 5422SOL    HW127899   3.379   3.249   2.045 -0.3221  0.3310  0.0907
 5422SOL    HW227900   3.247   3.191   2.010 -0.0133  1.2699  0.2323
 5423SOL     OW27901   3.200   3.268  17.620 -0.3357 -0.2175 -0.0307
 5423SOL    HW127902   3.197   3.243  17.527 -0.5625  0.2811 -0.1539
 5423SOL    HW227903   3.177   3.360  17.624  0.8757  0.1681 -1.7486
 5424SOL     OW27904   3.044   0.072  14.398 -0.2381 -0.0320 -0.6874
 5424SOL    HW127905   2.990   0.054  14.475 -0.3240  1.7079 -0.3403
 5424SOL    HW227906   3.045   4.723  14.362  0.3947 -0.2511 -0.1478
 5425SOL     OW27907   0.935   2.031   5.450  0.0746 -0.2791  0.1783
 5425SOL    HW127908   0.935   1.998   5.540 -0.1613 -1.3925 -0.2271
 5425SOL    HW227909   0.841   2.021   5.435 -0.0591 -0.3302  1.0447
 5426SOL     OW27910   2.772   4.567   5.590  0.9981  0.1814 -0.0925
 5426SOL    HW127911   2.686   4.527   5.605  1.2537 -1.3030 -2.5795
 5426SOL    HW227912   2.833   4.493   5.598 -1.4807 -1.9267 -0.7803
 5427SOL     OW27913   1.537   0.994  10.083 -0.3726  0.6230  0.1124
 5427SOL    HW127914   1.487   0.978  10.002 -1.6992  0.4943  0.9583
 5427SOL    HW227915   1.587   0.913  10.078 -3.6542 -1.3857 -0.3205
 5428SOL     OW27916   2.452   2.141   2.474 -0.1695 -0.0503  0.5855
 5428SOL    HW127917   2.372   2.146   2.423 -0.1613 -0.7757  0.5024
 5428SOL    HW227918   2.408   2.117   2.556 -0.8950  0.0188  0.2145
 5429SOL     OW27919   1.893   4.665   8.816  0.2167  0.1954  0.8095
 5429SOL    HW127920   1.858   4.584   8.779 -1.4582  0.7175  1.2775
 5429SOL    HW227921   1.966   4.676   8.755  0.4468 -3.3168  0.4225
 5430SOL     OW27922   1.756   4.638  15.302 -0.2868  0.1523 -0.2435
 5430SOL    HW127923   1.784   4.725  15.331 -0.3082 -0.0657  0.4379
 5430SOL    HW227924   1.818   4.623  15.231 -2.0531 -1.0617 -1.5227
 5431SOL     OW27925   2.877   1.175  16.725 -0.1659  0.0515 -0.3394
 5431SOL    HW127926   2.842   1.264  16.730  0.2742  0.0397  3.0772
 5431SOL    HW227927   2.834   1.130  16.797 -0.0576  0.7183  0.1405
 5432SOL     OW27928   0.661   1.904   4.519 -0.1263  0.3369  0.6481
 5432SOL    HW127929   0.741   1.855   4.540 -0.6091 -0.3114  0.9792
 5432SOL    HW227930   0.593   1.863   4.571 -1.3618  0.3061 -0.9848
 5433SOL     OW27931   3.462   0.902   2.066 -0.7811  0.0995  0.0095
 5433SOL    HW127932   3.464   0.830   2.129 -2.0584 -0.8300 -1.0013
 5433SOL    HW227933   3.515   0.965   2.114 -1.2689  1.7671 -1.6237
 5434SOL     OW27934   1.265   0.084   4.433 -0.1688 -0.0374  0.3989
 5434SOL    HW127935   1.296   4.738   4.462  1.8051 -0.1005 -1.8863
 5434SOL    HW227936   1.337   0.114   4.377  0.3508 -0.6036  0.7747
 5435SOL     OW27937   0.071   2.952   3.418  0.4387  0.0614 -0.6218
 5435SOL    HW127938   0.160   2.919   3.410  0.6159  0.7132 -1.3360
 5435SOL    HW227939   0.041   2.910   3.337 -2.0790  1.3312 -0.3585
 5436SOL     OW27940   0.630   4.190  15.675 -0.0894  0.2588  0.2266
 5436SOL    HW127941   0.675   4.139  15.743  0.0750  0.7552  0.4891
 5436SOL    HW227942   0.541   4.155  15.675 -1.0212  2.6768  0.4059
 5437SOL     OW27943   3.719   4.560  17.331  0.3445  0.0042 -0.5377
 5437SOL    HW127944   3.650   4.549  17.265  0.0925  0.4035 -0.3381
 5437SOL    HW227945   3.660   4.559  17.406  0.2584 -2.8639 -0.6104
 5438SOL     OW27946   4.383   3.474   3.198 -0.2723  0.1902  0.6674
 5438SOL    HW127947   4.471   3.453   3.229 -0.8740 -1.8718  0.9604
 5438SOL    HW227948   4.398   3.498   3.106 -1.8865 -2.3766 -0.2653
 5439SOL     OW27949   0.785   2.680   8.477  0.2638 -0.2076  0.0677
 5439SOL    HW127950   0.838   2.649   8.403 -0.6291  1.1452 -1.1222
 5439SOL    HW227951   0.839   2.665   8.555 -0.8112  0.3678  0.9297
 5440SOL     OW27952   1.178   0.682   7.536  0.0356  0.3079 -0.2681
 5440SOL    HW127953   1.180   0.774   7.560  0.1497  0.5489 -1.2009
 5440SOL    HW227954   1.132   0.698   7.453  0.5368  0.3861 -0.5322
 5441SOL     OW27955   1.048   1.043   2.919 -0.4201 -0.3340  0.1925
 5441SOL    HW127956   1.136   1.031   2.882  0.5200  3.7265  1.1412
 5441SOL    HW227957   0.998   1.062   2.839 -1.0678  2.5960  1.3167
 5442SOL     OW27958   2.746   0.563  10.897  0.0998  0.3086  0.3033
 5442SOL    HW127959   2.711   0.626  10.833 -0.6417 -0.5986 -0.1949
 5442SOL    HW227960   2.835   0.563  10.861 -0.9032 -0.1038 -2.2042
 5443SOL     OW27961   0.961   1.383   3.020 -0.6434  0.2916  0.4447
 5443SOL    HW127962   0.934   1.292   3.031  1.3345 -0.3130  0.3375
 5443SOL    HW227963   1.024   1.398   3.091 -0.6260 -0.9386  0.6918
 5444SOL     OW27964   1.807   2.196  10.699  0.0445 -0.7056  0.0329
 5444SOL    HW127965   1.859   2.153  10.767 -0.8853  2.3370  2.6794
 5444SOL    HW227966   1.882   2.244  10.662  0.8495 -2.3763 -0.4755
 5445SOL     OW27967   4.320   1.662   5.378 -0.0624  0.0850  1.0512
 5445SOL    HW127968   4.238   1.613   5.367  0.9013 -1.3267  0.1301
 5445SOL    HW227969   4.384   1.594   5.358 -0.2295  0.0084  0.7839
 5446SOL     OW27970   0.328   4.211   9.105 -0.1937  0.0569  0.2292
 5446SOL    HW127971   0.256   4.262   9.143 -1.0072 -1.3334  0.5503
 5446SOL    HW227972   0.276   4.163   9.040 -0.2718 -0.7794  0.9049
 5447SOL     OW27973   1.972   2.320   5.813 -0.3246  0.4008  0.7481
 5447SOL    HW127974   1.991   2.227   5.809 -1.0537  0.1907  2.3171
 5447SOL    HW227975   1.882   2.311   5.846 -1.7194  1.9510 -2.6015
 5448SOL     OW27976   3.462   3.308  13.379  0.1476 -0.0740  0.4697
 5448SOL    HW127977   3.545   3.290  13.425  0.8109 -0.1219 -0.7398
 5448SOL    HW227978   3.401   3.265  13.439 -0.4604 -0.1738 -0.2236
 5449SOL     OW27979   3.580   2.752  13.708  0.1177 -0.0661  0.3534
 5449SOL    HW127980   3.581   2.719  13.618  1.2659 -1.6677  0.9501
 5449SOL    HW227981   3.550   2.680  13.763  3.7009 -2.1122 -0.3359
 5450SOL     OW27982   0.599   2.918   1.723 -0.0170  0.2919  0.0483
 5450SOL    HW127983   0.518   2.949   1.683  0.6682  0.4389 -1.2175
 5450SOL    HW227984   0.572   2.830   1.748 -0.0784  0.5469  0.8862
 5451SOL     OW27985   3.417   3.233   5.293 -0.5021  0.1696  0.1254
 5451SOL    HW127986   3.510   3.232   5.316 -0.9543  0.2752  1.9906
 5451SOL    HW227987   3.402   3.327   5.283  1.5308  0.4180 -0.5638
 5452SOL     OW27988   0.687   3.978   3.093  0.1448  0.0674 -0.3748
 5452SOL    HW127989   0.699   3.884   3.097 -0.5729  0.0217  0.9198
 5452SOL    HW227990   0.749   4.008   3.027  1.9971  0.7081  1.6392
 5453SOL     OW27991   0.067   2.406   6.325 -0.0813 -0.0293 -0.0758
 5453SOL    HW127992   0.038   2.400   6.233 -2.2688 -0.5797  0.6430
 5453SOL    HW227993   0.148   2.456   6.312 -0.2637 -0.1306 -1.6278
 5454SOL     OW27994   3.145   1.767   8.247 -0.4778 -0.2404  0.4650
 5454SOL    HW127995   3.173   1.828   8.179 -1.4002  0.9195  1.1239
 5454SOL    HW227996   3.106   1.697   8.195 -1.9285 -0.3396  1.6859
 5455SOL     OW27997   0.420   0.742   4.044  0.1493 -0.3541  0.3453
 5455SOL    HW127998   0.463   0.719   3.962  0.3195 -1.6931  0.8168
 5455SOL    HW227999   0.349   0.798   4.013  2.5239  1.8589 -1.0596
 5456SOL     OW28000   2.552   0.077  14.950 -0.5355  0.3189  0.2620
 5456SOL    HW128001   2.490   0.008  14.971  0.6417 -1.2724 -1.5621
 5456SOL    HW228002   2.622   0.064  15.014 -1.3225  0.3066  1.1261
 5457SOL     OW28003   4.641   1.423   8.795  0.4700  0.6699 -0.2984
 5457SOL    HW128004   4.603   1.511   8.799  0.4227  0.6262  0.2417
 5457SOL    HW228005   4.616   1.382   8.878  1.6767  0.9094  0.1746
 5458SOL     OW28006   4.673   2.638   3.633  0.2065 -0.6392  0.5066
 5458SOL    HW128007   4.625   2.720   3.643 -1.1653 -1.2464 -1.2169
 5458SOL    HW228008   4.622   2.585   3.695 -1.0724 -0.7395 -0.6228
 5459SOL     OW28009   3.526   3.262   4.684 -0.3467  0.2739  0.0126
 5459SOL    HW128010   3.585   3.307   4.745  0.4170  2.1433 -2.0866
 5459SOL    HW228011   3.477   3.202   4.740  1.5073  0.0020  1.3186
 5460SOL     OW28012   2.237   0.606   4.019 -0.0483 -0.0869  0.0354
 5460SOL    HW128013   2.164   0.660   4.048 -0.9729 -1.6671  0.6483
 5460SOL    HW228014   2.296   0.660   3.967 -0.0029  0.1575  0.3418
 5461SOL     OW28015   1.702   1.403   9.296  0.1834 -0.0331  0.5899
 5461SOL    HW128016   1.759   1.380   9.369  3.2056  1.8359 -1.1699
 5461SOL    HW228017   1.721   1.497   9.294  0.3993 -0.1268 -2.4918
 5462SOL     OW28018   3.836   0.701   5.420  0.3416  0.1759  0.6066
 5462SOL    HW128019   3.866   0.783   5.458  2.9515  1.0213 -3.1978
 5462SOL    HW228020   3.757   0.691   5.472 -0.7274  0.1247 -1.0063
 5463SOL     OW28021   4.141   4.159   7.866  0.1177  0.3212 -0.4592
 5463SOL    HW128022   4.111   4.130   7.780 -1.6543 -0.6935  0.4942
 5463SOL    HW228023   4.062   4.202   7.897  0.5948  1.0832 -0.2977
 5464SOL     OW28024   1.782   3.470   6.427 -0.1948 -0.0841 -0.1136
 5464SOL    HW128025   1.749   3.397   6.374  0.2081 -0.5027  0.2114
 5464SOL    HW228026   1.872   3.442   6.446 -0.0797  1.2848  1.4159
 5465SOL     OW28027   1.440   0.676  10.353  0.3503 -0.2539  0.1454
 5465SOL    HW128028   1.442   0.619  10.277 -0.6289 -0.6289  0.3987
 5465SOL    HW228029   1.368   0.737  10.337  1.6941  1.1894 -0.4606
 5466SOL     OW28030   2.396   3.239  10.982 -0.6574 -0.0954  0.2046
 5466SOL    HW128031   2.394   3.186  10.902 -0.9092 -0.5914  0.5413
 5466SOL    HW228032   2.448   3.182  11.039  0.9566  0.9115 -0.2667
 5467SOL     OW28033   4.464   4.003   6.996  0.4413 -0.1799 -0.1332
 5467SOL    HW128034   4.384   4.038   6.959  0.2301 -1.0031 -0.4510
 5467SOL    HW228035   4.452   3.910   6.977 -4.1052  0.3066  0.5024
 5468SOL     OW28036   4.179   3.665   3.128  0.7429 -0.2003  1.0374
 5468SOL    HW128037   4.143   3.618   3.053  0.7658 -0.1015  0.9640
 5468SOL    HW228038   4.239   3.604   3.171 -1.3948 -3.1316 -0.1006
 5469SOL     OW28039   2.389   2.138   4.388 -0.3152 -0.1410  0.0850
 5469SOL    HW128040   2.480   2.132   4.360 -0.5762 -1.3579 -0.5145
 5469SOL    HW228041   2.368   2.045   4.376 -0.8213  0.3166 -2.6770
 5470SOL     OW28042   0.721   3.440  16.456 -0.5246 -0.1645  0.0240
 5470SOL    HW128043   0.718   3.347  16.434  2.0676 -0.3209  0.3340
 5470SOL    HW228044   0.657   3.482  16.398 -0.3340 -0.8177 -0.6584
 5471SOL     OW28045   0.233   0.353  16.904  0.3199  0.1039  0.4644
 5471SOL    HW128046   0.322   0.341  16.935  0.2293 -0.8538  0.3614
 5471SOL    HW228047   0.201   0.266  16.880 -0.1583  0.8335 -1.5658
 5472SOL     OW28048   1.974   0.504   5.884 -0.4426  0.3238 -0.1448
 5472SOL    HW128049   1.933   0.431   5.930 -0.3437  0.2022 -0.2489
 5472SOL    HW228050   1.955   0.487   5.792 -0.3129 -0.6108  0.0050
 5473SOL     OW28051   3.898   2.857  10.529  0.2315 -0.6863  0.2516
 5473SOL    HW128052   3.964   2.817  10.474  0.4753  0.8909 -0.5959
 5473SOL    HW228053   3.944   2.921  10.583  0.2892 -1.9233  1.6613
 5474SOL     OW28054   2.790   2.565   1.660 -0.3644 -0.4312  0.8737
 5474SOL    HW128055   2.881   2.536   1.667 -0.0354 -0.4231 -3.3886
 5474SOL    HW228056   2.781   2.660   1.648  1.0447 -0.5731 -1.3606
 5475SOL     OW28057   2.291   1.011   7.422 -0.4423 -0.3376  0.2988
 5475SOL    HW128058   2.323   1.096   7.390 -1.6035 -0.8111 -2.1200
 5475SOL    HW228059   2.203   1.025   7.458  0.0310  0.3392  1.2022
 5476SOL     OW28060   0.981   1.285   7.350  0.0016 -0.5465  0.0178
 5476SOL    HW128061   0.958   1.296   7.442 -1.1549  0.2573 -0.3672
 5476SOL    HW228062   1.031   1.205   7.366 -0.2988  0.1089  4.0312
 5477SOL     OW28063   3.471   2.244   0.833  0.1042 -0.4370 -0.2191
 5477SOL    HW128064   3.473   2.149   0.838  0.9997 -0.3456  1.2086
 5477SOL    HW228065   3.412   2.237   0.758  0.8782  2.6371 -1.1351
 5478SOL     OW28066   0.529   4.457   8.652  0.2492 -0.3329  0.0474
 5478SOL    HW128067   0.515   4.542   8.694  1.7896 -0.1089  0.0978
 5478SOL    HW228068   0.460   4.408   8.697 -1.0303  1.9386  0.5152
 5479SOL     OW28069   3.971   3.927  10.407 -0.6779  0.3373 -0.0762
 5479SOL    HW128070   3.988   3.833  10.404 -0.4954  0.3886 -0.8148
 5479SOL    HW228071   3.876   3.927  10.394 -0.7714 -0.5861  0.5976
 5480SOL     OW28072   2.324   1.290   3.074  1.2233  0.3727  0.4762
 5480SOL    HW128073   2.369   1.343   3.007  0.6062  0.4595  0.1366
 5480SOL    HW228074   2.343   1.205   3.033 -3.0867  0.3807 -1.5397
 5481SOL     OW28075   1.760   2.201   3.917 -0.0683  0.2197  0.1929
 5481SOL    HW128076   1.751   2.274   3.978 -2.2629 -0.6211  0.8813
 5481SOL    HW228077   1.785   2.243   3.835 -1.2489  2.1844  0.8379
 5482SOL     OW28078   4.248   2.429   4.124 -0.5534  0.3490  0.6624
 5482SOL    HW128079   4.323   2.480   4.094  0.5464 -1.6915  0.0066
 5482SOL    HW228080   4.274   2.337   4.122  0.3296  0.6527 -2.3868
 5483SOL     OW28081   2.178   0.951   0.406 -0.6068  0.4889 -0.4101
 5483SOL    HW128082   2.101   1.008   0.405  0.1311  1.4875 -2.6708
 5483SOL    HW228083   2.241   1.004   0.456 -1.5883  1.3673 -0.0992
 5484SOL     OW28084   4.006   4.009   6.474  0.2660  0.5039 -0.3246
 5484SOL    HW128085   4.070   3.973   6.534  1.1853 -0.1632 -1.6960
 5484SOL    HW228086   4.039   3.958   6.399  0.4344  0.4820 -0.2352
 5485SOL     OW28087   2.801   1.407   7.513  0.5034 -0.0605  0.1603
 5485SOL    HW128088   2.716   1.424   7.552  0.4451  1.3090 -0.5416
 5485SOL    HW228089   2.812   1.473   7.444 -1.9926 -1.0655 -1.1960
 5486SOL     OW28090   1.610   4.287   7.096  0.2629 -0.5486  0.2764
 5486SOL    HW128091   1.634   4.197   7.116  1.5878 -0.3786 -0.5146
 5486SOL    HW228092   1.632   4.288   7.003 -0.0359 -1.2010  0.2012
 5487SOL     OW28093   2.115   2.773   2.467  0.2472  0.0232 -0.1361
 5487SOL    HW128094   2.113   2.678   2.472 -0.3737 -0.0578 -2.1264
 5487SOL    HW228095   2.050   2.786   2.398 -0.3300 -1.1137  0.1989
 5488SOL     OW28096   1.420   2.421   9.980  0.3021  0.0470 -0.3512
 5488SOL    HW128097   1.337   2.403   9.935  0.6488 -1.8755 -0.2403
 5488SOL    HW228098   1.458   2.334   9.970  1.6347  0.7665 -1.4960
 5489SOL     OW28099   1.044   0.814   0.699  0.2795 -0.1729  0.2497
 5489SOL    HW128100   1.123   0.831   0.648 -0.2360 -0.6354 -0.6950
 5489SOL    HW228101   1.000   0.744   0.651 -0.1367 -0.3585  0.9112
 5490SOL     OW28102   0.526   2.804  12.934  0.5704  0.6462 -0.7420
 5490SOL    HW128103   0.486   2.725  12.897 -0.7483  1.4116 -0.9689
 5490SOL    HW228104   0.568   2.764  13.011  0.0482  0.9289 -0.3097
 5491SOL     OW28105   3.533   3.270   3.473  0.1777  0.3178 -0.1410
 5491SOL    HW128106   3.455   3.275   3.417  0.7972  2.4779 -0.8184
 5491SOL    HW228107   3.559   3.362   3.482  0.5231  0.1833  0.1964
 5492SOL     OW28108   4.361   1.020  17.430 -0.0599 -0.3206  0.4381
 5492SOL    HW128109   4.288   1.015  17.491 -1.0834  0.6168 -0.7166
 5492SOL    HW228110   4.330   0.959  17.363 -0.8843  0.7225 -0.1331
 5493SOL     OW28111   3.899   0.219   1.807  0.3142 -0.2553  0.5745
 5493SOL    HW128112   3.930   0.222   1.716  0.3107  3.7004  0.7127
 5493SOL    HW228113   3.806   0.233   1.792  0.4235 -1.2694 -1.0480
 5494SOL     OW28114   3.332   4.607  10.618  0.2316  0.1340 -0.2798
 5494SOL    HW128115   3.291   4.628  10.701 -0.1405 -2.6058  0.1959
 5494SOL    HW228116   3.286   4.677  10.571  0.0365  0.2104  0.0290
 5495SOL     OW28117   0.875   3.074   9.218 -0.0254  0.2244 -0.3439
 5495SOL    HW128118   0.883   3.066   9.313 -0.4896  0.8389 -0.2528
 5495SOL    HW228119   0.841   3.164   9.225  1.2330  0.4726  2.4746
 5496SOL     OW28120   4.280   2.546   7.920 -0.0322 -0.3612 -0.4682
 5496SOL    HW128121   4.354   2.544   7.980  1.1695  1.1944 -1.8704
 5496SOL    HW228122   4.223   2.608   7.966  0.8339 -0.4790  0.7366
 5497SOL     OW28123   2.653   3.914  11.904  0.2544  1.0020  0.7545
 5497SOL    HW128124   2.641   3.830  11.860  0.1739 -0.2984  3.2884
 5497SOL    HW228125   2.601   3.904  11.984  0.7847  1.0441  1.1035
 5498SOL     OW28126   3.028   1.843   1.774  0.0687 -0.4621  0.3326
 5498SOL    HW128127   3.097   1.843   1.708 -0.4971  0.8420 -0.2573
 5498SOL    HW228128   2.949   1.868   1.727 -0.1418 -1.0129  0.4016
 5499SOL     OW28129   0.862   0.551   5.487 -0.2560  0.4248 -0.9142
 5499SOL    HW128130   0.820   0.529   5.404  1.4695 -0.9875 -1.4104
 5499SOL    HW228131   0.861   0.468   5.534 -1.9529  0.2295 -1.3258
 5500SOL     OW28132   2.764   1.189   8.084 -0.1413 -0.2068 -0.2184
 5500SOL    HW128133   2.804   1.268   8.048 -2.8018  0.8028 -0.9497
 5500SOL    HW228134   2.681   1.174   8.041 -0.1678 -0.0022 -0.2355
 5501SOL     OW28135   3.275   0.254   7.972  0.0954 -0.4369 -0.1936
 5501SOL    HW128136   3.266   0.170   7.928 -2.7615  0.2536 -0.9548
 5501SOL    HW228137   3.205   0.247   8.037 -0.0000 -2.2460 -0.4980
 5502SOL     OW28138   1.732   3.182   3.612 -0.2769 -0.8061  0.3245
 5502SOL    HW128139   1.802   3.243   3.591  0.1544 -1.5064 -0.2785
 5502SOL    HW228140   1.696   3.222   3.691 -0.4199 -0.4664  0.0910
 5503SOL     OW28141   3.430   1.052   5.783  0.1523 -0.1224  0.0249
 5503SOL    HW128142   3.416   1.145   5.803  0.7708  0.4459 -2.2757
 5503SOL    HW228143   3.346   1.010   5.803 -0.2149 -0.9382 -3.2689
 5504SOL     OW28144   4.734   1.109   6.027  0.1190  0.1533 -0.0390
 5504SOL    HW128145   0.053   1.037   6.005  2.2313  1.4515  1.2897
 5504SOL    HW228146   4.663   1.069   6.077 -0.8359  0.2480 -1.3273
 5505SOL     OW28147   1.230   1.663   9.282 -0.5323  0.8303 -0.2974
 5505SOL    HW128148   1.275   1.621   9.208 -0.7890  0.0319 -0.0040
 5505SOL    HW228149   1.303   1.717   9.310  0.5005 -0.5836 -0.2403
 5506SOL     OW28150   0.897   4.585  12.510 -0.6746 -0.4771  0.3539
 5506SOL    HW128151   0.939   4.578  12.424  1.0778  3.1794  0.9247
 5506SOL    HW228152   0.810   4.546  12.496 -0.3810 -1.0524  0.1328
 5507SOL     OW28153   3.667   2.185   2.319  0.0083 -0.9617  0.2556
 5507SOL    HW128154   3.754   2.167   2.354 -0.1586 -1.5891  0.3532
 5507SOL    HW228155   3.674   2.138   2.236  3.9935  2.0080 -1.0777
 5508SOL     OW28156   1.336   3.790   6.664 -0.5841  0.5212 -0.3117
 5508SOL    HW128157   1.370   3.815   6.750 -0.0520 -0.7684 -0.1558
 5508SOL    HW228158   1.413   3.781   6.608  0.0680  2.3475  0.2704
 5509SOL     OW28159   1.640   0.565  11.278  0.4124 -0.3197  0.1106
 5509SOL    HW128160   1.610   0.596  11.192  2.4975  0.2928 -0.3943
 5509SOL    HW228161   1.678   0.648  11.308 -1.7701  0.6513  0.1831
 5510SOL     OW28162   3.866   0.409   7.944 -0.2817  0.4617 -0.3604
 5510SOL    HW128163   3.834   0.500   7.945 -0.8254  0.2649  0.2607
 5510SOL    HW228164   3.824   0.359   8.014  3.0340  0.7326  1.8664
 5511SOL     OW28165   0.462   2.790   6.326 -0.4244 -0.4489 -0.1128
 5511SOL    HW128166   0.391   2.776   6.389 -0.1855 -0.4772  0.1502
 5511SOL    HW228167   0.536   2.737   6.357 -0.4096  0.6635  1.7412
 5512SOL     OW28168   0.501   3.408   3.658 -0.3032  0.0044  0.6227
 5512SOL    HW128169   0.516   3.395   3.751  2.3688  2.6486  0.5575
 5512SOL    HW228170   0.412   3.444   3.657 -0.6636 -0.9191 -0.6265
 5513SOL     OW28171   1.702   3.807   6.247  0.1073 -0.1710 -0.0630
 5513SOL    HW128172   1.671   3.898   6.248  2.7211  0.6991  1.9303
 5513SOL    HW228173   1.732   3.802   6.338 -0.9495  1.5894  0.3952
 5514SOL     OW28174   2.876   3.169   0.126 -0.1666 -0.2685  0.5693
 5514SOL    HW128175   2.790   3.156   0.086 -0.9442 -1.4265  2.6004
 5514SOL    HW228176   2.913   3.082   0.108  0.6827  0.3174 -0.5463
 5515SOL     OW28177   3.592   1.859   2.422  0.1119 -0.4461 -0.1929
 5515SOL    HW128178   3.626   1.824   2.505  2.2716 -0.6620 -1.1609
 5515SOL    HW228179   3.503   1.882   2.449 -0.1577  0.3137 -1.7258
 5516SOL     OW28180   0.142   4.120  15.873 -0.0176 -0.3581 -0.6122
 5516SOL    HW128181   0.069   4.067  15.842 -1.0744  0.1295  1.0555
 5516SOL    HW228182   0.197   4.062  15.925  0.9731  2.3171  1.3371
 5517SOL     OW28183   1.626   0.862   3.337  0.0114 -0.4615 -0.1540
 5517SOL    HW128184   1.608   0.769   3.322 -0.1799 -0.5539  0.6338
 5517SOL    HW228185   1.614   0.887   3.245  1.2588  0.7154 -0.0070
 5518SOL     OW28186   4.266   4.406  10.681  0.1039  0.1762  0.1803
 5518SOL    HW128187   4.267   4.389  10.587 -0.0707  1.1341 -0.0003
 5518SOL    HW228188   4.293   4.318  10.705  0.8807  0.5739  0.8007
 5519SOL     OW28189   3.722   4.029   0.593 -0.1072  0.7788  0.5058
 5519SOL    HW128190   3.752   4.014   0.683  0.6859  1.7266  0.3986
 5519SOL    HW228191   3.806   4.025   0.548 -1.1597  1.1840 -1.4799
 5520SOL     OW28192   1.424   1.843   4.388 -0.5012  0.1357 -0.4025
 5520SOL    HW128193   1.363   1.900   4.341 -2.4731 -1.4643  0.2427
 5520SOL    HW228194   1.459   1.790   4.316  0.4290  1.9809 -1.3118
 5521SOL     OW28195   2.124   0.173   6.500  0.3851  0.1278 -0.0754
 5521SOL    HW128196   2.193   0.129   6.550 -1.0107 -1.6069  0.3487
 5521SOL    HW228197   2.122   0.115   6.424 -0.9986  0.6667 -0.4480
 5522SOL     OW28198   3.504   2.230   2.543  0.0555  0.2938  0.0133
 5522SOL    HW128199   3.567   2.250   2.612 -1.7395  0.8590  1.4964
 5522SOL    HW228200   3.543   2.247   2.458  2.6439  1.0050  1.3382
 5523SOL     OW28201   3.044   2.936   2.336  0.1011 -0.4324  0.6059
 5523SOL    HW128202   2.951   2.916   2.339 -0.2003  0.7159 -0.8923
 5523SOL    HW228203   3.068   2.942   2.243  1.7040  1.1166  1.1207
 5524SOL     OW28204   3.655   1.286  11.984  0.5754  0.4172 -0.5855
 5524SOL    HW128205   3.723   1.353  11.992  0.7109  0.0455  1.3881
 5524SOL    HW228206   3.640   1.257  12.074  1.1371  0.3507 -0.5159
 5525SOL     OW28207   1.234   3.697   5.784 -0.5004 -0.3358 -0.0060
 5525SOL    HW128208   1.324   3.724   5.803 -0.4197 -0.5326 -0.1095
 5525SOL    HW228209   1.204   3.685   5.874  1.1127  1.1759  0.7276
 5526SOL     OW28210   0.030   2.977   6.539 -0.1142 -0.2495 -0.0028
 5526SOL    HW128211   4.715   2.970   6.461 -0.9661 -1.7434  0.7199
 5526SOL    HW228212   4.714   2.935   6.605  2.1520 -3.4429 -0.1538
 5527SOL     OW28213   4.596   0.345   6.757 -0.8620 -0.1273  0.4742
 5527SOL    HW128214   4.512   0.302   6.775 -0.4435 -0.8352  0.6972
 5527SOL    HW228215   4.593   0.358   6.662  0.5846 -0.2899  0.4118
 5528SOL     OW28216   2.725   2.074   3.508 -0.6390 -0.2892 -0.3504
 5528SOL    HW128217   2.634   2.074   3.536 -0.7873 -2.1955 -0.8487
 5528SOL    HW228218   2.711   2.040   3.419 -0.3756 -1.1970 -0.0386
 5529SOL     OW28219   0.081   0.774  17.427 -0.1373 -0.7102 -0.2622
 5529SOL    HW128220   0.127   0.856  17.408  1.8861 -1.9465 -0.7167
 5529SOL    HW228221   0.114   0.711  17.362 -0.9828 -0.7873 -0.6093
 5530SOL     OW28222   2.439   0.968   3.977  0.2793 -0.2091  0.4402
 5530SOL    HW128223   2.476   0.930   4.057  0.7385 -1.0648 -0.1773
 5530SOL    HW228224   2.514   0.962   3.918 -0.0668 -1.5908  0.1378
 5531SOL     OW28225   0.903   0.817  16.403  0.2239  0.3519  0.0865
 5531SOL    HW128226   0.914   0.876  16.329 -1.8751  1.5026  0.6743
 5531SOL    HW228227   0.966   0.858  16.462  2.2350 -0.6941 -1.3171
 5532SOL     OW28228   2.523   1.801   6.741 -0.0624  0.0313 -0.2835
 5532SOL    HW128229   2.473   1.877   6.713 -0.7445 -1.0340 -1.9872
 5532SOL    HW228230   2.601   1.809   6.686  1.2002 -0.8977  1.3645
 5533SOL     OW28231   3.915   2.942  17.410 -0.1627  1.0305  0.4638
 5533SOL    HW128232   3.927   2.876  17.342  0.1366 -0.2253  1.7304
 5533SOL    HW228233   3.823   2.962  17.391 -0.6551 -1.1066  0.5741
 5534SOL     OW28234   0.121   1.378  11.367 -0.3158  0.5135 -0.1904
 5534SOL    HW128235   0.124   1.284  11.381  1.8103  0.1373 -3.3337
 5534SOL    HW228236   0.029   1.374  11.339 -0.3007  1.4244 -0.3751
 5535SOL     OW28237   2.923   1.256   6.620  0.4105 -0.8234  0.0520
 5535SOL    HW128238   2.907   1.233   6.712  1.1989 -0.3069  0.3171
 5535SOL    HW228239   2.958   1.171   6.594  0.1560 -0.9043 -0.0270
 5536SOL     OW28240   4.201   2.872   8.376  0.1617  0.2505 -0.2968
 5536SOL    HW128241   4.155   2.916   8.448  0.5867 -0.1380  0.2092
 5536SOL    HW228242   4.271   2.936   8.365 -0.4632  1.1008  0.6961
 5537SOL     OW28243   1.906   3.048   7.750  0.7512  0.4352 -0.5062
 5537SOL    HW128244   1.835   3.057   7.814 -1.5258 -0.8012 -2.8446
 5537SOL    HW228245   1.960   2.974   7.779  0.7648  0.1345 -1.3125
 5538SOL     OW28246   0.886   1.502  17.227  0.6835 -0.1049  0.6914
 5538SOL    HW128247   0.855   1.516  17.138 -1.5803 -0.6915  1.3657
 5538SOL    HW228248   0.964   1.448  17.213 -0.2886 -0.9857 -1.2725
 5539SOL     OW28249   3.089   1.127   3.508 -0.1346 -0.0780  0.2680
 5539SOL    HW128250   3.002   1.145   3.543 -0.5438  0.7140 -1.1715
 5539SOL    HW228251   3.068   1.079   3.428  0.9963  0.0420 -0.1017
 5540SOL     OW28252   0.972   1.739   5.521  0.1348 -0.1074  0.1130
 5540SOL    HW128253   0.901   1.675   5.522 -1.6026  1.7987  0.3253
 5540SOL    HW228254   0.962   1.780   5.607  0.7929 -1.7060  0.9430
 5541SOL     OW28255   4.058   2.572   2.397 -0.3959  0.6615  0.4095
 5541SOL    HW128256   4.014   2.644   2.441 -1.2113 -0.9926  2.3053
 5541SOL    HW228257   3.983   2.520   2.368 -0.5797  0.9181  0.4276
 5542SOL     OW28258   2.150   3.060   2.168 -0.0026  0.0277  0.1285
 5542SOL    HW128259   2.179   3.112   2.094 -0.1236  1.0348  0.7871
 5542SOL    HW228260   2.222   3.074   2.229 -0.3485  0.0887  0.5217
 5543SOL     OW28261   4.410   4.521  10.015 -0.2288 -0.1670 -0.0503
 5543SOL    HW128262   4.454   4.569  10.085  0.7192  2.9495 -2.8085
 5543SOL    HW228263   4.339   4.583  10.002  0.6928  0.6207 -1.3584
 5544SOL     OW28264   1.520   2.226   4.380  0.1841 -0.3973 -0.2478
 5544SOL    HW128265   1.506   2.266   4.295  0.3734  2.6059  1.1398
 5544SOL    HW228266   1.439   2.175   4.387 -0.4188  0.3368 -1.9056
 5545SOL     OW28267   4.542   1.542  17.084 -1.0308 -0.3401  0.5418
 5545SOL    HW128268   4.593   1.567  17.007 -0.3875 -0.4831  0.9264
 5545SOL    HW228269   4.537   1.623  17.135  0.9554  0.2371 -0.1882
 5546SOL     OW28270   0.668   3.556   9.228  0.3735 -0.4673  0.2858
 5546SOL    HW128271   0.619   3.543   9.146  0.7520 -0.3801  0.0473
 5546SOL    HW228272   0.613   3.631   9.251 -0.7760 -1.7576  1.7029
 5547SOL     OW28273   0.761   1.812  11.415  0.0822 -0.3474 -0.4902
 5547SOL    HW128274   0.824   1.854  11.356 -1.0713  0.6102 -1.0177
 5547SOL    HW228275   0.792   1.722  11.425 -2.2558 -0.8753  1.8619
 5548SOL     OW28276   0.606   0.812   6.344  0.2326 -0.0093 -0.5086
 5548SOL    HW128277   0.661   0.838   6.419  2.7340 -0.4983 -2.1806
 5548SOL    HW228278   0.545   0.886   6.350 -0.2256 -0.5877  2.1163
 5549SOL     OW28279   2.710   4.689   3.518  0.5087 -0.3805 -0.2840
 5549SOL    HW128280   2.649   4.662   3.449  0.3384  1.0095 -0.6646
 5549SOL    HW228281   2.751   0.027   3.480 -2.6952  1.7444  0.5928
 5550SOL     OW28282   0.190   3.558   6.577  0.0094  0.1241  0.1908
 5550SOL    HW128283   0.124   3.519   6.520 -1.4176  2.0815  0.4840
 5550SOL    HW228284   0.208   3.640   6.531 -1.8294  0.6609  0.4395
 5551SOL     OW28285   4.161   4.230   6.491  0.1070  0.1328 -0.1178
 5551SOL    HW128286   4.104   4.267   6.558  0.9068 -0.9890  1.1939
 5551SOL    HW228287   4.102   4.163   6.455 -0.4917  1.1783 -1.0837
 5552SOL     OW28288   3.271   3.107   2.381 -0.2465  0.0445  0.6528
 5552SOL    HW128289   3.276   3.016   2.412  1.4809 -0.4605 -1.0629
 5552SOL    HW228290   3.179   3.131   2.370  0.4053  1.5316 -1.5961
 5553SOL     OW28291   1.485   4.398   3.562  0.1292  0.0434 -0.2806
 5553SOL    HW128292   1.464   4.491   3.577 -1.0936 -0.2377 -0.2270
 5553SOL    HW228293   1.465   4.350   3.643  1.8815 -0.1832  0.0191
 5554SOL     OW28294   4.649   1.670   5.415 -0.0426 -0.2030 -0.4073
 5554SOL    HW128295   4.676   1.685   5.324  0.8043  0.1778 -0.0888
 5554SOL    HW228296   4.714   1.605   5.439 -0.4072 -0.2762  0.3719
 5555SOL     OW28297   4.222   1.694   7.747  0.8761  0.4924 -0.2555
 5555SOL    HW128298   4.132   1.716   7.770  0.9955  1.3492 -0.6071
 5555SOL    HW228299   4.273   1.775   7.747  4.3617 -1.7233  1.2449
 5556SOL     OW28300   4.734   1.454  15.399 -0.3864 -0.0088  0.3567
 5556SOL    HW128301   4.737   1.436  15.305  0.0605  1.7765  0.0448
 5556SOL    HW228302   0.086   1.451  15.427 -0.6367  1.9388  1.3516
 5557SOL     OW28303   2.262   2.322  15.161  0.5714  0.1564  0.3171
 5557SOL    HW128304   2.329   2.259  15.135 -0.1347 -0.3007 -0.3931
 5557SOL    HW228305   2.311   2.405  15.158  1.7668 -0.5880 -0.5042
 5558SOL     OW28306   3.171   1.452  13.836 -0.0460  0.0412 -0.3526
 5558SOL    HW128307   3.146   1.401  13.759  1.0868  0.4671 -1.0054
 5558SOL    HW228308   3.209   1.533  13.802 -0.1055  0.0018 -0.5128
 5559SOL     OW28309   3.352   0.646   8.392 -0.4927 -0.3344  0.2008
 5559SOL    HW128310   3.278   0.601   8.433 -0.9810  0.9735  0.7406
 5559SOL    HW228311   3.330   0.739   8.394 -2.0453 -0.7074  0.6082
 5560SOL     OW28312   2.381   0.763   8.049  0.7124 -0.1077  0.1015
 5560SOL    HW128313   2.469   0.740   8.081  0.7804  0.6541  0.4689
 5560SOL    HW228314   2.328   0.732   8.123  1.9663 -0.3217  0.9179
 5561SOL     OW28315   0.981   3.640   4.655  0.7128 -0.0108 -0.2021
 5561SOL    HW128316   1.017   3.698   4.722 -1.2879  1.0350 -0.0332
 5561SOL    HW228317   0.976   3.713   4.594  3.7713 -0.8210 -1.4419
 5562SOL     OW28318   3.087   0.824   8.850  0.7490 -0.0041  0.0144
 5562SOL    HW128319   3.021   0.761   8.877 -0.6463  0.6378 -1.9264
 5562SOL    HW228320   3.145   0.820   8.927  0.2831  1.0907  0.4263
 5563SOL     OW28321   0.527   0.509   5.397 -0.9630 -0.2196  0.4032
 5563SOL    HW128322   0.474   0.490   5.319  1.7590 -0.1797 -1.4479
 5563SOL    HW228323   0.615   0.487   5.367 -0.8666  0.8850 -0.1310
 5564SOL     OW28324   0.387   4.379  10.756 -0.0082 -0.0727 -0.5493
 5564SOL    HW128325   0.434   4.296  10.756 -0.3814 -0.2815 -0.5196
 5564SOL    HW228326   0.382   4.373  10.851 -0.8201  1.4635 -0.4892
 5565SOL     OW28327   1.514   3.377  15.425  0.2446  0.2853  0.1278
 5565SOL    HW128328   1.572   3.307  15.454 -0.5542  0.2766  1.7128
 5565SOL    HW228329   1.539   3.450  15.481 -1.8652  0.9708  0.2045
 5566SOL     OW28330   0.646   0.026   3.981  0.0488 -0.2576 -0.1429
 5566SOL    HW128331   0.574   0.030   4.044  0.3206 -1.5689  0.2554
 5566SOL    HW228332   0.716   0.006   4.043 -1.0574 -0.1396  1.1499
 5567SOL     OW28333   3.764   3.695   2.088  0.3167  0.1041 -0.6315
 5567SOL    HW128334   3.721   3.660   2.167  0.3189  1.1536 -0.1591
 5567SOL    HW228335   3.845   3.729   2.126 -0.5090  0.4355  0.8559
 5568SOL     OW28336   2.526   3.524   9.424 -0.3435 -0.4131 -0.0221
 5568SOL    HW128337   2.509   3.449   9.481 -0.3349  0.9358  1.7631
 5568SOL    HW228338   2.617   3.533   9.452 -0.0628 -2.3666 -0.2745
 5569SOL     OW28339   1.383   1.061   2.548  0.1261 -0.2142 -0.4633
 5569SOL    HW128340   1.469   1.054   2.508 -0.0844 -0.5356 -0.8547
 5569SOL    HW228341   1.350   1.139   2.503 -0.0031 -0.3950 -0.6794
 5570SOL     OW28342   0.693   0.615   6.920  0.3029  0.3789  0.1973
 5570SOL    HW128343   0.771   0.669   6.909  0.9704 -1.0276 -2.2831
 5570SOL    HW228344   0.695   0.586   6.828  3.7323  0.0736  0.3599
 5571SOL     OW28345   2.823   1.721   4.656 -0.4296 -0.3257  0.7660
 5571SOL    HW128346   2.848   1.705   4.747  0.6869 -1.3412  0.2790
 5571SOL    HW228347   2.840   1.632   4.623  0.8253  0.6266 -1.1352
 5572SOL     OW28348   4.542   2.089   8.164  0.6332  0.5674  0.2746
 5572SOL    HW128349   4.621   2.034   8.155 -0.0471 -0.5384  1.0831
 5572SOL    HW228350   4.471   2.025   8.173  0.6785  0.4717 -0.0363
 5573SOL     OW28351   1.942   2.657   5.979  0.1519 -0.0491 -0.3282
 5573SOL    HW128352   1.881   2.728   6.000  1.1737  1.4773 -2.5045
 5573SOL    HW228353   2.022   2.699   6.012  0.1034 -0.9297  0.9160
 5574SOL     OW28354   3.682   0.755   5.660  1.0463 -0.2158 -0.1632
 5574SOL    HW128355   3.659   0.825   5.598 -1.5527  0.9573  2.1117
 5574SOL    HW228356   3.735   0.800   5.725  1.0398 -3.0323  1.7528
 5575SOL     OW28357   1.026   0.333   6.112 -0.0873 -0.0958 -0.1869
 5575SOL    HW128358   1.100   0.331   6.052  0.4290 -1.1661  0.4909
 5575SOL    HW228359   1.012   0.240   6.132  0.1470  0.4061  2.2775
 5576SOL     OW28360   2.045   2.587  10.517  0.3415  0.3248 -0.8329
 5576SOL    HW128361   2.074   2.552  10.432  3.3883  2.1638 -0.5685
 5576SOL    HW228362   2.105   2.551  10.582  0.9125 -0.2573 -1.6770
 5577SOL     OW28363   1.904   0.749  16.746 -0.0612 -0.4967 -0.3449
 5577SOL    HW128364   1.967   0.747  16.674 -0.5574 -1.5325 -0.7550
 5577SOL    HW228365   1.880   0.656  16.748 -1.5673 -0.1439 -1.3767
 5578SOL     OW28366   0.269   2.606   8.609  0.2817 -0.0467  0.1469
 5578SOL    HW128367   0.349   2.625   8.561 -0.4662  1.4569 -0.5117
 5578SOL    HW228368   0.200   2.586   8.546  0.9539 -2.3412  0.1656
 5579SOL     OW28369   3.369   2.815   0.961 -0.3249 -0.3748 -0.3326
 5579SOL    HW128370   3.393   2.904   0.986 -0.7718 -0.1111 -0.8402
 5579SOL    HW228371   3.329   2.842   0.878  2.0403 -0.8260 -1.6378
 5580SOL     OW28372   2.458   0.532   9.332  0.2066 -0.5365  0.0417
 5580SOL    HW128373   2.518   0.562   9.265  1.0541 -0.4589  0.8425
 5580SOL    HW228374   2.473   0.437   9.327  0.7200 -0.4305 -0.3259
 5581SOL     OW28375   4.658   1.104  14.598 -0.8203  0.9617  0.1005
 5581SOL    HW128376   4.581   1.160  14.609 -1.6468 -0.3523  1.1346
 5581SOL    HW228377   4.726   1.156  14.556  0.3864 -2.2623 -1.9313
 5582SOL     OW28378   0.938   2.287   3.686 -0.5092 -0.3570 -0.2418
 5582SOL    HW128379   0.995   2.341   3.742 -0.7162  1.3648 -1.6894
 5582SOL    HW228380   0.997   2.277   3.612 -1.2929 -1.8300 -0.6527
 5583SOL     OW28381   2.441   3.148   6.667  0.4769 -0.8244 -0.0094
 5583SOL    HW128382   2.377   3.191   6.724  0.2273 -0.5106 -0.5229
 5583SOL    HW228383   2.397   3.154   6.582  0.4410  1.5652  0.1882
 5584SOL     OW28384   0.492   3.322   3.906 -0.3245 -0.1252  0.6418
 5584SOL    HW128385   0.442   3.290   3.981  0.4964  0.0401  1.2524
 5584SOL    HW228386   0.483   3.237   3.862  0.2736  0.0840  0.1272
 5585SOL     OW28387   1.478   3.125   6.799 -0.5580 -0.0653 -0.0026
 5585SOL    HW128388   1.476   3.189   6.727 -0.7232  0.7773  0.7496
 5585SOL    HW228389   1.554   3.156   6.847  1.2041  0.9211 -3.4473
 5586SOL     OW28390   1.678   3.267   8.138 -0.0739  0.8162  0.1113
 5586SOL    HW128391   1.757   3.213   8.139  0.1872  1.2226  1.8327
 5586SOL    HW228392   1.722   3.348   8.164  0.9495  0.2617  0.0925
 5587SOL     OW28393   4.490   1.658   8.700 -0.0968  0.6423 -0.8201
 5587SOL    HW128394   4.435   1.622   8.631 -1.0856  0.3683  0.1081
 5587SOL    HW228395   4.448   1.742   8.717  0.7506  1.1051 -0.9899
 5588SOL     OW28396   3.008   2.709   2.090  0.1569  0.3538 -0.2316
 5588SOL    HW128397   3.081   2.770   2.080  0.9412 -0.4624  0.4466
 5588SOL    HW228398   2.927   2.759   2.097 -0.3411 -0.5559  0.5551
 5589SOL     OW28399   1.831   2.064  11.471  0.2373 -0.6908  0.3847
 5589SOL    HW128400   1.828   2.043  11.378  0.4375 -0.1356  0.2502
 5589SOL    HW228401   1.762   2.130  11.480  1.1513  0.0856  1.7399
 5590SOL     OW28402   4.117   2.458   7.707 -0.4839  0.3369 -0.1248
 5590SOL    HW128403   4.119   2.366   7.734  1.3497  0.6697  0.8533
 5590SOL    HW228404   4.178   2.495   7.770  0.2365 -2.0527  0.5790
 5591SOL     OW28405   0.277   2.799   5.394 -0.7330 -0.0154  0.1316
 5591SOL    HW128406   0.240   2.858   5.460 -0.1133 -0.0423  0.5057
 5591SOL    HW228407   0.204   2.738   5.392 -0.3575 -0.5424  2.0439
 5592SOL     OW28408   1.551   0.942   8.590 -0.1641 -0.2043 -0.7353
 5592SOL    HW128409   1.527   1.034   8.589  0.8545  0.0442 -2.7905
 5592SOL    HW228410   1.480   0.906   8.537  0.0731 -0.0987 -1.1224
 5593SOL     OW28411   1.797   0.294   2.923  0.0545  0.4155  0.3776
 5593SOL    HW128412   1.835   0.207   2.922 -0.2086  0.2898  1.3369
 5593SOL    HW228413   1.862   0.341   2.870 -0.3109  0.0026 -0.4371
 5594SOL     OW28414   4.005   1.348   0.808  0.1180  0.2435  0.0626
 5594SOL    HW128415   4.076   1.400   0.847  2.1370 -1.3202 -1.5111
 5594SOL    HW228416   3.980   1.411   0.741 -0.7787  0.9093  1.0312
 5595SOL     OW28417   3.081   0.619   3.082  0.3750 -0.8545  0.1292
 5595SOL    HW128418   3.173   0.643   3.065  1.0738 -2.7056  1.2320
 5595SOL    HW228419   3.088   0.531   3.120  3.2427 -1.5192 -1.8620
 5596SOL     OW28420   3.078   3.556  17.556 -0.2223  0.3352  0.0989
 5596SOL    HW128421   3.015   3.522  17.619 -0.4506 -0.0194 -0.3187
 5596SOL    HW228422   3.083   3.640  17.600 -2.1963  0.5105 -0.0205
 5597SOL     OW28423   2.057   0.305  16.601 -0.3626  0.9384  0.4105
 5597SOL    HW128424   2.046   0.395  16.570 -3.8126 -0.0034 -1.0733
 5597SOL    HW228425   1.964   0.285  16.598 -0.1675  0.3270 -1.7568
 5598SOL     OW28426   3.081   0.672   1.473 -0.4863  0.6161 -0.0493
 5598SOL    HW128427   3.049   0.714   1.553  0.7196  1.4093  0.0122
 5598SOL    HW228428   3.153   0.618   1.505  1.1975  2.2459 -1.1406
 5599SOL     OW28429   2.703   4.310  17.165  0.5993 -0.4856  0.1367
 5599SOL    HW128430   2.742   4.398  17.168 -1.5138  0.4561  0.7130
 5599SOL    HW228431   2.658   4.317  17.081  0.5091 -1.3530  0.1215
 5600SOL     OW28432   3.941   0.727   1.585 -0.0215 -0.1546 -0.0070
 5600SOL    HW128433   3.887   0.796   1.547 -0.7004  0.4789  2.0829
 5600SOL    HW228434   4.005   0.781   1.631  0.4605  0.7643 -1.7809
 5601SOL     OW28435   2.850   0.211   1.823  0.1154  0.4752 -0.2946
 5601SOL    HW128436   2.768   0.188   1.868  1.2410 -1.7155  0.6315
 5601SOL    HW228437   2.899   0.129   1.830  2.3880  1.9849  1.3551
 5602SOL     OW28438   2.524   1.581   0.006 -0.2482  0.2953  0.1364
 5602SOL    HW128439   2.541   1.548  17.673  0.6787  0.5081  0.2345
 5602SOL    HW228440   2.474   1.510   0.047  0.7048  0.1979  1.1222
 5603SOL     OW28441   1.910   0.323   7.522  0.2218 -0.1408  0.4212
 5603SOL    HW128442   1.819   0.341   7.543  0.4436  0.1380  1.1491
 5603SOL    HW228443   1.891   0.255   7.457  0.4476 -0.4132  0.6404
 5604SOL     OW28444   1.950   3.223   9.596 -0.0233  0.8771 -0.3397
 5604SOL    HW128445   1.871   3.275   9.614 -0.5794 -0.7135  1.9171
 5604SOL    HW228446   2.013   3.295   9.599  1.1067 -0.1590  0.9464
 5605SOL     OW28447   2.108   0.881   7.864 -0.3880  0.4910  0.3073
 5605SOL    HW128448   2.086   0.952   7.925 -0.6394  1.3557 -0.8018
 5605SOL    HW228449   2.189   0.907   7.820 -0.6612  0.6206 -0.1214
 5606SOL     OW28450   4.735   0.855   6.855  0.1448 -0.0646  0.7265
 5606SOL    HW128451   4.731   0.844   6.950 -2.9612  1.3016  0.7389
 5606SOL    HW228452   0.040   0.775   6.825 -0.4546  0.2333 -0.9407
 5607SOL     OW28453   2.773   1.536   0.137  0.6787 -0.4957  0.5527
 5607SOL    HW128454   2.834   1.609   0.126 -0.1474  0.0860 -0.1853
 5607SOL    HW228455   2.697   1.584   0.103 -0.8844 -2.0009  1.9230
 5608SOL     OW28456   3.097   3.632   4.294  0.0592 -0.3882  0.4478
 5608SOL    HW128457   3.070   3.540   4.295 -2.6441  0.3779  0.0771
 5608SOL    HW228458   3.071   3.671   4.377  0.8990  0.2936  0.3785
 5609SOL     OW28459   3.262   2.389   8.649  0.5249  0.7488  0.2644
 5609SOL    HW128460   3.208   2.319   8.611 -0.7550  1.0099  1.5854
 5609SOL    HW228461   3.254   2.460   8.587  0.2198 -0.4447 -1.0615
 5610SOL     OW28462   4.500   3.482  11.532  0.3095  0.4851 -0.2186
 5610SOL    HW128463   4.448   3.510  11.457  0.0760  3.8453  1.2185
 5610SOL    HW228464   4.507   3.388  11.514  1.0780  0.5829 -0.4493
 5611SOL     OW28465   4.024   1.631   0.755 -0.3411 -0.2564  0.4367
 5611SOL    HW128466   3.948   1.683   0.784 -1.0933 -0.7264 -0.7182
 5611SOL    HW228467   4.069   1.698   0.705 -1.1275 -0.7812 -0.9752
 5612SOL     OW28468   0.712   0.828   5.265  0.1179 -0.3460 -0.4380
 5612SOL    HW128469   0.654   0.836   5.190 -1.7216  2.1926  1.2474
 5612SOL    HW228470   0.794   0.833   5.216 -0.6658  0.6838 -1.6266
 5613SOL     OW28471   2.097   0.151   1.995 -0.6854 -0.1610  0.2979
 5613SOL    HW128472   2.120   0.244   1.988  0.1766 -0.3366  0.8282
 5613SOL    HW228473   2.003   0.155   2.012 -0.7781 -1.9261  0.1569
 5614SOL     OW28474   2.171   0.477   2.387 -0.0916 -0.2535  0.3664
 5614SOL    HW128475   2.129   0.401   2.426 -0.9869 -0.6851 -1.4499
 5614SOL    HW228476   2.216   0.532   2.451  0.3049  0.5103 -0.5608
 5615SOL     OW28477   2.595   2.090   6.397 -0.2415  0.6850  0.0180
 5615SOL    HW128478   2.677   2.103   6.446 -0.1947  1.1238 -0.1845
 5615SOL    HW228479   2.639   2.071   6.314  1.0853  1.6930  0.4737
 5616SOL     OW28480   2.459   0.140   0.952  0.2526 -0.2277 -0.4019
 5616SOL    HW128481   2.400   0.182   1.015 -1.7534 -2.9736 -0.4465
 5616SOL    HW228482   2.441   0.047   0.968 -0.4411 -0.4694 -2.5020
 5617SOL     OW28483   3.238   1.772  12.343 -0.3347  0.0615  0.2154
 5617SOL    HW128484   3.283   1.844  12.298  0.1905  0.0520  0.7172
 5617SOL    HW228485   3.242   1.804  12.433 -0.3378 -1.0419  0.6067
 5618SOL     OW28486   0.924   1.375  13.299 -0.3195  0.5971  0.4240
 5618SOL    HW128487   0.861   1.446  13.308 -1.6349 -0.2581 -1.8576
 5618SOL    HW228488   0.888   1.306  13.355 -0.7338 -0.0685 -0.6510
 5619SOL     OW28489   0.135   0.691   1.190  0.4316  0.3864  0.4663
 5619SOL    HW128490   0.194   0.764   1.173  0.2297  0.1330 -1.2662
 5619SOL    HW228491   0.056   0.738   1.167  0.6084  0.3113 -0.2828
 5620SOL     OW28492   0.792   0.291  11.453 -0.0025 -0.0698  0.4242
 5620SOL    HW128493   0.769   0.303  11.361 -4.0620 -0.8611  1.3484
 5620SOL    HW228494   0.818   0.199  11.461 -1.1999 -0.4446  0.0585
 5621SOL     OW28495   0.613   0.058   2.909 -0.7591 -0.2028 -0.0526
 5621SOL    HW128496   0.642   4.717   2.867  2.6257  1.3730 -0.7163
 5621SOL    HW228497   0.645   0.116   2.840  0.6163 -1.4438 -0.4502
 5622SOL     OW28498   4.353   3.553   3.707  0.1526  0.0837 -0.0810
 5622SOL    HW128499   4.307   3.636   3.717 -3.0074 -1.5409 -1.1702
 5622SOL    HW228500   4.351   3.544   3.612 -0.1705  0.6317 -0.1245
 5623SOL     OW28501   0.965   3.432   4.468 -0.3443 -0.8578 -0.1707
 5623SOL    HW128502   0.976   3.497   4.538 -0.5672 -1.4113  0.3752
 5623SOL    HW228503   0.938   3.355   4.517 -1.3429 -0.4873 -0.1317
 5624SOL     OW28504   4.390   0.802  15.129 -1.0245 -0.2118  0.8004
 5624SOL    HW128505   4.485   0.806  15.124 -0.9391  0.2546  2.9009
 5624SOL    HW228506   4.375   0.762  15.044 -4.8926  1.9632  0.4410
 5625SOL     OW28507   4.632   3.512   4.457 -0.0417  0.3590 -0.5520
 5625SOL    HW128508   4.551   3.464   4.478 -0.0591  0.2280 -0.9073
 5625SOL    HW228509   4.646   3.482   4.367  1.7905 -0.0992 -0.1121
 5626SOL     OW28510   4.110   3.250  13.278 -0.1352 -0.0684  0.3019
 5626SOL    HW128511   4.102   3.157  13.259 -0.6886  0.1281 -0.4501
 5626SOL    HW228512   4.187   3.279  13.229  1.0852  1.3695  3.1040
 5627SOL     OW28513   1.127   1.628   4.091  0.6928  0.2499  0.0521
 5627SOL    HW128514   1.151   1.707   4.042 -3.0636  1.4370  0.0729
 5627SOL    HW228515   1.212   1.604   4.127 -0.8497 -2.6030  1.8291
 5628SOL     OW28516   3.480   1.352   6.586 -0.0881  0.4494  0.3367
 5628SOL    HW128517   3.454   1.425   6.529 -0.3822 -0.5751 -0.8470
 5628SOL    HW228518   3.574   1.371   6.596 -0.0101  1.0119 -1.3861
 5629SOL     OW28519   0.181   2.584   4.194 -0.5446 -0.3793 -0.4265
 5629SOL    HW128520   0.181   2.616   4.285  0.3285 -2.2893  0.2493
 5629SOL    HW228521   0.196   2.662   4.141 -1.8643  0.5302  0.5271
 5630SOL     OW28522   3.685   1.543   4.800 -0.0305  1.0284  0.8593
 5630SOL    HW128523   3.764   1.565   4.849  1.4148 -2.0949 -0.1031
 5630SOL    HW228524   3.701   1.595   4.721 -1.5050  2.6298  1.6102
 5631SOL     OW28525   3.657   3.412   3.096  0.2947  0.1837  0.7649
 5631SOL    HW128526   3.686   3.428   3.006 -1.9305  0.8462  0.1536
 5631SOL    HW228527   3.561   3.407   3.094  0.3470  0.7786 -3.8579
 5632SOL     OW28528   3.228   3.586   5.070  0.2540  0.1409 -0.1001
 5632SOL    HW128529   3.242   3.506   5.020  0.6904  0.0395  0.1830
 5632SOL    HW228530   3.267   3.649   5.010 -0.0389 -0.2991 -0.7453
 5633SOL     OW28531   0.572   2.906   4.661  0.5371 -0.0875  0.2478
 5633SOL    HW128532   0.541   2.910   4.570 -1.2343  0.1312  0.8553
 5633SOL    HW228533   0.643   2.969   4.649 -0.5402  0.9904 -0.5245
 5634SOL     OW28534   2.580   1.697   2.130  0.6996 -0.2860 -0.3714
 5634SOL    HW128535   2.632   1.683   2.209 -2.4968  1.8524  2.1351
 5634SOL    HW228536   2.511   1.631   2.132 -0.5665  1.0328 -0.1194
 5635SOL     OW28537   1.362   3.827   5.106  0.3715 -0.5050 -0.4291
 5635SOL    HW128538   1.451   3.861   5.100  0.7847 -1.4443  0.4719
 5635SOL    HW228539   1.341   3.825   5.012 -1.0686  0.6643 -0.1309
 5636SOL     OW28540   3.511   3.591   6.120  0.1342  0.1242 -0.4112
 5636SOL    HW128541   3.544   3.529   6.184  0.0460 -0.9344 -1.3807
 5636SOL    HW228542   3.586   3.650   6.121  1.4333 -1.5513  0.8922
 5637SOL     OW28543   0.590   2.089   6.739  0.1092 -0.0246  0.2437
 5637SOL    HW128544   0.545   2.149   6.798  1.6080  0.7405  0.6023
 5637SOL    HW228545   0.664   2.055   6.790  0.8427  1.5203  0.2208
 5638SOL     OW28546   3.242   4.322  10.802 -0.5553  0.2952 -0.4192
 5638SOL    HW128547   3.258   4.303  10.710  2.2093  1.3058 -0.1335
 5638SOL    HW228548   3.180   4.255  10.831  0.5343 -0.3445  0.4317
 5639SOL     OW28549   2.202   0.766   6.498 -0.4866  0.0676  0.7997
 5639SOL    HW128550   2.285   0.780   6.543  0.1136  0.6396 -0.5177
 5639SOL    HW228551   2.176   0.851   6.463  1.9012  0.8733  1.0124
 5640SOL     OW28552   3.643   4.135  14.974  0.3186 -0.4180 -0.0408
 5640SOL    HW128553   3.619   4.055  14.928 -0.7368  0.2329 -0.6241
 5640SOL    HW228554   3.649   4.199  14.903 -0.8464 -1.0415 -0.7070
 5641SOL     OW28555   4.717   1.832   7.794 -1.0932 -0.3986 -0.6258
 5641SOL    HW128556   4.709   1.871   7.881  0.7304  1.7686 -1.4177
 5641SOL    HW228557   0.025   1.898   7.744 -1.2779 -0.8272 -1.3730
 5642SOL     OW28558   0.082   2.675   2.336 -0.6706  0.2699  0.0679
 5642SOL    HW128559   0.090   2.626   2.417  0.6147  1.9126  0.9453
 5642SOL    HW228560   0.047   2.615   2.270  0.2687 -0.9354  0.6779
 5643SOL     OW28561   1.655   4.274   5.327  0.0407 -0.3336  0.4441
 5643SOL    HW128562   1.616   4.238   5.248 -1.1787 -0.1309  0.9509
 5643SOL    HW228563   1.614   4.360   5.336 -0.8125 -0.3347 -3.8462
 5644SOL     OW28564   2.980   0.859   2.984  0.2972 -0.1987 -0.4699
 5644SOL    HW128565   3.060   0.891   2.942 -0.6282  3.5488  0.5987
 5644SOL    HW228566   3.010   0.779   3.026 -0.3630  0.4273  1.2047
 5645SOL     OW28567   4.445   4.167   9.551 -0.2863  1.0273 -0.4808
 5645SOL    HW128568   4.402   4.139   9.631  0.2693  0.2047 -0.4713
 5645SOL    HW228569   4.527   4.198   9.590 -0.6514  0.6685  0.5659
 5646SOL     OW28570   4.376   0.639  16.868  0.3726  0.1997 -0.3120
 5646SOL    HW128571   4.311   0.593  16.815 -0.4319 -0.0322  0.8910
 5646SOL    HW228572   4.318   0.706  16.903 -1.7847 -1.1096 -1.3498
 5647SOL     OW28573   4.649   2.511   8.978  0.0814  0.3836  0.0501
 5647SOL    HW128574   4.652   2.544   8.888 -2.4255 -0.1656 -0.2320
 5647SOL    HW228575   4.554   2.511   8.989 -0.1585 -1.9989 -1.9927
 5648SOL     OW28576   3.476   1.628   8.961  0.4263 -0.1483  0.7936
 5648SOL    HW128577   3.531   1.698   8.925 -2.0891  1.7548  0.6305
 5648SOL    HW228578   3.528   1.552   8.935  0.1351  0.0086 -0.2564
 5649SOL     OW28579   0.971   2.105   5.111  0.1677  0.2487 -0.5573
 5649SOL    HW128580   0.914   2.167   5.064 -1.0399  1.2136  2.1604
 5649SOL    HW228581   0.903   2.078   5.174  0.1439  0.8654 -0.3116
 5650SOL     OW28582   4.054   0.968   6.949 -0.3097  0.3222  0.3166
 5650SOL    HW128583   4.094   0.911   6.883 -3.1454 -0.9445 -0.2894
 5650SOL    HW228584   4.128   1.028   6.958  0.8027 -0.7950 -1.4865
 5651SOL     OW28585   2.816   4.128   3.805 -0.0902  0.3991  0.3090
 5651SOL    HW128586   2.877   4.120   3.879 -0.0801  1.1211  0.3822
 5651SOL    HW228587   2.764   4.206   3.826  0.3575  0.4566  1.2276
 5652SOL     OW28588   0.988   4.358   7.968 -0.0656  0.3579  0.1826
 5652SOL    HW128589   0.973   4.265   7.950 -1.4899  0.6612 -0.2375
 5652SOL    HW228590   0.918   4.368   8.033  0.8223 -0.2459  1.2141
 5653SOL     OW28591   0.737   3.401   0.713 -0.6503  0.0667  0.1083
 5653SOL    HW128592   0.747   3.390   0.808 -1.1961 -0.9557  0.0554
 5653SOL    HW228593   0.827   3.372   0.697 -0.7233  0.5530 -1.1284
 5654SOL     OW28594   4.572   1.916   5.474  0.2276  0.4723  0.0232
 5654SOL    HW128595   4.479   1.927   5.497 -0.4472 -1.0078 -1.9986
 5654SOL    HW228596   4.582   1.826   5.444 -1.2572 -0.3216  1.9209
 5655SOL     OW28597   4.196   1.469   3.652 -0.3566 -0.3613 -0.5681
 5655SOL    HW128598   4.182   1.519   3.571  1.0197  0.1585 -0.4781
 5655SOL    HW228599   4.119   1.501   3.699  2.1671 -0.9923  3.9291
 5656SOL     OW28600   2.372   0.313  10.844  0.2106  0.4812 -0.1323
 5656SOL    HW128601   2.295   0.289  10.793 -0.9307  1.0573  1.3349
 5656SOL    HW228602   2.429   0.331  10.769  2.9240 -0.0391  1.7915
 5657SOL     OW28603   2.319   2.707   5.162 -0.1843 -0.3461  0.5957
 5657SOL    HW128604   2.385   2.661   5.213 -0.1669 -0.0538  0.8359
 5657SOL    HW228605   2.342   2.799   5.175 -2.5747  0.0181  2.3351
 5658SOL     OW28606   1.011   2.497   2.489 -0.0816  0.1106 -0.2227
 5658SOL    HW128607   1.027   2.583   2.528 -1.2896 -0.6124  1.8827
 5658SOL    HW228608   0.998   2.514   2.396 -2.1394 -1.5409 -0.2367
 5659SOL     OW28609   1.680   1.805   4.485 -0.1988  0.3811 -0.1536
 5659SOL    HW128610   1.673   1.717   4.522 -1.4629  0.6564  0.2573
 5659SOL    HW228611   1.597   1.822   4.442  0.6852  1.3835 -1.4652
 5660SOL     OW28612   1.655   0.608   4.240  0.2267  0.2628 -0.3728
 5660SOL    HW128613   1.691   0.559   4.314 -0.5407 -2.5698 -1.9039
 5660SOL    HW228614   1.562   0.588   4.247 -0.1693  3.0080  2.6675
 5661SOL     OW28615   3.133   1.315  10.775 -0.3436 -0.7484 -0.8395
 5661SOL    HW128616   3.189   1.281  10.706  0.0572  1.8949 -1.8234
 5661SOL    HW228617   3.047   1.286  10.745 -0.7575  0.8230 -1.1810
 5662SOL     OW28618   1.873   2.437   2.153 -0.2748 -0.2550 -0.0836
 5662SOL    HW128619   1.932   2.417   2.080 -1.7496  1.1849 -1.6964
 5662SOL    HW228620   1.784   2.442   2.116  0.5511  2.2853 -1.7126
 5663SOL     OW28621   3.215   0.066  10.484  0.2422 -0.2644  0.0448
 5663SOL    HW128622   3.259   0.140  10.526 -2.2913  1.8880 -1.1235
 5663SOL    HW228623   3.130   0.109  10.472 -0.2908 -1.1324  0.7235
 5664SOL     OW28624   3.388   4.507  10.931 -0.3908 -1.0223 -1.0388
 5664SOL    HW128625   3.327   4.464  10.871  1.9994 -2.0524 -2.7355
 5664SOL    HW228626   3.459   4.444  10.916  0.7693  0.3555 -1.3105
 5665SOL     OW28627   4.354   1.050   8.939  0.2519 -0.2446 -0.0862
 5665SOL    HW128628   4.309   1.012   9.015  1.9646  2.4810  2.3021
 5665SOL    HW228629   4.286   1.052   8.872 -1.4609  0.7536  1.6656
 5666SOL     OW28630   1.349   0.505   7.863 -0.4682 -0.3050  0.1598
 5666SOL    HW128631   1.408   0.578   7.880 -0.9343 -0.1669  1.2020
 5666SOL    HW228632   1.380   0.458   7.785 -0.9261 -0.8828  0.3235
 5667SOL     OW28633   1.020   1.078   5.431  0.0513 -0.3596 -0.6181
 5667SOL    HW128634   1.063   1.009   5.381  1.4276  1.1163 -1.4547
 5667SOL    HW228635   1.085   1.148   5.424  2.4730 -2.4879  0.8504
 5668SOL     OW28636   0.542   1.587   3.967 -0.0477  0.1446 -0.2445
 5668SOL    HW128637   0.621   1.640   3.954 -0.4057  0.0926 -2.7087
 5668SOL    HW228638   0.569   1.502   3.932  1.8591 -0.2383  2.1645
 5669SOL     OW28639   4.142   3.078  10.010 -0.2148  0.5387  0.3995
 5669SOL    HW128640   4.145   3.157  10.064  2.1457 -0.4374  1.6945
 5669SOL    HW228641   4.179   3.118   9.932 -2.2257 -0.2645 -0.9758
 5670SOL     OW28642   3.866   3.469   7.066  0.2536 -0.3734 -0.0282
 5670SOL    HW128643   3.944   3.520   7.085 -0.7839  0.8851  0.8690
 5670SOL    HW228644   3.917   3.401   7.021  1.4946  1.3655 -1.2210
 5671SOL     OW28645   2.235   1.320   4.427  0.5447 -0.2972  0.4542
 5671SOL    HW128646   2.166   1.354   4.483 -0.7664 -0.5767 -0.9753
 5671SOL    HW228647   2.236   1.227   4.449  0.3723 -1.1009 -2.9271
 5672SOL     OW28648   1.164   0.041   9.761 -0.4263 -0.0634  0.0124
 5672SOL    HW128649   1.216   0.033   9.681 -0.6697  1.0019 -0.2508
 5672SOL    HW228650   1.074   0.056   9.730 -0.7603  0.1806  1.1059
 5673SOL     OW28651   1.342   3.164  11.519 -0.2343  0.4740  0.5931
 5673SOL    HW128652   1.391   3.165  11.601  0.4490  0.2941  0.1825
 5673SOL    HW228653   1.341   3.071  11.497 -2.0306  0.2578  1.5969
 5674SOL     OW28654   0.916   2.785  11.593  0.1629  0.1161 -0.6479
 5674SOL    HW128655   0.867   2.725  11.650  1.6801 -2.2712 -1.8484
 5674SOL    HW228656   1.006   2.788  11.623 -0.6053 -2.5527  1.9372
 5675SOL     OW28657   2.275   1.053   4.797 -0.0484 -0.6389  0.0507
 5675SOL    HW128658   2.288   0.961   4.819 -0.7953 -0.7906 -0.1450
 5675SOL    HW228659   2.272   1.041   4.702 -1.3259  2.0934 -0.2472
 5676SOL     OW28660   1.275   0.265  10.613 -0.7306  0.4236  0.4532
 5676SOL    HW128661   1.303   0.355  10.597  1.3667 -0.6109 -1.7255
 5676SOL    HW228662   1.353   0.226  10.572  0.0147  0.7471  1.5895
 5677SOL     OW28663   3.322   3.662   7.367  0.9884 -0.2612  0.0742
 5677SOL    HW128664   3.393   3.705   7.319  0.1330  0.6366 -0.3842
 5677SOL    HW228665   3.320   3.706   7.452  0.6486 -1.2469  0.5797
 5678SOL     OW28666   1.645   0.353   3.148 -0.2601  0.2526 -0.2583
 5678SOL    HW128667   1.703   0.339   3.074 -1.3599 -2.0798 -0.6740
 5678SOL    HW228668   1.564   0.311   3.121  0.4543  0.1688 -2.2390
 5679SOL     OW28669   4.476   1.264  14.701 -0.1455  0.3551  0.5170
 5679SOL    HW128670   4.481   1.253  14.796 -0.6302 -1.5955  0.3161
 5679SOL    HW228671   4.389   1.305  14.701 -0.7922 -1.0108  1.4099
 5680SOL     OW28672   1.745   1.646   9.154  0.4595 -0.8376 -0.7047
 5680SOL    HW128673   1.728   1.701   9.077  0.6941 -1.1080 -0.9484
 5680SOL    HW228674   1.666   1.665   9.206  1.8521  0.4276  0.9651
 5681SOL     OW28675   2.891   4.386   3.484 -0.3305 -0.1323 -0.2376
 5681SOL    HW128676   2.980   4.355   3.502 -0.8869 -1.8019 -0.4084
 5681SOL    HW228677   2.897   4.405   3.390 -0.5058 -1.2224 -0.4702
 5682SOL     OW28678   4.373   0.653   1.523 -0.1135 -0.5537  0.1279
 5682SOL    HW128679   4.388   0.685   1.612  2.7991  0.2572 -0.6548
 5682SOL    HW228680   4.461   0.637   1.487 -1.4377 -2.4736 -2.2741
 5683SOL     OW28681   0.423   4.461  15.952 -0.2748  0.7508 -0.5740
 5683SOL    HW128682   0.518   4.458  15.969 -0.6754 -1.0172  1.3045
 5683SOL    HW228683   0.406   4.537  15.897 -0.6308  1.7552  0.9228
 5684SOL     OW28684   2.529   4.138   3.385 -0.3875 -0.1407  1.0341
 5684SOL    HW128685   2.585   4.087   3.443  0.7818  0.2794  0.2768
 5684SOL    HW228686   2.531   4.222   3.431  0.8493  0.8125 -0.7656
 5685SOL     OW28687   1.385   0.739   6.277 -0.8280  0.3905 -0.4456
 5685SOL    HW128688   1.343   0.658   6.304  0.1217 -0.2993 -1.0450
 5685SOL    HW228689   1.475   0.715   6.300 -1.0766 -0.9141 -0.8590
 5686SOL     OW28690   1.772   3.814   4.564 -0.4689 -0.6301 -0.0431
 5686SOL    HW128691   1.750   3.886   4.623  2.7258 -0.3298  0.7554
 5686SOL    HW228692   1.802   3.862   4.487  0.1776 -1.3097 -0.2168
 5687SOL     OW28693   4.264   0.484   2.649  0.2209 -0.0184  0.5775
 5687SOL    HW128694   4.306   0.558   2.606 -1.4714  0.5130 -0.1619
 5687SOL    HW228695   4.302   0.489   2.737 -0.3036  0.2563  0.7864
 5688SOL     OW28696   1.799   0.317  16.582  0.4508 -0.2410 -0.0590
 5688SOL    HW128697   1.754   0.361  16.510  0.0774  1.5669  1.2915
 5688SOL    HW228698   1.720   0.282  16.624  0.7060  0.2364  0.8086
 5689SOL     OW28699   2.041   0.123   5.860  0.7214  0.4521 -0.3482
 5689SOL    HW128700   2.070   0.148   5.772 -0.9719 -1.9974 -1.6272
 5689SOL    HW228701   2.105   0.054   5.879 -1.1539 -0.5874  2.2002
 5690SOL     OW28702   3.953   2.107  17.213 -0.7004  0.6453  0.2442
 5690SOL    HW128703   3.975   2.098  17.120 -1.3592 -0.6206  0.2140
 5690SOL    HW228704   4.037   2.149  17.232  0.5255 -1.5111 -0.3269
 5691SOL     OW28705   2.385   0.656   1.294 -0.5289  0.3135 -0.1700
 5691SOL    HW128706   2.358   0.748   1.290 -1.4005  0.0734  0.3285
 5691SOL    HW228707   2.323   0.610   1.239  0.4424 -1.9991  0.6622
 5692SOL     OW28708   2.756   3.546   1.006  0.3245  0.0306 -0.2519
 5692SOL    HW128709   2.691   3.476   0.997  0.6183 -0.1989 -0.5967
 5692SOL    HW228710   2.777   3.543   1.100  1.3109  1.1906 -0.4368
 5693SOL     OW28711   2.799   2.449   4.852  0.0115  0.8602  0.1326
 5693SOL    HW128712   2.843   2.398   4.920  0.4331  0.9308 -0.0871
 5693SOL    HW228713   2.711   2.410   4.850 -0.1612  1.3576 -1.5702
 5694SOL     OW28714   4.049   3.359  14.869  0.0334 -0.0298 -0.0987
 5694SOL    HW128715   3.986   3.288  14.855  1.0991 -1.4081  2.2694
 5694SOL    HW228716   4.031   3.415  14.794 -1.8824 -0.2465  0.1893
 5695SOL     OW28717   3.760   1.274   7.436 -0.1000  0.5284  0.2060
 5695SOL    HW128718   3.830   1.313   7.487  0.7870 -0.0827 -0.5240
 5695SOL    HW228719   3.772   1.184   7.468 -0.2928  0.0130 -1.1737
 5696SOL     OW28720   4.014   4.044   4.455  0.2830 -0.1749  0.4452
 5696SOL    HW128721   3.961   3.974   4.417  0.7209  1.3632 -2.9683
 5696SOL    HW228722   4.077   4.068   4.387  0.7688 -1.4099  0.4496
 5697SOL     OW28723   3.818   2.768   4.591 -0.1480  0.0707  0.2272
 5697SOL    HW128724   3.768   2.850   4.584 -0.2228 -0.0108 -0.2084
 5697SOL    HW228725   3.832   2.734   4.503 -1.6774 -3.2470  1.2445
 5698SOL     OW28726   4.066   0.323   1.082 -0.0549  0.4605  0.2179
 5698SOL    HW128727   4.140   0.374   1.049  0.8650 -0.1890  1.2710
 5698SOL    HW228728   4.024   0.306   0.998  3.1928 -3.0460 -0.6803
 5699SOL     OW28729   2.073   3.146  10.031 -0.0016 -0.2910  0.0888
 5699SOL    HW128730   2.064   3.051  10.032  1.7251 -0.4466  0.6246
 5699SOL    HW228731   2.162   3.154  10.066  1.0962  0.1199 -2.7952
 5700SOL     OW28732   1.072   1.316   9.067  0.0337 -0.1873 -0.2963
 5700SOL    HW128733   1.167   1.322   9.071  0.0300  0.3939 -1.0760
 5700SOL    HW228734   1.055   1.225   9.042 -2.5858  0.2154  0.0514
 5701SOL     OW28735   2.302   0.290   8.218  0.0084  0.1682 -0.1642
 5701SOL    HW128736   2.313   0.195   8.215 -0.4559  0.0833  0.6732
 5701SOL    HW228737   2.381   0.316   8.171 -0.1233 -1.1387 -1.1001
 5702SOL     OW28738   2.695   0.136   3.766 -0.0840  0.1927 -0.3492
 5702SOL    HW128739   2.667   0.095   3.684 -0.5363  1.4485 -0.8242
 5702SOL    HW228740   2.608   0.167   3.792 -0.5122  0.4538 -2.1042
 5703SOL     OW28741   4.579   1.191   4.058  0.3661 -0.0581 -0.0706
 5703SOL    HW128742   4.556   1.100   4.073 -0.1220  0.2884  1.2997
 5703SOL    HW228743   4.522   1.219   3.987 -0.8833  1.4440  1.5100
 5704SOL     OW28744   1.445   3.843   6.887  0.6322 -0.1045 -0.7502
 5704SOL    HW128745   1.526   3.879   6.852 -0.4898  0.6293 -2.6024
 5704SOL    HW228746   1.406   3.923   6.922 -0.0607 -0.8118  0.1126
 5705SOL     OW28747   0.745   1.585   5.535  0.4134  0.5037 -0.1003
 5705SOL    HW128748   0.741   1.490   5.540  2.2419  0.6083  2.9613
 5705SOL    HW228749   0.650   1.596   5.543  0.2239  0.0371 -1.6501
 5706SOL     OW28750   2.527   1.082   2.410 -0.8652 -0.5567 -0.4782
 5706SOL    HW128751   2.502   1.167   2.445  3.5718  0.7592 -0.4967
 5706SOL    HW228752   2.481   1.023   2.470  1.4265 -1.4316  0.4000
 5707SOL     OW28753   1.191   2.936   5.091  0.6749  0.1629  0.4973
 5707SOL    HW128754   1.159   2.845   5.093  0.4690  0.2904  2.9234
 5707SOL    HW228755   1.124   2.984   5.139  2.1124  2.5763  0.0542
 5708SOL     OW28756   0.650   4.087  14.862  0.3850 -0.3098  0.2000
 5708SOL    HW128757   0.608   4.094  14.947  0.3242 -2.6371  0.3635
 5708SOL    HW228758   0.661   3.993  14.874 -1.5775 -0.8219 -1.9502
 5709SOL     OW28759   2.192   3.020  15.301 -0.1937  0.0476 -0.0280
 5709SOL    HW128760   2.238   3.006  15.219 -0.6681 -0.8173 -0.1453
 5709SOL    HW228761   2.172   2.931  15.328  3.3369 -0.3927  1.1437
 5710SOL     OW28762   2.529   1.683   9.060 -0.0659  0.2165  0.1663
 5710SOL    HW128763   2.507   1.766   9.018  1.1906 -1.0679 -3.0229
 5710SOL    HW228764   2.622   1.673   9.039 -0.0388 -0.2564  0.5098
 5711SOL     OW28765   2.867   1.385   1.078 -0.5844  0.1402  0.1266
 5711SOL    HW128766   2.813   1.459   1.106  0.5696  0.2994  1.9305
 5711SOL    HW228767   2.808   1.311   1.090 -0.7188  0.4753  1.5262
 5712SOL     OW28768   3.018   0.964  16.578 -0.0197  0.5690 -0.3545
 5712SOL    HW128769   3.072   0.961  16.657  0.1661  3.8419 -0.3362
 5712SOL    HW228770   2.954   1.030  16.605 -0.2271 -0.1109  0.7910
 5713SOL     OW28771   0.015   3.281   7.134 -0.6153  0.1359 -0.3710
 5713SOL    HW128772   4.676   3.264   7.082  0.9207 -0.2149 -2.5549
 5713SOL    HW228773   0.079   3.235   7.080 -0.3622 -0.1329  0.1589
 5714SOL     OW28774   1.329   4.363  17.067 -0.1349 -0.0186  0.0071
 5714SOL    HW128775   1.241   4.385  17.099 -0.3634 -0.3513 -0.4108
 5714SOL    HW228776   1.366   4.321  17.145  1.7293  2.0485  0.2534
 5715SOL     OW28777   3.197   0.100   6.896 -0.5557 -0.3041 -0.3560
 5715SOL    HW128778   3.154   0.181   6.927 -0.7956 -0.0039 -1.4918
 5715SOL    HW228779   3.282   0.135   6.871 -0.6843  0.0882 -0.2598
 5716SOL     OW28780   3.645   0.204   4.684  0.0889 -0.1493  0.2593
 5716SOL    HW128781   3.661   0.125   4.632 -0.8561  0.1320 -0.4689
 5716SOL    HW228782   3.708   0.196   4.755 -0.7785 -0.1926  1.0274
 5717SOL     OW28783   4.031   4.340   7.648  0.1568  0.0968 -0.1732
 5717SOL    HW128784   4.030   4.375   7.559  0.4698  0.9954  0.1720
 5717SOL    HW228785   4.066   4.254   7.627  0.0078  0.6919 -2.8976
 5718SOL     OW28786   2.760   2.338  17.720 -0.2037  0.1727  0.2326
 5718SOL    HW128787   2.812   2.327   0.044  0.7389 -0.8130 -0.5162
 5718SOL    HW228788   2.696   2.407  17.736 -1.2404 -0.9192  0.8078
 5719SOL     OW28789   2.689   1.884   7.726 -0.2498 -0.2869 -0.1350
 5719SOL    HW128790   2.759   1.941   7.757 -1.6527  0.2671  2.0494
 5719SOL    HW228791   2.695   1.886   7.631  2.0677 -2.0064 -0.0363
 5720SOL     OW28792   4.243   2.608  13.566 -0.0872 -0.1566  0.3906
 5720SOL    HW128793   4.147   2.609  13.573 -0.0641 -1.7436  1.0474
 5720SOL    HW228794   4.254   2.524  13.612  0.3909 -1.1660 -1.5671
 5721SOL     OW28795   4.451   3.165   3.632 -0.3328  0.6073  0.0382
 5721SOL    HW128796   4.533   3.153   3.583 -1.0201 -1.1219 -0.6652
 5721SOL    HW228797   4.503   3.217   3.693 -0.8721  2.0719 -0.7429
 5722SOL     OW28798   3.064   3.261   3.940  0.0891 -0.1522  0.1438
 5722SOL    HW128799   3.013   3.286   3.864 -1.3055 -1.4777  0.6440
 5722SOL    HW228800   2.999   3.233   4.004 -1.6323  1.9900 -0.6728
 5723SOL     OW28801   1.419   4.703   6.021  0.1009 -0.5225 -0.4327
 5723SOL    HW128802   1.447   4.698   5.930  1.8470 -0.2291  0.1018
 5723SOL    HW228803   1.347   4.640   6.017 -0.1391 -0.1871 -1.5278
 5724SOL     OW28804   3.302   3.341   0.479  0.4017  0.1397  0.1708
 5724SOL    HW128805   3.389   3.310   0.454 -0.7127 -1.2777 -1.9538
 5724SOL    HW228806   3.260   3.389   0.408  0.4616 -0.2103 -0.1012
 5725SOL     OW28807   3.458   0.471  11.025 -0.7120 -0.0977 -0.1571
 5725SOL    HW128808   3.409   0.420  11.089 -0.0196 -2.8590 -1.7978
 5725SOL    HW228809   3.545   0.434  11.040 -1.0730  0.2135  2.5659
 5726SOL     OW28810   3.731   4.246   5.689 -0.0500 -0.3108  0.2031
 5726SOL    HW128811   3.664   4.307   5.661 -0.5907 -0.1397  1.8865
 5726SOL    HW228812   3.729   4.179   5.621 -1.0958 -1.6402  1.5466
 5727SOL     OW28813   2.067   2.088   9.664 -0.0251  0.1347 -0.1238
 5727SOL    HW128814   2.063   2.117   9.572  0.4166 -0.7687 -0.4291
 5727SOL    HW228815   1.989   2.138   9.686 -1.2182 -1.5743 -0.5155
 5728SOL     OW28816   1.010   1.079   6.516  0.2538  0.0656 -0.3172
 5728SOL    HW128817   0.992   1.036   6.432 -1.2280 -0.6634  0.3791
 5728SOL    HW228818   1.073   1.019   6.555 -2.5874 -3.3461 -0.9870
 5729SOL     OW28819   3.609   0.725   4.823  0.4992  0.2313 -0.1695
 5729SOL    HW128820   3.523   0.766   4.833  0.9985  0.3559  3.7025
 5729SOL    HW228821   3.618   0.702   4.730 -1.7057  0.0378 -0.3372
 5730SOL     OW28822   4.088   3.825   2.765 -0.4978 -0.3176  0.7674
 5730SOL    HW128823   4.112   3.749   2.712 -2.1164  0.0220 -0.4587
 5730SOL    HW228824   4.126   3.896   2.713 -2.0345  0.1223  0.2233
 5731SOL     OW28825   3.129   0.119   2.897  0.1403  0.3809 -0.1383
 5731SOL    HW128826   3.055   0.097   2.840 -0.5481  0.9037  0.5573
 5731SOL    HW228827   3.172   0.178   2.834  0.4832 -0.3254 -0.5707
 5732SOL     OW28828   0.017   1.583  11.970  0.2668 -0.2787 -0.2084
 5732SOL    HW128829   0.004   1.508  11.913  1.1545  0.5078 -1.4408
 5732SOL    HW228830   0.082   1.628  11.916  1.9124 -0.1050  1.8714
 5733SOL     OW28831   3.896   1.213   8.296  0.0608  0.0634 -0.2184
 5733SOL    HW128832   3.957   1.170   8.236  1.5745 -0.2040  1.4880
 5733SOL    HW228833   3.897   1.299   8.254  1.0252 -0.3373 -1.0174
 5734SOL     OW28834   4.336   2.296  13.518 -0.2336  0.1832 -0.3429
 5734SOL    HW128835   4.414   2.253  13.485 -0.3151  0.3284 -0.7289
 5734SOL    HW228836   4.366   2.306  13.608 -0.1971 -0.6397 -0.2664
 5735SOL     OW28837   1.769   1.811   4.216  0.7108 -0.2928  0.0598
 5735SOL    HW128838   1.742   1.814   4.307  0.0455 -0.3500 -0.1324
 5735SOL    HW228839   1.835   1.743   4.209 -0.2106 -1.1676 -0.2124
 5736SOL     OW28840   0.832   0.101  12.324 -0.1270 -0.2543 -0.0370
 5736SOL    HW128841   0.917   0.100  12.280 -0.8601 -0.4604 -1.4634
 5736SOL    HW228842   0.847   0.146  12.407 -2.0848  1.8155 -0.7892
 5737SOL     OW28843   3.302   2.023  10.345 -0.0078 -0.2687  0.1496
 5737SOL    HW128844   3.208   2.036  10.341  0.0531  0.0574 -0.2688
 5737SOL    HW228845   3.306   1.939  10.391  1.4982  1.4469  3.1651
 5738SOL     OW28846   2.005   4.631   3.241  0.3063  0.3049 -0.6044
 5738SOL    HW128847   1.991   4.537   3.226 -1.1659  0.5066 -0.5430
 5738SOL    HW228848   2.053   4.633   3.324 -0.6182  2.1580 -0.1234
 5739SOL     OW28849   1.881   1.166   9.638  0.0117 -0.6767  0.2909
 5739SOL    HW128850   1.946   1.196   9.702 -0.3231 -0.6650  0.6259
 5739SOL    HW228851   1.801   1.209   9.670 -1.9476 -2.4115 -2.3028
 5740SOL     OW28852   1.811   3.030   8.751 -0.3792  0.4743 -0.2389
 5740SOL    HW128853   1.734   3.084   8.733 -0.7993 -0.1029 -0.1414
 5740SOL    HW228854   1.863   3.043   8.671 -0.2258 -0.3808 -0.2824
 5741SOL     OW28855   2.178   2.911   8.942 -0.1519  0.2510 -0.1586
 5741SOL    HW128856   2.108   2.854   8.973  0.2786 -1.1185 -1.6908
 5741SOL    HW228857   2.252   2.866   8.983  0.8041  0.7382 -1.3505
 5742SOL     OW28858   1.840   4.648   8.068 -0.3605  0.2201  0.2521
 5742SOL    HW128859   1.753   4.649   8.028 -0.2159 -1.1305 -0.0884
 5742SOL    HW228860   1.870   4.735   8.044 -0.4503  0.1236 -0.2247
 5743SOL     OW28861   2.794   3.464  10.726 -0.1380  0.3104 -0.2428
 5743SOL    HW128862   2.712   3.512  10.741 -0.6703 -0.5057 -0.5498
 5743SOL    HW228863   2.772   3.374  10.751  1.3838 -0.0998 -0.3587
 5744SOL     OW28864   1.840   1.925   4.660  0.3042 -0.0514  0.1163
 5744SOL    HW128865   1.765   1.892   4.609  0.1293  0.0431  0.3110
 5744SOL    HW228866   1.815   1.919   4.752 -0.0926 -0.8134 -0.0413
 5745SOL     OW28867   3.267   1.654   9.124  0.1602  0.5746  0.1733
 5745SOL    HW128868   3.300   1.614   9.205  2.9559 -0.5506 -1.5425
 5745SOL    HW228869   3.344   1.657   9.067  0.1921  2.0277  0.3017
 5746SOL     OW28870   3.713   0.661  16.034  0.6965  0.1907 -0.2896
 5746SOL    HW128871   3.787   0.617  15.991  0.2038 -1.3721  0.4403
 5746SOL    HW228872   3.667   0.590  16.079  1.7163  0.1657  0.7089
 5747SOL     OW28873   2.704   3.208   6.604  0.0076  0.5074 -0.0196
 5747SOL    HW128874   2.717   3.120   6.568  0.5872 -0.1885  1.8842
 5747SOL    HW228875   2.615   3.204   6.639  0.3418 -1.1771  0.6349
 5748SOL     OW28876   0.084   4.363   9.110 -0.4458 -0.2526  0.0488
 5748SOL    HW128877   0.050   4.278   9.139  0.3406 -0.7256 -0.4203
 5748SOL    HW228878   0.009   4.421   9.127 -2.3525 -2.1064 -2.1456
 5749SOL     OW28879   3.097   1.433   9.939 -0.5608 -0.0241  0.1716
 5749SOL    HW128880   3.075   1.498   9.872  0.5944  1.1951  0.9602
 5749SOL    HW228881   3.156   1.376   9.890 -0.3508  2.0717 -2.0055
 5750SOL     OW28882   0.029   3.072   8.718 -0.3752  0.3154  0.2773
 5750SOL    HW128883   0.087   3.105   8.787  0.4465 -0.8190  0.1199
 5750SOL    HW228884   4.691   3.060   8.773 -0.0075  0.1642  0.7594
 5751SOL     OW28885   3.402   3.791   4.977 -0.3866 -0.0252 -0.0180
 5751SOL    HW128886   3.350   3.868   4.953 -0.0373  0.2980  0.2523
 5751SOL    HW228887   3.413   3.750   4.892  0.4085  0.5931 -0.2224
 5752SOL     OW28888   3.839   0.249   8.526 -0.0294 -0.4878  0.3016
 5752SOL    HW128889   3.752   0.268   8.490  1.5704 -0.7887 -3.7193
 5752SOL    HW228890   3.896   0.245   8.448  0.3013 -2.4394  0.6508
 5753SOL     OW28891   3.546   3.124  12.637  0.3294  0.4262  0.6211
 5753SOL    HW128892   3.637   3.146  12.619 -0.0614  0.5081 -1.1911
 5753SOL    HW228893   3.545   3.030  12.656 -1.3747  0.6156  1.4512
 5754SOL     OW28894   4.610   4.494  15.152 -0.1535  0.1413  0.3324
 5754SOL    HW128895   4.610   4.398  15.152 -0.6563  0.1438  1.3161
 5754SOL    HW228896   4.610   4.514  15.246 -1.1003  1.2301  0.1014
 5755SOL     OW28897   2.910   1.235   9.194  0.3342  0.9293 -0.0334
 5755SOL    HW128898   2.853   1.311   9.182 -3.1687 -1.9970 -1.8333
 5755SOL    HW228899   2.875   1.167   9.136 -0.0685 -0.8362  2.2860
 5756SOL     OW28900   2.412   2.031  17.446 -0.2912 -0.0269 -0.5259
 5756SOL    HW128901   2.399   1.939  17.468  0.3106  0.7236  3.0313
 5756SOL    HW228902   2.360   2.036  17.366 -2.8379  2.4194  1.2724
 5757SOL     OW28903   2.218   3.554   1.971 -0.0645  0.1623 -0.3553
 5757SOL    HW128904   2.277   3.479   1.963 -2.0486 -1.4270  0.1209
 5757SOL    HW228905   2.192   3.543   2.063  0.1889  1.6411 -0.0985
 5758SOL     OW28906   4.592   4.457   2.157 -0.0238  1.1554 -0.0389
 5758SOL    HW128907   4.624   4.473   2.246  3.2944 -1.5990 -0.7211
 5758SOL    HW228908   4.539   4.535   2.143 -0.4780  0.7089 -0.7764
 5759SOL     OW28909   2.449   0.482   5.792 -0.3456  0.0310  0.2131
 5759SOL    HW128910   2.368   0.463   5.840  0.5791 -0.1641  1.7169
 5759SOL    HW228911   2.517   0.439   5.844 -2.6922  0.9063  3.9846
 5760SOL     OW28912   1.822   0.667  10.343 -0.2450 -0.2746  0.1228
 5760SOL    HW128913   1.829   0.660  10.248 -0.7280 -0.0487  0.0683
 5760SOL    HW228914   1.828   0.578  10.376  0.2897 -0.4350 -0.4230
 5761SOL     OW28915   0.370   0.004   6.580 -0.0906  0.1812 -0.5960
 5761SOL    HW128916   0.395   0.047   6.661 -0.1089  0.9377 -0.9877
 5761SOL    HW228917   0.414   4.659   6.584  2.6780  1.6303 -0.4337
 5762SOL     OW28918   1.261   3.805   5.465 -0.5304  0.5959 -0.4563
 5762SOL    HW128919   1.275   3.740   5.396  0.8287  0.5356 -0.1381
 5762SOL    HW228920   1.322   3.780   5.535  0.6647  0.5494 -1.5132
 5763SOL     OW28921   2.985   3.450   6.750 -0.4631 -0.2081 -0.2735
 5763SOL    HW128922   2.999   3.397   6.828  1.8258  0.5364 -0.1763
 5763SOL    HW228923   2.926   3.512   6.794 -0.7533 -1.1745  0.6953
 5764SOL     OW28924   2.483   3.502   2.070 -0.7330  0.0137 -0.7709
 5764SOL    HW128925   2.490   3.586   2.116  3.8093 -1.4555  1.2085
 5764SOL    HW228926   2.531   3.516   1.988  1.2191 -1.4141  0.1469
 5765SOL     OW28927   1.629   3.509   5.418  0.0326  0.1983  0.6427
 5765SOL    HW128928   1.534   3.501   5.407  0.1127 -0.5052  0.4549
 5765SOL    HW228929   1.632   3.582   5.480  0.8687  1.4285 -0.8516
 5766SOL     OW28930   0.833   4.171   3.326  0.6799 -0.4436  0.4505
 5766SOL    HW128931   0.787   4.187   3.244 -0.3646 -1.0598  0.9122
 5766SOL    HW228932   0.915   4.217   3.307  0.3266  0.8241  2.0100
 5767SOL     OW28933   2.944   4.370   4.022 -0.2569  0.4697 -0.6619
 5767SOL    HW128934   2.933   4.360   4.117 -1.3198  1.0133 -0.7182
 5767SOL    HW228935   2.982   4.289   3.990  1.9560  1.8506 -1.5315
 5768SOL     OW28936   2.592   2.912  12.278  0.1763 -0.0791  0.4373
 5768SOL    HW128937   2.498   2.929  12.267  0.1878 -1.0869 -1.2893
 5768SOL    HW228938   2.628   2.938  12.193 -1.2474 -1.3178 -0.5446
 5769SOL     OW28939   3.312   4.526   4.228 -0.4226 -0.0509 -0.1596
 5769SOL    HW128940   3.275   4.592   4.169  1.9181 -1.2578 -2.9885
 5769SOL    HW228941   3.366   4.590   4.276  0.7640 -1.3301  0.2194
 5770SOL     OW28942   0.472   4.367  12.827 -0.2239 -0.1375  0.5192
 5770SOL    HW128943   0.436   4.373  12.738 -0.2634 -0.6727  0.4958
 5770SOL    HW228944   0.539   4.435  12.818 -2.0126  1.4154 -1.0690
 5771SOL     OW28945   4.014   0.227   1.531  0.6734 -0.0559 -0.1323
 5771SOL    HW128946   4.009   0.232   1.436  0.9596 -1.6978 -0.2314
 5771SOL    HW228947   4.063   0.308   1.544  0.9110  0.2732 -3.0704
 5772SOL     OW28948   1.500   1.063   8.031  0.2040  0.1516  0.1735
 5772SOL    HW128949   1.461   1.096   8.113  1.7056  1.9562  0.1659
 5772SOL    HW228950   1.522   0.974   8.056 -0.5705 -0.2722 -0.6762
 5773SOL     OW28951   3.029   3.250   2.342 -0.3969  0.2187  0.0069
 5773SOL    HW128952   3.027   3.338   2.304  0.4262  0.0693 -0.3824
 5773SOL    HW228953   2.973   3.207   2.278 -2.0731  0.8092  1.0598
 5774SOL     OW28954   3.048   3.173   2.012  0.4532  0.7044 -0.2089
 5774SOL    HW128955   2.976   3.128   2.058  0.5553  0.0984 -0.6469
 5774SOL    HW228956   3.011   3.261   2.011 -0.8732  0.1700  1.5111
 5775SOL     OW28957   3.805   3.086   9.039 -0.3670 -0.0833 -0.2226
 5775SOL    HW128958   3.748   3.013   9.016 -0.3342 -0.0611 -0.3769
 5775SOL    HW228959   3.746   3.160   9.025 -0.9361 -0.0202  2.5620
 5776SOL     OW28960   0.681   0.557   0.752 -0.5447  0.0732 -0.4510
 5776SOL    HW128961   0.757   0.570   0.695 -1.5192  1.0052 -1.5572
 5776SOL    HW228962   0.683   0.644   0.792  0.1585  0.7247 -1.8780
 5777SOL     OW28963   2.677   2.799   5.643  0.9224 -0.3907  0.1076
 5777SOL    HW128964   2.685   2.735   5.572  0.3009  0.1291 -0.4336
 5777SOL    HW228965   2.660   2.745   5.719 -0.2601  1.0359  0.8459
 5778SOL     OW28966   0.082   4.245   4.929 -0.7246 -0.3638  0.2070
 5778SOL    HW128967   0.002   4.210   4.890 -0.6358  0.6298 -0.8558
 5778SOL    HW228968   0.092   4.190   5.006  0.7327  1.6149  1.4348
 5779SOL     OW28969   4.698   3.504   5.637  0.2128  0.0393  0.1225
 5779SOL    HW128970   0.012   3.442   5.685  0.7387 -0.2470 -0.8251
 5779SOL    HW228971   4.700   3.577   5.698  0.0283 -0.7033  1.0070
 5780SOL     OW28972   2.144   1.567   7.894  0.2738  0.1381 -0.3989
 5780SOL    HW128973   2.171   1.501   7.959 -1.0000  0.4943  0.4991
 5780SOL    HW228974   2.215   1.630   7.898 -1.6163  2.2021  0.5512
 5781SOL     OW28975   4.644   1.059   3.160 -0.6073  0.4056  0.3852
 5781SOL    HW128976   4.611   1.132   3.108 -0.2356 -1.5859 -2.6201
 5781SOL    HW228977   4.722   1.104   3.195 -0.1145 -0.9691  1.0583
 5782SOL     OW28978   4.233   3.314   3.910 -0.3535 -0.3394 -0.4632
 5782SOL    HW128979   4.226   3.371   3.833  2.1217 -0.8294 -1.0496
 5782SOL    HW228980   4.319   3.322   3.952 -1.2782  0.0378  1.3490
 5783SOL     OW28981   4.003   4.095   8.269  0.6948 -0.8649  0.3069
 5783SOL    HW128982   4.011   4.189   8.250 -1.7753 -0.9223 -0.9885
 5783SOL    HW228983   4.092   4.088   8.303  1.3177  2.0001 -0.6686
 5784SOL     OW28984   3.603   2.680   3.917 -0.4263  0.7016 -0.4752
 5784SOL    HW128985   3.672   2.640   3.971 -0.7808  0.1333 -0.4383
 5784SOL    HW228986   3.654   2.754   3.886  1.3863 -0.6991 -0.8876
 5785SOL     OW28987   3.034   3.384   7.314 -0.3828 -0.0712 -0.2771
 5785SOL    HW128988   3.091   3.308   7.325 -1.3385 -1.0234 -1.8843
 5785SOL    HW228989   3.058   3.421   7.399  1.7584  2.5173 -1.9577
 5786SOL     OW28990   3.151   0.079   7.565 -0.2768 -0.4987  0.5375
 5786SOL    HW128991   3.215   0.011   7.585  1.5286  0.6579 -1.2641
 5786SOL    HW228992   3.194   0.155   7.605  1.3643 -0.9496 -0.3533
 5787SOL     OW28993   2.747   1.745   4.955 -0.4586 -0.1071 -0.2934
 5787SOL    HW128994   2.702   1.728   5.037  1.3396 -0.7571  0.5603
 5787SOL    HW228995   2.682   1.708   4.896  0.8653 -0.4995 -1.5135
 5788SOL     OW28996   1.083   4.332   3.107  0.3385  0.5041  0.2285
 5788SOL    HW128997   1.024   4.345   3.033  0.7248 -1.3865 -0.4172
 5788SOL    HW228998   1.145   4.278   3.059  1.0135  2.1440 -0.7591
 5789SOL     OW28999   0.220   2.269   0.565  0.2430 -0.1286 -0.3018
 5789SOL    HW129000   0.125   2.261   0.562  0.1892  0.2086  0.5700
 5789SOL    HW229001   0.241   2.350   0.612 -1.6855 -0.8799  1.8653
 5790SOL     OW29002   0.572   4.645   8.147  0.2202 -0.0658  0.3038
 5790SOL    HW129003   0.531   4.702   8.212 -2.3810 -2.0095  0.3616
 5790SOL    HW229004   0.617   4.584   8.206  1.0082  1.7465  1.5654
 5791SOL     OW29005   3.789   0.937  14.483  0.0007 -0.2679 -0.4110
 5791SOL    HW129006   3.701   0.923  14.517  0.4319  0.3715  0.9670
 5791SOL    HW229007   3.781   0.892  14.399  4.4421 -1.6116 -0.1049
 5792SOL     OW29008   0.514   2.688   8.415 -0.5155  0.1006 -0.3834
 5792SOL    HW129009   0.563   2.666   8.336  1.0787  2.0270  0.0819
 5792SOL    HW229010   0.587   2.721   8.467 -1.1333 -1.3557  1.4111
 5793SOL     OW29011   0.615   2.618   8.750 -0.3888 -0.5433 -0.6345
 5793SOL    HW129012   0.567   2.537   8.762 -1.0304 -0.2842 -1.4962
 5793SOL    HW229013   0.706   2.588   8.746  0.0790  0.7521  0.0885
 5794SOL     OW29014   3.768   1.877   9.493  0.1639 -0.1381  0.1043
 5794SOL    HW129015   3.737   1.842   9.410  1.1606  0.5292 -0.5430
 5794SOL    HW229016   3.861   1.885   9.474  0.0924  2.4090  0.8640
 5795SOL     OW29017   3.923   3.372   5.054 -0.4103  0.3760  0.1727
 5795SOL    HW129018   4.018   3.370   5.051 -0.4758 -0.9080 -0.8488
 5795SOL    HW229019   3.896   3.463   5.068  0.5029  0.3789  1.8929
 5796SOL     OW29020   0.635   0.968  11.125  0.7723  0.2827 -0.0803
 5796SOL    HW129021   0.595   1.004  11.204 -1.2810 -0.1852 -0.8998
 5796SOL    HW229022   0.623   1.034  11.056  0.1116  0.3124  0.0609
 5797SOL     OW29023   2.546   0.394  10.655  0.1244 -0.3558 -0.6078
 5797SOL    HW129024   2.633   0.355  10.667  1.0989  0.8850 -3.7723
 5797SOL    HW229025   2.566   0.426  10.567 -1.0149  0.1578 -0.6804
 5798SOL     OW29026   1.615   0.391   5.371  0.5096  0.0614  0.3563
 5798SOL    HW129027   1.520   0.387   5.381  0.4688  0.5112  0.1492
 5798SOL    HW229028   1.636   0.440   5.450  0.1344 -0.4476  0.7801
 5799SOL     OW29029   2.850   0.456   5.663  0.0715  0.0037  0.1483
 5799SOL    HW129030   2.782   0.506   5.708  0.2726  0.9264 -0.5762
 5799SOL    HW229031   2.889   0.410   5.737 -0.4369  1.0874  1.0915
 5800SOL     OW29032   1.704   2.579   4.326  0.5429 -0.3562 -0.7467
 5800SOL    HW129033   1.612   2.558   4.309  0.4198 -1.1557  0.8895
 5800SOL    HW229034   1.681   2.654   4.381  0.6608 -0.7155 -0.2189
 5801SOL     OW29035   0.307   0.031   9.750 -0.4377  0.0366  0.1484
 5801SOL    HW129036   0.264   4.731   9.826 -0.1629 -0.4383  0.0584
 5801SOL    HW229037   0.282   0.122   9.764 -0.8229 -0.0553  0.0608
 5802SOL     OW29038   0.357   2.369   5.567  0.1052  0.2064  0.1110
 5802SOL    HW129039   0.352   2.454   5.610  1.3661  0.7081 -0.7033
 5802SOL    HW229040   0.291   2.375   5.498 -0.3199 -0.2092  0.4903
 5803SOL     OW29041   4.097   0.894  17.461  0.8441  0.5093  0.8784
 5803SOL    HW129042   4.135   0.810  17.489 -0.1560  0.1928  1.2930
 5803SOL    HW229043   4.009   0.864  17.436  0.5474  2.2030 -0.0737
 5804SOL     OW29044   1.925   3.362  10.548  0.6077 -0.1175 -0.1497
 5804SOL    HW129045   1.931   3.455  10.573  1.9765 -0.5297  1.0551
 5804SOL    HW229046   1.844   3.334  10.591  1.5498  0.2755  1.9163
 5805SOL     OW29047   2.710   3.312   2.322  0.4990 -0.1302  0.1833
 5805SOL    HW129048   2.672   3.350   2.401 -0.0315  0.7260 -0.4900
 5805SOL    HW229049   2.785   3.369   2.333  0.8973 -0.1229 -2.4600
 5806SOL     OW29050   4.586   0.219   2.457  0.5484 -0.2535 -0.0585
 5806SOL    HW129051   4.593   0.250   2.547 -0.6131  0.0059 -0.0541
 5806SOL    HW229052   4.539   0.292   2.416  1.4524  0.2050 -0.2650
 5807SOL     OW29053   3.761   1.874  14.634  0.1586 -0.2674 -0.3211
 5807SOL    HW129054   3.772   1.780  14.651  2.0717  0.0811  0.3657
 5807SOL    HW229055   3.764   1.913  14.722  0.3016 -0.5956 -0.1815
 5808SOL     OW29056   1.455   2.660   3.434  0.3041 -0.0947 -0.6582
 5808SOL    HW129057   1.407   2.648   3.516  0.1900  0.8926 -0.5827
 5808SOL    HW229058   1.521   2.726   3.454 -0.7244  0.7551 -0.0513
 5809SOL     OW29059   3.625   3.308   7.778 -0.4513 -0.2309 -0.3160
 5809SOL    HW129060   3.610   3.306   7.683  2.2550  0.6244 -0.7599
 5809SOL    HW229061   3.555   3.257   7.818  0.2444 -1.1180 -0.2282
 5810SOL     OW29062   3.060   0.538  11.257 -1.1835  0.2993  1.2915
 5810SOL    HW129063   3.055   0.575  11.345 -0.4423 -2.1496  2.3823
 5810SOL    HW229064   3.122   0.592  11.209 -0.5274 -3.5666 -2.2479
 5811SOL     OW29065   2.319   4.003   7.567  0.1314  0.2410 -0.4743
 5811SOL    HW129066   2.298   3.918   7.606 -0.1655  0.6834  0.3261
 5811SOL    HW229067   2.410   3.998   7.597 -0.0348 -0.2752 -0.0518
 5812SOL     OW29068   3.371   0.167   8.443 -0.7067  0.1349  0.2572
 5812SOL    HW129069   3.368   0.174   8.538  2.1492  1.4600  0.2637
 5812SOL    HW229070   3.290   0.213   8.421  0.3800  0.3071 -3.4307
 5813SOL     OW29071   4.112   1.784   0.540 -0.2624 -0.2168  0.0237
 5813SOL    HW129072   4.104   1.879   0.533 -2.0487 -0.3551  0.3839
 5813SOL    HW229073   4.043   1.752   0.483 -0.9973  1.9220 -0.3066
 5814SOL     OW29074   1.401   0.726   4.315  0.2881 -0.1850  0.2074
 5814SOL    HW129075   1.335   0.795   4.307 -1.6454 -2.3633 -2.5292
 5814SOL    HW229076   1.466   0.774   4.264 -1.5308  0.3962 -1.5340
 5815SOL     OW29077   0.182   0.411   1.722  0.1883 -0.4787  0.5361
 5815SOL    HW129078   0.256   0.422   1.662  0.4742 -0.3220  0.9156
 5815SOL    HW229079   0.158   0.326   1.684 -1.0771 -0.5877  1.5684
 5816SOL     OW29080   1.273   0.258  15.372 -0.8830  0.2396  0.1719
 5816SOL    HW129081   1.334   0.250  15.298 -0.9042 -0.7662  0.2552
 5816SOL    HW229082   1.190   0.231  15.333  0.3164 -0.9316 -1.6360
 5817SOL     OW29083   3.833   1.231  16.801 -0.2643 -0.0896 -0.4460
 5817SOL    HW129084   3.801   1.213  16.713 -2.4504 -0.2876  0.3824
 5817SOL    HW229085   3.918   1.186  16.793 -0.6878 -1.0011  0.1872
 5818SOL     OW29086   2.689   1.864   8.469 -0.2099  0.2633 -0.2682
 5818SOL    HW129087   2.701   1.775   8.434  1.0939  0.0603  0.6737
 5818SOL    HW229088   2.735   1.867   8.553  1.8530 -0.1728 -1.3769
 5819SOL     OW29089   3.520   3.833   7.264  0.0018 -0.4798  0.0537
 5819SOL    HW129090   3.468   3.878   7.198  0.6255  1.0154  0.5910
 5819SOL    HW229091   3.591   3.896   7.273 -0.1002 -0.7045  2.5880
 5820SOL     OW29092   2.939   1.961   3.621  0.1368 -0.0547 -0.1940
 5820SOL    HW129093   2.915   1.869   3.611 -1.1705  0.1950  0.7221
 5820SOL    HW229094   2.861   2.007   3.589 -0.6136 -1.0344  0.2228
 5821SOL     OW29095   4.498   2.493   6.768  0.1208 -0.3849 -0.1095
 5821SOL    HW129096   4.414   2.448   6.755 -0.7614  0.8380  1.4104
 5821SOL    HW229097   4.529   2.497   6.677  0.5601 -1.7580 -0.0320
 5822SOL     OW29098   3.451   1.794   0.894  0.7889 -1.0181 -0.4807
 5822SOL    HW129099   3.401   1.828   0.969 -0.9309 -2.7709 -0.8509
 5822SOL    HW229100   3.390   1.730   0.860 -0.1227 -0.4440  0.0631
 5823SOL     OW29101   1.463   2.881   4.791  0.1671  0.2250  0.0151
 5823SOL    HW129102   1.548   2.888   4.835  0.0034 -2.2961  0.7328
 5823SOL    HW229103   1.438   2.793   4.818  0.7435 -0.3232 -1.2561
 5824SOL     OW29104   2.249   4.599   3.730  0.0380  0.1114 -0.2414
 5824SOL    HW129105   2.300   4.519   3.712 -1.4771 -0.6685 -1.0986
 5824SOL    HW229106   2.257   4.610   3.824  2.3280 -0.0847 -0.4110
 5825SOL     OW29107   0.778   1.388  14.432  0.2200  0.4600 -1.0447
 5825SOL    HW129108   0.843   1.408  14.364  2.0543  1.6018  1.0812
 5825SOL    HW229109   0.723   1.466  14.435 -0.0807  0.1320  1.9134
 5826SOL     OW29110   2.059   0.144  17.702  0.0885 -0.4136 -0.1934
 5826SOL    HW129111   2.035   0.235  17.686  1.4626  0.2046  1.2583
 5826SOL    HW229112   2.148   0.151  17.738 -0.2380 -0.6846  0.6592
 5827SOL     OW29113   1.549   0.595  12.339 -0.1437 -0.0459  0.3962
 5827SOL    HW129114   1.630   0.549  12.363  0.7772  1.1062 -0.4775
 5827SOL    HW229115   1.484   0.525  12.345 -0.9358  0.6774  0.2328
 5828SOL     OW29116   3.332   3.049  11.080  0.4708 -0.4897 -0.1354
 5828SOL    HW129117   3.394   3.019  11.013 -0.3880  1.0312 -1.6254
 5828SOL    HW229118   3.270   3.090  11.019  0.6796 -0.0012 -0.0170
 5829SOL     OW29119   2.338   0.152   6.676 -0.6166  0.8442 -0.1969
 5829SOL    HW129120   2.404   0.201   6.627 -0.8982  0.1502 -1.2792
 5829SOL    HW229121   2.327   0.210   6.752 -1.3655  0.0528  0.3052
 5830SOL     OW29122   0.343   2.939  13.630 -0.8551  0.4960  0.0904
 5830SOL    HW129123   0.327   2.988  13.711 -1.6006 -0.6515  0.6262
 5830SOL    HW229124   0.380   3.009  13.577 -3.8824  0.5730 -1.9042
 5831SOL     OW29125   1.730   3.990   7.441 -0.3172 -0.5658 -0.0792
 5831SOL    HW129126   1.645   4.035   7.439  1.1183  2.2015  1.4321
 5831SOL    HW229127   1.722   3.960   7.532  2.7216  0.3168  0.4597
 5832SOL     OW29128   0.174   3.239   4.089  0.0310  0.3167  0.5059
 5832SOL    HW129129   0.205   3.156   4.124  1.9691  0.9394  0.3095
 5832SOL    HW229130   0.126   3.213   4.011  2.5792  1.0532 -1.2867
 5833SOL     OW29131   0.377   3.836  14.994  0.1295  0.5436 -0.5558
 5833SOL    HW129132   0.466   3.834  14.959  0.4087  1.5586  0.0923
 5833SOL    HW229133   0.324   3.858  14.917 -0.3320  0.8351 -0.1491
 5834SOL     OW29134   0.049   2.317   2.267 -0.5255 -0.3594 -0.0773
 5834SOL    HW129135   0.076   2.373   2.340 -0.0600 -1.6428  0.7211
 5834SOL    HW229136   0.038   2.387   2.202  0.3796  0.2310  0.4096
 5835SOL     OW29137   1.395   2.200   4.126 -1.0738 -0.0303 -0.1187
 5835SOL    HW129138   1.436   2.140   4.064 -2.0395 -0.3389 -0.4555
 5835SOL    HW229139   1.390   2.285   4.082 -1.6669  1.0914  2.1309
 5836SOL     OW29140   3.176   2.371  11.605 -0.1817 -0.0179 -0.4333
 5836SOL    HW129141   3.267   2.391  11.626 -0.9374  0.0626  2.7652
 5836SOL    HW229142   3.152   2.445  11.549  2.0550  0.8871 -0.1862
 5837SOL     OW29143   3.418   4.117   4.894  0.3651  0.6173 -0.9534
 5837SOL    HW129144   3.345   4.056   4.895  2.0004 -1.3042  1.7022
 5837SOL    HW229145   3.455   4.106   4.807  1.6647  0.4810 -0.3877
 5838SOL     OW29146   4.429   0.210  11.362 -0.0043  0.2182 -0.2872
 5838SOL    HW129147   4.360   0.276  11.361  0.0344  0.2889  2.0023
 5838SOL    HW229148   4.499   0.254  11.313 -0.8443  2.1464  0.2186
 5839SOL     OW29149   2.256   0.432   5.207 -0.0862 -0.4857  0.0687
 5839SOL    HW129150   2.333   0.482   5.179 -0.3817 -0.0204  0.0901
 5839SOL    HW229151   2.208   0.415   5.126  3.3532  2.2989 -2.5271
 5840SOL     OW29152   2.110   0.152   4.035 -0.5257 -0.5708  0.3760
 5840SOL    HW129153   2.037   0.194   4.080 -0.2544 -0.2169  0.4847
 5840SOL    HW229154   2.148   0.222   3.981 -0.4430  0.3108  1.5876
 5841SOL     OW29155   1.768   3.843   8.037  0.1743 -0.4997 -0.7673
 5841SOL    HW129156   1.846   3.875   7.990  1.3317  1.2348  2.2891
 5841SOL    HW229157   1.800   3.824   8.125  1.1809 -0.0755 -1.0315
 5842SOL     OW29158   4.485   0.333  12.877 -0.3177 -0.0117 -0.6896
 5842SOL    HW129159   4.528   0.254  12.911 -1.2615 -0.0479  0.4079
 5842SOL    HW229160   4.561   0.388  12.893  0.1612 -0.7866 -0.2640
 5843SOL     OW29161   2.486   4.158   8.571  0.3475  0.1022 -0.2535
 5843SOL    HW129162   2.475   4.111   8.654  0.5434 -2.0804 -1.4615
 5843SOL    HW229163   2.528   4.238   8.604 -0.2427 -0.0506  0.8408
 5844SOL     OW29164   4.434   2.953   7.955  0.4201  0.3336  0.0281
 5844SOL    HW129165   4.488   2.932   8.032  0.1905 -1.2672 -0.2667
 5844SOL    HW229166   4.410   2.874   7.907  0.0591  0.5458 -0.1468
 5845SOL     OW29167   1.707   1.175   5.719 -0.0714  0.4901 -0.1448
 5845SOL    HW129168   1.787   1.188   5.667 -0.1626  1.5340 -0.0294
 5845SOL    HW229169   1.739   1.200   5.805 -0.4792  1.1253 -0.1822
 5846SOL     OW29170   1.655   1.272   9.772 -0.2199 -0.1884  0.3293
 5846SOL    HW129171   1.606   1.267   9.854  0.7058 -1.2591  0.8322
 5846SOL    HW229172   1.690   1.361   9.770 -0.0129 -0.2784  0.0656
 5847SOL     OW29173   2.866   1.926   1.586 -0.5830 -0.1057  0.0599
 5847SOL    HW129174   2.891   2.018   1.586 -2.0313  0.2931  1.0787
 5847SOL    HW229175   2.775   1.929   1.555 -0.3373 -2.7067 -0.9046
 5848SOL     OW29176   0.368   1.158   2.308 -0.2869  0.8737  0.4372
 5848SOL    HW129177   0.464   1.166   2.307 -0.2888  0.8569  0.2071
 5848SOL    HW229178   0.372   1.070   2.345 -0.2168  0.2116 -1.1587
 5849SOL     OW29179   3.592   0.907   1.478  0.2527  0.5993  0.1333
 5849SOL    HW129180   3.565   0.985   1.430  1.7036  0.1222 -1.4421
 5849SOL    HW229181   3.682   0.928   1.500  0.9125 -1.0978 -0.9387
 5850SOL     OW29182   4.398   0.821   0.019 -0.0511 -0.1032 -0.7359
 5850SOL    HW129183   4.441   0.809  17.690 -1.6429 -2.5614 -1.1937
 5850SOL    HW229184   4.307   0.823  17.744 -0.6149 -1.5176  0.8371
 5851SOL     OW29185   0.144   0.173   5.434  0.0949  0.0638  0.2027
 5851SOL    HW129186   0.089   0.248   5.408  0.3992 -0.7070 -2.7059
 5851SOL    HW229187   0.151   0.197   5.526  0.3576  0.4593  0.0781
 5852SOL     OW29188   3.930   1.293  15.438 -0.2114  0.1864  0.0174
 5852SOL    HW129189   3.962   1.318  15.351 -2.4231  0.2758 -0.7531
 5852SOL    HW229190   3.854   1.238  15.425  1.2314 -1.8499  0.2121
 5853SOL     OW29191   0.989   1.228  15.197 -0.2956 -0.5543 -0.0965
 5853SOL    HW129192   0.959   1.319  15.204  1.8959  0.2729 -1.5405
 5853SOL    HW229193   0.943   1.204  15.116  1.3876  1.4895 -1.6732
 5854SOL     OW29194   3.193   1.831   4.131  0.8292  0.1652 -0.6152
 5854SOL    HW129195   3.137   1.779   4.189 -0.4481  1.5102 -0.6545
 5854SOL    HW229196   3.128   1.844   4.062  1.0847 -0.3723 -0.9505
 5855SOL     OW29197   1.148   1.903   6.071 -0.3171 -0.0017  0.6523
 5855SOL    HW129198   1.092   1.834   6.035 -0.0169 -0.2398  0.6392
 5855SOL    HW229199   1.161   1.878   6.163 -2.6125  2.1341  1.5659
 5856SOL     OW29200   0.370   0.406  14.874  0.2175  0.3272  0.1367
 5856SOL    HW129201   0.280   0.416  14.843  0.8700  2.7466 -0.9892
 5856SOL    HW229202   0.425   0.465  14.823  0.0920 -0.0138 -0.3941
 5857SOL     OW29203   4.565   0.490   7.369 -0.2028  0.0336  0.4753
 5857SOL    HW129204   4.562   0.578   7.406  3.5300  0.6780 -0.7902
 5857SOL    HW229205   4.526   0.500   7.282 -1.5088 -1.5892  0.8780
 5858SOL     OW29206   1.619   1.336  13.388  0.0790 -0.0787  0.3783
 5858SOL    HW129207   1.538   1.356  13.340 -0.5473  1.2065  1.9617
 5858SOL    HW229208   1.652   1.426  13.384  2.6562 -1.0576 -0.2077
 5859SOL     OW29209   3.459   3.930   6.155 -0.2228 -0.0083 -0.0529
 5859SOL    HW129210   3.551   3.921   6.180  0.6617  0.6234 -3.0603
 5859SOL    HW229211   3.430   3.865   6.218 -2.1446  1.2363  0.3475
 5860SOL     OW29212   0.608   1.001   6.989 -0.2669  0.1824 -0.1380
 5860SOL    HW129213   0.645   1.081   7.027 -0.7220  1.0925 -1.5624
 5860SOL    HW229214   0.657   0.929   7.027 -0.2329  0.3457  0.1281
 5861SOL     OW29215   1.421   4.253   4.318 -0.2956 -0.1324 -0.8497
 5861SOL    HW129216   1.509   4.244   4.354 -1.1346 -4.0925  0.1585
 5861SOL    HW229217   1.374   4.223   4.396 -0.1322  2.2778  0.1692
 5862SOL     OW29218   1.091   2.300  14.112  0.4109 -0.2475 -0.0261
 5862SOL    HW129219   1.183   2.322  14.095  0.1367  0.7244 -0.2839
 5862SOL    HW229220   1.069   2.352  14.189 -0.8679 -0.5553 -0.1851
 5863SOL     OW29221   3.152   0.889   6.162 -0.0498  0.2812  0.2400
 5863SOL    HW129222   3.067   0.846   6.165 -0.7792  1.6056 -1.9268
 5863SOL    HW229223   3.148   0.955   6.232 -2.1829  1.3115 -0.8664
 5864SOL     OW29224   4.229   1.665  16.057 -0.5603  0.4740  0.1333
 5864SOL    HW129225   4.204   1.732  15.994 -1.7145  0.0429  0.1238
 5864SOL    HW229226   4.149   1.662  16.109  0.0243  2.5008  1.1412
 5865SOL     OW29227   0.390   1.965   4.280 -0.9311  0.0540  0.3161
 5865SOL    HW129228   0.401   1.881   4.235 -1.1190 -0.7246  1.7245
 5865SOL    HW229229   0.298   1.969   4.254 -0.5530 -0.8582 -1.1258
 5866SOL     OW29230   0.299   3.211   5.647  0.7336  0.5825  0.1524
 5866SOL    HW129231   0.382   3.255   5.626  0.0501  2.0726  0.5827
 5866SOL    HW229232   0.345   3.133   5.677  1.6936  1.1260  0.0992
 5867SOL     OW29233   3.605   4.566  10.677  0.2939  0.0171 -0.2061
 5867SOL    HW129234   3.519   4.580  10.638 -0.0993  2.4197  1.5428
 5867SOL    HW229235   3.641   4.649  10.646 -0.6713  0.6992  0.4620
 5868SOL     OW29236   2.466   0.370   7.658  0.0728  0.5723 -0.0925
 5868SOL    HW129237   2.403   0.346   7.726  1.0570  1.7221  1.2332
 5868SOL    HW229238   2.432   0.326   7.580 -1.0373 -1.6359  1.6470
 5869SOL     OW29239   4.528   0.482   9.462 -0.3422  0.1349 -0.6233
 5869SOL    HW129240   4.529   0.541   9.538  1.6445 -1.1061  0.3337
 5869SOL    HW229241   4.509   0.548   9.395 -1.6154 -0.8259 -1.2062
 5870SOL     OW29242   0.053   0.341   8.384  0.0987 -0.1332  0.1564
 5870SOL    HW129243   0.077   0.332   8.476  1.7224 -2.0078 -0.4708
 5870SOL    HW229244   4.732   0.416   8.386 -0.2824 -0.4441  0.1797
 5871SOL     OW29245   4.417   3.265   5.049  0.6282 -0.0444 -0.5771
 5871SOL    HW129246   4.321   3.265   5.059  0.6754  1.9778  0.0043
 5871SOL    HW229247   4.445   3.296   5.135  0.7830 -4.2339  0.8764
 5872SOL     OW29248   3.546   1.109   1.305  0.4425 -0.0146  0.2282
 5872SOL    HW129249   3.463   1.082   1.266  0.6829 -1.1423  0.5013
 5872SOL    HW229250   3.583   1.172   1.243 -1.8581  0.9831 -0.1358
 5873SOL     OW29251   4.533   1.166   0.523 -0.1102 -0.2914 -0.8716
 5873SOL    HW129252   4.454   1.138   0.477 -0.3410  0.2848 -0.8321
 5873SOL    HW229253   4.505   1.155   0.614  0.8389  0.4492 -0.4884
 5874SOL     OW29254   3.976   2.195   7.614  0.2185  0.5527  0.0807
 5874SOL    HW129255   4.041   2.193   7.544 -0.6683 -2.7699 -0.6653
 5874SOL    HW229256   3.990   2.112   7.660 -0.9245 -0.2879 -1.1005
 5875SOL     OW29257   3.288   3.591   6.773 -0.7192  0.4755  0.2181
 5875SOL    HW129258   3.205   3.636   6.760 -0.8279 -0.9196 -3.8361
 5875SOL    HW229259   3.335   3.646   6.835  0.3924  0.5599 -0.7014
 5876SOL     OW29260   1.143   2.308   7.412 -0.5993  0.5272 -0.1516
 5876SOL    HW129261   1.050   2.290   7.394 -0.6593  0.7344 -0.0441
 5876SOL    HW229262   1.178   2.286   7.325  1.0259  0.7196  0.4552
 5877SOL     OW29263   1.080   2.367  11.237  0.3224  0.4907 -1.0559
 5877SOL    HW129264   1.001   2.420  11.231  0.1337  0.0044 -2.7501
 5877SOL    HW229265   1.128   2.395  11.159  0.3867  1.0442 -0.8181
 5878SOL     OW29266   0.415   1.010   6.347  0.1712 -0.6467  0.0311
 5878SOL    HW129267   0.461   1.063   6.412 -1.2012 -0.3975  0.7982
 5878SOL    HW229268   0.323   1.029   6.368  0.1695 -1.9703  1.2097
 5879SOL     OW29269   0.998   1.794  16.506 -0.5859 -0.3239  0.3707
 5879SOL    HW129270   0.961   1.714  16.543  1.6530 -1.0178  1.1164
 5879SOL    HW229271   0.942   1.863  16.542  1.1971  1.8884 -1.0565
 5880SOL     OW29272   1.241   4.518  14.081 -0.1914 -0.0708  0.1979
 5880SOL    HW129273   1.296   4.469  14.142  2.0494  1.6987 -0.3732
 5880SOL    HW229274   1.206   4.583  14.143 -0.7866 -0.5157  0.3308
 5881SOL     OW29275   1.544   3.899   2.194 -0.1438  0.1983 -0.1786
 5881SOL    HW129276   1.480   3.958   2.152 -0.4018 -0.8055 -1.1898
 5881SOL    HW229277   1.621   3.956   2.185  0.5333 -0.5022  1.2373
 5882SOL     OW29278   2.160   2.662   4.933  0.0718  0.3129 -0.0299
 5882SOL    HW129279   2.098   2.598   4.967 -0.2903  1.6304  1.8213
 5882SOL    HW229280   2.197   2.697   5.014 -0.0198 -1.4124  0.7481
 5883SOL     OW29281   0.281   0.688   7.835 -0.4525  0.1018 -0.3583
 5883SOL    HW129282   0.346   0.622   7.860 -0.4911  1.4708  3.2586
 5883SOL    HW229283   0.260   0.705   7.927  0.0507  1.1079 -0.4298
 5884SOL     OW29284   0.643   2.805   7.141  0.0222 -0.5261 -0.7010
 5884SOL    HW129285   0.620   2.728   7.193  0.4899 -1.2533 -1.5741
 5884SOL    HW229286   0.565   2.810   7.085 -0.8592 -0.2689  0.5352
 5885SOL     OW29287   1.393   4.061   7.453  0.0368  0.1664 -0.3344
 5885SOL    HW129288   1.451   4.122   7.499 -1.5730  1.1508  0.3578
 5885SOL    HW229289   1.304   4.070   7.486  0.8292 -2.5879  2.5561
 5886SOL     OW29290   0.864   4.711   8.890 -0.6280 -0.3846  0.4256
 5886SOL    HW129291   0.795   0.016   8.939 -1.3934 -0.2574 -0.7592
 5886SOL    HW229292   0.916   0.040   8.848 -2.1573 -0.1629 -1.0993
 5887SOL     OW29293   0.243   0.634   7.166 -0.3859  0.1840 -0.4380
 5887SOL    HW129294   0.238   0.570   7.238  2.5888  0.3410 -0.0785
 5887SOL    HW229295   0.273   0.705   7.223 -1.2496  0.2731 -0.0942
 5888SOL     OW29296   3.172   4.111   2.500 -0.4339 -0.6204  0.3453
 5888SOL    HW129297   3.230   4.184   2.526 -1.6456  0.0221  1.2414
 5888SOL    HW229298   3.089   4.157   2.516 -0.6091 -1.3532  1.5365
 5889SOL     OW29299   0.205   2.098   6.663 -0.3006 -0.2487 -0.0687
 5889SOL    HW129300   0.295   2.114   6.635 -0.4385  0.2022 -0.2540
 5889SOL    HW229301   0.165   2.090   6.576  0.9581  1.3845 -0.7800
 5890SOL     OW29302   3.393   3.285   6.310 -0.4212 -0.1600 -0.2814
 5890SOL    HW129303   3.471   3.338   6.292 -0.3985 -0.2974 -0.5823
 5890SOL    HW229304   3.348   3.338   6.377  1.0358  1.1166 -0.2859
 5891SOL     OW29305   1.178   1.450   3.748  0.1704 -0.4928  0.3152
 5891SOL    HW129306   1.258   1.486   3.710  0.2033 -0.7187  0.1709
 5891SOL    HW229307   1.108   1.472   3.686  1.7696 -1.2127 -1.7556
 5892SOL     OW29308   0.343   3.262   4.666 -0.0612 -0.3743 -0.5182
 5892SOL    HW129309   0.419   3.319   4.650 -0.2650  0.5902  2.0234
 5892SOL    HW229310   0.268   3.303   4.624  0.5739  2.1241  0.8309
 5893SOL     OW29311   0.140   1.053  17.614  0.4470  0.4028 -0.4961
 5893SOL    HW129312   0.057   1.006  17.619  1.3730 -1.2265 -0.6102
 5893SOL    HW229313   0.160   1.046  17.520 -2.5518 -0.8845 -1.0537
 5894SOL     OW29314   2.756   1.462   2.337 -0.1407 -0.3730 -0.5722
 5894SOL    HW129315   2.720   1.410   2.266  0.4738  0.1830 -1.2862
 5894SOL    HW229316   2.846   1.476   2.308 -0.7200  1.0172 -1.6721
 5895SOL     OW29317   4.232   0.816   3.418 -0.5539 -0.2512  0.0310
 5895SOL    HW129318   4.319   0.779   3.407 -0.7769 -0.8493  0.3051
 5895SOL    HW229319   4.184   0.749   3.467 -0.0650  0.2196  1.1731
 5896SOL     OW29320   4.069   1.379  15.225 -0.3259 -0.3244 -0.2596
 5896SOL    HW129321   4.114   1.445  15.172  0.1581  0.7140  1.4418
 5896SOL    HW229322   4.145   1.337  15.266 -1.0739  1.7159  3.2718
 5897SOL     OW29323   1.600   1.652  12.083  0.5610  0.2404  0.1480
 5897SOL    HW129324   1.564   1.564  12.071 -1.9620  1.2354  0.2619
 5897SOL    HW229325   1.685   1.644  12.040 -0.0692  0.4410 -1.1546
 5898SOL     OW29326   2.545   0.702   2.777  0.5276 -0.3796 -0.5278
 5898SOL    HW129327   2.572   0.615   2.748 -0.0821 -1.3628  1.8652
 5898SOL    HW229328   2.621   0.760   2.768  0.6827 -0.5231 -0.1446
 5899SOL     OW29329   2.534   3.385   0.838  0.1504 -0.6841  0.2379
 5899SOL    HW129330   2.568   3.314   0.892 -1.0152 -1.0127  0.5583
 5899SOL    HW229331   2.461   3.407   0.896 -0.9695  1.8564 -2.1258
 5900SOL     OW29332   3.076   4.665   4.992 -0.0500  0.3514 -0.6099
 5900SOL    HW129333   3.164   4.629   4.979 -0.8674 -1.1803 -1.9684
 5900SOL    HW229334   3.095   0.019   4.981  0.1643  0.5262  1.2299
 5901SOL     OW29335   1.819   1.126   1.289 -0.4653  0.4854 -0.3167
 5901SOL    HW129336   1.891   1.188   1.305  0.6390 -1.2570  1.4821
 5901SOL    HW229337   1.802   1.141   1.196  2.2497  1.5800 -0.6591
 5902SOL     OW29338   1.999   4.288   6.480 -0.0118 -0.1305  0.1028
 5902SOL    HW129339   1.964   4.228   6.545 -1.3581 -0.4745 -0.9426
 5902SOL    HW229340   2.090   4.260   6.464  0.1024 -0.6908  1.7084
 5903SOL     OW29341   1.495   1.338   8.336  0.1997  0.9533 -0.1199
 5903SOL    HW129342   1.577   1.307   8.299 -0.9250 -0.1427 -1.6981
 5903SOL    HW229343   1.509   1.431   8.350 -0.4073  0.9474  0.5610
 5904SOL     OW29344   2.844   3.103   2.173 -0.1721  0.4095  0.0970
 5904SOL    HW129345   2.805   3.162   2.238  0.4499  1.5161 -0.5369
 5904SOL    HW229346   2.774   3.039   2.158  1.0345 -0.6926 -0.8244
 5905SOL     OW29347   1.047   4.560   0.454 -0.3812 -0.0481  0.3086
 5905SOL    HW129348   0.992   4.525   0.525 -0.0977 -2.5145 -0.6769
 5905SOL    HW229349   0.989   4.617   0.405 -0.9924 -0.7044  0.2638
 5906SOL     OW29350   0.780   0.102  11.968  0.0505  0.1837  0.2098
 5906SOL    HW129351   0.831   0.184  11.967  1.4867 -0.7123  0.3269
 5906SOL    HW229352   0.725   0.114  12.045  0.7941 -0.2596  0.8093
 5907SOL     OW29353   0.491   1.471   1.181 -0.1508  0.4052 -0.1516
 5907SOL    HW129354   0.537   1.423   1.249 -1.9872  0.5588  1.2146
 5907SOL    HW229355   0.513   1.561   1.204  0.7611  0.9365 -3.1183
 5908SOL     OW29356   1.292   2.860  17.175  0.1148  0.2887 -0.0376
 5908SOL    HW129357   1.368   2.872  17.118 -0.2914  3.7550  0.1083
 5908SOL    HW229358   1.329   2.878  17.261 -0.2268  2.0330 -0.2498
 5909SOL     OW29359   4.072   0.664   6.271  0.1177 -0.4106 -0.3155
 5909SOL    HW129360   3.998   0.646   6.329  1.6435  0.0340  1.7586
 5909SOL    HW229361   4.035   0.640   6.186 -2.3263  1.6273  0.1577
 5910SOL     OW29362   2.554   4.195   7.378  0.2400  0.2826 -0.1728
 5910SOL    HW129363   2.601   4.164   7.455 -2.3109  1.8898  2.0375
 5910SOL    HW229364   2.628   4.236   7.333  0.4878  0.4993  0.4375
 5911SOL     OW29365   1.029   1.704   3.031  0.0810 -0.0857 -0.2661
 5911SOL    HW129366   1.041   1.634   3.095  1.0218 -0.1533 -0.5169
 5911SOL    HW229367   1.014   1.784   3.080  1.8936 -0.6221  1.1693
 5912SOL     OW29368   3.383   3.866   3.161 -0.3688 -0.0434 -0.3777
 5912SOL    HW129369   3.421   3.952   3.142  1.7968 -0.7163  0.8351
 5912SOL    HW229370   3.314   3.855   3.096 -0.2900  0.7310 -0.5912
 5913SOL     OW29371   0.286   1.821   3.223 -0.5575 -0.0291  0.0648
 5913SOL    HW129372   0.283   1.888   3.156 -1.0151  1.8940  1.9958
 5913SOL    HW229373   0.310   1.870   3.302 -0.9392 -0.1540  0.2571
 5914SOL     OW29374   2.303   3.826   3.431  0.0061 -0.2267 -0.2129
 5914SOL    HW129375   2.288   3.918   3.449  0.3340 -0.1485 -0.3439
 5914SOL    HW229376   2.292   3.827   3.336  1.4805 -0.9329 -0.3897
 5915SOL     OW29377   3.067   2.458   3.761 -0.0343 -0.3429  0.2606
 5915SOL    HW129378   2.984   2.424   3.730 -0.1623 -0.2926  0.5446
 5915SOL    HW229379   3.045   2.550   3.773  2.0403  0.5357 -2.7007
 5916SOL     OW29380   1.814   3.146   1.174  0.2919  0.1887 -0.0442
 5916SOL    HW129381   1.857   3.199   1.241 -0.6597  0.3621  0.4381
 5916SOL    HW229382   1.756   3.212   1.137  2.2282  1.3318 -0.9871
 5917SOL     OW29383   1.267   4.069   5.269  0.1492 -0.0132  0.2017
 5917SOL    HW129384   1.271   3.994   5.329 -0.0177  0.0870  0.3383
 5917SOL    HW229385   1.361   4.070   5.248  0.2746  0.7668  0.8294
 5918SOL     OW29386   0.209   2.647   7.244 -0.1945  0.5279 -0.4956
 5918SOL    HW129387   0.125   2.601   7.238  1.3757 -2.3995 -0.0774
 5918SOL    HW229388   0.186   2.731   7.284 -2.1747 -0.3579  0.2486
 5919SOL     OW29389   4.057   3.604  10.794 -0.1989  0.2992 -0.0965
 5919SOL    HW129390   4.114   3.664  10.843  2.6677 -0.4757 -2.4963
 5919SOL    HW229391   4.076   3.636  10.706  4.1371  1.2521  1.2119
 5920SOL     OW29392   2.567   1.667   7.304 -0.1623  0.0103 -0.1528
 5920SOL    HW129393   2.548   1.573   7.295 -0.0612  0.0698 -1.0062
 5920SOL    HW229394   2.552   1.690   7.212 -1.4063  0.4129  0.1489
 5921SOL     OW29395   2.807   3.674  12.939  0.1729  0.0696  0.1097
 5921SOL    HW129396   2.891   3.719  12.937  0.3643 -0.3084 -0.3613
 5921SOL    HW229397   2.757   3.747  12.975  1.2349  0.9496 -0.2106
 5922SOL     OW29398   0.035   1.323   5.815 -0.1250 -0.1396 -0.4139
 5922SOL    HW129399   0.025   1.288   5.726 -2.4514  0.8392 -0.5323
 5922SOL    HW229400   0.002   1.256   5.874 -0.0644  2.3516  2.4244
 5923SOL     OW29401   3.391   4.481  14.956  0.4797  0.0232 -0.0758
 5923SOL    HW129402   3.402   4.438  14.872  0.3878 -2.2651  1.0987
 5923SOL    HW229403   3.306   4.525  14.944  1.9708  2.3386 -2.1060
 5924SOL     OW29404   0.510   1.882   0.122 -0.1838 -0.2225 -0.3996
 5924SOL    HW129405   0.460   1.903   0.202  0.0862 -0.8731 -0.0594
 5924SOL    HW229406   0.449   1.906   0.052 -0.4481  0.5410  0.0860
 5925SOL     OW29407   2.897   1.802  12.096  0.1222 -0.0388 -0.0202
 5925SOL    HW129408   2.903   1.872  12.031  2.3414 -0.7221 -0.5603
 5925SOL    HW229409   2.803   1.787  12.089  0.0854  1.1121 -1.9890
 5926SOL     OW29410   0.845   1.278   4.705 -0.0164  0.1800 -0.4872
 5926SOL    HW129411   0.927   1.325   4.688  0.9582 -0.5210  2.3289
 5926SOL    HW229412   0.854   1.251   4.796 -0.5456 -1.0468 -0.8018
 5927SOL     OW29413   0.460   0.050   5.786 -0.1588  0.2119 -0.2866
 5927SOL    HW129414   0.403   4.726   5.745 -1.1833  0.4652  0.7405
 5927SOL    HW229415   0.474   0.016   5.875  0.7912 -0.3683 -0.6558
 5928SOL     OW29416   2.231   0.699  10.964  0.2224  0.3562  0.7547
 5928SOL    HW129417   2.289   0.676  10.891  1.3933  2.2079  1.1065
 5928SOL    HW229418   2.279   0.668  11.041  0.5891  2.5706  1.4268
 5929SOL     OW29419   0.973   2.527   1.540 -0.4731 -0.6092  0.2338
 5929SOL    HW129420   1.009   2.542   1.453  0.0933  2.8128  1.0771
 5929SOL    HW229421   1.026   2.455   1.575  0.8568  0.0704 -0.3926
 5930SOL     OW29422   4.072   4.339   8.190  0.2491 -0.1277  0.4367
 5930SOL    HW129423   3.990   4.380   8.163 -1.1169 -3.0888  0.0266
 5930SOL    HW229424   4.139   4.406   8.188  2.1053 -1.9652  0.9064
 5931SOL     OW29425   1.041   4.363  14.260 -0.3149 -0.1324 -0.0737
 5931SOL    HW129426   1.015   4.441  14.211  2.1185  0.8886  0.2422
 5931SOL    HW229427   1.025   4.301  14.188 -1.9857 -0.3633  0.5110
 5932SOL     OW29428   3.824   3.288   6.718  0.4482 -0.0147 -0.3300
 5932SOL    HW129429   3.818   3.207   6.769 -1.7235 -0.0730 -0.7086
 5932SOL    HW229430   3.903   3.320   6.763 -0.1777  0.1840  0.6233
 5933SOL     OW29431   1.620   0.661   8.639  0.6231 -0.2114  0.3733
 5933SOL    HW129432   1.578   0.588   8.592  1.1234 -0.4579  0.3161
 5933SOL    HW229433   1.570   0.735   8.605  0.5388 -1.6793 -2.6789
 5934SOL     OW29434   0.975   4.725   3.283  0.4482  0.4701  0.3202
 5934SOL    HW129435   1.054   0.037   3.299  1.7529 -1.1629 -0.9137
 5934SOL    HW229436   0.959   4.690   3.370  1.8498 -0.6107  0.1364
 5935SOL     OW29437   1.615   2.869  12.613  0.1006  0.1361 -0.5125
 5935SOL    HW129438   1.619   2.941  12.676  0.1946  0.4795 -0.9122
 5935SOL    HW229439   1.704   2.838  12.630  0.6372  1.7960 -0.3048
 5936SOL     OW29440   3.051   0.810   0.714  0.0097 -0.3098  0.4562
 5936SOL    HW129441   3.039   0.861   0.794 -0.0469 -0.8460  0.7886
 5936SOL    HW229442   2.977   0.750   0.705 -0.6393  0.4481  0.7661
 5937SOL     OW29443   0.134   3.111   7.358 -0.1855 -0.0748  0.6374
 5937SOL    HW129444   0.192   3.180   7.327  1.9792 -2.3146 -0.3087
 5937SOL    HW229445   0.057   3.126   7.303 -0.3179 -0.5302  0.7018
 5938SOL     OW29446   0.459   0.994   6.061  0.7870  0.4855 -0.3713
 5938SOL    HW129447   0.442   1.086   6.044  0.6151  0.4095 -0.6126
 5938SOL    HW229448   0.455   1.010   6.155  1.6962 -0.5816 -0.1409
 5939SOL     OW29449   2.447   2.435   7.441 -0.1845  0.3610 -0.0543
 5939SOL    HW129450   2.366   2.487   7.446 -0.9876 -1.0756  1.9320
 5939SOL    HW229451   2.452   2.425   7.536  0.2409 -0.6549 -0.1861
 5940SOL     OW29452   3.914   0.807   4.813  0.7445  0.3787  0.0152
 5940SOL    HW129453   3.825   0.840   4.804  0.7726  0.7369  1.0468
 5940SOL    HW229454   3.950   0.848   4.891  1.8805 -0.2091 -0.1904
 5941SOL     OW29455   4.624   0.769  16.004 -0.3255  0.2706  0.8007
 5941SOL    HW129456   4.625   0.860  16.035  0.7819  1.2067 -1.9991
 5941SOL    HW229457   4.626   0.782  15.909 -1.8409  1.2137  0.8941
 5942SOL     OW29458   0.590   2.908  11.478 -0.0408  0.0376  0.3825
 5942SOL    HW129459   0.562   3.000  11.484 -2.4508 -0.5881 -1.1884
 5942SOL    HW229460   0.613   2.892  11.569  1.0037  0.7468  0.2387
 5943SOL     OW29461   1.891   1.132   5.285  0.2579 -0.0605  0.4073
 5943SOL    HW129462   1.894   1.142   5.190 -2.6178  1.1773  0.4654
 5943SOL    HW229463   1.901   1.039   5.308  0.6117 -0.0319  0.3717
 5944SOL     OW29464   1.154   4.040   8.257  0.3810  0.1367 -0.3451
 5944SOL    HW129465   1.137   4.133   8.276  0.2826  0.2842 -1.1629
 5944SOL    HW229466   1.160   4.027   8.162  3.5312 -0.7576 -0.0113
 5945SOL     OW29467   2.332   2.317   0.125  0.1184 -0.2043  0.1676
 5945SOL    HW129468   2.357   2.265   0.049 -0.8528 -0.9101  0.3282
 5945SOL    HW229469   2.407   2.304   0.182  0.1211 -1.5233 -0.1259
 5946SOL     OW29470   0.438   0.966   3.273  0.2578  0.0199 -0.3409
 5946SOL    HW129471   0.381   0.962   3.350  1.1861 -0.2712  0.3286
 5946SOL    HW229472   0.501   1.030   3.308  1.9063 -2.1969  0.7124
 5947SOL     OW29473   2.523   3.505   8.077  0.1706 -0.3153 -0.9227
 5947SOL    HW129474   2.468   3.432   8.047  0.2755 -0.4480 -0.7886
 5947SOL    HW229475   2.511   3.566   8.003  0.0746 -0.1217 -0.7481
 5948SOL     OW29476   2.596   0.850   8.992  0.3333 -0.0168 -0.0522
 5948SOL    HW129477   2.689   0.871   9.001 -0.2029  1.8389  1.1252
 5948SOL    HW229478   2.563   0.937   8.969  1.4000  1.0989  2.6550
 5949SOL     OW29479   0.612   1.405   1.420 -0.0552  0.4060  0.3231
 5949SOL    HW129480   0.632   1.312   1.428 -2.1468  0.1215  2.4505
 5949SOL    HW229481   0.554   1.414   1.496  0.3620  0.1040  0.6734
 5950SOL     OW29482   0.762   3.200   7.268 -0.0562 -0.0108 -0.0164
 5950SOL    HW129483   0.713   3.128   7.307  1.4802  0.3198  2.4955
 5950SOL    HW229484   0.692   3.264   7.252  0.9772  0.9727 -0.5897
 5951SOL     OW29485   3.556   4.560   4.605  0.1234  0.3877 -0.0136
 5951SOL    HW129486   3.577   4.523   4.519  0.0632 -0.1324  0.1978
 5951SOL    HW229487   3.511   4.635   4.566  4.0550  0.9432 -3.5964
 5952SOL     OW29488   1.469   0.992   1.644  0.3017 -0.6408 -0.1630
 5952SOL    HW129489   1.479   1.087   1.651 -1.5508 -0.3441 -1.5342
 5952SOL    HW229490   1.381   0.987   1.608  0.4572  1.6890 -0.8477
 5953SOL     OW29491   4.421   4.214   2.034  0.2010 -0.4031 -0.2666
 5953SOL    HW129492   4.350   4.247   2.090  1.7239  1.3734  0.6081
 5953SOL    HW229493   4.500   4.263   2.058 -0.3762  0.5631 -0.3482
 5954SOL     OW29494   4.211   2.381   3.805 -0.5466 -0.0689 -0.0413
 5954SOL    HW129495   4.201   2.398   3.898  1.7107  0.0167  0.1734
 5954SOL    HW229496   4.121   2.368   3.774 -0.6105  1.1638 -0.3859
 5955SOL     OW29497   4.181   0.087   3.857 -0.0857 -0.1922 -0.1406
 5955SOL    HW129498   4.166   0.022   3.788 -2.7807 -0.9416  1.1725
 5955SOL    HW229499   4.117   0.152   3.825  1.2154  0.7642 -0.8386
 5956SOL     OW29500   3.955   0.277   8.261  0.1180  0.1592 -0.6326
 5956SOL    HW129501   3.893   0.248   8.194  2.6947 -0.8184 -2.5781
 5956SOL    HW229502   4.010   0.339   8.213 -1.3006  2.4351  0.6819
 5957SOL     OW29503   1.177   2.475   6.465 -0.2815 -0.5228 -0.5224
 5957SOL    HW129504   1.098   2.472   6.520  0.3473 -0.9560  0.3594
 5957SOL    HW229505   1.177   2.566   6.436 -1.0957 -0.9517 -1.9091
 5958SOL     OW29506   3.871   4.669  15.887 -0.0416  0.1231 -0.1307
 5958SOL    HW129507   3.809   4.680  15.959 -0.7842  0.4753 -0.8141
 5958SOL    HW229508   3.805   4.679  15.818 -0.0952  1.1200  0.0782
 5959SOL     OW29509   0.680   1.417   7.023  0.4284  0.3613  0.1469
 5959SOL    HW129510   0.595   1.376   7.008  1.1779 -1.3696  0.5846
 5959SOL    HW229511   0.657   1.505   6.992 -4.6568 -1.1228 -0.1773
 5960SOL     OW29512   1.798   0.587   7.682  0.4352  0.4855  0.3897
 5960SOL    HW129513   1.801   0.518   7.615 -2.0916 -1.6565  2.4683
 5960SOL    HW229514   1.745   0.650   7.633 -0.1402 -0.7843 -0.6131
 5961SOL     OW29515   3.569   3.749   7.768  0.3584  0.2221  0.4781
 5961SOL    HW129516   3.649   3.711   7.734  0.8263  0.8697  0.8439
 5961SOL    HW229517   3.521   3.675   7.804 -0.5567  0.2391 -0.7012
 5962SOL     OW29518   4.727   4.072   6.932  0.0475  0.1265  0.0545
 5962SOL    HW129519   0.038   4.029   7.001  0.6398 -2.1687 -1.8319
 5962SOL    HW229520   4.638   4.037   6.939  1.3361 -2.6403  2.3858
 5963SOL     OW29521   3.107   3.207   4.838  0.0169  0.3383 -0.2727
 5963SOL    HW129522   3.073   3.264   4.770  0.1103 -1.1326 -1.5507
 5963SOL    HW229523   3.030   3.192   4.893  0.1450  0.2711 -0.1098
 5964SOL     OW29524   4.446   1.589  12.009 -0.2984  0.5321 -0.2694
 5964SOL    HW129525   4.424   1.508  12.055 -0.9630  0.7381 -0.2248
 5964SOL    HW229526   4.533   1.563  11.980  0.4417  0.0346  2.4005
 5965SOL     OW29527   2.886   0.410   1.633 -0.1579  0.1157 -0.2589
 5965SOL    HW129528   2.974   0.444   1.653 -0.4944  0.7116  0.1979
 5965SOL    HW229529   2.881   0.352   1.708  1.2117 -1.0280 -1.0462
 5966SOL     OW29530   0.314   1.738  16.650 -0.0223  0.3175  0.4039
 5966SOL    HW129531   0.303   1.811  16.589  0.9129  1.1189  1.1865
 5966SOL    HW229532   0.239   1.755  16.707  2.4196  1.9608  3.0935
 5967SOL     OW29533   4.722   1.281   0.373 -0.4970  0.0704  0.0298
 5967SOL    HW129534   4.662   1.242   0.437 -0.4329 -0.7347 -0.3910
 5967SOL    HW229535   0.060   1.302   0.424  0.0433  1.3754 -1.3338
 5968SOL     OW29536   3.537   0.519   4.330  0.1579  0.6054 -0.5704
 5968SOL    HW129537   3.595   0.445   4.347 -2.5353 -1.3743  0.1175
 5968SOL    HW229538   3.601   0.590   4.328  1.0229 -0.1621 -0.0201
 5969SOL     OW29539   4.508   0.867   8.760  0.0202 -0.4029 -0.1554
 5969SOL    HW129540   4.497   0.933   8.828  0.2717 -1.5868  1.0404
 5969SOL    HW229541   4.434   0.811   8.783 -1.9422  1.3457 -2.2145
 5970SOL     OW29542   2.418   2.205   6.193  0.6000  0.4074 -0.1682
 5970SOL    HW129543   2.497   2.252   6.164  0.4126 -0.1593 -1.5357
 5970SOL    HW229544   2.401   2.140   6.126 -2.0589  0.2374  0.6894
 5971SOL     OW29545   3.529   1.967   7.530  0.1334  0.3303 -0.0143
 5971SOL    HW129546   3.557   2.059   7.538 -0.1003  0.4998 -1.0972
 5971SOL    HW229547   3.568   1.938   7.448 -2.6099  1.2959 -1.6582
 5972SOL     OW29548   1.046   1.160   3.187 -0.1287 -0.6024  0.1497
 5972SOL    HW129549   1.093   1.081   3.213  0.5211 -0.1978  0.2229
 5972SOL    HW229550   1.072   1.150   3.095  0.7205 -1.7395  0.5242
 5973SOL     OW29551   2.423   2.876   1.330 -0.9018  0.0271 -0.1355
 5973SOL    HW129552   2.377   2.898   1.249  2.3028  2.0760 -1.3956
 5973SOL    HW229553   2.462   2.963   1.340  1.2275 -1.0187  0.8270
 5974SOL     OW29554   3.569   4.414   6.389  0.0832  0.4547  0.2254
 5974SOL    HW129555   3.639   4.467   6.426  0.4057  0.8413 -0.9440
 5974SOL    HW229556   3.575   4.423   6.294 -0.9127 -0.4065  0.0800
 5975SOL     OW29557   4.272   0.912  15.352 -0.5982  0.8045 -0.2244
 5975SOL    HW129558   4.297   0.869  15.270  1.0365 -1.2837  1.3457
 5975SOL    HW229559   4.177   0.916  15.351 -0.5734  0.9831 -1.8306
 5976SOL     OW29560   3.981   3.446  10.312  0.2260  0.3039  0.0595
 5976SOL    HW129561   3.914   3.378  10.301 -0.7806  1.1271  1.1826
 5976SOL    HW229562   4.024   3.411  10.390  1.4083  0.3044 -0.5901
 5977SOL     OW29563   3.711   0.211  13.535  0.0659  0.4604  0.0792
 5977SOL    HW129564   3.803   0.211  13.563  0.0963  2.2766 -0.0151
 5977SOL    HW229565   3.708   0.134  13.479  1.7653  0.8450 -0.5477
 5978SOL     OW29566   2.086   2.158   8.293 -0.1016 -0.4827  1.0924
 5978SOL    HW129567   2.122   2.069   8.292  0.6783 -0.1104 -1.4492
 5978SOL    HW229568   2.133   2.201   8.365  0.2851  0.9415 -0.0174
 5979SOL     OW29569   3.364   4.481   0.705  0.2521  0.0563 -0.2277
 5979SOL    HW129570   3.312   4.404   0.683  0.1474  0.2581 -0.6908
 5979SOL    HW229571   3.445   4.437   0.728  0.7286  1.6344  1.1306
 5980SOL     OW29572   2.196   1.986   3.457 -0.5712  0.0333  0.0979
 5980SOL    HW129573   2.188   1.909   3.513  0.9868 -0.9092 -0.9860
 5980SOL    HW229574   2.109   2.026   3.450 -0.8692 -0.0393  3.5809
 5981SOL     OW29575   1.009   3.968   3.080 -0.5806 -0.7700  0.5586
 5981SOL    HW129576   0.983   3.941   3.168 -2.2565  1.3622  0.7274
 5981SOL    HW229577   1.103   3.971   3.097 -0.5325 -2.0158  0.5548
 5982SOL     OW29578   2.279   2.751  14.991 -0.0763 -0.4013  0.3684
 5982SOL    HW129579   2.297   2.778  14.901 -2.7293 -0.6390 -0.2240
 5982SOL    HW229580   2.307   2.830  15.037 -0.4865  0.1004 -0.2531
 5983SOL     OW29581   2.967   3.153  16.094 -0.2775 -0.0620  0.0240
 5983SOL    HW129582   2.966   3.167  15.999 -0.3059 -0.8213 -0.0879
 5983SOL    HW229583   3.003   3.237  16.124 -2.4039 -0.2923  3.2243
 5984SOL     OW29584   2.281   1.565  15.301  0.1474 -0.2116 -0.2394
 5984SOL    HW129585   2.217   1.495  15.286  1.7526 -2.0699  1.4960
 5984SOL    HW229586   2.299   1.589  15.210 -0.1015  0.4918 -0.0986
 5985SOL     OW29587   0.112   3.624  13.799 -0.4286 -0.1533 -0.6086
 5985SOL    HW129588   0.028   3.611  13.755 -0.3796  0.6035 -0.9196
 5985SOL    HW229589   0.098   3.670  13.882  0.2665 -2.2033  0.6699
 5986SOL     OW29590   2.307   3.411   4.963 -0.3871  0.1398  0.4748
 5986SOL    HW129591   2.304   3.436   5.056 -3.7531 -0.9130  0.6726
 5986SOL    HW229592   2.391   3.365   4.954 -0.3141  0.3169  0.2562
 5987SOL     OW29593   3.174   0.108   6.515 -0.2146 -0.0231  0.6904
 5987SOL    HW129594   3.111   0.179   6.502 -0.7016 -0.8550 -1.5866
 5987SOL    HW229595   3.255   0.150   6.543 -2.3371  2.7133  2.8104
 5988SOL     OW29596   2.014   0.924   4.414 -0.4630 -0.7459  0.1470
 5988SOL    HW129597   2.008   0.866   4.490 -0.4104 -0.0698  0.6710
 5988SOL    HW229598   1.932   0.971   4.431 -1.3173 -1.5788 -1.6732
 5989SOL     OW29599   2.249   1.282  14.976 -0.1265  0.4188 -0.9588
 5989SOL    HW129600   2.211   1.288  15.063  1.2427  0.1257 -0.3401
 5989SOL    HW229601   2.269   1.189  14.970 -0.3911  0.2567  0.6688
 5990SOL     OW29602   0.981   3.125   8.408 -0.7861 -0.3961  0.4853
 5990SOL    HW129603   0.888   3.106   8.415 -1.4942  3.1132  0.6894
 5990SOL    HW229604   0.982   3.157   8.317  1.3070 -2.1672 -0.1155
 5991SOL     OW29605   0.805   3.485   3.940 -0.4389  0.4367 -0.0046
 5991SOL    HW129606   0.806   3.476   4.035 -1.5842  1.3048  0.0918
 5991SOL    HW229607   0.750   3.409   3.922  0.9929 -0.7542  0.6481
 5992SOL     OW29608   1.752   1.816   6.251 -0.7684 -0.6317  0.1265
 5992SOL    HW129609   1.837   1.859   6.259  0.2164 -2.2703 -1.5689
 5992SOL    HW229610   1.709   1.839   6.333 -0.5798  1.6284 -0.4222
 5993SOL     OW29611   3.332   1.023   3.034 -0.0096  0.0473 -0.2230
 5993SOL    HW129612   3.381   1.026   3.116 -1.3652  0.6490  0.5574
 5993SOL    HW229613   3.411   1.028   2.979  0.4509  1.6191  0.5965
 5994SOL     OW29614   3.104   3.703   0.131  0.2959 -0.6612  0.5316
 5994SOL    HW129615   3.081   3.619   0.091 -0.9001 -0.3870  0.6627
 5994SOL    HW229616   3.121   3.759   0.056  2.0600  0.2518  1.6074
 5995SOL     OW29617   4.039   1.001  14.408 -0.1268 -0.1165  0.2782
 5995SOL    HW129618   3.955   0.973  14.444  0.3223 -1.0590  0.5876
 5995SOL    HW229619   4.024   0.993  14.313 -1.2333  2.8975  0.1978
 5996SOL     OW29620   2.538   3.631  10.754  0.2246  0.0054  0.1290
 5996SOL    HW129621   2.484   3.568  10.706  0.1273 -0.8825  1.4044
 5996SOL    HW229622   2.500   3.625  10.841 -1.6746  0.2506 -0.6757
 5997SOL     OW29623   3.113   2.472   0.987 -0.3157  0.0410 -0.1323
 5997SOL    HW129624   3.110   2.452   0.894  1.5804  0.0523 -0.1972
 5997SOL    HW229625   3.096   2.566   0.988 -2.8073 -0.4117  2.0836
 5998SOL     OW29626   1.004   3.475   3.143 -0.0328 -0.0346  0.0499
 5998SOL    HW129627   1.045   3.516   3.219  0.5458 -1.0892  0.3005
 5998SOL    HW229628   1.038   3.386   3.146 -0.8429 -0.4298 -2.3270
 5999SOL     OW29629   1.745   4.326   3.412 -0.2519  0.1337  0.4849
 5999SOL    HW129630   1.732   4.271   3.489  0.8767  0.5433  0.9582
 5999SOL    HW229631   1.730   4.409   3.456  1.2138 -1.1343  3.3693
 6000SOL     OW29632   1.284   0.985   5.041  0.2201 -0.5796 -0.1658
 6000SOL    HW129633   1.306   1.065   5.088  1.4808 -1.2054  0.3107
 6000SOL    HW229634   1.351   1.001   4.975 -1.0575  1.5749 -0.9279
 6001SOL     OW29635   2.450   2.145  15.113  0.6031  0.8347 -0.3563
 6001SOL    HW129636   2.514   2.135  15.184  0.1735  2.9269  0.3062
 6001SOL    HW229637   2.508   2.163  15.039  0.4178  1.1072 -0.4346
 6002SOL     OW29638   3.857   2.716  14.362 -0.6994  0.2601  0.2462
 6002SOL    HW129639   3.843   2.661  14.285 -0.4203 -0.8646  0.9938
 6002SOL    HW229640   3.938   2.764  14.347 -0.3520 -0.7194 -1.0180
 6003SOL     OW29641   3.665   2.031   7.020  0.1238 -0.9484  0.4479
 6003SOL    HW129642   3.662   2.111   6.967  1.7583 -0.8162  0.5809
 6003SOL    HW229643   3.719   2.059   7.093  1.4932  0.3809 -1.0681
 6004SOL     OW29644   1.079   1.026   4.536  0.5204 -0.0418  0.6217
 6004SOL    HW129645   1.011   1.092   4.527  2.2540  1.9079  1.7779
 6004SOL    HW229646   1.149   1.078   4.576  0.6769  0.0655  0.2143
 6005SOL     OW29647   4.561   2.428   0.363 -0.2320 -0.4446 -0.1449
 6005SOL    HW129648   4.489   2.480   0.400  1.4659  2.5912 -1.0666
 6005SOL    HW229649   4.539   2.344   0.403  1.7484 -0.6329  0.5458
 6006SOL     OW29650   0.374   4.298  13.095  0.1198  0.1112  0.1662
 6006SOL    HW129651   0.279   4.303  13.100  0.1393  0.4714  0.1516
 6006SOL    HW229652   0.389   4.331  13.006  1.9252  0.0974  0.4485
 6007SOL     OW29653   2.942   0.420   1.379 -0.4981  0.5421 -0.1669
 6007SOL    HW129654   3.012   0.485   1.382 -0.1145  0.1766 -1.5670
 6007SOL    HW229655   2.920   0.421   1.472  1.2291 -3.1579  0.2760
 6008SOL     OW29656   2.690   4.410  16.535  0.0452  0.2569  0.3820
 6008SOL    HW129657   2.686   4.389  16.629 -1.0969 -0.5150  0.1569
 6008SOL    HW229658   2.601   4.396  16.502 -0.4614  0.0479  1.8385
 6009SOL     OW29659   4.096   4.056   8.776  0.3471 -0.3450 -0.3799
 6009SOL    HW129660   4.073   4.072   8.685  1.7666  2.2434 -0.2848
 6009SOL    HW229661   4.192   4.052   8.770  0.3226 -0.8847 -0.4473
 6010SOL     OW29662   0.757   3.798   5.489 -0.6703 -0.3495  0.5431
 6010SOL    HW129663   0.848   3.792   5.519 -0.6698  1.6765  0.9326
 6010SOL    HW229664   0.704   3.814   5.567 -0.1134 -1.0324  1.0678
 6011SOL     OW29665   4.442   2.141  11.020  0.1968 -0.3840 -0.1644
 6011SOL    HW129666   4.474   2.230  11.003 -0.3728 -0.0795  0.3547
 6011SOL    HW229667   4.477   2.135  11.109  0.8756  2.3934 -0.2272
 6012SOL     OW29668   2.930   4.098  12.878 -0.3540 -0.1213  0.9832
 6012SOL    HW129669   2.865   4.114  12.811  0.3548  1.2098  0.6156
 6012SOL    HW229670   3.005   4.054  12.837  0.1888  0.2807  1.5493
 6013SOL     OW29671   0.399   0.731   6.565 -0.1969 -0.6997 -0.0657
 6013SOL    HW129672   0.304   0.739   6.579  0.5919  2.8526  3.0611
 6013SOL    HW229673   0.422   0.823   6.562 -2.1955 -0.1985 -0.3144
 6014SOL     OW29674   2.138   1.230   3.729 -0.9662  0.3004 -0.6567
 6014SOL    HW129675   2.180   1.150   3.761 -1.6537 -0.2142 -1.0434
 6014SOL    HW229676   2.051   1.195   3.712 -0.8219 -0.2821 -0.1770
 6015SOL     OW29677   4.732   2.725   8.010 -0.3139  0.3406 -0.1972
 6015SOL    HW129678   0.007   2.732   7.916  1.9913  2.7446  0.3311
 6015SOL    HW229679   0.039   2.804   8.038 -0.2387  0.2156  0.0385
 6016SOL     OW29680   2.315   2.272   1.792  0.4872 -0.3641  0.3635
 6016SOL    HW129681   2.323   2.222   1.711 -0.4301 -0.4524  0.3254
 6016SOL    HW229682   2.350   2.359   1.772 -0.1316 -0.3694 -0.7503
 6017SOL     OW29683   4.015   0.903  15.540 -0.0999  0.1758 -0.4443
 6017SOL    HW129684   4.016   0.978  15.599  0.9942 -0.8313  0.8258
 6017SOL    HW229685   3.931   0.911  15.494  0.3398  0.1621 -1.2419
 6018SOL     OW29686   4.346   3.760   4.386  0.1029  0.0751 -0.0863
 6018SOL    HW129687   4.274   3.751   4.450 -0.5510 -0.6040 -0.9193
 6018SOL    HW229688   4.330   3.683   4.332 -1.4348  1.0482 -1.0282
 6019SOL     OW29689   3.568   2.552   1.176  0.2361  0.1777 -0.3109
 6019SOL    HW129690   3.560   2.494   1.099 -0.5187  0.3275 -0.3406
 6019SOL    HW229691   3.640   2.611   1.155  0.3360 -0.0292 -0.5573
 6020SOL     OW29692   3.312   1.169   8.201  0.4561  0.2633  0.2628
 6020SOL    HW129693   3.326   1.076   8.188 -0.4020 -0.0033  1.2398
 6020SOL    HW229694   3.224   1.156   8.237 -0.2980  1.6415 -1.0720
 6021SOL     OW29695   2.660   3.212   1.016 -0.7613 -0.2276 -0.0741
 6021SOL    HW129696   2.647   3.118   1.004  1.8168 -0.6248  0.2459
 6021SOL    HW229697   2.734   3.226   1.075  0.4916 -0.3605 -1.6004
 6022SOL     OW29698   3.359   3.696   2.554 -0.5308  0.0874  0.1760
 6022SOL    HW129699   3.398   3.772   2.597  0.1861 -0.6522  0.8451
 6022SOL    HW229700   3.325   3.647   2.629  1.7922 -0.3014  0.9708
 6023SOL     OW29701   0.744   0.495  17.029 -0.1439  0.5296  0.0189
 6023SOL    HW129702   0.771   0.410  16.995 -0.5398  0.3534  0.1379
 6023SOL    HW229703   0.802   0.563  16.994  0.4753  0.6574  1.3073
 6024SOL     OW29704   0.823   1.302   4.068  0.0208 -0.3342  0.6353
 6024SOL    HW129705   0.837   1.391   4.102  1.5428 -1.0836  1.9637
 6024SOL    HW229706   0.911   1.286   4.034 -0.6541 -1.8731 -0.3895
 6025SOL     OW29707   0.835   0.651   6.420 -0.2283 -0.5721  0.0159
 6025SOL    HW129708   0.854   0.669   6.328 -0.0395 -2.0023 -0.2250
 6025SOL    HW229709   0.813   0.737   6.455  1.1001 -0.0249 -0.5250
 6026SOL     OW29710   3.400   2.980   0.238  0.3911  0.4739  0.2492
 6026SOL    HW129711   3.446   2.940   0.164 -2.0453 -0.2546 -0.8801
 6026SOL    HW229712   3.361   3.059   0.200  0.7814 -0.6054 -2.4040
 6027SOL     OW29713   0.848   3.570  11.058 -0.0586  0.2176 -0.2121
 6027SOL    HW129714   0.809   3.607  11.137 -0.4242  0.6224 -0.5770
 6027SOL    HW229715   0.917   3.516  11.096  0.6026  1.2218  0.0265
 6028SOL     OW29716   0.322   3.425   7.425  0.2724  0.1998 -0.2949
 6028SOL    HW129717   0.294   3.439   7.515 -2.8614 -1.1883 -1.0471
 6028SOL    HW229718   0.240   3.418   7.377  0.1393  2.0227 -0.3623
 6029SOL     OW29719   1.181   1.243   6.259 -0.1223  0.0978 -0.5484
 6029SOL    HW129720   1.140   1.188   6.325  1.3519  0.1833  0.4438
 6029SOL    HW229721   1.242   1.294   6.313 -0.2399  0.6974 -0.9694
 6030SOL     OW29722   4.062   2.664   2.786 -0.1942 -0.1926  0.7814
 6030SOL    HW129723   4.147   2.634   2.754  0.1839  1.2112  0.4530
 6030SOL    HW229724   4.073   2.759   2.777 -2.5361  0.1114  0.9707
 6031SOL     OW29725   4.218   1.928   6.482  0.7019 -0.2167 -0.5158
 6031SOL    HW129726   4.143   1.909   6.539 -0.1304 -0.5368 -1.7085
 6031SOL    HW229727   4.279   1.858   6.506  1.0948  1.1271  2.4000
 6032SOL     OW29728   1.046   0.003   9.372  0.2414  0.1629  0.1828
 6032SOL    HW129729   1.078   4.718   9.285 -0.3440  0.7039 -0.1884
 6032SOL    HW229730   1.007   4.660   9.401  0.3720 -0.3441 -1.0749
 6033SOL     OW29731   1.499   0.938   4.745 -0.1913 -0.1632 -0.0290
 6033SOL    HW129732   1.586   0.899   4.735 -0.4818 -1.0542  0.9160
 6033SOL    HW229733   1.450   0.883   4.685  0.2674  0.5556 -1.0727
 6034SOL     OW29734   0.312   0.348   7.652 -0.6819 -0.2820 -0.2376
 6034SOL    HW129735   0.356   0.320   7.732 -0.3520  2.8478  0.6708
 6034SOL    HW229736   0.239   0.286   7.651  0.4198 -1.5887 -0.7307
 6035SOL     OW29737   0.859   3.995   6.172  0.7167 -0.3241  0.0514
 6035SOL    HW129738   0.920   4.027   6.106 -0.7736  0.7500 -0.8161
 6035SOL    HW229739   0.910   4.009   6.252  0.1367 -1.8685  0.6949
 6036SOL     OW29740   2.467   0.812  17.218  0.1747  0.0876  0.3962
 6036SOL    HW129741   2.387   0.767  17.247  0.7121  0.1108  1.9063
 6036SOL    HW229742   2.475   0.790  17.125  0.4351 -1.1733  0.7190
 6037SOL     OW29743   3.656   4.628  15.704 -0.0205 -0.4505 -0.2757
 6037SOL    HW129744   3.573   4.620  15.658 -0.8929 -2.0788  1.6128
 6037SOL    HW229745   3.670   4.542  15.744 -0.1685  0.1291  1.0431
 6038SOL     OW29746   0.559   4.675  17.177 -0.6743 -0.2622 -0.0395
 6038SOL    HW129747   0.513   4.626  17.109  1.6696 -0.5197 -1.4641
 6038SOL    HW229748   0.581   4.612  17.245  1.8181 -1.2365 -1.7198
 6039SOL     OW29749   2.039   0.867   3.421 -0.1993 -0.7193 -0.0929
 6039SOL    HW129750   2.115   0.912   3.459 -1.2718 -0.0694  1.3106
 6039SOL    HW229751   2.072   0.871   3.331  1.5277  1.9411  0.6372
 6040SOL     OW29752   2.917   4.572   2.647  0.6388  0.0307  0.2438
 6040SOL    HW129753   2.964   4.642   2.602  1.6399 -1.4631 -1.0456
 6040SOL    HW229754   2.888   4.621   2.724 -0.8661  0.2227 -0.4466
 6041SOL     OW29755   3.546   1.080   7.738  0.1603 -0.1810 -0.6553
 6041SOL    HW129756   3.559   1.010   7.675 -0.5739 -1.3115  0.4446
 6041SOL    HW229757   3.546   1.157   7.681 -2.1876 -1.1220 -1.9396
 6042SOL     OW29758   0.276   3.688   9.055 -0.1136  0.3240  0.0598
 6042SOL    HW129759   0.277   3.733   8.971 -0.9747  0.5247  0.1572
 6042SOL    HW229760   0.273   3.769   9.106  1.1853  0.6521 -0.3887
 6043SOL     OW29761   4.190   2.037   6.002  0.4753 -0.1334  0.3006
 6043SOL    HW129762   4.194   2.000   6.090  0.3268 -0.9794 -0.0551
 6043SOL    HW229763   4.264   1.988   5.967  1.8720  1.9794  0.2876
 6044SOL     OW29764   3.311   4.554   4.971 -0.2463  0.1128 -0.2411
 6044SOL    HW129765   3.323   4.473   4.921  0.3268  0.1727 -0.2003
 6044SOL    HW229766   3.346   4.625   4.918  0.1173  0.4059  0.3835
 6045SOL     OW29767   1.754   1.404  11.911  0.2093 -0.6447  0.7203
 6045SOL    HW129768   1.805   1.474  11.952 -0.6650  0.8948 -0.8262
 6045SOL    HW229769   1.826   1.365  11.863  0.0976 -0.2107  0.2082
 6046SOL     OW29770   2.818   1.601   7.341  0.0446  0.3709  0.6014
 6046SOL    HW129771   2.727   1.613   7.314  0.9635  0.9484 -2.2855
 6046SOL    HW229772   2.841   1.690   7.369  0.5413  0.2746  0.5017
 6047SOL     OW29773   3.411   3.171   7.893  0.6120  0.8293 -0.0485
 6047SOL    HW129774   3.350   3.151   7.964 -1.0692  0.3027 -1.6302
 6047SOL    HW229775   3.362   3.231   7.836 -1.6080 -0.9463 -0.0391
 6048SOL     OW29776   3.724   2.942   2.311  0.2351  0.1298  0.2568
 6048SOL    HW129777   3.782   3.008   2.273 -0.6817 -0.0854 -1.4993
 6048SOL    HW229778   3.644   2.992   2.329 -0.8072 -1.4486 -0.0437
 6049SOL     OW29779   0.037   4.230  16.442  0.2956  0.1127  0.1097
 6049SOL    HW129780   0.079   4.175  16.375 -1.6562  0.3223 -1.2850
 6049SOL    HW229781   0.106   4.296  16.448  0.3099  0.0090  1.0553
 6050SOL     OW29782   3.264   0.021   5.264  0.2816  0.0879  0.4835
 6050SOL    HW129783   3.320   0.076   5.210  0.5394 -0.1071  0.5532
 6050SOL    HW229784   3.188   0.077   5.281 -0.9888 -1.3921 -0.2536
 6051SOL     OW29785   1.022   0.405   5.040 -0.3503  0.3706  0.0045
 6051SOL    HW129786   1.005   0.341   5.109  0.9213  1.1543  1.0379
 6051SOL    HW229787   0.934   0.441   5.031 -0.5074 -0.2293 -0.8731
 6052SOL     OW29788   0.099   3.592   3.749  0.3048 -0.4802  0.0314
 6052SOL    HW129789   0.055   3.645   3.815 -1.8381  1.3188 -2.8311
 6052SOL    HW229790   0.162   3.655   3.712  2.3072 -1.1163  2.3649
 6053SOL     OW29791   2.171   4.005   3.918  0.4941 -0.4803  0.2427
 6053SOL    HW129792   2.130   4.090   3.901  1.5425  0.1060  0.6070
 6053SOL    HW229793   2.264   4.021   3.899 -0.3806  1.4757 -2.5105
 6054SOL     OW29794   1.980   4.587   7.713  0.4190  0.1578  0.0852
 6054SOL    HW129795   1.980   4.570   7.807 -2.1992  0.4253  0.1397
 6054SOL    HW229796   2.073   4.573   7.695 -0.1352 -0.1145 -2.6299
 6055SOL     OW29797   4.658   2.123   7.384 -0.7091 -0.3388  0.1300
 6055SOL    HW129798   0.002   2.153   7.348 -1.0961 -0.1307 -0.6059
 6055SOL    HW229799   4.629   2.066   7.313 -3.5494  1.7359 -0.4077
 6056SOL     OW29800   1.518   3.346   0.506  0.1289 -0.1775  0.1333
 6056SOL    HW129801   1.569   3.287   0.452 -0.0597 -0.5538  0.3617
 6056SOL    HW229802   1.476   3.383   0.429  1.2646 -0.2975 -0.5478
 6057SOL     OW29803   1.137   1.599   9.654  0.1579 -0.1944  0.5071
 6057SOL    HW129804   1.084   1.622   9.730  1.0277 -1.5576  1.5374
 6057SOL    HW229805   1.114   1.666   9.590  1.5648 -0.6271 -0.4465
 6058SOL     OW29806   0.876   3.206  10.958 -0.4413 -0.1189  0.5494
 6058SOL    HW129807   0.950   3.244  10.911 -1.0410 -0.3710 -0.5706
 6058SOL    HW229808   0.936   3.158  11.016  0.7929  0.0874 -0.5467
 6059SOL     OW29809   3.635   0.302  10.059 -0.4206 -0.2751 -0.2691
 6059SOL    HW129810   3.587   0.383  10.073  0.9141  0.5706 -0.5788
 6059SOL    HW229811   3.669   0.294  10.148 -1.1495  1.3561  0.1520
 6060SOL     OW29812   4.196   3.822  10.896  0.1266  0.5096  0.6801
 6060SOL    HW129813   4.226   3.896  10.948  0.9190  0.4221  0.3471
 6060SOL    HW229814   4.145   3.878  10.836  0.1290 -0.4570 -0.2158
 6061SOL     OW29815   3.021   1.480   2.260  0.2818  0.3174 -0.0781
 6061SOL    HW129816   3.032   1.400   2.209  0.5181  0.6943 -0.6215
 6061SOL    HW229817   3.076   1.535   2.204 -0.4007  0.6226 -0.4529
 6062SOL     OW29818   2.567   3.425   5.960 -0.0784  0.4922  0.0658
 6062SOL    HW129819   2.476   3.396   5.958 -0.3962  1.4715  0.9692
 6062SOL    HW229820   2.593   3.380   5.879  1.6652 -1.2457  1.5815
 6063SOL     OW29821   4.223   1.572  15.105 -0.4753  0.3464 -0.4923
 6063SOL    HW129822   4.315   1.563  15.132  0.4988 -0.4513 -4.0327
 6063SOL    HW229823   4.224   1.659  15.065  0.3065  0.1675 -0.8750
 6064SOL     OW29824   4.156   2.175   0.037  0.1825 -0.0779  0.3437
 6064SOL    HW129825   4.115   2.108   0.092 -0.2988  0.3779  0.5407
 6064SOL    HW229826   4.099   2.251   0.053  0.7995  0.4030  0.2892
 6065SOL     OW29827   1.228   1.328   8.553 -0.1691 -0.2076 -0.2386
 6065SOL    HW129828   1.165   1.343   8.623  0.1944 -0.9771  0.2589
 6065SOL    HW229829   1.182   1.353   8.473 -1.7637  1.0312  1.0774
 6066SOL     OW29830   0.496   1.842   6.711  0.1082  0.0426 -0.2367
 6066SOL    HW129831   0.455   1.814   6.629  0.0285  1.4905 -0.6883
 6066SOL    HW229832   0.517   1.933   6.692  0.4724  0.3645  1.6273
 6067SOL     OW29833   0.022   4.539   4.868 -0.0504 -0.0830 -0.8673
 6067SOL    HW129834   4.727   4.531   4.779  0.4254  0.8651 -1.1409
 6067SOL    HW229835   0.011   4.445   4.883 -0.5516  0.4501  2.0831
 6068SOL     OW29836   1.360   0.110  10.302 -0.6250  0.1464  0.4568
 6068SOL    HW129837   1.432   0.156  10.258 -2.0897  0.4147 -1.6761
 6068SOL    HW229838   1.362   0.031  10.248 -1.4670  0.3665  0.0987
 6069SOL     OW29839   1.524   1.230   6.866 -0.2513 -0.0771  0.0878
 6069SOL    HW129840   1.614   1.255   6.885  0.5522 -0.2079 -3.5084
 6069SOL    HW229841   1.512   1.247   6.773 -2.4438 -0.9114  0.2165
 6070SOL     OW29842   3.079   1.193   2.698  0.2683 -0.0408 -0.1769
 6070SOL    HW129843   3.076   1.274   2.647  0.1225  1.4475  2.1991
 6070SOL    HW229844   2.986   1.186   2.718  0.2509  2.0928  0.4631
 6071SOL     OW29845   0.006   0.810   4.284 -0.4681 -0.6237 -0.3013
 6071SOL    HW129846   4.675   0.875   4.285  0.4243  0.3409  0.1981
 6071SOL    HW229847   0.015   0.788   4.377  0.9905  0.5377 -0.1701
 6072SOL     OW29848   3.256   0.684   8.077  0.0815 -0.8012  0.0839
 6072SOL    HW129849   3.324   0.745   8.050 -0.3507  0.6648  2.3539
 6072SOL    HW229850   3.310   0.620   8.123  1.2738  0.2809  0.1779
 6073SOL     OW29851   3.871   1.282   7.893  0.4207  0.3481 -0.1319
 6073SOL    HW129852   3.918   1.301   7.812  1.6166  1.2344  0.7673
 6073SOL    HW229853   3.838   1.371   7.905 -1.7481 -0.5757  0.6846
 6074SOL     OW29854   4.021   4.699   7.318  0.5503 -0.6285 -0.2701
 6074SOL    HW129855   4.039   4.732   7.230 -2.2423 -0.3908 -0.7403
 6074SOL    HW229856   4.011   0.041   7.367 -1.9807 -1.1770  0.1370
 6075SOL     OW29857   3.697   2.945  15.386 -0.3806 -0.4413 -0.0685
 6075SOL    HW129858   3.632   2.978  15.324  0.1178  0.5883 -0.0412
 6075SOL    HW229859   3.664   2.856  15.400 -2.0121  0.0360 -0.8429
 6076SOL     OW29860   2.467   0.325  11.339  0.1943  0.3446 -0.0591
 6076SOL    HW129861   2.498   0.281  11.259  0.7327 -0.6548  0.7006
 6076SOL    HW229862   2.549   0.342  11.387 -0.0375 -2.3784  1.2754
 6077SOL     OW29863   4.366   1.489   6.932  0.6260  0.0403 -0.3556
 6077SOL    HW129864   4.311   1.425   6.978  1.0998 -0.4136 -0.4176
 6077SOL    HW229865   4.308   1.550   6.887  0.4054  2.1184  2.7090
 6078SOL     OW29866   0.407   0.551   9.325  0.3318  0.2324  0.4205
 6078SOL    HW129867   0.455   0.476   9.360 -0.6741 -1.4060 -1.6611
 6078SOL    HW229868   0.382   0.590   9.409  0.1300 -0.2649  0.5956
 6079SOL     OW29869   2.516   1.638   5.720 -0.1129  0.2813 -0.0831
 6079SOL    HW129870   2.561   1.564   5.761  0.8934  0.9571  0.0215
 6079SOL    HW229871   2.589   1.663   5.663  0.4452  0.6388  0.7808
 6080SOL     OW29872   4.713   2.075   8.403  0.1735 -0.2102  0.4063
 6080SOL    HW129873   4.661   2.125   8.340  0.1908 -0.5585  0.1157
 6080SOL    HW229874   0.063   2.102   8.383 -0.0618 -0.6789 -1.2511
 6081SOL     OW29875   2.512   0.495  17.261  0.2866 -0.0412 -0.2970
 6081SOL    HW129876   2.501   0.555  17.187  2.1068 -3.0640 -3.0783
 6081SOL    HW229877   2.578   0.434  17.226  2.5753  2.0105  0.3955
 6082SOL     OW29878   0.055   4.728   5.756  0.2500  0.2169 -0.1985
 6082SOL    HW129879   0.081   0.079   5.739  2.3532 -0.3337  0.1221
 6082SOL    HW229880   0.128   4.673   5.726  0.7409  1.1972 -0.7842
 6083SOL     OW29881   4.627   4.602   9.365  0.5890  0.2936 -0.5753
 6083SOL    HW129882   4.542   4.581   9.326  0.0695  0.5825  0.3768
 6083SOL    HW229883   4.600   4.593   9.457  0.7033 -1.6153 -0.7310
 6084SOL     OW29884   0.259   1.466  15.492  0.2361  0.3081  0.4271
 6084SOL    HW129885   0.268   1.371  15.481  2.5405  0.4561  0.9676
 6084SOL    HW229886   0.259   1.480  15.587 -1.1004  0.0493  0.4695
 6085SOL     OW29887   2.331   2.494  11.395 -0.2443 -0.4388 -0.4501
 6085SOL    HW129888   2.392   2.426  11.366 -0.5388 -0.3909 -1.1680
 6085SOL    HW229889   2.368   2.493  11.484 -0.1042 -0.1175 -0.5040
 6086SOL     OW29890   0.351   2.264   1.958  0.2541 -0.5655 -0.1738
 6086SOL    HW129891   0.438   2.264   1.917  0.5045 -0.0809  0.3457
 6086SOL    HW229892   0.299   2.242   1.881 -1.2124 -1.7152  1.1356
 6087SOL     OW29893   2.955   1.942   5.227  0.1688 -0.1974  0.4417
 6087SOL    HW129894   2.911   1.859   5.210 -1.2838  1.0039 -1.7271
 6087SOL    HW229895   2.897   1.987   5.289 -0.9439 -2.5502  1.0921
 6088SOL     OW29896   2.907   3.960  17.516  0.2873  0.3131 -0.7968
 6088SOL    HW129897   2.879   4.026  17.453 -1.3143  1.1536  0.7905
 6088SOL    HW229898   2.929   4.018  17.589  1.1550  0.8874 -1.5182
 6089SOL     OW29899   3.741   0.336  13.294  0.1977 -0.1280  0.2896
 6089SOL    HW129900   3.740   0.430  13.277 -0.5456 -0.1962 -0.0459
 6089SOL    HW229901   3.733   0.338  13.390 -0.4963 -1.1293  0.2602
 6090SOL     OW29902   0.012   1.075  15.841  0.3977 -0.6800  0.1051
 6090SOL    HW129903   0.025   1.042  15.752 -0.4618  2.2097 -1.0837
 6090SOL    HW229904   0.077   1.019  15.883 -0.5694 -1.4328  0.6036
 6091SOL     OW29905   0.562   4.111  12.689  0.0921 -0.4474 -0.1114
 6091SOL    HW129906   0.475   4.151  12.695 -1.0389 -2.9262  0.2040
 6091SOL    HW229907   0.594   4.143  12.605 -2.6207 -0.2690 -1.0788
 6092SOL     OW29908   0.469   2.362   3.152  0.0088  0.1159  0.4411
 6092SOL    HW129909   0.428   2.400   3.230  1.9828  1.6986  0.7245
 6092SOL    HW229910   0.549   2.319   3.184  0.5095  0.0875 -0.8751
 6093SOL     OW29911   0.777   2.657   4.100  0.4148 -0.5479  0.2294
 6093SOL    HW129912   0.858   2.641   4.052 -0.0730  0.3346 -0.8679
 6093SOL    HW229913   0.726   2.585   4.064  2.3796 -2.8669  1.9944
 6094SOL     OW29914   1.584   0.593   6.992 -0.3881 -0.1297  0.2676
 6094SOL    HW129915   1.609   0.600   7.084  1.5972 -1.1275 -0.2080
 6094SOL    HW229916   1.655   0.535   6.966  0.2991  0.4749  0.7883
 6095SOL     OW29917   0.664   4.482   6.020 -0.2711  0.1754 -0.4597
 6095SOL    HW129918   0.612   4.547   5.971 -1.3073 -1.2289 -1.2169
 6095SOL    HW229919   0.687   4.528   6.100 -1.3317 -1.3919  0.7480
 6096SOL     OW29920   1.082   0.583  15.786 -0.1102  0.2242  0.2131
 6096SOL    HW129921   1.054   0.668  15.752  0.1884 -0.2684 -1.2426
 6096SOL    HW229922   1.093   0.535  15.704 -1.2337 -1.2889  0.9476
 6097SOL     OW29923   4.455   3.955   6.371 -0.1927 -0.1735 -0.5360
 6097SOL    HW129924   4.386   3.890   6.369  0.4206 -0.7314 -4.0280
 6097SOL    HW229925   4.417   4.042   6.355 -0.7336  0.0476  2.0070
 6098SOL     OW29926   4.487   3.820   5.453  0.1748  0.4624  0.3778
 6098SOL    HW129927   4.462   3.906   5.418 -0.4760 -0.4318 -1.3352
 6098SOL    HW229928   4.578   3.840   5.474  0.0431 -2.4800  3.6038
 6099SOL     OW29929   0.565   3.473  14.521  0.2184  0.2085 -0.6117
 6099SOL    HW129930   0.522   3.523  14.591 -1.7221 -0.3081 -1.4388
 6099SOL    HW229931   0.572   3.394  14.575 -0.4951 -0.1216 -0.9998
 6100SOL     OW29932   2.012   3.604  13.582 -0.0445  0.3807 -0.3134
 6100SOL    HW129933   1.924   3.566  13.588  1.0187 -1.9547  0.6304
 6100SOL    HW229934   1.995   3.694  13.608 -1.3495 -0.6019  2.2732
 6101SOL     OW29935   4.416   1.445  10.197 -0.4287 -0.2309 -0.3913
 6101SOL    HW129936   4.466   1.392  10.258 -0.4842  0.3919  0.1908
 6101SOL    HW229937   4.491   1.492  10.160 -0.9800  0.0787 -1.1356
 6102SOL     OW29938   0.820   1.809   4.918 -0.6070 -0.0070 -0.5092
 6102SOL    HW129939   0.889   1.749   4.948  0.4223  1.8795  0.9672
 6102SOL    HW229940   0.848   1.886   4.967 -0.8765  0.8749 -1.7491
 6103SOL     OW29941   4.585   3.972   2.944  0.1019  0.1424 -0.3240
 6103SOL    HW129942   4.509   3.928   2.982 -0.1124  0.0137 -0.9002
 6103SOL    HW229943   4.651   3.902   2.949 -0.5610 -0.4703 -0.1812
 6104SOL     OW29944   2.088   0.421   2.064 -0.4888 -0.0909  0.1008
 6104SOL    HW129945   2.178   0.408   2.093 -0.6154 -1.0635  0.0776
 6104SOL    HW229946   2.082   0.516   2.060 -1.1035 -0.0849  1.4518
 6105SOL     OW29947   1.567   0.069   6.520  0.2540  0.3876  0.3438
 6105SOL    HW129948   1.551   0.156   6.559 -0.1830  1.3510 -2.0064
 6105SOL    HW229949   1.657   0.063   6.551 -0.6343 -2.8053  2.2865
 6106SOL     OW29950   3.118   2.659  12.303 -0.7045  0.0882 -0.6531
 6106SOL    HW129951   3.037   2.609  12.294 -0.5905 -0.4899  1.4935
 6106SOL    HW229952   3.114   2.688  12.394  1.0664  2.8249 -1.4800
 6107SOL     OW29953   0.487   1.928   2.929  0.0194  0.4965 -1.0306
 6107SOL    HW129954   0.490   2.013   2.885 -0.4279  1.3650  0.6471
 6107SOL    HW229955   0.406   1.941   2.978 -0.8784 -2.2231 -1.7642
 6108SOL     OW29956   2.893   3.765  16.042  0.2579  0.3233  0.2609
 6108SOL    HW129957   2.913   3.784  16.133  0.8375 -0.0104  0.2014
 6108SOL    HW229958   2.797   3.762  16.040  0.4078 -3.8536 -0.5727
 6109SOL     OW29959   3.498   1.489   1.755 -0.5941 -0.5820 -0.3213
 6109SOL    HW129960   3.467   1.445   1.676  0.1682  1.3886 -1.7149
 6109SOL    HW229961   3.557   1.554   1.719  0.7210 -1.5977 -0.0192
 6110SOL     OW29962   0.872   4.100   7.869 -0.8145  0.0451 -0.0992
 6110SOL    HW129963   0.844   4.146   7.790 -1.4701 -0.5390 -0.2140
 6110SOL    HW229964   0.789   4.072   7.907  0.6300 -1.4138  1.9854
 6111SOL     OW29965   2.335   2.272   8.052 -0.5466 -0.6264  0.6251
 6111SOL    HW129966   2.275   2.282   7.977  0.6314  0.6943 -0.1434
 6111SOL    HW229967   2.314   2.354   8.098  0.5619 -0.6237  1.1160
 6112SOL     OW29968   0.449   1.381  16.888 -0.4499 -0.2334 -0.3465
 6112SOL    HW129969   0.430   1.380  16.794  1.4343 -0.4538 -0.7074
 6112SOL    HW229970   0.394   1.455  16.918 -1.3347 -0.5940 -1.0862
 6113SOL     OW29971   1.508   2.647  12.224 -0.1237  0.1480  0.0259
 6113SOL    HW129972   1.563   2.725  12.215 -0.0624  0.1536  0.4483
 6113SOL    HW229973   1.469   2.642  12.137 -0.9885 -0.5711  0.4555
 6114SOL     OW29974   1.727   0.708   7.224 -0.1303 -0.0681 -0.2652
 6114SOL    HW129975   1.812   0.738   7.258  0.1280 -2.6367  1.4371
 6114SOL    HW229976   1.657   0.767   7.251 -0.1662 -0.1299 -0.2236
 6115SOL     OW29977   2.014   3.983   7.938 -0.6616  0.4000  0.3361
 6115SOL    HW129978   2.039   3.917   8.002 -1.4574 -0.1120  0.1054
 6115SOL    HW229979   2.098   4.025   7.918 -0.0409 -0.9700  0.0531
 6116SOL     OW29980   2.420   3.610   7.530 -0.4889  0.0700  0.4227
 6116SOL    HW129981   2.362   3.589   7.603 -0.4144  1.2939  0.8325
 6116SOL    HW229982   2.349   3.648   7.477  0.4938  1.6988  0.2849
 6117SOL     OW29983   0.811   3.322   0.988 -0.3325 -0.3670  0.1775
 6117SOL    HW129984   0.773   3.249   1.035 -0.5698 -0.1274  0.3561
 6117SOL    HW229985   0.794   3.393   1.050  1.6556 -0.8940  1.3411
 6118SOL     OW29986   4.539   1.166   6.551 -0.5137  0.1384  0.3517
 6118SOL    HW129987   4.465   1.211   6.510 -0.2308 -0.5884 -0.9937
 6118SOL    HW229988   4.570   1.229   6.615 -0.0182  1.1372 -0.8594
 6119SOL     OW29989   4.189   4.409   2.186 -0.0632 -0.1559  0.1399
 6119SOL    HW129990   4.224   4.356   2.257 -1.9311 -1.0275  0.3972
 6119SOL    HW229991   4.186   4.495   2.228 -2.0364 -0.1393 -0.0581
 6120SOL     OW29992   0.594   1.214  11.008 -0.0015 -0.1724  0.2450
 6120SOL    HW129993   0.564   1.281  11.070 -1.3791 -0.7340  0.1836
 6120SOL    HW229994   0.513   1.218  10.957 -1.5565  2.7356  2.9451
 6121SOL     OW29995   4.272   0.180  15.913  0.2746  0.1714  0.3038
 6121SOL    HW129996   4.265   0.257  15.969  1.0527  2.0196 -2.1457
 6121SOL    HW229997   4.328   0.127  15.970 -0.4019 -0.4013  0.4338
 6122SOL     OW29998   1.756   0.029   7.634 -0.5934 -0.3938 -0.3080
 6122SOL    HW129999   1.742   0.096   7.701  2.2833 -0.5858  0.4556
 6122SOL    HW230000   1.844   4.738   7.655 -0.3597  2.0203  2.2422
 6123SOL     OW30001   4.651   0.832   9.594 -0.5138  0.3373  0.7484
 6123SOL    HW130002   4.672   0.750   9.639 -0.2508  0.4427  0.8163
 6123SOL    HW230003   4.565   0.810   9.558  0.1539 -4.1215  1.8243
 6124SOL     OW30004   2.886   1.301  10.621 -0.4887  0.0951 -0.0564
 6124SOL    HW130005   2.832   1.230  10.586  0.9773 -1.5120  0.9396
 6124SOL    HW230006   2.911   1.345  10.540 -0.6060  0.0542 -0.1149
 6125SOL     OW30007   1.588   4.241   9.169 -0.6969  0.5110 -0.3777
 6125SOL    HW130008   1.563   4.155   9.134  2.8631 -0.9598  0.6936
 6125SOL    HW230009   1.540   4.246   9.251 -0.3542 -1.6704 -0.0481
 6126SOL     OW30010   4.618   4.321   4.594 -0.3562 -0.2179 -0.2993
 6126SOL    HW130011   4.702   4.279   4.579 -0.0295 -0.6751  2.8409
 6126SOL    HW230012   4.639   4.413   4.577 -0.6662  0.0698  0.8641
 6127SOL     OW30013   4.437   1.666   2.414  0.2272 -0.0335 -0.8618
 6127SOL    HW130014   4.365   1.670   2.351 -0.0898  2.1593 -0.3474
 6127SOL    HW230015   4.466   1.756   2.406 -0.7978  0.4008  0.4075
 6128SOL     OW30016   2.624   4.301   8.952 -0.0938 -0.3436  0.2515
 6128SOL    HW130017   2.655   4.213   8.929 -2.2552 -1.0101 -0.0700
 6128SOL    HW230018   2.620   4.344   8.867  1.3523 -0.5014  0.0961
 6129SOL     OW30019   1.377   4.348  14.264  0.4877 -0.2242 -0.4470
 6129SOL    HW130020   1.330   4.362  14.346  1.2055 -2.7162  0.3891
 6129SOL    HW230021   1.358   4.257  14.242  0.7075 -0.4838  0.4247
 6130SOL     OW30022   1.844   3.293  10.023  0.0012 -0.4971  0.0954
 6130SOL    HW130023   1.827   3.313  10.115  0.4816  0.3880 -0.0113
 6130SOL    HW230024   1.929   3.251  10.037  0.7533  1.0860  0.2438
 6131SOL     OW30025   4.731   4.431   8.690 -0.1742 -0.2436  0.6356
 6131SOL    HW130026   4.691   4.346   8.709  1.3153 -0.7796  1.3532
 6131SOL    HW230027   4.660   4.473   8.641 -0.6230  1.8463  3.0684
 6132SOL     OW30028   4.688   4.653   2.898  0.0891 -0.4063 -0.0974
 6132SOL    HW130029   4.667   4.561   2.913 -0.1771  0.0034  2.0974
 6132SOL    HW230030   0.017   4.647   2.832  2.1351  3.6301  1.6630
 6133SOL     OW30031   3.163   2.697   2.906  0.3605 -0.3082 -0.3802
 6133SOL    HW130032   3.094   2.703   2.839  0.5060 -0.7776 -0.5773
 6133SOL    HW230033   3.178   2.788   2.930 -0.4633 -0.7980  1.9769
 6134SOL     OW30034   3.717   1.772   1.074 -0.1743  0.2678 -0.4274
 6134SOL    HW130035   3.706   1.805   1.163 -0.2507  1.7019 -0.9776
 6134SOL    HW230036   3.641   1.813   1.032 -0.4403  1.0066  0.7948
 6135SOL     OW30037   3.291   3.963  10.504  0.2480 -0.6497  0.0016
 6135SOL    HW130038   3.199   3.937  10.505 -0.1506  0.8561  1.8411
 6135SOL    HW230039   3.325   3.922  10.584  0.8991 -0.3821 -0.1332
 6136SOL     OW30040   3.281   4.137   2.810  0.1456 -0.0128 -0.0633
 6136SOL    HW130041   3.237   4.214   2.844  2.9145  0.7065  1.9195
 6136SOL    HW230042   3.310   4.175   2.726 -1.0809 -1.3320 -1.0745
 6137SOL     OW30043   0.293   1.978   8.155 -0.1309  0.2165 -0.0332
 6137SOL    HW130044   0.307   1.961   8.061 -2.4814  1.0464 -0.5408
 6137SOL    HW230045   0.352   2.052   8.166  1.1727 -1.0657  1.5630
 6138SOL     OW30046   0.496   3.295   0.737  0.0104  0.3474  0.2416
 6138SOL    HW130047   0.523   3.242   0.813  0.0899  0.2113  0.1180
 6138SOL    HW230048   0.581   3.338   0.728  0.3992 -0.2496  1.0077
 6139SOL     OW30049   4.206   0.531   7.103 -0.1741  0.0999  0.4570
 6139SOL    HW130050   4.157   0.465   7.151  1.2509 -1.6503 -0.4723
 6139SOL    HW230051   4.178   0.511   7.014  0.3502  2.6874 -0.3063
 6140SOL     OW30052   1.460   0.139   4.229 -0.2313 -0.4901 -0.0776
 6140SOL    HW130053   1.450   0.234   4.234  0.1627 -0.4687  0.3814
 6140SOL    HW230054   1.518   0.130   4.153 -0.6100  1.7638 -0.6182
 6141SOL     OW30055   0.465   2.309   4.147  0.1155  0.7996 -0.5160
 6141SOL    HW130056   0.381   2.346   4.174 -0.9487 -1.0061 -1.3430
 6141SOL    HW230057   0.435   2.236   4.093 -0.8099 -0.4363  1.6599
 6142SOL     OW30058   3.376   4.737  10.142 -0.6370 -0.0835  0.3199
 6142SOL    HW130059   3.375   0.055  10.065  0.6073  0.1716  0.5017
 6142SOL    HW230060   3.337   4.664  10.095  0.3671  0.7958 -1.8900
 6143SOL     OW30061   3.705   1.506   0.775 -0.1010 -0.1874 -0.2181
 6143SOL    HW130062   3.759   1.505   0.855  0.1037  0.8635 -0.3367
 6143SOL    HW230063   3.619   1.476   0.803 -0.0817  0.6828  0.8034
 6144SOL     OW30064   3.985   1.029  11.825 -0.1735  0.1915  0.2538
 6144SOL    HW130065   3.897   1.028  11.787 -0.0355 -0.6521 -0.0498
 6144SOL    HW230066   3.970   0.970  11.899 -1.7746  2.1229  1.4765
 6145SOL     OW30067   1.092   3.757  11.882  0.5335  0.5202  0.3361
 6145SOL    HW130068   1.063   3.843  11.850  0.3663  0.2158 -0.3334
 6145SOL    HW230069   1.024   3.741  11.947  0.0227  0.1903 -0.2818
 6146SOL     OW30070   2.375   3.600   9.203  0.6612  0.0950  0.2423
 6146SOL    HW130071   2.300   3.649   9.237 -1.1065 -3.3935  1.3240
 6146SOL    HW230072   2.413   3.583   9.289 -3.1700 -3.5642  1.1856
 6147SOL     OW30073   1.650   0.960   9.761 -0.1563 -0.4518 -0.0794
 6147SOL    HW130074   1.696   1.042   9.745 -0.2155 -0.3729  0.1441
 6147SOL    HW230075   1.714   0.922   9.820  0.7533 -1.2385 -1.5854
 6148SOL     OW30076   2.771   2.146   2.203  0.0809  0.2065 -0.8483
 6148SOL    HW130077   2.730   2.096   2.274 -2.6985  0.5498 -2.2241
 6148SOL    HW230078   2.759   2.227   2.252 -1.3154 -0.3198 -0.2907
 6149SOL     OW30079   3.071   2.635  16.568  0.1421 -0.2166 -0.4236
 6149SOL    HW130080   3.142   2.572  16.581  0.7040  0.7422  1.2721
 6149SOL    HW230081   3.037   2.629  16.479 -1.2236  2.8071 -0.1135
 6150SOL     OW30082   2.349   4.720   7.330  0.3359  0.1773 -0.2813
 6150SOL    HW130083   2.324   4.716   7.237 -1.4144  0.1464  0.1897
 6150SOL    HW230084   2.345   4.628   7.357 -1.4101  0.0357 -1.0466
 6151SOL     OW30085   0.201   1.298  13.571 -0.1933 -0.5536 -0.0411
 6151SOL    HW130086   0.137   1.331  13.509 -0.0954  0.3255  0.3276
 6151SOL    HW230087   0.183   1.353  13.647 -2.4921 -0.7625 -0.4555
 6152SOL     OW30088   1.308   4.190   2.997 -0.2146  0.3974  0.0528
 6152SOL    HW130089   1.322   4.131   2.923 -2.6175 -2.9582  2.2852
 6152SOL    HW230090   1.372   4.260   2.988 -1.3110  1.4785  0.6149
 6153SOL     OW30091   2.076   4.223   2.485  0.0097  0.0441 -0.2484
 6153SOL    HW130092   2.099   4.281   2.557 -0.0092  0.2790 -0.4323
 6153SOL    HW230093   2.161   4.179   2.478 -0.0852 -0.0340 -0.9538
 6154SOL     OW30094   4.342   4.038   8.714  0.1944  0.1374  0.2555
 6154SOL    HW130095   4.330   3.955   8.669  1.2334  0.5381 -0.7857
 6154SOL    HW230096   4.400   4.015   8.787 -0.7854 -1.1047  0.6388
 6155SOL     OW30097   3.400   1.033   4.348 -0.0393 -0.0047 -0.4030
 6155SOL    HW130098   3.356   1.102   4.298  0.3922  3.1479  3.5880
 6155SOL    HW230099   3.389   0.970   4.277  0.6988 -0.7880  0.1733
 6156SOL     OW30100   3.832   1.694   2.480 -0.4755  0.5663  0.0234
 6156SOL    HW130101   3.793   1.659   2.560  1.3215 -0.0250  0.6485
 6156SOL    HW230102   3.773   1.661   2.413  0.7607 -1.2366 -0.1874
 6157SOL     OW30103   4.451   0.326   7.547  0.5070 -0.6230 -0.1640
 6157SOL    HW130104   4.487   0.384   7.479  1.5919 -0.6362  0.4069
 6157SOL    HW230105   4.505   0.350   7.622  0.1290 -0.6347  0.1072
 6158SOL     OW30106   2.141   2.296  12.442  0.4596 -0.8118  0.4098
 6158SOL    HW130107   2.160   2.315  12.350 -0.5601  2.6921  0.9418
 6158SOL    HW230108   2.171   2.380  12.476 -0.8096  0.4666 -1.6420
 6159SOL     OW30109   0.812   4.313   5.031  0.3149  0.0101 -0.5619
 6159SOL    HW130110   0.874   4.319   5.103  1.8972 -1.3017 -1.8271
 6159SOL    HW230111   0.753   4.250   5.073  0.2434  0.3151 -0.2151
 6160SOL     OW30112   3.421   3.462   8.906 -0.0104  0.3715 -0.2713
 6160SOL    HW130113   3.330   3.470   8.934 -1.0671  0.4686 -3.6948
 6160SOL    HW230114   3.447   3.554   8.912  1.0346 -0.0659  1.6344
 6161SOL     OW30115   2.693   3.796   8.036  0.2819  0.4885 -1.0208
 6161SOL    HW130116   2.709   3.812   8.129 -2.0031 -0.0505 -0.5549
 6161SOL    HW230117   2.610   3.842   8.028 -0.6015 -1.1236 -1.1244
 6162SOL     OW30118   0.675   2.636   8.161  0.2320  0.0016  0.2242
 6162SOL    HW130119   0.718   2.711   8.121  1.4256 -0.3220  0.9070
 6162SOL    HW230120   0.746   2.591   8.207 -2.0041 -0.8736  2.8326
 6163SOL     OW30121   0.248   3.748   6.396  0.1455  1.0012  0.1934
 6163SOL    HW130122   0.322   3.730   6.338  0.5060 -0.8829  1.2468
 6163SOL    HW230123   0.269   3.837   6.422  2.1794 -0.0369  2.0976
 6164SOL     OW30124   4.522   2.761   2.792  0.4778 -0.3383  0.3124
 6164SOL    HW130125   4.597   2.728   2.742 -1.0669 -2.0851 -0.8344
 6164SOL    HW230126   4.554   2.771   2.882 -2.2179  0.4585  1.1869
 6165SOL     OW30127   0.094   3.321   9.495 -0.1700  0.0481  0.4337
 6165SOL    HW130128   0.114   3.263   9.569  1.7636  0.0223 -0.0961
 6165SOL    HW230129   0.064   3.262   9.427 -2.2998  0.5598  0.9172
 6166SOL     OW30130   3.050   3.488   3.531  0.8162  0.6140  0.2400
 6166SOL    HW130131   3.060   3.583   3.523 -1.5288  0.7691 -0.8047
 6166SOL    HW230132   3.140   3.458   3.538 -0.6553 -3.3732  2.0977
 6167SOL     OW30133   4.371   4.729   2.664  0.0275 -0.6989  0.0804
 6167SOL    HW130134   4.407   0.003   2.752 -0.1029 -0.3191  0.0736
 6167SOL    HW230135   4.339   0.077   2.642 -3.0004 -1.5210  1.2592
 6168SOL     OW30136   4.006   2.705   9.412 -0.1561  0.0255  0.1323
 6168SOL    HW130137   4.098   2.727   9.426 -0.7858  0.3782  3.7787
 6168SOL    HW230138   4.018   2.622   9.367 -0.9755  0.7118 -1.3695
 6169SOL     OW30139   0.549   0.243   5.650 -0.2696 -0.0241 -0.3278
 6169SOL    HW130140   0.496   0.176   5.693  1.9636 -2.0665 -0.7759
 6169SOL    HW230141   0.610   0.187   5.603  0.1279  1.2018 -1.2799
 6170SOL     OW30142   3.978   4.354   6.189 -0.0042 -0.0202 -0.5918
 6170SOL    HW130143   3.987   4.446   6.165  0.1838 -0.8546 -3.6074
 6170SOL    HW230144   4.016   4.304   6.117  0.0268  0.0013 -0.5906
 6171SOL     OW30145   1.415   4.039   2.801 -0.1901  0.0921 -0.0873
 6171SOL    HW130146   1.429   4.096   2.725 -1.6565 -0.2887 -0.6381
 6171SOL    HW230147   1.479   3.972   2.775 -1.7124 -1.0914 -0.7946
 6172SOL     OW30148   0.342   2.373  16.875 -0.1695 -0.4185 -0.0361
 6172SOL    HW130149   0.279   2.306  16.901 -1.0173 -0.1050 -1.2880
 6172SOL    HW230150   0.422   2.320  16.875  0.0368 -0.0951  1.2114
 6173SOL     OW30151   2.847   1.790   6.757 -0.3547 -0.6236 -0.1203
 6173SOL    HW130152   2.871   1.880   6.779 -1.8595 -0.4904  1.0194
 6173SOL    HW230153   2.810   1.764   6.842  1.4667  0.7826  1.0933
 6174SOL     OW30154   1.001   1.977   4.117 -0.0791 -0.0995  0.3844
 6174SOL    HW130155   0.924   1.920   4.119 -0.0965 -0.1622 -1.8208
 6174SOL    HW230156   1.045   1.950   4.036  0.8598  1.6194  0.3285
 6175SOL     OW30157   3.719   3.592  10.727  0.4302  0.4251 -0.1478
 6175SOL    HW130158   3.661   3.516  10.732 -0.5473  1.1696  0.0347
 6175SOL    HW230159   3.665   3.661  10.688  1.0716  0.9744 -0.0625
 6176SOL     OW30160   2.708   1.153   5.211  0.1945 -0.4692 -0.0914
 6176SOL    HW130161   2.742   1.232   5.253  0.3636  0.2817 -1.6670
 6176SOL    HW230162   2.722   1.165   5.117 -0.1902  0.7905  0.0116
 6177SOL     OW30163   4.665   3.956   1.745  0.8390 -0.6829  0.5445
 6177SOL    HW130164   0.003   4.008   1.724 -0.4538  1.0072 -0.0105
 6177SOL    HW230165   4.605   4.018   1.705  0.6613  0.7052  2.9399
 6178SOL     OW30166   1.469   3.556   6.346  0.9120 -0.0701  0.2662
 6178SOL    HW130167   1.492   3.515   6.262  1.6296  1.3746 -0.2418
 6178SOL    HW230168   1.549   3.609   6.348  2.0872 -1.8385  0.4067
 6179SOL     OW30169   1.043   0.254   8.509 -0.8861  0.3595 -0.4019
 6179SOL    HW130170   0.988   0.242   8.431  1.1830  0.2905 -1.8594
 6179SOL    HW230171   1.123   0.209   8.480 -0.0490  0.6181  1.4814
 6180SOL     OW30172   3.783   1.497  10.524 -0.4799 -0.3852  0.0648
 6180SOL    HW130173   3.832   1.559  10.470 -2.5700  2.5166  1.5117
 6180SOL    HW230174   3.723   1.549  10.576  0.3179  0.6057  0.0020
 6181SOL     OW30175   2.165   2.514   7.120  0.0764 -0.5008 -0.8998
 6181SOL    HW130176   2.129   2.444   7.066  0.2762 -1.9790  0.9109
 6181SOL    HW230177   2.140   2.483   7.207  2.1498 -0.2892 -0.2376
 6182SOL     OW30178   3.332   0.265   4.002 -0.6488  0.1544  0.5857
 6182SOL    HW130179   3.317   0.277   4.095  1.1856 -1.4101  1.0872
 6182SOL    HW230180   3.401   0.330   3.985 -1.0473  0.1880 -0.9773
 6183SOL     OW30181   0.072   0.179   7.617 -0.4422  0.7637 -0.1318
 6183SOL    HW130182   4.724   0.142   7.620 -1.1294  2.4004 -0.0262
 6183SOL    HW230183   0.097   0.160   7.707 -0.9037 -0.9039 -0.3442
 6184SOL     OW30184   2.788   1.200  13.209  0.4285  0.0106  0.0935
 6184SOL    HW130185   2.732   1.215  13.132  2.9744  1.5532 -1.4848
 6184SOL    HW230186   2.783   1.281  13.260  2.0216 -0.8545  1.6396
 6185SOL     OW30187   3.632   2.100   9.556  0.4487  0.3618  0.5555
 6185SOL    HW130188   3.697   2.057   9.611  1.8222  1.7663  0.0181
 6185SOL    HW230189   3.654   2.049   9.478  2.0341 -1.3593  2.1322
 6186SOL     OW30190   4.216   3.321  16.324  0.0523  0.2159 -0.8001
 6186SOL    HW130191   4.201   3.310  16.230 -0.4551 -1.6266 -0.5094
 6186SOL    HW230192   4.126   3.325  16.356 -0.3249  1.8544 -2.0535
 6187SOL     OW30193   0.344   1.536   8.714  0.2218 -0.3639 -0.5051
 6187SOL    HW130194   0.365   1.629   8.699 -2.4085  0.5638  1.5616
 6187SOL    HW230195   0.381   1.484   8.643 -1.4369 -0.6262 -1.1834
 6188SOL     OW30196   1.608   1.581  14.908 -0.1500 -0.0736  0.9767
 6188SOL    HW130197   1.664   1.618  14.976  0.0864  2.1218 -0.4331
 6188SOL    HW230198   1.517   1.586  14.938  0.1792 -1.5259  2.2542
 6189SOL     OW30199   4.283   1.957   7.441  0.3514  0.1821 -0.4733
 6189SOL    HW130200   4.349   1.944   7.373  0.9298  2.0245 -0.2726
 6189SOL    HW230201   4.232   1.876   7.434 -1.2756  1.4444 -3.1017
 6190SOL     OW30202   2.797   0.572   9.858 -0.1265  0.2250 -0.8093
 6190SOL    HW130203   2.828   0.663   9.862  1.3363 -0.2748 -0.6056
 6190SOL    HW230204   2.714   0.575   9.811 -1.4223  1.0662  1.5006
 6191SOL     OW30205   3.514   1.421   5.347  0.2308 -0.1025 -0.1762
 6191SOL    HW130206   3.448   1.380   5.403 -0.0954  0.1394 -0.3811
 6191SOL    HW230207   3.517   1.363   5.272  0.8580  1.7967 -1.6327
 6192SOL     OW30208   1.943   2.633   3.867  0.2132 -0.4299 -0.6012
 6192SOL    HW130209   2.024   2.599   3.904  0.6214  0.8814 -0.3137
 6192SOL    HW230210   1.891   2.649   3.946  1.5610  0.0158  0.1867
 6193SOL     OW30211   0.351   1.705   4.156  0.2966 -0.2858  0.3419
 6193SOL    HW130212   0.422   1.680   4.096  0.4060  2.2786 -0.6174
 6193SOL    HW230213   0.351   1.635   4.220  1.5863  0.8174  1.5498
 6194SOL     OW30214   4.349   4.429   2.801 -0.2582  0.2091 -0.1265
 6194SOL    HW130215   4.324   4.464   2.715 -0.5142 -1.4076 -0.7187
 6194SOL    HW230216   4.339   4.336   2.780  0.8601 -0.1801  1.0605
 6195SOL     OW30217   0.597   3.315   6.585  0.0098  0.0791  1.0469
 6195SOL    HW130218   0.600   3.219   6.585  1.6135  0.1162 -0.0012
 6195SOL    HW230219   0.505   3.329   6.604 -0.6404 -0.6579 -1.7148
 6196SOL     OW30220   2.532   2.919   2.762 -0.0779 -0.0643  0.1095
 6196SOL    HW130221   2.466   2.962   2.816 -0.7379 -0.9709  0.0226
 6196SOL    HW230222   2.586   2.991   2.730  1.0194 -1.8604 -2.1022
 6197SOL     OW30223   3.293   2.045   5.304 -0.7306  0.0284 -0.3110
 6197SOL    HW130224   3.314   2.129   5.264 -0.1361 -0.0121 -0.0853
 6197SOL    HW230225   3.244   1.996   5.238  0.2061 -0.0845 -0.9221
 6198SOL     OW30226   4.521   0.651   5.176  0.0461  0.0162 -0.1409
 6198SOL    HW130227   4.519   0.600   5.095  0.5121  1.3348 -0.9788
 6198SOL    HW230228   4.612   0.680   5.175  0.1080 -0.1663 -0.0175
 6199SOL     OW30229   4.308   0.288   6.471  0.1812 -0.3766  0.1493
 6199SOL    HW130230   4.265   0.275   6.387 -0.5045 -0.2037  0.4800
 6199SOL    HW230231   4.251   0.348   6.517 -1.0703 -0.1676 -1.6943
 6200SOL     OW30232   3.529   1.920   8.663 -0.1578  0.5326 -0.4550
 6200SOL    HW130233   3.442   1.905   8.699  0.8060  1.5137  2.2307
 6200SOL    HW230234   3.541   1.866   8.585  1.9255  0.0646  0.1722
 6201SOL     OW30235   4.486   1.620   1.902  0.0428 -0.2213 -0.8113
 6201SOL    HW130236   4.444   1.571   1.973 -0.1110 -0.9807 -1.4297
 6201SOL    HW230237   4.567   1.649   1.944 -1.7299  2.6489  0.7023
 6202SOL     OW30238   4.272   2.483   3.388  0.6257 -0.2490 -0.3377
 6202SOL    HW130239   4.365   2.495   3.367  0.3070  0.6018 -1.3278
 6202SOL    HW230240   4.252   2.392   3.365  0.8815  0.0044 -1.5939
 6203SOL     OW30241   0.175   1.505   9.056 -0.2586 -0.0404 -0.3426
 6203SOL    HW130242   0.094   1.455   9.065 -0.2000 -0.3848 -1.7193
 6203SOL    HW230243   0.139   1.593   9.044 -1.2764 -0.2914  0.8758
 6204SOL     OW30244   1.632   2.291   5.613 -0.1308 -0.1769  0.7649
 6204SOL    HW130245   1.643   2.386   5.601 -0.1413 -0.2319  0.3478
 6204SOL    HW230246   1.550   2.274   5.567 -0.6216  1.7137  0.9141
 6205SOL     OW30247   0.862   2.055   3.794  0.0953  0.3037 -0.2452
 6205SOL    HW130248   0.896   2.137   3.760  2.5880 -1.8253 -2.8965
 6205SOL    HW230249   0.817   2.086   3.873  1.0145  0.9279  0.0231
 6206SOL     OW30250   1.595   2.764   4.520 -0.0320  0.4274 -0.1919
 6206SOL    HW130251   1.614   2.838   4.462  0.5222 -1.1903 -2.0734
 6206SOL    HW230252   1.600   2.804   4.606 -1.6203 -0.4547  0.3128
 6207SOL     OW30253   1.906   2.603  15.122 -0.3089 -0.8874  0.5618
 6207SOL    HW130254   1.819   2.585  15.087 -0.2414  0.9967 -0.5770
 6207SOL    HW230255   1.926   2.523  15.170  0.4469  0.9618  3.2938
 6208SOL     OW30256   2.364   4.510  12.312 -0.0922 -0.0726  0.3480
 6208SOL    HW130257   2.286   4.557  12.282  0.7781  2.0552  1.4254
 6208SOL    HW230258   2.365   4.447  12.240 -0.8287 -0.5106  0.7179
 6209SOL     OW30259   2.821   1.001   5.755 -0.2284 -0.0704  0.4799
 6209SOL    HW130260   2.812   1.065   5.684 -1.4323  0.0996  0.7796
 6209SOL    HW230261   2.740   1.027   5.800 -0.0903 -0.1824  0.7940
 6210SOL     OW30262   3.653   2.739   2.940 -0.0856 -0.2013 -0.0710
 6210SOL    HW130263   3.622   2.702   3.023  0.8031 -1.4784 -0.3006
 6210SOL    HW230264   3.584   2.710   2.880  0.1124 -0.8541  0.0103
 6211SOL     OW30265   1.189   1.147   6.006 -0.2531 -0.4352  0.3034
 6211SOL    HW130266   1.261   1.086   6.021  0.2926  0.6658  2.2477
 6211SOL    HW230267   1.182   1.184   6.094  1.6508 -2.4564  1.2852
 6212SOL     OW30268   4.533   2.286   5.903 -0.0784  0.5285 -0.5460
 6212SOL    HW130269   4.572   2.208   5.941 -3.0303 -0.8125 -0.2455
 6212SOL    HW230270   4.619   2.324   5.884 -0.3610  2.0640  1.2961
 6213SOL     OW30271   1.145   0.790  12.929  0.1664 -0.0361 -0.6780
 6213SOL    HW130272   1.053   0.818  12.932  1.2588  3.7653 -2.3557
 6213SOL    HW230273   1.131   0.717  12.990  0.3746  1.5556  1.2578
 6214SOL     OW30274   3.270   1.635   0.758 -0.5302  0.5941  0.1391
 6214SOL    HW130275   3.219   1.648   0.678 -0.2579 -0.4961 -0.2153
 6214SOL    HW230276   3.202   1.621   0.823 -0.0333 -2.3963 -0.0059
 6215SOL     OW30277   2.865   0.906   4.583 -0.0770 -0.3103 -0.4153
 6215SOL    HW130278   2.819   0.827   4.610 -1.4210 -0.4450 -3.0051
 6215SOL    HW230279   2.919   0.927   4.659  0.7450 -2.7400 -0.3551
 6216SOL     OW30280   0.387   4.426  12.547 -0.1652 -0.3147  0.2489
 6216SOL    HW130281   0.348   4.496  12.495 -0.4960 -0.3715  0.4218
 6216SOL    HW230282   0.311   4.370  12.561 -0.6124  1.0282  3.3519
 6217SOL     OW30283   3.034   3.273   5.442 -0.6301 -0.4053  0.2490
 6217SOL    HW130284   3.102   3.250   5.505  2.6623  1.6965 -2.5617
 6217SOL    HW230285   2.971   3.207   5.472  0.9627 -1.2965  1.6242
 6218SOL     OW30286   0.698   2.211   2.239  0.2437  0.1102  0.2874
 6218SOL    HW130287   0.702   2.283   2.301 -1.6285  1.0959 -0.7595
 6218SOL    HW230288   0.784   2.216   2.197 -0.7571  3.1506 -1.3494
 6219SOL     OW30289   1.408   1.635  16.421 -0.6100 -0.4249  0.6236
 6219SOL    HW130290   1.494   1.673  16.403  0.0194 -1.3981  1.5879
 6219SOL    HW230291   1.385   1.693  16.493  1.5917  0.0976  0.9063
 6220SOL     OW30292   1.569   2.032   3.296  0.4826  0.6424 -0.4624
 6220SOL    HW130293   1.495   1.981   3.262  2.2920 -1.3712 -1.3849
 6220SOL    HW230294   1.615   1.960   3.340  0.4928  0.3497 -0.9552
 6221SOL     OW30295   1.372   2.293  11.513 -0.0695  0.5439 -0.6241
 6221SOL    HW130296   1.372   2.349  11.435 -0.4332  0.1408 -0.9161
 6221SOL    HW230297   1.325   2.214  11.485  3.0152 -1.8837  0.9648
 6222SOL     OW30298   4.723   4.514   7.526  0.1518  0.2633  1.0265
 6222SOL    HW130299   4.673   4.574   7.471  0.8479  0.1381  0.2579
 6222SOL    HW230300   4.661   4.442   7.514  0.1151  0.3285  0.8097
 6223SOL     OW30301   0.022   1.820  16.700  0.2969 -0.0021  0.4332
 6223SOL    HW130302   0.062   1.843  16.616 -0.6168  0.5237  0.1515
 6223SOL    HW230303   4.738   1.906  16.734  1.6699 -0.2143  1.9073
 6224SOL     OW30304   3.115   1.932  16.794 -0.2446  0.6555 -0.1283
 6224SOL    HW130305   3.156   1.966  16.874 -1.3004 -1.5180  1.3296
 6224SOL    HW230306   3.026   1.936  16.828  0.3364 -0.2539  1.4799
 6225SOL     OW30307   1.010   1.589   4.855  0.5283  0.7467  0.0549
 6225SOL    HW130308   1.084   1.532   4.875  0.3412  0.2219 -0.7875
 6225SOL    HW230309   0.946   1.544   4.911  0.5824  0.6830  0.0649
 6226SOL     OW30310   3.464   3.062   4.168 -0.1328 -0.0098 -1.0217
 6226SOL    HW130311   3.398   3.028   4.108 -1.1876  2.7560 -1.4685
 6226SOL    HW230312   3.427   3.030   4.250 -0.5606  1.6210 -0.5665
 6227SOL     OW30313   1.490   1.908  14.939  0.3828 -0.0124 -0.6528
 6227SOL    HW130314   1.542   1.942  15.012 -0.5044  0.1468 -0.1013
 6227SOL    HW230315   1.559   1.881  14.878  0.9169  2.6087 -1.2207
 6228SOL     OW30316   0.880   4.175  15.477  0.6103 -0.7203  1.1501
 6228SOL    HW130317   0.923   4.118  15.541  1.5460  1.3582  2.3597
 6228SOL    HW230318   0.804   4.195  15.532  0.2284 -1.1452  0.7709
 6229SOL     OW30319   2.377   1.790   8.735 -0.4787  0.3407  0.3581
 6229SOL    HW130320   2.391   1.697   8.720 -0.0465  0.5559 -0.5806
 6229SOL    HW230321   2.303   1.792   8.796 -1.5778 -1.7201 -0.8862
 6230SOL     OW30322   0.801   1.311   0.571 -0.0141  0.1273  0.6730
 6230SOL    HW130323   0.762   1.241   0.624  3.0816 -3.0536 -1.2773
 6230SOL    HW230324   0.757   1.387   0.610  2.4108  2.9794 -2.2559
 6231SOL     OW30325   0.369   0.832   4.660  0.2246 -0.3055 -0.3062
 6231SOL    HW130326   0.456   0.822   4.698 -0.1441  0.8900  0.8561
 6231SOL    HW230327   0.322   0.877   4.730  2.0880 -1.6883  1.8356
 6232SOL     OW30328   2.330   4.158  16.772 -0.1490  0.1207 -0.0938
 6232SOL    HW130329   2.263   4.104  16.812  0.2002 -1.4871 -1.6872
 6232SOL    HW230330   2.398   4.101  16.807 -2.3560 -1.9293  0.8613
 6233SOL     OW30331   1.661   3.948   6.812  0.3627  0.6795  0.2421
 6233SOL    HW130332   1.697   4.029   6.775 -0.9259  1.6480  1.0801
 6233SOL    HW230333   1.744   3.902   6.826 -1.7107 -3.3645 -0.7675
 6234SOL     OW30334   3.418   2.928  17.657  0.5081 -0.2568  0.0646
 6234SOL    HW130335   3.339   2.929  17.603  1.4958  2.7905 -1.3062
 6234SOL    HW230336   3.452   3.015  17.638 -0.5865  0.4388  1.3263
 6235SOL     OW30337   3.848   0.012   4.652 -0.1209 -0.0437  0.1519
 6235SOL    HW130338   3.844   4.696   4.575 -0.3226  0.6453 -0.3327
 6235SOL    HW230339   3.896   4.702   4.719  0.6258 -0.7631 -0.9267
 6236SOL     OW30340   4.441   2.277   7.349 -0.1947 -0.3515  0.8707
 6236SOL    HW130341   4.470   2.231   7.270 -1.0636  0.2416  0.2063
 6236SOL    HW230342   4.512   2.249   7.407  0.4992 -0.2370  0.0704
 6237SOL     OW30343   1.386   0.429  14.357  0.0810  0.0392 -0.0122
 6237SOL    HW130344   1.412   0.496  14.293 -0.5196  2.7545  2.5524
 6237SOL    HW230345   1.466   0.428  14.410  1.4110 -0.8819 -2.0546
 6238SOL     OW30346   1.877   0.137   1.852  0.2933 -0.2060 -0.0395
 6238SOL    HW130347   1.808   0.088   1.898  0.7612 -2.7551 -2.0501
 6238SOL    HW230348   1.945   0.071   1.841  0.8643  0.2000  1.0956
 6239SOL     OW30349   3.963   0.237  16.140 -0.1639 -0.6315 -0.4432
 6239SOL    HW130350   4.020   0.309  16.113 -1.0646 -0.3334 -1.5721
 6239SOL    HW230351   3.966   0.164  16.079 -0.8309 -1.3806  0.4047
 6240SOL     OW30352   4.299   0.016  17.753  0.4832  0.2181 -0.2335
 6240SOL    HW130353   4.329   4.721  17.669 -2.8369 -3.1420 -0.0532
 6240SOL    HW230354   4.210   4.721   0.008 -0.1591  1.2580 -2.1409
 6241SOL     OW30355   1.415   1.696   8.849  0.6666 -0.0344 -0.5776
 6241SOL    HW130356   1.330   1.654   8.834  0.4001  0.4823 -0.5270
 6241SOL    HW230357   1.445   1.726   8.764  1.2569 -1.8519 -1.0112
 6242SOL     OW30358   4.627   2.984   6.782 -0.0622 -0.1209  0.0271
 6242SOL    HW130359   4.560   3.051   6.780 -0.6752 -0.7672 -0.8657
 6242SOL    HW230360   4.585   2.921   6.841 -3.6199  1.5651 -0.7394
 6243SOL     OW30361   3.825   2.479   6.599  0.1708 -0.4770  0.5288
 6243SOL    HW130362   3.873   2.512   6.524 -0.2007  2.5031  1.6011
 6243SOL    HW230363   3.846   2.386   6.590  0.7705 -0.2264 -0.5883
 6244SOL     OW30364   4.229   0.581  15.863  0.1357  0.1125  0.1487
 6244SOL    HW130365   4.290   0.520  15.821  0.2622  0.6345 -0.4140
 6244SOL    HW230366   4.189   0.634  15.795  1.4907  1.6286  0.5406
 6245SOL     OW30367   4.044   0.707   6.592 -0.2322 -0.4101  0.0244
 6245SOL    HW130368   4.092   0.741   6.667  1.2057 -0.2435 -0.9881
 6245SOL    HW230369   3.958   0.699   6.634 -0.0378  0.4201  0.5811
 6246SOL     OW30370   3.431   4.671   6.667 -0.0345  0.0058  0.2538
 6246SOL    HW130371   3.368   4.714   6.725  1.0160 -0.4114  1.7099
 6246SOL    HW230372   3.375   4.623   6.606  1.8013 -1.5122 -0.2296
 6247SOL     OW30373   1.159   0.427   4.421 -0.3159  0.3832  0.0323
 6247SOL    HW130374   1.115   0.360   4.474  0.0437 -0.7061 -1.0279
 6247SOL    HW230375   1.210   0.483   4.479  1.7242  1.5918 -2.9545
 6248SOL     OW30376   1.853   2.587   5.694 -0.3286 -0.3454  0.6427
 6248SOL    HW130377   1.882   2.499   5.720  1.0874 -0.2792 -0.6981
 6248SOL    HW230378   1.908   2.637   5.754  2.6610 -0.4776 -1.9793
 6249SOL     OW30379   3.069   2.885  17.299  0.6766  0.5257 -0.0776
 6249SOL    HW130380   3.092   2.901  17.207 -0.8541  3.2517  0.0098
 6249SOL    HW230381   2.975   2.894  17.280  0.8965  2.9769 -0.0013
 6250SOL     OW30382   3.847   4.654   7.554 -0.4065 -0.7324 -0.9719
 6250SOL    HW130383   3.770   4.688   7.599 -2.8511 -3.8034 -2.8923
 6250SOL    HW230384   3.836   4.685   7.464 -0.6424 -2.3965 -1.5070
 6251SOL     OW30385   4.735   0.754   7.113  0.1736  0.1629  0.4912
 6251SOL    HW130386   0.081   0.712   7.117  0.6678  1.1434  0.2838
 6251SOL    HW230387   4.734   0.750   7.208  1.1476  2.2323  0.5929
 6252SOL     OW30388   2.200   3.399   5.510  0.2750  0.0310 -0.3552
 6252SOL    HW130389   2.132   3.376   5.573 -1.0811 -0.9773 -2.1784
 6252SOL    HW230390   2.160   3.476   5.470 -0.1115  0.1020  0.1695
 6253SOL     OW30391   1.828   0.998   9.994 -0.3657 -0.2516  0.4898
 6253SOL    HW130392   1.838   0.980  10.088  2.9474  0.0776  0.1717
 6253SOL    HW230393   1.852   1.090  10.006  0.7371 -0.6673  1.4399
 6254SOL     OW30394   3.758   1.450   3.942  0.4264 -0.2108 -0.0817
 6254SOL    HW130395   3.752   1.457   4.037 -0.2425  0.8472 -0.2024
 6254SOL    HW230396   3.672   1.411   3.923  0.8027  0.6531 -3.5989
 6255SOL     OW30397   3.217   1.446   7.438  0.3964  0.6293  0.3659
 6255SOL    HW130398   3.233   1.359   7.476  3.2826  1.1181  0.2499
 6255SOL    HW230399   3.135   1.433   7.389  1.4568 -0.5320 -1.0931
 6256SOL     OW30400   0.978   2.142   7.849  0.6173 -0.7020 -0.6062
 6256SOL    HW130401   1.013   2.063   7.808 -1.9909 -1.1256 -1.9977
 6256SOL    HW230402   0.911   2.158   7.782  0.2717  0.6304  0.0625
 6257SOL     OW30403   3.822   1.791   4.285  0.2424  0.1465  0.3297
 6257SOL    HW130404   3.802   1.826   4.372  2.7149  1.3963  0.3941
 6257SOL    HW230405   3.839   1.872   4.236  0.1594  0.9488  1.6328
 6258SOL     OW30406   3.475   0.495   8.189 -0.0911 -0.2410 -0.3404
 6258SOL    HW130407   3.556   0.541   8.210 -0.9774  0.7674  0.9106
 6258SOL    HW230408   3.438   0.530   8.270 -0.9723 -1.1298 -0.3501
 6259SOL     OW30409   3.550   0.979   6.419 -0.3226 -0.3548  0.0275
 6259SOL    HW130410   3.616   1.042   6.390 -1.5634  0.7924 -0.3475
 6259SOL    HW230411   3.477   1.040   6.431 -0.1225  0.2520 -1.8518
 6260SOL     OW30412   4.682   0.717  11.460 -0.2251 -0.9291  0.1106
 6260SOL    HW130413   4.681   0.646  11.395  0.5410  1.4792 -2.5377
 6260SOL    HW230414   0.033   0.705  11.488 -0.5057 -4.9131 -0.6274
 6261SOL     OW30415   1.071   0.691   9.584 -0.4337  0.2047 -0.2963
 6261SOL    HW130416   0.982   0.659   9.603 -1.2606  2.1572 -0.9122
 6261SOL    HW230417   1.049   0.783   9.573 -0.7971  0.1362 -0.1684
 6262SOL     OW30418   1.959   1.762   3.885  0.1770  0.1152 -0.0448
 6262SOL    HW130419   1.922   1.847   3.911 -0.7700 -0.9877  2.1932
 6262SOL    HW230420   1.942   1.712   3.965  0.9139 -0.9411 -0.5520
 6263SOL     OW30421   4.465   0.354  10.095 -0.0257 -0.5618  0.0877
 6263SOL    HW130422   4.448   0.408  10.018  1.8209  1.6702  1.2669
 6263SOL    HW230423   4.390   0.385  10.145 -0.3655  2.1765 -2.1444
 6264SOL     OW30424   4.232   0.869  16.919 -0.2608  0.1983 -0.4928
 6264SOL    HW130425   4.176   0.857  16.842  0.4453  1.4168 -1.2080
 6264SOL    HW230426   4.240   0.964  16.933  0.6342  0.2631 -1.4288
 6265SOL     OW30427   3.107   0.837   9.856 -0.2064  0.1854  0.3549
 6265SOL    HW130428   3.102   0.788   9.938  2.2671 -1.2604 -0.3571
 6265SOL    HW230429   3.169   0.782   9.808  0.0433 -0.2578  1.1751
 6266SOL     OW30430   2.902   1.414   7.976 -0.6941  0.0161  0.4618
 6266SOL    HW130431   2.956   1.394   7.899  0.9625 -0.0894  1.6622
 6266SOL    HW230432   2.973   1.445   8.032  0.1733 -0.1825 -0.5125
 6267SOL     OW30433   3.866   4.165   7.425  0.1129  0.0016 -0.5089
 6267SOL    HW130434   3.897   4.232   7.364  0.0855  2.9834  2.7422
 6267SOL    HW230435   3.938   4.145   7.484 -0.9438  1.1910  1.1796
 6268SOL     OW30436   3.317   3.486   0.179  0.1264  0.3152 -0.3719
 6268SOL    HW130437   3.387   3.549   0.162 -0.6960  1.4398  0.3936
 6268SOL    HW230438   3.254   3.551   0.209 -0.0316 -0.2912  0.6204
 6269SOL     OW30439   1.944   4.170  12.309  0.3616 -0.0371  0.1708
 6269SOL    HW130440   2.020   4.227  12.322  0.4248  0.6985 -3.5116
 6269SOL    HW230441   1.913   4.197  12.223  1.5831  0.0550 -0.2341
 6270SOL     OW30442   0.351   0.833   9.489  0.6607  0.1834  0.5744
 6270SOL    HW130443   0.371   0.900   9.555 -0.3346  3.2877 -2.2537
 6270SOL    HW230444   0.396   0.868   9.412  1.7991  0.4334  1.3462
 6271SOL     OW30445   3.732   2.011  15.491  0.7670 -0.1658  0.1226
 6271SOL    HW130446   3.767   2.046  15.573 -1.5066  0.9559  0.6196
 6271SOL    HW230447   3.766   1.923  15.507  1.6715  0.0613 -0.5362
 6272SOL     OW30448   4.016   0.960   6.493 -0.5842  0.2034 -0.5153
 6272SOL    HW130449   4.013   0.867   6.518  0.7128  0.1593 -0.5004
 6272SOL    HW230450   4.111   0.971   6.492 -0.4241 -1.2451 -1.4642
 6273SOL     OW30451   2.791   2.323   6.845 -0.5161  0.0738 -0.5127
 6273SOL    HW130452   2.887   2.334   6.844 -0.5334  0.5231  1.6334
 6273SOL    HW230453   2.769   2.300   6.936  0.1524 -0.9456 -0.6023
 6274SOL     OW30454   2.116   3.301   7.548  0.2375  0.0807 -0.2538
 6274SOL    HW130455   2.034   3.350   7.559 -0.5376 -1.5936  1.3934
 6274SOL    HW230456   2.084   3.210   7.551 -1.9723  0.8288 -0.6965
 6275SOL     OW30457   3.257   0.269   6.280  0.4581 -0.2030  0.2861
 6275SOL    HW130458   3.268   0.175   6.265  3.0027  0.1982 -0.3188
 6275SOL    HW230459   3.304   0.316   6.211 -2.8478  3.0873  0.2392
 6276SOL     OW30460   3.973   2.576   8.284  0.8403 -0.5660 -0.3151
 6276SOL    HW130461   3.895   2.528   8.254 -1.0065  1.7478  0.7911
 6276SOL    HW230462   4.002   2.612   8.200  0.1051  0.4183 -0.1514
 6277SOL     OW30463   0.235   4.010   0.168 -0.5304  0.3738  0.5675
 6277SOL    HW130464   0.293   3.964   0.229  1.8027  0.0644 -1.8930
 6277SOL    HW230465   0.280   3.978   0.090 -1.0842 -1.1502  0.8702
 6278SOL     OW30466   1.737   0.118   6.827  0.3100 -0.1014 -0.2830
 6278SOL    HW130467   1.754   0.072   6.745  0.8072  0.4059 -0.4658
 6278SOL    HW230468   1.819   0.113   6.877 -0.9443 -1.1574  1.6620
 6279SOL     OW30469   4.265   1.511   0.398  0.2807 -0.0890  0.1531
 6279SOL    HW130470   4.210   1.508   0.320 -0.8391  0.0209  0.9353
 6279SOL    HW230471   4.298   1.599   0.380 -1.0502  0.7334  1.7249
 6280SOL     OW30472   4.722   4.410   8.343  0.0665 -0.4471 -0.5248
 6280SOL    HW130473   4.629   4.433   8.345  1.0073  3.2563 -0.0958
 6280SOL    HW230474   0.024   4.488   8.378  2.1075 -1.5111 -0.5836
 6281SOL     OW30475   0.252   2.989  14.120 -0.1669 -0.2141  0.2012
 6281SOL    HW130476   0.181   2.959  14.063 -0.8115 -0.0164  0.9016
 6281SOL    HW230477   0.222   2.968  14.208 -0.7605  0.7205  0.2153
 6282SOL     OW30478   0.861   1.765   3.669 -0.2890  0.4966 -0.3552
 6282SOL    HW130479   0.778   1.716   3.664 -0.8306  1.4715 -1.0061
 6282SOL    HW230480   0.906   1.728   3.593  0.4841  1.6738 -0.4534
 6283SOL     OW30481   0.883   4.184  12.112  0.1696  0.2526 -0.0249
 6283SOL    HW130482   0.903   4.225  12.196 -2.1678  0.4235  0.4503
 6283SOL    HW230483   0.808   4.237  12.086  1.1728  1.8251  0.2756
 6284SOL     OW30484   3.016   4.123   2.999  0.2016  0.0129  0.0949
 6284SOL    HW130485   3.024   4.057   3.067  0.3948 -0.4271 -0.3581
 6284SOL    HW230486   3.088   4.102   2.941 -0.7938 -1.2946 -0.6576
 6285SOL     OW30487   2.773   1.215  16.094  1.5094  0.5187  0.4370
 6285SOL    HW130488   2.845   1.156  16.115  0.2403 -1.1730  0.0558
 6285SOL    HW230489   2.792   1.256  16.010 -2.9007  2.1346  0.1942
 6286SOL     OW30490   0.788   2.234   4.928 -0.1210 -0.2531 -0.2747
 6286SOL    HW130491   0.826   2.261   4.845 -0.3527 -1.8820 -0.9263
 6286SOL    HW230492   0.726   2.171   4.890 -0.4233  0.3933 -0.8532
 6287SOL     OW30493   0.731   2.788   3.271 -0.1649 -0.0683  0.2404
 6287SOL    HW130494   0.719   2.764   3.362 -0.8424 -0.0051  0.1669
 6287SOL    HW230495   0.808   2.846   3.272 -1.4308  1.5937  0.5492
 6288SOL     OW30496   1.327   0.718   2.806 -0.4218  0.0387  0.0481
 6288SOL    HW130497   1.295   0.666   2.880 -0.1201 -0.2579 -0.0305
 6288SOL    HW230498   1.407   0.753   2.847 -0.6288  0.8580 -0.2492
 6289SOL     OW30499   2.964   1.364  11.440 -0.1398  0.0936 -0.1954
 6289SOL    HW130500   2.996   1.453  11.430 -0.0277  0.2237  1.2690
 6289SOL    HW230501   2.961   1.365  11.536  1.2183 -1.1382 -0.1291
 6290SOL     OW30502   4.155   3.496   8.660 -0.2727  0.1768  1.0712
 6290SOL    HW130503   4.148   3.401   8.645  1.7371  0.0807  0.8084
 6290SOL    HW230504   4.180   3.532   8.575 -0.5196  0.4299  1.1069
 6291SOL     OW30505   0.252   0.516   6.684  0.1201  0.5074  0.2848
 6291SOL    HW130506   0.322   0.571   6.649 -0.6824  0.5931 -1.2101
 6291SOL    HW230507   0.198   0.497   6.607  0.8231 -3.3645  0.7329
 6292SOL     OW30508   1.677   1.780   3.297  0.5783  0.1556 -0.3391
 6292SOL    HW130509   1.645   1.744   3.215  1.8539 -1.0562 -0.3209
 6292SOL    HW230510   1.772   1.764   3.301  0.5994  0.1763 -0.8482
 6293SOL     OW30511   3.401   0.849   1.691  1.0686 -0.3575  0.0376
 6293SOL    HW130512   3.425   0.891   1.609 -0.3613 -1.2394 -0.8210
 6293SOL    HW230513   3.350   0.919   1.732 -0.5659 -0.6576 -1.4693
 6294SOL     OW30514   3.194   1.321   3.095  0.0862  0.0299 -0.1121
 6294SOL    HW130515   3.200   1.231   3.063 -0.2028  0.0680 -0.2734
 6294SOL    HW230516   3.195   1.310   3.190 -2.5911 -1.7815 -0.3126
 6295SOL     OW30517   3.296   0.419   1.921 -0.8065 -0.1015 -0.5521
 6295SOL    HW130518   3.335   0.506   1.931 -0.2998 -0.1590 -1.9993
 6295SOL    HW230519   3.367   0.362   1.890 -0.6058  0.8499 -1.8379
 6296SOL     OW30520   3.532   3.848   2.166  0.0240  0.4696 -0.0191
 6296SOL    HW130521   3.470   3.845   2.094 -0.1943 -0.4936  0.2149
 6296SOL    HW230522   3.488   3.907   2.227 -1.0839 -0.3751 -0.0099
 6297SOL     OW30523   1.071   3.892   6.692 -0.5860  0.2890  0.3983
 6297SOL    HW130524   1.064   3.959   6.760 -0.7300 -2.1947  2.8162
 6297SOL    HW230525   1.165   3.881   6.683 -0.8246 -0.8580 -0.6689
 6298SOL     OW30526   3.392   4.040   2.296  0.8829 -0.1967 -0.5566
 6298SOL    HW130527   3.427   4.129   2.306 -1.7987  0.9278 -1.2884
 6298SOL    HW230528   3.312   4.048   2.348  0.1729 -0.2341 -1.6422
 6299SOL     OW30529   0.465   2.673   6.703 -0.3277 -0.4070 -0.2678
 6299SOL    HW130530   0.544   2.643   6.749 -1.0021  1.5556  2.1622
 6299SOL    HW230531   0.431   2.736   6.767 -2.3297  0.9546 -2.6765
 6300SOL     OW30532   2.003   4.599   9.967  0.3225 -0.2289 -0.2821
 6300SOL    HW130533   2.090   4.567   9.943  0.1008 -0.3956 -0.8618
 6300SOL    HW230534   1.998   4.693   9.949  1.3195  0.0747  1.0670
 6301SOL     OW30535   0.595   0.275   6.360  0.0577  0.3321 -0.3999
 6301SOL    HW130536   0.577   0.360   6.401  2.3434  0.8324 -0.4378
 6301SOL    HW230537   0.678   0.301   6.321 -0.5135 -0.7020 -2.2991
 6302SOL     OW30538   3.157   1.601  14.717 -0.9071  0.3100  0.6442
 6302SOL    HW130539   3.063   1.585  14.721 -0.7321 -0.7877  0.5792
 6302SOL    HW230540   3.201   1.529  14.762  0.6112 -0.1352 -1.5366
 6303SOL     OW30541   2.770   2.638  12.800 -0.0964 -0.2456 -0.0466
 6303SOL    HW130542   2.730   2.553  12.782  0.0335 -0.8792  2.6676
 6303SOL    HW230543   2.707   2.697  12.759  0.2924  1.5210  1.8704
 6304SOL     OW30544   4.288   1.196  15.275  0.0567  0.3846  0.6403
 6304SOL    HW130545   4.363   1.226  15.326 -0.0464  0.1361  0.9475
 6304SOL    HW230546   4.274   1.109  15.313  0.7676 -1.2805 -2.9418
 6305SOL     OW30547   4.260   0.891  17.195  0.4524 -0.4565  0.3230
 6305SOL    HW130548   4.257   0.883  17.099 -1.4517  0.1326  0.3310
 6305SOL    HW230549   4.164   0.898  17.202  0.5283 -0.3718  1.2448
 6306SOL     OW30550   1.855   2.333   0.771 -0.3793 -0.0605  0.3950
 6306SOL    HW130551   1.790   2.268   0.744  1.1398 -0.9670 -1.1114
 6306SOL    HW230552   1.937   2.296   0.736 -0.8185  0.1274 -0.8325
 6307SOL     OW30553   1.567   2.039   3.966  0.2223  0.8085 -0.3900
 6307SOL    HW130554   1.513   2.048   3.888 -0.0908  0.3906 -0.2231
 6307SOL    HW230555   1.643   2.091   3.942  0.6652 -0.5374 -1.9077
 6308SOL     OW30556   3.377   1.408   0.398 -0.1030 -0.3606  0.8510
 6308SOL    HW130557   3.323   1.357   0.459 -1.0519 -1.2773 -0.7772
 6308SOL    HW230558   3.404   1.340   0.337  1.5719 -0.2606  1.4751
 6309SOL     OW30559   1.406   3.222  10.689 -0.4213 -0.3107  0.7827
 6309SOL    HW130560   1.360   3.148  10.650 -2.1382  1.1970 -0.0398
 6309SOL    HW230561   1.405   3.280  10.613 -0.5744  0.2442  1.2104
 6310SOL     OW30562   4.073   2.528   3.157 -0.2556 -0.3841  0.2897
 6310SOL    HW130563   4.076   2.543   3.252 -0.9412  2.1233 -0.0799
 6310SOL    HW230564   4.166   2.525   3.135 -0.3934 -0.4537 -0.2664
 6311SOL     OW30565   4.322   1.397   2.444  0.4106  0.0175 -0.1095
 6311SOL    HW130566   4.366   1.481   2.462  2.8218 -0.1673 -5.2791
 6311SOL    HW230567   4.229   1.420   2.440  0.7129  1.0805 -1.2182
 6312SOL     OW30568   4.148   3.981   9.575 -0.3120 -0.7512  0.4034
 6312SOL    HW130569   4.147   3.986   9.671  3.7837  1.9311  0.3028
 6312SOL    HW230570   4.083   4.045   9.548 -1.3394 -1.0245  2.2141
 6313SOL     OW30571   3.425   0.255   3.636 -0.0836 -0.1357 -0.4510
 6313SOL    HW130572   3.450   0.256   3.543  0.7727 -0.1704 -0.2109
 6313SOL    HW230573   3.429   0.347   3.659  0.0482  0.1545 -1.6307
 6314SOL     OW30574   0.981   2.166   0.068 -0.1243  0.2066  0.0965
 6314SOL    HW130575   1.052   2.123   0.115  0.0662  2.3523  1.7700
 6314SOL    HW230576   0.913   2.099   0.068 -1.4514  1.5352 -1.1682
 6315SOL     OW30577   3.613   2.516  11.958 -0.3266  0.2899 -0.0249
 6315SOL    HW130578   3.610   2.551  12.047  1.8032  0.6472 -0.0828
 6315SOL    HW230579   3.664   2.588  11.921 -0.8584  0.5305 -0.2750
 6316SOL     OW30580   3.762   0.906   3.326 -0.2569  0.8724 -0.3063
 6316SOL    HW130581   3.796   0.983   3.372  2.5599 -0.2474 -0.4992
 6316SOL    HW230582   3.738   0.847   3.397  0.0258  0.8675 -0.2164
 6317SOL     OW30583   4.222   1.339   8.810 -0.7101 -0.1599  0.4318
 6317SOL    HW130584   4.147   1.372   8.860  0.0924 -0.9811  2.1836
 6317SOL    HW230585   4.284   1.334   8.883  0.9436 -1.0329 -1.0364
 6318SOL     OW30586   2.973   4.599   7.417 -0.4490 -0.6578  0.1827
 6318SOL    HW130587   3.045   4.559   7.368 -0.5115 -0.7528  0.1671
 6318SOL    HW230588   3.010   4.686   7.432  0.4227 -1.0687  0.4225
 6319SOL     OW30589   4.236   3.104  17.147  0.2198 -0.0196  0.2593
 6319SOL    HW130590   4.263   3.188  17.110 -2.1432  0.1788 -1.0138
 6319SOL    HW230591   4.314   3.082  17.199  0.5970  1.2274  0.2195
 6320SOL     OW30592   0.704   0.255   7.385 -0.1979 -0.5078  0.0703
 6320SOL    HW130593   0.713   0.215   7.472  1.3249 -1.8901 -0.7197
 6320SOL    HW230594   0.623   0.219   7.351 -0.8972 -0.5011  1.7437
 6321SOL     OW30595   3.077   2.259   6.501  0.1810 -0.1463 -0.3987
 6321SOL    HW130596   3.171   2.243   6.492  0.3015 -0.6361  1.5531
 6321SOL    HW230597   3.064   2.302   6.417  0.8847  0.7276 -0.0601
 6322SOL     OW30598   3.522   0.382   7.940  0.2655  0.3068 -0.0874
 6322SOL    HW130599   3.514   0.432   8.021 -0.8491 -2.2880  1.3909
 6322SOL    HW230600   3.442   0.329   7.948  1.2102 -0.6009  3.2064
 6323SOL     OW30601   0.496   1.652   7.349 -0.2274 -0.5580 -0.6981
 6323SOL    HW130602   0.420   1.650   7.291 -0.1090 -3.2937 -0.7222
 6323SOL    HW230603   0.500   1.562   7.381  1.5016  0.2228  1.2562
 6324SOL     OW30604   1.976   1.693  10.224  0.2054 -0.0290 -0.8005
 6324SOL    HW130605   2.053   1.661  10.178  1.5564  0.6224  0.9816
 6324SOL    HW230606   1.937   1.611  10.253  1.9289 -0.0944  1.3573
 6325SOL     OW30607   1.317   2.695   3.918  0.0460  0.4043  0.7059
 6325SOL    HW130608   1.242   2.709   3.976 -0.7265 -1.8049  0.2496
 6325SOL    HW230609   1.363   2.778   3.908  2.6771 -0.8328  2.7851
 6326SOL     OW30610   4.342   3.985   5.244  0.2137 -0.2045 -0.6962
 6326SOL    HW130611   4.266   3.996   5.301  0.0176 -1.5628 -0.6861
 6326SOL    HW230612   4.362   4.077   5.226  1.2611 -0.0223  1.4782
 6327SOL     OW30613   2.559   0.004  12.150  0.4879 -0.5834 -0.3668
 6327SOL    HW130614   2.480   0.017  12.098  1.6201  0.0625 -1.9280
 6327SOL    HW230615   2.610   4.685  12.095 -1.9768 -3.0495 -0.0105
 6328SOL     OW30616   4.310   1.928   3.395 -0.1449  0.0525  0.1480
 6328SOL    HW130617   4.374   1.987   3.435 -0.3730  0.9021 -0.7502
 6328SOL    HW230618   4.267   1.887   3.470  1.0663 -1.4255  0.0506
 6329SOL     OW30619   2.826   3.734   3.606  0.0853 -0.2811  0.7243
 6329SOL    HW130620   2.821   3.692   3.692 -0.9535  1.2724  1.4175
 6329SOL    HW230621   2.749   3.703   3.560 -0.0889 -1.7427  1.9981
 6330SOL     OW30622   3.689   0.001   6.695  0.4614 -0.4891 -0.5897
 6330SOL    HW130623   3.686   0.095   6.677 -2.7589 -0.8200 -1.7901
 6330SOL    HW230624   3.595   4.723   6.698  0.0742  1.8282  0.5484
 6331SOL     OW30625   4.367   4.228   6.311 -0.1085  0.0259  0.5004
 6331SOL    HW130626   4.440   4.280   6.343 -0.6996  1.5629 -0.6360
 6331SOL    HW230627   4.291   4.258   6.361 -0.4355  0.3146 -0.1783
 6332SOL     OW30628   1.479   2.785  10.296 -0.3306 -0.5981 -0.1294
 6332SOL    HW130629   1.479   2.690  10.286  1.0572 -0.2563 -3.3321
 6332SOL    HW230630   1.487   2.786  10.391 -1.1411 -0.7839 -0.0539
 6333SOL     OW30631   1.109   3.449   7.024 -0.0480 -0.2315 -0.0358
 6333SOL    HW130632   1.114   3.406   7.110 -3.1036 -2.0519 -0.7772
 6333SOL    HW230633   1.193   3.424   6.984 -0.3765 -0.4960 -0.5604
 6334SOL     OW30634   2.753   3.079   3.487 -0.6641  0.1589  0.0501
 6334SOL    HW130635   2.705   3.070   3.404  1.4070 -0.2187 -1.0925
 6334SOL    HW230636   2.826   3.134   3.457 -0.7675  0.8174  1.0003
 6335SOL     OW30637   0.143   2.360   5.422  0.1569  0.2611  0.4322
 6335SOL    HW130638   0.055   2.327   5.443 -0.6508  2.0176 -0.1818
 6335SOL    HW230639   0.126   2.443   5.378 -0.9039 -1.0388 -1.5847
 6336SOL     OW30640   2.536   3.620   8.338  0.0183 -1.0129 -0.1436
 6336SOL    HW130641   2.497   3.550   8.389 -0.5080 -0.0249  0.8186
 6336SOL    HW230642   2.573   3.565   8.269  3.4011 -0.5398  1.3178
 6337SOL     OW30643   3.689   2.698  10.428 -0.1374  0.1278  0.4026
 6337SOL    HW130644   3.722   2.610  10.444  0.9832  0.3903 -0.3896
 6337SOL    HW230645   3.765   2.748  10.460  0.8711 -1.5075  0.5559
 6338SOL     OW30646   1.991   0.618   6.675  0.0435 -0.1403  0.1877
 6338SOL    HW130647   2.074   0.578   6.698  1.4666  1.4498 -2.0852
 6338SOL    HW230648   2.026   0.703   6.647 -0.6045  0.4168  1.0737
 6339SOL     OW30649   2.554   0.842   3.647 -0.3817  0.0261  0.2712
 6339SOL    HW130650   2.628   0.828   3.587  0.2668 -2.9409  1.7797
 6339SOL    HW230651   2.598   0.884   3.721 -1.3779 -0.8342  1.3434
 6340SOL     OW30652   4.182   1.840  16.338 -0.0989  0.1265 -0.4395
 6340SOL    HW130653   4.131   1.885  16.405  2.3154  0.6345  1.0412
 6340SOL    HW230654   4.128   1.804  16.268  0.9682  2.1299 -2.2815
 6341SOL     OW30655   1.564   0.607   3.253  0.0415  0.3209  0.0070
 6341SOL    HW130656   1.609   0.532   3.214 -0.4694 -1.2849  2.4830
 6341SOL    HW230657   1.574   0.589   3.347 -1.0372 -1.1855 -0.1703
 6342SOL     OW30658   1.799   2.359   8.792 -0.5734 -0.0863 -0.2443
 6342SOL    HW130659   1.877   2.392   8.748  0.5036 -1.6857  0.4594
 6342SOL    HW230660   1.819   2.399   8.877  1.8598  0.2110 -0.9665
 6343SOL     OW30661   2.485   1.361  10.664 -0.1157  0.3278 -0.2196
 6343SOL    HW130662   2.468   1.434  10.604  1.7449  1.1814  0.2789
 6343SOL    HW230663   2.557   1.401  10.713  0.4410  0.5971 -1.2638
 6344SOL     OW30664   2.836   3.412   6.441  0.1457 -0.1706  0.6831
 6344SOL    HW130665   2.929   3.397   6.460  0.2508 -1.5469 -0.9207
 6344SOL    HW230666   2.791   3.339   6.482  0.9290 -0.6041  0.7667
 6345SOL     OW30667   0.092   2.088   6.399 -0.6538 -0.0524 -0.3043
 6345SOL    HW130668   0.103   2.182   6.387 -0.8902  0.0168  0.0409
 6345SOL    HW230669   0.159   2.055   6.340 -1.1427  1.0966 -1.5166
 6346SOL     OW30670   0.177   2.827   6.060 -0.2929  0.0128  0.0906
 6346SOL    HW130671   0.191   2.867   6.145  1.4031  0.4788 -0.4090
 6346SOL    HW230672   0.269   2.820   6.034 -0.4984  1.6456 -1.0587
 6347SOL     OW30673   3.750   4.681   1.547  0.1787  0.5862 -0.1505
 6347SOL    HW130674   3.796   4.677   1.631 -1.7334 -1.4413  0.7831
 6347SOL    HW230675   3.670   4.639   1.577  1.2687 -1.6791 -0.3790
 6348SOL     OW30676   0.592   4.463   3.011 -0.2071 -0.3962  0.0422
 6348SOL    HW130677   0.633   4.491   2.929 -0.0583 -1.4292 -0.2253
 6348SOL    HW230678   0.657   4.496   3.074 -2.5941  0.5787  1.9678
 6349SOL     OW30679   4.670   0.173  10.028 -0.1416  0.0545  0.2160
 6349SOL    HW130680   4.602   0.239  10.043  0.5592  1.0966 -1.1719
 6349SOL    HW230681   4.690   0.153  10.119  2.8220 -0.6638 -0.5907
 6350SOL     OW30682   0.275   4.708  13.614 -0.2826  0.6497  0.2843
 6350SOL    HW130683   0.314   4.716  13.701  0.4606  0.9522 -0.0743
 6350SOL    HW230684   0.278   0.064  13.601 -3.5969  0.6866 -0.0669
 6351SOL     OW30685   2.463   2.380   8.715 -0.1787  0.4557  0.2718
 6351SOL    HW130686   2.503   2.456   8.672 -0.0778  0.2084 -0.0754
 6351SOL    HW230687   2.451   2.327   8.636 -0.6009 -0.4854  0.9659
 6352SOL     OW30688   3.395   4.638   8.359  0.3544 -0.4058  0.7141
 6352SOL    HW130689   3.314   4.641   8.308  0.2053  2.8387  1.1705
 6352SOL    HW230690   3.409   4.728   8.389  2.1232  0.2625 -2.1611
 6353SOL     OW30691   1.886   0.915   6.378 -0.1295  0.0239  0.1068
 6353SOL    HW130692   1.829   0.961   6.440 -0.0355 -0.0979  0.2847
 6353SOL    HW230693   1.969   0.951   6.409  1.1020 -1.5561 -1.3483
 6354SOL     OW30694   0.240   3.540   7.662  0.3292 -0.2659  0.0684
 6354SOL    HW130695   0.156   3.586   7.665  0.1190 -0.6144 -0.4715
 6354SOL    HW230696   0.219   3.471   7.726  1.4990  0.1345  0.8824
 6355SOL     OW30697   2.548   2.793  12.714  0.1323 -0.3880 -0.3466
 6355SOL    HW130698   2.509   2.879  12.698 -0.6364 -0.6815 -0.0714
 6355SOL    HW230699   2.467   2.743  12.724 -1.4170  2.0972 -0.5845
 6356SOL     OW30700   2.671   4.322   1.906  0.4021  0.0486  0.1595
 6356SOL    HW130701   2.679   4.417   1.897 -1.1070  0.0191 -1.4775
 6356SOL    HW230702   2.601   4.312   1.842  1.2264 -1.2630 -0.5331
 6357SOL     OW30703   3.873   4.256   7.946 -0.1045  1.0434  0.2863
 6357SOL    HW130704   3.789   4.269   7.902  1.2479  2.3337 -1.8971
 6357SOL    HW230705   3.853   4.243   8.039 -2.2045  0.6308 -0.2339
 6358SOL     OW30706   0.835   4.124  15.925 -0.1297  0.3844 -0.6258
 6358SOL    HW130707   0.835   4.211  15.965  1.6451  0.5964 -1.0657
 6358SOL    HW230708   0.907   4.134  15.863  0.6469  0.2421  0.2648
 6359SOL     OW30709   0.328   3.930   6.635  0.2635 -0.2143 -0.0482
 6359SOL    HW130710   0.333   3.965   6.546 -0.0958  3.3854  1.3312
 6359SOL    HW230711   0.233   3.925   6.645 -0.0180  2.9867 -1.1163
 6360SOL     OW30712   1.275   0.515   4.045  0.3906  0.1016  0.0183
 6360SOL    HW130713   1.303   0.543   3.958  1.0413  0.9534  0.5006
 6360SOL    HW230714   1.211   0.580   4.074  0.9215  0.0986  1.1746
 6361SOL     OW30715   3.178   2.016  17.051 -0.0771 -0.6562  0.5060
 6361SOL    HW130716   3.228   2.040  17.129  1.3944  1.5707 -1.1470
 6361SOL    HW230717   3.144   1.930  17.078 -0.1633 -0.6421  0.4431
 6362SOL     OW30718   2.331   0.059  12.034 -0.3163 -0.0694 -0.3124
 6362SOL    HW130719   2.250   0.019  12.066 -0.9198 -1.1713 -3.2555
 6362SOL    HW230720   2.314   0.152  12.052  1.7897 -0.1652  2.1593
 6363SOL     OW30721   4.068   0.621  15.640 -0.5894 -0.5064  0.6413
 6363SOL    HW130722   4.122   0.590  15.568  0.9958  2.0160  0.7374
 6363SOL    HW230723   4.045   0.706  15.602  1.1816 -0.1060  0.4938
 6364SOL     OW30724   3.924   0.500  13.089 -0.5230 -0.4191  0.2873
 6364SOL    HW130725   4.009   0.469  13.057 -0.6669 -0.9335  0.4153
 6364SOL    HW230726   3.928   0.590  13.056 -0.4219 -0.8827 -0.9596
 6365SOL     OW30727   4.523   0.431   8.904 -0.5493 -0.6527  0.2570
 6365SOL    HW130728   4.522   0.409   8.997 -1.5174 -1.6355  0.0163
 6365SOL    HW230729   4.558   0.519   8.918 -1.2731 -0.3606  0.2259
 6366SOL     OW30730   1.465   2.387   9.290 -0.1376  0.7353 -0.4188
 6366SOL    HW130731   1.433   2.461   9.238 -0.1256  1.7248  0.9536
 6366SOL    HW230732   1.495   2.422   9.374  1.0520  1.5395 -1.1801
 6367SOL     OW30733   1.085   3.461   2.398  0.0809  0.1025 -0.5535
 6367SOL    HW130734   1.081   3.556   2.382  0.6977  0.0102 -1.2496
 6367SOL    HW230735   1.002   3.441   2.441  0.4016  2.7451  1.2993
 6368SOL     OW30736   0.547   0.803   2.789  0.1548 -0.1444 -0.4799
 6368SOL    HW130737   0.590   0.774   2.870  0.7803  0.6763 -0.5157
 6368SOL    HW230738   0.499   0.876   2.827  2.0725  1.2179 -0.6836
 6369SOL     OW30739   2.388   2.208   8.494  0.8949 -0.2040  0.1061
 6369SOL    HW130740   2.387   2.192   8.400  1.4129  0.4028 -0.0024
 6369SOL    HW230741   2.413   2.122   8.527 -0.5743 -0.7190 -0.1013
 6370SOL     OW30742   0.981   1.601   9.864  0.5044 -0.3905  0.4462
 6370SOL    HW130743   1.009   1.676   9.916  1.1793 -0.5763  0.3496
 6370SOL    HW230744   0.903   1.581   9.916  0.1296  3.3096  1.2757
 6371SOL     OW30745   0.968   2.294   8.156 -0.2480  0.5571 -0.3587
 6371SOL    HW130746   1.013   2.251   8.084 -2.0017 -1.0619 -0.4972
 6371SOL    HW230747   0.879   2.262   8.141 -0.8673  1.4541  1.4252
 6372SOL     OW30748   0.653   1.345   3.839  0.5074  0.2415 -0.2384
 6372SOL    HW130749   0.671   1.301   3.922 -2.8666 -1.5290 -0.4282
 6372SOL    HW230750   0.713   1.291   3.787  2.0865  1.4567  0.3128
 6373SOL     OW30751   2.555   1.121   1.255 -0.4690 -0.0704 -0.5287
 6373SOL    HW130752   2.577   1.206   1.293  0.0018 -1.3507  2.1212
 6373SOL    HW230753   2.621   1.109   1.186  1.2002 -0.8472  1.1781
 6374SOL     OW30754   1.158   2.534  10.430 -0.0249 -0.4830 -0.5400
 6374SOL    HW130755   1.185   2.537  10.338 -0.7959  1.2754 -0.7030
 6374SOL    HW230756   1.243   2.530  10.475 -0.7937  2.4106  1.1416
 6375SOL     OW30757   4.122   0.068   9.197  0.6757 -0.3876 -0.4321
 6375SOL    HW130758   4.101   4.715   9.192 -0.3189 -0.3341  3.0192
 6375SOL    HW230759   4.176   0.067   9.276  1.9251  1.0086 -1.2612
 6376SOL     OW30760   3.574   4.443   4.375 -0.6419 -0.0393 -0.0574
 6376SOL    HW130761   3.570   4.348   4.368  0.0077 -0.1231  0.6177
 6376SOL    HW230762   3.608   4.456   4.287  0.1541  0.8541  0.3783
 6377SOL     OW30763   2.623   4.114   8.068 -0.0544 -0.3834 -0.1031
 6377SOL    HW130764   2.708   4.079   8.044  0.6741 -0.5584  2.7019
 6377SOL    HW230765   2.630   4.151   8.156 -1.4625 -1.3642  0.4276
 6378SOL     OW30766   2.624   1.389   6.970 -0.1652 -0.4047  0.2429
 6378SOL    HW130767   2.610   1.393   7.065 -0.8022  1.6030  0.0695
 6378SOL    HW230768   2.592   1.476   6.945 -0.2661 -0.8591 -1.1985
 6379SOL     OW30769   2.942   2.008   8.066 -0.5239  0.1129 -0.2125
 6379SOL    HW130770   2.998   2.075   8.105  0.3549  0.8029 -2.6457
 6379SOL    HW230771   2.960   2.010   7.972 -0.0051  1.4175 -0.0941
 6380SOL     OW30772   4.387   0.363   5.537 -0.6366 -0.7389  0.3223
 6380SOL    HW130773   4.334   0.310   5.595 -0.0266  0.6483  2.1458
 6380SOL    HW230774   4.472   0.353   5.580 -1.0437  2.0297  1.7856
 6381SOL     OW30775   2.241   0.296   5.584  0.5278  0.0730  0.1526
 6381SOL    HW130776   2.284   0.355   5.645  2.7071 -1.2033 -0.1554
 6381SOL    HW230777   2.177   0.352   5.539 -0.2079 -3.4961 -3.3269
 6382SOL     OW30778   4.728   3.409   5.029  0.7680  0.6386  0.2235
 6382SOL    HW130779   0.053   3.344   5.002 -1.2900 -1.9279  1.4738
 6382SOL    HW230780   4.693   3.370   5.110 -1.6321  1.1488 -0.5834
 6383SOL     OW30781   2.916   3.656   6.386 -0.1096 -0.2588 -0.2028
 6383SOL    HW130782   2.824   3.666   6.409 -0.1286 -1.7609  0.3198
 6383SOL    HW230783   2.924   3.564   6.362  0.2406  0.0129 -1.1326
 6384SOL     OW30784   0.040   0.078  13.827  0.2777  0.6122 -0.4974
 6384SOL    HW130785   0.131   0.059  13.804  0.6590 -0.2481  1.7488
 6384SOL    HW230786   0.050   0.143  13.896 -0.9737  2.0605 -1.6703
 6385SOL     OW30787   1.064   0.402   7.455 -0.6130  0.2645  0.3120
 6385SOL    HW130788   1.131   0.350   7.501 -2.0782 -1.7389  0.1817
 6385SOL    HW230789   1.094   0.492   7.468  1.8064 -0.3216 -1.0539
 6386SOL     OW30790   4.570   1.475   4.283 -0.1858 -0.2821 -0.2711
 6386SOL    HW130791   4.626   1.422   4.227  1.5922 -0.1271  1.3875
 6386SOL    HW230792   4.629   1.541   4.320  0.3261 -2.3374  2.5152
 6387SOL     OW30793   0.993   0.769   7.362  0.4788 -0.0725 -0.2140
 6387SOL    HW130794   0.914   0.720   7.385  0.4306  0.4036  0.6266
 6387SOL    HW230795   0.992   0.837   7.429 -1.3230 -1.6732  1.3852
 6388SOL     OW30796   3.884   1.647  16.830  0.7546  0.2327  0.0785
 6388SOL    HW130797   3.951   1.627  16.896  1.1531  0.7161 -0.1859
 6388SOL    HW230798   3.811   1.613  16.882 -0.4356  0.3095 -1.5287
 6389SOL     OW30799   3.175   2.947   8.142  0.2812 -0.3194  0.0414
 6389SOL    HW130800   3.130   3.018   8.189 -2.1929  0.2983 -3.3137
 6389SOL    HW230801   3.132   2.972   8.061 -2.4552 -4.4172  0.2847
 6390SOL     OW30802   2.228   1.907   2.956 -0.1486 -0.1578  0.4163
 6390SOL    HW130803   2.183   1.847   2.897 -3.8304  0.8769  2.1469
 6390SOL    HW230804   2.297   1.845   2.977 -1.5202 -1.4677  1.0610
 6391SOL     OW30805   2.043   4.062   3.235  0.4731 -0.0928  0.0493
 6391SOL    HW130806   1.949   4.053   3.247  0.3486  0.7655 -0.2311
 6391SOL    HW230807   2.051   4.082   3.141 -1.1754 -2.7922 -0.6519
 6392SOL     OW30808   0.788   0.581   4.052  0.2386  0.2252  0.4517
 6392SOL    HW130809   0.821   0.563   3.963  2.5927  1.5870  1.0370
 6392SOL    HW230810   0.866   0.619   4.092 -0.1211  0.5274  0.8634
 6393SOL     OW30811   4.295   4.132   6.840  0.0008 -0.3328  0.0364
 6393SOL    HW130812   4.207   4.168   6.831  0.4854  1.1058  1.0169
 6393SOL    HW230813   4.352   4.205   6.819  1.1504 -1.2661 -0.0571
 6394SOL     OW30814   2.699   1.245  14.634  0.5500 -0.0782  0.1747
 6394SOL    HW130815   2.782   1.213  14.669 -0.0047  1.5984  3.0795
 6394SOL    HW230816   2.725   1.307  14.566 -0.4867  1.4184  1.1401
 6395SOL     OW30817   3.172   2.800   1.541  0.3966  0.2790  0.2825
 6395SOL    HW130818   3.200   2.744   1.468 -1.9750 -1.9483  1.0855
 6395SOL    HW230819   3.195   2.751   1.620  2.6016 -0.4461 -0.8058
 6396SOL     OW30820   2.048   4.229  16.754 -0.4376 -0.4224 -0.5158
 6396SOL    HW130821   2.003   4.263  16.831  1.9841  0.5282  0.4927
 6396SOL    HW230822   2.096   4.304  16.717  1.7638 -0.0795  3.0392
 6397SOL     OW30823   3.931   0.234   4.412 -0.0266 -0.1466  0.2800
 6397SOL    HW130824   3.968   0.159   4.366 -0.4066  0.8567 -1.6695
 6397SOL    HW230825   3.939   0.302   4.345  1.0090 -0.6601 -0.1220
 6398SOL     OW30826   1.477   2.950  11.210 -0.1575 -0.3433 -0.2436
 6398SOL    HW130827   1.559   2.934  11.258 -0.1123  0.9835  0.1156
 6398SOL    HW230828   1.499   2.944  11.117 -3.6774  0.6653 -1.1160
 6399SOL     OW30829   3.566   4.337   5.180 -0.1429 -0.1657  0.5051
 6399SOL    HW130830   3.585   4.429   5.164 -0.0863 -0.1918  0.4223
 6399SOL    HW230831   3.601   4.293   5.103  3.1411 -0.5161  2.1710
 6400SOL     OW30832   4.046   0.899   7.408 -0.3012 -0.7612 -0.5167
 6400SOL    HW130833   4.048   0.849   7.327 -1.4314 -2.0428  0.2477
 6400SOL    HW230834   4.044   0.985   7.365  1.0717 -0.0030  0.9024
 6401SOL     OW30835   3.648   3.718   4.207 -0.4130 -0.2634 -0.4699
 6401SOL    HW130836   3.646   3.701   4.113  2.3640  0.4218 -0.6251
 6401SOL    HW230837   3.560   3.692   4.234  0.3653  0.8258  3.1556
 6402SOL     OW30838   0.004   3.506   6.141 -0.1391 -0.0232 -0.3865
 6402SOL    HW130839   0.003   3.596   6.107  1.3020  0.6924  1.4900
 6402SOL    HW230840   4.683   3.456   6.086 -0.6391  1.6883 -1.4087
 6403SOL     OW30841   0.347   2.373   3.420 -0.7194 -0.1349 -0.2712
 6403SOL    HW130842   0.287   2.435   3.461 -0.1988  0.1277  0.0957
 6403SOL    HW230843   0.335   2.302   3.484  2.2414  0.3659  0.8529
 6404SOL     OW30844   1.785   3.653   5.242  0.1319  0.1336  1.1307
 6404SOL    HW130845   1.731   3.608   5.307 -0.4011 -0.0190  0.5852
 6404SOL    HW230846   1.817   3.583   5.186 -0.0781  0.1147  1.0372
 6405SOL     OW30847   1.623   3.861   5.100  0.3320  0.3385  0.6818
 6405SOL    HW130848   1.659   3.819   5.178 -2.7419 -1.9049  0.8987
 6405SOL    HW230849   1.694   3.853   5.037  0.9723  0.3020  1.4045
 6406SOL     OW30850   3.091   1.987   2.662  0.2052  0.1830 -0.6197
 6406SOL    HW130851   3.027   2.057   2.674  2.1496  2.0110 -0.8997
 6406SOL    HW230852   3.091   1.958   2.753  2.3352  2.4175  0.0969
 6407SOL     OW30853   2.924   0.853   8.345  0.1323 -0.5429  0.1139
 6407SOL    HW130854   2.840   0.882   8.310 -0.2381 -0.3104  1.1949
 6407SOL    HW230855   2.960   0.798   8.275  1.5209  0.9234 -0.3113
 6408SOL     OW30856   2.400   1.374   6.577 -0.5857  0.4420  0.4411
 6408SOL    HW130857   2.489   1.347   6.555 -0.6613  0.9016 -0.4109
 6408SOL    HW230858   2.391   1.344   6.668  0.0925  0.4141  0.4961
 6409SOL     OW30859   2.048   2.047   3.791  0.0341  0.0817 -0.1854
 6409SOL    HW130860   2.013   2.128   3.755  0.2944  0.7781  1.1346
 6409SOL    HW230861   2.016   2.054   3.882 -1.7547 -0.8859 -0.7394
 6410SOL     OW30862   3.577   1.116   8.806  0.3838 -0.1409  0.1262
 6410SOL    HW130863   3.502   1.057   8.813  2.0861 -2.1416  1.7098
 6410SOL    HW230864   3.650   1.055   8.818  1.1406  0.5248 -1.0850
 6411SOL     OW30865   1.845   2.388   7.259  0.2098  0.3231 -0.1942
 6411SOL    HW130866   1.829   2.349   7.173  1.7550  0.7838 -0.6848
 6411SOL    HW230867   1.803   2.473   7.245 -0.3056  0.3301  1.4623
 6412SOL     OW30868   1.753   2.749   2.569 -0.5244  0.1103  0.3207
 6412SOL    HW130869   1.669   2.796   2.566 -0.4919  0.1784  0.4775
 6412SOL    HW230870   1.738   2.668   2.520 -0.3666  1.1869 -1.5132
 6413SOL     OW30871   3.075   2.595   3.135  0.1826  0.4719  0.6361
 6413SOL    HW130872   3.020   2.561   3.065  0.4962  1.7958 -0.2577
 6413SOL    HW230873   3.139   2.632   3.074 -0.6226  1.6320  0.5112
 6414SOL     OW30874   1.122   1.042   2.306 -0.5007 -0.1233 -0.1556
 6414SOL    HW130875   1.103   0.977   2.373  0.3030  0.0297  0.2151
 6414SOL    HW230876   1.168   0.985   2.244 -0.7594 -0.0878 -0.3820
 6415SOL     OW30877   3.330   0.821   7.324 -0.1423  0.0453 -0.0321
 6415SOL    HW130878   3.341   0.729   7.346 -1.2018  0.1456  0.9315
 6415SOL    HW230879   3.308   0.857   7.410  0.4595 -0.9884  0.5584
 6416SOL     OW30880   0.514   3.566   7.685  0.5963  0.6133  0.1109
 6416SOL    HW130881   0.521   3.481   7.729  1.1649  1.0111  0.7854
 6416SOL    HW230882   0.419   3.580   7.691  0.9106  2.1571  1.3161
 6417SOL     OW30883   2.915   1.299  17.202  0.3333  0.3749  0.1521
 6417SOL    HW130884   2.963   1.292  17.120 -0.7367  2.3170 -0.6243
 6417SOL    HW230885   2.827   1.282  17.169  0.1662 -1.0107  1.2976
 6418SOL     OW30886   4.228   1.965  16.101  0.5004  0.3717  0.0437
 6418SOL    HW130887   4.205   1.929  16.187 -1.5135  1.2463 -0.1270
 6418SOL    HW230888   4.320   1.990  16.113  0.6310 -1.8159  3.3859
 6419SOL     OW30889   1.905   0.603   3.266 -0.0163  0.3675  0.3819
 6419SOL    HW130890   1.901   0.516   3.306 -0.4386 -0.0555 -0.5823
 6419SOL    HW230891   1.995   0.622   3.241 -0.2821  1.0263 -0.0636
 6420SOL     OW30892   1.221   2.905  10.948 -0.9850  0.0897 -0.0153
 6420SOL    HW130893   1.215   2.829  10.890 -0.0790 -0.7092  0.9246
 6420SOL    HW230894   1.311   2.934  10.931 -1.5132 -0.6485 -4.2024
 6421SOL     OW30895   1.117   3.512   7.468  0.0601  0.1476 -0.5275
 6421SOL    HW130896   1.096   3.530   7.559  0.7878  1.6813 -0.6646
 6421SOL    HW230897   1.160   3.591   7.434  0.9825 -0.9638 -1.9368
 6422SOL     OW30898   4.316   4.711   8.558 -0.2664 -0.8068  0.3530
 6422SOL    HW130899   4.254   0.004   8.492  0.5269  2.3212  1.1330
 6422SOL    HW230900   4.351   0.058   8.579 -1.2053 -0.5592  0.8808
 6423SOL     OW30901   3.109   4.177   6.357  0.0392  0.8847 -0.6253
 6423SOL    HW130902   3.201   4.161   6.381 -0.3599 -0.4027  0.0472
 6423SOL    HW230903   3.091   4.092   6.318 -3.4565  1.3196  0.0302
 6424SOL     OW30904   2.021   2.164  16.983 -0.1384  0.3967  0.1839
 6424SOL    HW130905   1.968   2.085  16.970 -0.1621  0.3647  0.4653
 6424SOL    HW230906   2.049   2.190  16.896  1.8574 -0.3123  0.6123
 6425SOL     OW30907   1.640   2.844   3.474 -0.0808 -0.2688  0.3807
 6425SOL    HW130908   1.695   2.875   3.546 -1.9909  0.0345  1.6953
 6425SOL    HW230909   1.704   2.838   3.403  0.2936  1.6253  0.5525
 6426SOL     OW30910   4.017   1.869  10.255  0.6807 -0.1142  0.4125
 6426SOL    HW130911   4.049   1.849  10.167  1.6321  1.9188  0.2872
 6426SOL    HW230912   4.079   1.833  10.319  1.9554  0.1908 -0.6568
 6427SOL     OW30913   1.514   1.210   8.584 -0.4149  0.1116  0.0939
 6427SOL    HW130914   1.522   1.238   8.492  0.2264 -1.8420 -0.4471
 6427SOL    HW230915   1.472   1.290   8.614 -0.3378  0.0303  0.4139
 6428SOL     OW30916   1.520   1.803   4.126  0.0888  0.4972  0.3911
 6428SOL    HW130917   1.514   1.878   4.068 -2.2676 -0.4375 -0.5501
 6428SOL    HW230918   1.615   1.809   4.142 -0.0597 -0.2213  1.5547
 6429SOL     OW30919   4.437   3.306  13.690  0.1346 -0.2627 -0.0243
 6429SOL    HW130920   4.354   3.324  13.645 -0.7275 -1.0137  1.2332
 6429SOL    HW230921   4.423   3.364  13.766  1.2349 -0.3558  0.2433
 6430SOL     OW30922   2.298   0.209  15.830 -0.2054 -0.0982  0.5858
 6430SOL    HW130923   2.203   0.215  15.833 -0.0598  2.6984  0.2782
 6430SOL    HW230924   2.304   0.151  15.754 -3.5697  0.6314 -0.2293
 6431SOL     OW30925   4.068   1.086   0.970  0.6460 -0.6396  0.4083
 6431SOL    HW130926   4.020   1.115   1.047  0.5916  0.2154  0.0508
 6431SOL    HW230927   4.023   1.003   0.956 -1.4398  0.3460  1.3382
 6432SOL     OW30928   0.349   4.063   8.061  0.0528  0.2132 -0.1067
 6432SOL    HW130929   0.294   4.105   7.995 -2.7267  1.4651  2.9878
 6432SOL    HW230930   0.288   3.994   8.087  0.4806 -0.3636 -0.6422
 6433SOL     OW30931   1.621   0.426  14.471  0.2706 -0.4797  0.6088
 6433SOL    HW130932   1.625   0.332  14.491 -1.3200 -0.4592  0.9962
 6433SOL    HW230933   1.680   0.466  14.534  0.4607 -2.1714  1.5153
 6434SOL     OW30934   4.666   3.052   2.926 -0.7969  0.1775 -0.3976
 6434SOL    HW130935   0.019   3.076   2.925 -0.8243  0.2202 -2.1564
 6434SOL    HW230936   4.662   3.031   2.833 -2.3158 -0.7147 -0.1337
 6435SOL     OW30937   3.398   2.315  14.930 -0.1415 -0.4557  0.4456
 6435SOL    HW130938   3.372   2.406  14.943  0.2008 -0.5291  1.7187
 6435SOL    HW230939   3.364   2.276  15.011 -0.3167 -1.8329 -0.2874
 6436SOL     OW30940   1.374   3.789  14.161  0.1470 -0.0048  0.1564
 6436SOL    HW130941   1.468   3.794  14.142  0.2868 -2.2858  0.2510
 6436SOL    HW230942   1.347   3.705  14.125  0.4501  0.1235 -0.3600
 6437SOL     OW30943   3.793   0.565   5.208 -0.0654 -0.3489  0.4940
 6437SOL    HW130944   3.803   0.621   5.285  0.3078 -0.0377  0.2163
 6437SOL    HW230945   3.878   0.557   5.164  0.1820 -0.8713  1.0489
 6438SOL     OW30946   4.374   2.294   8.770 -0.3497  0.4485  0.1681
 6438SOL    HW130947   4.398   2.303   8.678 -0.3391  0.1472  0.1431
 6438SOL    HW230948   4.368   2.199   8.777  0.4783  0.3982  0.1404
 6439SOL     OW30949   0.269   1.744   7.723 -0.2453  0.5713 -0.5961
 6439SOL    HW130950   0.348   1.691   7.709 -0.7904 -0.5857  0.7488
 6439SOL    HW230951   0.227   1.746   7.637 -1.0831 -0.6906 -0.2078
 6440SOL     OW30952   3.967   4.255   2.648  0.3939  0.3355 -0.6968
 6440SOL    HW130953   3.911   4.328   2.621 -0.7063 -0.2424  0.0537
 6440SOL    HW230954   3.917   4.180   2.616 -1.2904  0.8202  0.8340
 6441SOL     OW30955   0.145   0.346  17.177 -0.0040  0.0322  0.0763
 6441SOL    HW130956   0.210   0.394  17.126 -0.0427  0.9704  0.9160
 6441SOL    HW230957   0.183   0.337  17.264 -0.4211  0.1921  0.2769
 6442SOL     OW30958   4.243   0.307   9.429  0.3185  0.0725 -0.6678
 6442SOL    HW130959   4.253   0.212   9.418  0.7874  0.1067 -0.5551
 6442SOL    HW230960   4.321   0.341   9.385  0.6188 -0.2875 -0.4200
 6443SOL     OW30961   3.261   0.189   9.297 -0.5626  0.4461  0.1123
 6443SOL    HW130962   3.290   0.125   9.232 -1.8855 -1.4928  1.4457
 6443SOL    HW230963   3.227   0.263   9.247 -0.8031  0.1830 -0.1148
 6444SOL     OW30964   3.903   4.136   8.955 -0.1821 -0.3125 -0.3796
 6444SOL    HW130965   3.968   4.090   8.901 -1.0056 -1.5188 -0.3365
 6444SOL    HW230966   3.817   4.101   8.931 -0.5328  0.0221  0.4017
 6445SOL     OW30967   0.528   4.061   1.275  0.1541  0.2607 -0.0346
 6445SOL    HW130968   0.594   4.064   1.205  0.1605 -0.8614 -0.0803
 6445SOL    HW230969   0.477   3.984   1.249  0.1006  0.4162 -0.3995
 6446SOL     OW30970   0.961   1.984   9.223  0.4646  0.4184 -0.2631
 6446SOL    HW130971   0.998   1.950   9.141  2.4128 -1.1340  1.2435
 6446SOL    HW230972   0.998   2.072   9.221  0.3024  0.5458  2.1345
 6447SOL     OW30973   0.678   3.412   5.767 -0.4306  0.4859 -0.3258
 6447SOL    HW130974   0.618   3.484   5.747 -2.5648 -1.1091  0.2851
 6447SOL    HW230975   0.719   3.438   5.850  0.8235  0.5771 -0.9824
 6448SOL     OW30976   1.840   0.616   8.329 -0.2394 -0.1813 -0.7099
 6448SOL    HW130977   1.833   0.522   8.312  1.4786 -0.5508  0.6791
 6448SOL    HW230978   1.912   0.614   8.392 -0.9330  1.3187  0.1244
 6449SOL     OW30979   2.524   3.975   4.651 -0.0606  0.4377 -0.2329
 6449SOL    HW130980   2.548   4.067   4.639  1.6905  0.2222  1.5824
 6449SOL    HW230981   2.474   3.972   4.570  1.5029  0.3552 -1.1988
 6450SOL     OW30982   2.116   3.125  10.354  0.5863  0.1476 -0.0273
 6450SOL    HW130983   2.162   3.133  10.270  0.4320 -0.6473 -0.1835
 6450SOL    HW230984   2.029   3.131  10.314  0.0004  0.8038  1.3241
 6451SOL     OW30985   0.487   2.090   2.413 -0.0180  0.2219 -0.4753
 6451SOL    HW130986   0.569   2.137   2.397  1.0184 -0.3184  3.2158
 6451SOL    HW230987   0.506   1.996   2.412 -0.0885  0.1816  1.1598
 6452SOL     OW30988   4.663   1.283  17.672 -0.5571 -0.6994  0.1310
 6452SOL    HW130989   4.654   1.191  17.646  0.5825 -0.9622  0.6702
 6452SOL    HW230990   0.016   1.309  17.666 -0.5613 -0.6381  0.3327
 6453SOL     OW30991   2.282   3.231   1.946  0.7043  0.7988 -0.0427
 6453SOL    HW130992   2.265   3.190   1.861 -1.5719 -0.3024  0.9359
 6453SOL    HW230993   2.376   3.221   1.959  0.2760 -2.1690  0.7759
 6454SOL     OW30994   1.261   3.879   4.231  0.4656  0.2639  0.7571
 6454SOL    HW130995   1.201   3.829   4.176  0.8391 -1.4473  1.9325
 6454SOL    HW230996   1.206   3.956   4.245 -0.5021  0.0259 -1.6603
 6455SOL     OW30997   1.861   4.001   9.177  0.1446  0.2478  0.1442
 6455SOL    HW130998   1.953   3.987   9.199  0.2164  2.5811  1.4088
 6455SOL    HW230999   1.818   3.920   9.203 -2.8437  1.5941 -0.6054
 6456SOL     OW31000   4.172   1.486  11.749  0.7221 -0.4481  0.3867
 6456SOL    HW131001   4.252   1.445  11.782  1.0656 -1.1977 -1.4123
 6456SOL    HW231002   4.112   1.426  11.793  0.5669 -0.8531 -0.3982
 6457SOL     OW31003   3.755   2.704  16.695 -0.2455  0.2682  0.4955
 6457SOL    HW131004   3.737   2.637  16.630 -1.9472  1.0968  0.1196
 6457SOL    HW231005   3.677   2.696  16.749  0.6924  1.5900  2.0523
 6458SOL     OW31006   1.828   2.727   7.793  0.4902 -0.2231 -0.2191
 6458SOL    HW131007   1.802   2.758   7.707 -3.3327  1.3914  1.4956
 6458SOL    HW231008   1.921   2.748   7.794  1.3621 -3.9449 -2.2133
 6459SOL     OW31009   1.489   0.444  10.929  0.0481  0.1261  0.1268
 6459SOL    HW131010   1.524   0.466  10.843  0.2363  1.2026  0.4726
 6459SOL    HW231011   1.405   0.402  10.910 -1.1489  0.9836  3.4438
 6460SOL     OW31012   3.115   1.636  16.834 -0.3601  0.5127  0.1092
 6460SOL    HW131013   3.134   1.721  16.794 -2.2425  1.3519  1.0474
 6460SOL    HW231014   3.205   1.605  16.821  0.0617  2.9593 -2.8386
 6461SOL     OW31015   1.562   3.179   9.086  0.1535  0.1601 -0.1562
 6461SOL    HW131016   1.527   3.156   9.172 -0.8182 -1.6541 -1.0455
 6461SOL    HW231017   1.500   3.239   9.044 -0.1730 -0.0521  0.0265
 6462SOL     OW31018   0.778   1.611  13.301 -0.1882  0.0626 -0.6149
 6462SOL    HW131019   0.820   1.625  13.216  1.2554 -1.6688 -0.1984
 6462SOL    HW231020   0.794   1.694  13.345 -2.0265 -1.0133  2.0554
 6463SOL     OW31021   3.326   1.065   9.368 -0.2088 -0.0734  0.5281
 6463SOL    HW131022   3.261   1.125   9.333 -2.0256 -1.7534  0.9996
 6463SOL    HW231023   3.295   1.042   9.456 -0.3230 -0.6291  0.3426
 6464SOL     OW31024   2.772   1.698   5.650  0.5937 -0.1246  0.3813
 6464SOL    HW131025   2.805   1.737   5.731 -0.1104  1.8744 -0.2791
 6464SOL    HW231026   2.843   1.635   5.639  0.7810  0.4553 -1.7903
 6465SOL     OW31027   0.142   1.554   0.979  0.1751 -0.2071 -0.6922
 6465SOL    HW131028   0.103   1.498   0.912 -1.0621  1.5122 -1.4104
 6465SOL    HW231029   0.077   1.562   1.049 -0.7279  1.3618 -1.7214
 6466SOL     OW31030   3.054   3.886   6.901  0.8090  0.4684 -0.4763
 6466SOL    HW131031   3.011   3.935   6.972  1.0947 -0.2428  0.1847
 6466SOL    HW231032   3.021   3.928   6.822  1.8356 -0.5495 -1.4410
 6467SOL     OW31033   1.053   4.584   3.775 -0.4765  0.1275 -0.1486
 6467SOL    HW131034   0.993   4.647   3.735 -0.5716 -0.5062 -1.0080
 6467SOL    HW231035   1.087   4.625   3.854 -1.7016 -1.2087  1.0791
 6468SOL     OW31036   3.824   1.839   7.791 -0.4850 -0.1411 -0.1413
 6468SOL    HW131037   3.802   1.774   7.725  0.2625  1.4239 -1.9334
 6468SOL    HW231038   3.741   1.885   7.804 -2.7068 -3.9276 -0.9061
 6469SOL     OW31039   0.194   3.150   6.696 -0.0403 -0.5357 -0.2386
 6469SOL    HW131040   0.134   3.118   6.628 -1.5008  1.3675  0.1623
 6469SOL    HW231041   0.169   3.106   6.777  1.1878  1.5676  1.2756
 6470SOL     OW31042   0.861   2.000  15.289 -0.0996  0.2468 -0.1835
 6470SOL    HW131043   0.916   1.948  15.231 -1.2546  1.1329 -2.0629
 6470SOL    HW231044   0.922   2.020  15.361 -1.4430  1.3408  0.6432
 6471SOL     OW31045   4.600   2.129   4.393 -0.1345 -0.2919  0.2886
 6471SOL    HW131046   4.661   2.182   4.444 -1.2777  1.6321 -0.3453
 6471SOL    HW231047   4.606   2.043   4.436 -1.4526  0.3211  1.7084
 6472SOL     OW31048   1.332   0.881   8.442 -0.7083 -0.2650  0.1354
 6472SOL    HW131049   1.271   0.942   8.483 -0.7687 -0.1161 -0.1757
 6472SOL    HW231050   1.322   0.900   8.348 -2.6363  1.9674  0.8105
 6473SOL     OW31051   0.608   0.107  12.177 -0.0258  0.3129  0.3641
 6473SOL    HW131052   0.547   0.059  12.234 -0.6337  0.4290 -0.1945
 6473SOL    HW231053   0.685   0.113  12.234 -1.0788 -0.7110  1.9028
 6474SOL     OW31054   2.643   4.688   7.432  0.1747 -0.0468 -0.0547
 6474SOL    HW131055   2.580   4.722   7.368  1.3861 -0.9506 -1.7421
 6474SOL    HW231056   2.720   0.005   7.423  1.2426 -1.6520 -0.9231
 6475SOL     OW31057   3.396   0.419   2.285  0.6717  0.1328  0.7293
 6475SOL    HW131058   3.484   0.384   2.271 -0.2705 -3.2920  3.5476
 6475SOL    HW231059   3.361   0.333   2.305  0.0762  0.1900 -0.1001
 6476SOL     OW31060   1.686   2.412   3.634  0.2002 -0.0606 -0.1884
 6476SOL    HW131061   1.727   2.497   3.615 -1.5281  1.5091  3.2373
 6476SOL    HW231062   1.607   2.438   3.681  0.6636  2.2673 -0.7056
 6477SOL     OW31063   2.575   4.127  13.799 -0.3818 -0.0330  0.6291
 6477SOL    HW131064   2.491   4.164  13.774  0.6992  1.2232 -1.2245
 6477SOL    HW231065   2.633   4.136  13.723  0.5955 -0.6485  1.2975
 6478SOL     OW31066   4.529   0.698   6.564 -0.5473  0.1668 -0.3014
 6478SOL    HW131067   4.505   0.631   6.501 -2.7472  1.0961 -0.4449
 6478SOL    HW231068   4.475   0.770   6.532  0.1060  0.7579 -0.0774
 6479SOL     OW31069   0.424   4.201  10.179  0.2537  0.6690 -0.1294
 6479SOL    HW131070   0.358   4.147  10.136  0.3990  0.1234  0.3310
 6479SOL    HW231071   0.473   4.127  10.214 -0.4830 -0.2773 -1.0820
 6480SOL     OW31072   0.196   1.930  14.918  0.1211 -0.7279 -0.0054
 6480SOL    HW131073   0.196   1.867  14.990  0.6189  0.4826  1.0562
 6480SOL    HW231074   0.181   2.002  14.979 -1.2090 -1.3577  0.4014
 6481SOL     OW31075   3.967   4.608   6.745 -0.1514  0.2152 -0.9222
 6481SOL    HW131076   3.877   4.641   6.750 -0.2822 -0.7164  2.7638
 6481SOL    HW231077   3.960   4.563   6.829  1.3051 -1.5462 -1.7534
 6482SOL     OW31078   3.192   1.025   3.999  0.3225 -0.2032 -0.4432
 6482SOL    HW131079   3.132   1.089   4.037  0.7100 -0.0781 -0.0423
 6482SOL    HW231080   3.145   0.948   4.031  2.6880 -1.1974  0.6391
 6483SOL     OW31081   2.371   0.111   3.404  0.0715  0.2135 -0.3923
 6483SOL    HW131082   2.297   0.121   3.464  0.1223  1.2654 -0.4964
 6483SOL    HW231083   2.424   0.183   3.437 -0.7548  1.1514 -1.1174
 6484SOL     OW31084   3.078   4.150  12.178 -0.0120  0.3715  0.1746
 6484SOL    HW131085   3.003   4.188  12.224 -0.0771  1.2585 -0.6573
 6484SOL    HW231086   3.048   4.123  12.091  2.0791  2.5096 -1.2270
 6485SOL     OW31087   3.574   0.763   3.154  0.4526  0.2035  0.2705
 6485SOL    HW131088   3.656   0.718   3.133 -0.7475 -2.1586  0.6311
 6485SOL    HW231089   3.607   0.847   3.186  1.7182 -0.4407  0.6406
 6486SOL     OW31090   4.134   2.728   8.126  0.2126 -0.0778  0.1871
 6486SOL    HW131091   4.078   2.803   8.103 -1.2291 -1.0797  0.4327
 6486SOL    HW231092   4.164   2.753   8.213  0.2872  2.9475 -0.7005
 6487SOL     OW31093   1.611   0.397   7.531  0.0783  0.4051 -0.3201
 6487SOL    HW131094   1.587   0.488   7.517 -2.9410 -0.3456 -0.0407
 6487SOL    HW231095   1.523   0.360   7.537 -0.1616  0.7364 -1.8154
 6488SOL     OW31096   4.367   3.330  17.061  0.3889 -0.8690 -0.5764
 6488SOL    HW131097   4.441   3.344  17.119  1.4073 -0.5137 -1.9439
 6488SOL    HW231098   4.392   3.397  16.998  0.4175  1.7895  2.3019
 6489SOL     OW31099   0.336   1.470   5.078  0.6186 -0.2893 -0.4044
 6489SOL    HW131100   0.389   1.393   5.102  0.5180 -0.1217  0.3714
 6489SOL    HW231101   0.253   1.440   5.042 -0.5962  3.2723 -0.5759
 6490SOL     OW31102   2.346   4.347   1.363  0.6834 -0.5391 -0.6066
 6490SOL    HW131103   2.405   4.403   1.313 -0.7339 -1.9069 -3.7801
 6490SOL    HW231104   2.355   4.388   1.449  1.4430  1.3140 -1.5798
 6491SOL     OW31105   0.836   1.457   6.211  0.6382  0.2976 -0.1014
 6491SOL    HW131106   0.856   1.421   6.125 -0.7277 -0.4319 -0.1269
 6491SOL    HW231107   0.868   1.382   6.261  1.3991  0.5344 -0.2371
 6492SOL     OW31108   0.630   4.139   5.145  0.8775 -0.7204  0.4205
 6492SOL    HW131109   0.640   4.083   5.222  3.4728 -0.7959  0.0162
 6492SOL    HW231110   0.589   4.086   5.077  2.3163  1.5821 -2.2569
 6493SOL     OW31111   3.361   3.884   5.750 -0.2931 -0.1928 -0.0673
 6493SOL    HW131112   3.413   3.813   5.787 -2.1317 -0.9983  0.9732
 6493SOL    HW231113   3.418   3.900   5.674 -0.5571  1.7231  0.1438
 6494SOL     OW31114   2.400   3.683  13.729  0.1883 -0.1303  0.2900
 6494SOL    HW131115   2.481   3.732  13.745  1.2793 -2.1806  1.0366
 6494SOL    HW231116   2.340   3.757  13.718  1.6373  1.1604  1.0767
 6495SOL     OW31117   4.325   1.512  11.413 -0.1347 -0.0344 -0.0279
 6495SOL    HW131118   4.372   1.562  11.346 -0.1107 -0.4195 -0.2989
 6495SOL    HW231119   4.323   1.427  11.369  1.1737 -0.3647  0.5430
 6496SOL     OW31120   2.242   2.832  10.749  0.0421 -0.7086  0.5628
 6496SOL    HW131121   2.233   2.848  10.655 -2.1526 -0.4609  0.8134
 6496SOL    HW231122   2.152   2.813  10.774 -0.5845 -0.4782 -1.5464
 6497SOL     OW31123   4.253   4.307   7.459 -0.3300  0.0858  0.5079
 6497SOL    HW131124   4.175   4.270   7.418 -1.2838  1.4920  1.0454
 6497SOL    HW231125   4.280   4.370   7.391  0.5198  0.0614  0.8170
 6498SOL     OW31126   4.390   0.973   2.198  0.3848  0.2133 -0.1106
 6498SOL    HW131127   4.355   1.062   2.207 -1.4874 -0.8301  3.1309
 6498SOL    HW231128   4.414   0.955   2.289 -3.5570 -1.1849  0.6428
 6499SOL     OW31129   4.605   4.464  15.453 -0.2443  0.5176 -0.7366
 6499SOL    HW131130   4.555   4.385  15.435  1.3529 -0.4687 -0.8479
 6499SOL    HW231131   4.687   4.422  15.479 -0.7292 -0.7621 -1.2995
 6500SOL     OW31132   3.659   3.780   5.074 -0.2815 -0.3305  0.2809
 6500SOL    HW131133   3.578   3.798   5.026 -0.6616 -0.4417  0.8801
 6500SOL    HW231134   3.720   3.849   5.045  0.0760 -1.1614 -0.9433
 6501SOL     OW31135   2.002   2.167  10.355 -0.0279  0.1798  0.1597
 6501SOL    HW131136   2.000   2.215  10.437 -1.8595  0.7750 -0.2502
 6501SOL    HW231137   2.039   2.239  10.303 -0.1732 -0.4205 -0.7811
 6502SOL     OW31138   0.399   3.280  14.312 -0.4584 -0.0114 -0.4213
 6502SOL    HW131139   0.322   3.291  14.369 -0.3267 -0.5342 -0.1462
 6502SOL    HW231140   0.440   3.366  14.327 -0.1829 -0.4553  1.2992
 6503SOL     OW31141   4.376   4.549   9.296  0.2875 -0.2813  0.0805
 6503SOL    HW131142   4.355   4.457   9.313 -2.6334  0.8897  2.8905
 6503SOL    HW231143   4.302   4.564   9.237 -2.2629 -1.3488  2.9971
 6504SOL     OW31144   3.434   2.621   3.515  0.2608  0.3086  0.7437
 6504SOL    HW131145   3.391   2.588   3.436 -0.5118  2.4916  0.2739
 6504SOL    HW231146   3.393   2.554   3.571 -1.2131  1.0863  0.6004
 6505SOL     OW31147   4.005   0.022  14.957 -0.2355  0.5046 -0.1543
 6505SOL    HW131148   4.056   0.020  15.038 -0.0554 -1.8255 -0.3281
 6505SOL    HW231149   3.917   4.733  14.980  0.3290 -0.0183  1.3316
 6506SOL     OW31150   1.565   0.244  16.750 -0.3423  0.1539 -0.2490
 6506SOL    HW131151   1.612   0.268  16.829 -1.2860 -3.1215  1.2952
 6506SOL    HW231152   1.511   0.173  16.786  1.4740 -0.9281  0.3133
 6507SOL     OW31153   2.350   1.918  17.007 -0.0134 -0.0120  0.3252
 6507SOL    HW131154   2.400   1.998  16.995 -2.0374  1.8345  4.3617
 6507SOL    HW231155   2.282   1.919  16.941  1.2332  0.9012 -0.9300
 6508SOL     OW31156   3.448   3.534   4.314  0.0739 -0.0114 -0.5246
 6508SOL    HW131157   3.522   3.478   4.337  0.5476  0.4258 -0.9757
 6508SOL    HW231158   3.388   3.460   4.320 -0.2786  0.3742  0.7619
 6509SOL     OW31159   4.681   0.897   0.621  0.3862 -0.1916 -0.3220
 6509SOL    HW131160   4.623   0.867   0.551  0.5477  1.2373 -1.0633
 6509SOL    HW231161   0.026   0.905   0.578  0.6510 -1.1148  0.0459
 6510SOL     OW31162   2.561   0.722   7.685  0.3941 -0.2466 -0.0298
 6510SOL    HW131163   2.515   0.802   7.660  0.0706 -0.1106  1.0014
 6510SOL    HW231164   2.475   0.683   7.698 -0.3252  2.1536  2.4323
 6511SOL     OW31165   1.271   1.495   5.460 -0.2373  0.4202 -0.9063
 6511SOL    HW131166   1.194   1.537   5.497  0.1646  1.3132 -1.0727
 6511SOL    HW231167   1.288   1.442   5.538  0.0399  1.4193 -0.2862
 6512SOL     OW31168   4.508   2.171   6.612  0.5670  0.0490  0.1474
 6512SOL    HW131169   4.439   2.160   6.546  2.1959 -0.6501 -1.4373
 6512SOL    HW231170   4.556   2.242   6.570  0.4293 -1.0059 -1.8118
 6513SOL     OW31171   2.515   4.028   0.768 -0.6559  0.4814  0.5108
 6513SOL    HW131172   2.558   4.058   0.689 -0.6399 -2.7140 -0.6979
 6513SOL    HW231173   2.422   4.041   0.748 -0.4797 -0.4063 -0.8804
 6514SOL     OW31174   2.738   3.583  13.750  0.4072 -0.6568 -0.8281
 6514SOL    HW131175   2.683   3.657  13.775 -0.1399 -0.5147 -2.4591
 6514SOL    HW231176   2.694   3.517  13.805 -0.0481  0.5017  0.1850
 6515SOL     OW31177   1.023   2.180   3.086  0.6839 -0.2529 -0.6584
 6515SOL    HW131178   1.076   2.258   3.099  0.6931  0.1332 -2.9769
 6515SOL    HW231179   1.028   2.176   2.990 -0.3103  1.6472 -0.7948
 6516SOL     OW31180   0.344   2.926   3.390 -0.1193  0.1635 -0.8606
 6516SOL    HW131181   0.361   2.908   3.482 -0.0331  0.9998 -0.7140
 6516SOL    HW231182   0.400   2.872   3.335 -0.2364 -2.5193  1.7060
 6517SOL     OW31183   0.709   0.462   3.118 -0.5996 -0.1825  0.2211
 6517SOL    HW131184   0.665   0.377   3.117 -0.3783 -0.2713 -1.3267
 6517SOL    HW231185   0.801   0.436   3.121 -0.1124  1.5271  0.3450
 6518SOL     OW31186   1.139   1.228  12.176  0.0865 -0.4471 -0.7235
 6518SOL    HW131187   1.192   1.207  12.253 -2.6317  0.9685  1.5012
 6518SOL    HW231188   1.102   1.315  12.192  0.5944 -0.3091 -0.2867
 6519SOL     OW31189   3.658   0.476   4.929 -0.1192  0.5208 -0.0718
 6519SOL    HW131190   3.683   0.482   5.021  0.4007 -1.3888 -0.0707
 6519SOL    HW231191   3.662   0.566   4.898  0.5067 -0.0667 -1.6845
 6520SOL     OW31192   1.166   0.160   5.672  0.1372  0.0993 -0.0485
 6520SOL    HW131193   1.192   0.077   5.712 -0.9929 -0.5023 -0.5774
 6520SOL    HW231194   1.229   0.167   5.601 -0.3798  0.1701 -0.4973
 6521SOL     OW31195   2.803   3.463   8.447  0.3613 -0.0149  0.4492
 6521SOL    HW131196   2.718   3.498   8.470 -0.0369 -0.1483 -0.8196
 6521SOL    HW231197   2.865   3.534   8.463 -0.2857  0.7120 -0.2394
 6522SOL     OW31198   3.802   0.387   0.959 -0.0277  0.5907 -0.4821
 6522SOL    HW131199   3.706   0.383   0.957 -0.0812  0.3290  2.5519
 6522SOL    HW231200   3.813   0.396   1.053 -1.8354 -0.7147 -0.1553
 6523SOL     OW31201   3.491   0.702  14.372 -0.4483 -0.2270 -0.3827
 6523SOL    HW131202   3.439   0.633  14.330 -0.0048  0.4308 -2.0101
 6523SOL    HW231203   3.572   0.681  14.326 -0.8028 -0.7765 -0.7619
 6524SOL     OW31204   0.036   2.599   5.963 -0.0793  0.2412  0.1587
 6524SOL    HW131205   0.101   2.655   6.006 -0.6557  1.2758 -0.3141
 6524SOL    HW231206   4.698   2.656   5.966  0.1584  0.4661  1.8664
 6525SOL     OW31207   4.130   2.840   1.993 -0.2233 -0.1322  0.5178
 6525SOL    HW131208   4.034   2.834   1.991 -0.2948  0.5021  2.0348
 6525SOL    HW231209   4.144   2.773   2.059  0.3874 -0.8785 -0.3727
 6526SOL     OW31210   2.244   0.245  10.024 -0.4208  0.1192 -0.3846
 6526SOL    HW131211   2.272   0.278  10.109  0.7138 -0.2607 -0.6041
 6526SOL    HW231212   2.330   0.230   9.985 -0.7359  1.5886 -1.6614
 6527SOL     OW31213   0.236   0.704   4.996 -0.5308 -0.1257 -0.5650
 6527SOL    HW131214   0.242   0.646   5.072  1.2042  2.7076  1.4787
 6527SOL    HW231215   0.246   0.642   4.924  0.8757  2.0597 -2.2522
 6528SOL     OW31216   4.574   3.686   8.511  0.2221 -0.6475 -0.1077
 6528SOL    HW131217   4.582   3.620   8.442  2.2661  1.5176 -1.9524
 6528SOL    HW231218   4.547   3.628   8.583 -0.5754  0.9810  0.8917
 6529SOL     OW31219   0.720   2.424   6.399 -0.2933 -0.6757  0.3050
 6529SOL    HW131220   0.750   2.337   6.426  0.3067 -1.4860 -2.9719
 6529SOL    HW231221   0.784   2.452   6.333 -1.7142  0.7454 -0.4649
 6530SOL     OW31222   1.632   1.682  10.843  0.2035 -0.3823 -0.2411
 6530SOL    HW131223   1.637   1.778  10.848  0.3231 -0.3938 -0.1490
 6530SOL    HW231224   1.543   1.676  10.808 -0.4463  0.0286  1.3403
 6531SOL     OW31225   4.316   1.017  14.462 -0.0350 -0.4635 -0.5600
 6531SOL    HW131226   4.343   1.099  14.422 -2.2215  1.7340  2.4658
 6531SOL    HW231227   4.225   1.017  14.431  0.1548 -1.0436 -1.1286
 6532SOL     OW31228   0.235   0.827   5.583  0.0724  0.6917  0.0133
 6532SOL    HW131229   0.244   0.758   5.517 -0.0948 -1.2725  2.0520
 6532SOL    HW231230   0.324   0.848   5.609  0.6163 -0.2625 -1.0922
 6533SOL     OW31231   4.517   0.764   1.744 -0.1772 -0.2012 -0.2217
 6533SOL    HW131232   4.521   0.788   1.837 -2.7344 -0.9905  0.0914
 6533SOL    HW231233   4.612   0.771   1.729 -0.0039 -2.6011 -0.2107
 6534SOL     OW31234   3.482   0.327   0.714 -0.2828 -0.0568 -0.6064
 6534SOL    HW131235   3.424   0.394   0.752  3.1693  2.6968 -0.1392
 6534SOL    HW231236   3.544   0.368   0.653 -1.4284 -1.3550 -2.6406
 6535SOL     OW31237   1.457   1.661  12.753  0.1369  0.1430  0.1379
 6535SOL    HW131238   1.387   1.633  12.694 -0.0398  1.1627 -0.1296
 6535SOL    HW231239   1.465   1.595  12.821 -1.0676  0.9831  1.0702
 6536SOL     OW31240   4.558   3.923   2.436 -0.0929 -0.0316  0.1910
 6536SOL    HW131241   4.554   3.932   2.341 -2.4239 -1.5437  0.1468
 6536SOL    HW231242   4.468   3.905   2.465 -0.1280  0.6071  0.4809
 6537SOL     OW31243   4.430   0.722   7.473 -0.0389 -0.2840 -0.6416
 6537SOL    HW131244   4.354   0.707   7.529  0.8204 -0.1003  0.6035
 6537SOL    HW231245   4.387   0.751   7.393 -1.1054  2.4145  0.9318
 6538SOL     OW31246   1.130   1.672   2.791  0.1472  0.5122  0.1287
 6538SOL    HW131247   1.095   1.692   2.878 -2.6515 -0.6190 -0.7594
 6538SOL    HW231248   1.089   1.586   2.784  1.7721 -0.0762 -1.9159
 6539SOL     OW31249   3.356   3.365   6.916 -0.1697  0.3418 -0.7027
 6539SOL    HW131250   3.452   3.366   6.920 -0.1620 -0.9930 -0.3061
 6539SOL    HW231251   3.340   3.447   6.871 -1.1192  0.2984 -0.4337
 6540SOL     OW31252   1.882   1.433   8.335  0.1918  0.3440  0.2718
 6540SOL    HW131253   1.800   1.476   8.311 -0.9524 -1.2031  1.4062
 6540SOL    HW231254   1.912   1.489   8.406  0.5648 -2.6734  2.5023
 6541SOL     OW31255   2.926   3.906   7.154 -0.2900 -0.4801  0.3692
 6541SOL    HW131256   3.010   3.923   7.196 -0.3166  2.7786 -0.8701
 6541SOL    HW231257   2.888   3.845   7.217 -0.1302 -1.0610 -0.1042
 6542SOL     OW31258   3.958   4.130   4.790 -0.7089  0.5875  0.1695
 6542SOL    HW131259   4.053   4.123   4.789 -0.8481 -1.2293  0.0587
 6542SOL    HW231260   3.945   4.209   4.842 -2.6668  0.0675  0.4803
 6543SOL     OW31261   4.642   0.095   6.418 -0.8403 -0.5025  0.8126
 6543SOL    HW131262   4.728   0.129   6.442 -1.9261  2.0222  1.1780
 6543SOL    HW231263   4.611   0.164   6.358  1.5201  0.5188  0.7579
 6544SOL     OW31264   2.051   1.865   6.285 -0.0774  0.0799 -0.5270
 6544SOL    HW131265   2.138   1.836   6.256  0.6003  2.2056 -0.5725
 6544SOL    HW231266   2.022   1.794   6.343  1.5282  0.6145  0.9469
 6545SOL     OW31267   3.218   3.751   4.065 -0.0366 -0.3258  0.1814
 6545SOL    HW131268   3.174   3.727   4.147 -0.3425  1.2182  0.4716
 6545SOL    HW231269   3.197   3.676   4.010  1.3910  0.3757 -1.3396
 6546SOL     OW31270   0.203   1.501   6.196  0.1506  0.2281 -0.7907
 6546SOL    HW131271   0.122   1.536   6.233  0.8753 -0.4454  1.4919
 6546SOL    HW231272   0.194   1.410   6.225 -2.3079  0.5356 -0.5968
 6547SOL     OW31273   1.035   1.280   6.700  0.4487  0.4417  0.0516
 6547SOL    HW131274   1.024   1.207   6.638 -0.9553 -0.8565  1.8260
 6547SOL    HW231275   0.987   1.232   6.767 -0.7013  2.0200  0.3517
 6548SOL     OW31276   1.849   0.259   2.119  0.4555 -0.0563  0.1927
 6548SOL    HW131277   1.913   0.330   2.121 -0.2944  0.6105  0.2781
 6548SOL    HW231278   1.777   0.299   2.070 -0.5547 -1.0930  0.8385
 6549SOL     OW31279   2.308   2.566   8.426  0.1841 -0.4257  0.2352
 6549SOL    HW131280   2.403   2.565   8.412 -0.0889  0.4428 -1.7496
 6549SOL    HW231281   2.280   2.529   8.342  0.8481 -0.2855 -0.0474
 6550SOL     OW31282   4.488   2.193   2.005  0.4747 -0.2208  0.0433
 6550SOL    HW131283   4.440   2.198   1.922  0.1673 -3.2639  0.0305
 6550SOL    HW231284   4.531   2.279   1.999  0.1633 -0.1093 -0.6773
 6551SOL     OW31285   4.566   3.782  13.180 -0.2633 -1.1124 -0.4576
 6551SOL    HW131286   4.638   3.751  13.235 -1.3038 -1.3900  0.7578
 6551SOL    HW231287   4.550   3.700  13.134 -0.4627 -0.3368 -1.7509
 6552SOL     OW31288   3.449   1.797  17.738 -0.0986  0.3544  0.3251
 6552SOL    HW131289   3.520   1.746  17.700  1.0159  0.1527  2.6602
 6552SOL    HW231290   3.380   1.789  17.672 -1.8437  0.1881  2.1629
 6553SOL     OW31291   1.654   2.936  16.764  0.6133  0.4817 -0.2943
 6553SOL    HW131292   1.698   3.018  16.742 -2.0137  1.0886 -3.2560
 6553SOL    HW231293   1.572   2.958  16.720  1.0692  4.8959  1.1061
 6554SOL     OW31294   1.006   0.800   2.400  0.3472  0.4375  0.2332
 6554SOL    HW131295   0.983   0.729   2.340 -0.4861 -0.2281  1.3210
 6554SOL    HW231296   1.055   0.754   2.468 -0.3936  0.2413  0.6313
 6555SOL     OW31297   0.679   2.102   6.492  0.0886 -0.0949  0.3844
 6555SOL    HW131298   0.764   2.140   6.510  0.5500 -2.1795  2.6334
 6555SOL    HW231299   0.646   2.100   6.581  2.6647  2.0157  1.3825
 6556SOL     OW31300   0.389   3.321   9.279 -0.2427 -0.1449 -0.7653
 6556SOL    HW131301   0.417   3.231   9.264 -0.1540 -0.0108 -1.4317
 6556SOL    HW231302   0.471   3.369   9.268 -1.0530  0.9472 -2.2264
 6557SOL     OW31303   3.484   1.654  12.252  0.2682  0.1902  0.5900
 6557SOL    HW131304   3.397   1.659  12.291  1.3282 -0.2518  2.9669
 6557SOL    HW231305   3.492   1.747  12.230 -0.9739  0.7753  2.6713
 6558SOL     OW31306   4.010   1.781   4.049 -0.0132  0.0520 -0.0307
 6558SOL    HW131307   4.058   1.699   4.039  3.7209  2.3318 -0.6152
 6558SOL    HW231308   4.029   1.795   4.142  1.1260  0.6491 -0.3498
 6559SOL     OW31309   1.684   0.780   5.829 -0.1171  0.0232 -0.3666
 6559SOL    HW131310   1.763   0.833   5.835  0.0691 -0.4371  1.1310
 6559SOL    HW231311   1.648   0.811   5.746  1.4185  0.2826 -0.9411
 6560SOL     OW31312   4.101   1.613  12.989 -0.0357  0.5195 -0.0084
 6560SOL    HW131313   4.024   1.669  12.991 -0.6864 -0.3207 -1.3101
 6560SOL    HW231314   4.117   1.600  12.895 -0.0868 -0.8745  0.1774
 6561SOL     OW31315   2.542   1.133   8.882  0.4264 -0.0423  0.0732
 6561SOL    HW131316   2.602   1.119   8.809 -1.0125  0.1414 -1.1456
 6561SOL    HW231317   2.561   1.226   8.894 -1.9923  0.2507  1.5733
 6562SOL     OW31318   1.343   2.905  11.880  0.4042  1.0905 -0.0970
 6562SOL    HW131319   1.429   2.876  11.909 -0.8829 -0.9808  1.6602
 6562SOL    HW231320   1.289   2.917  11.958  0.3391  1.7291 -0.2403
 6563SOL     OW31321   3.238   2.532   4.131  0.3854  0.3205  0.7067
 6563SOL    HW131322   3.151   2.571   4.137  0.3624  0.3801  0.0017
 6563SOL    HW231323   3.283   2.572   4.205  0.5850 -1.8189  1.7540
 6564SOL     OW31324   0.425   2.190   4.938 -0.1411  0.8745 -0.1990
 6564SOL    HW131325   0.342   2.151   4.964  0.6622 -0.4276  0.4205
 6564SOL    HW231326   0.477   2.171   5.015 -1.4035 -0.6199  0.2795
 6565SOL     OW31327   3.608   4.028  15.602 -1.0177 -0.4131 -0.4702
 6565SOL    HW131328   3.513   4.036  15.608 -0.9691 -1.3683  1.2780
 6565SOL    HW231329   3.645   4.104  15.556  0.8902 -1.3351 -0.4471
 6566SOL     OW31330   1.177   2.663   9.894 -0.9463  0.1810  0.5204
 6566SOL    HW131331   1.175   2.679   9.800 -0.4746 -2.3975  0.0741
 6566SOL    HW231332   1.100   2.609   9.910 -0.0841 -1.6286 -1.5092
 6567SOL     OW31333   0.152   1.325   7.028 -0.0413 -0.1355 -0.3726
 6567SOL    HW131334   0.135   1.269   7.104 -0.8769  3.7900  2.3468
 6567SOL    HW231335   0.083   1.298   6.968 -0.9491 -1.7194  1.3490
 6568SOL     OW31336   3.389   1.142  11.923 -0.3999  0.5638  0.7584
 6568SOL    HW131337   3.465   1.195  11.946 -0.0463  0.4390 -0.1348
 6568SOL    HW231338   3.325   1.213  11.925  1.5874  2.4187 -1.4259
 6569SOL     OW31339   0.279   4.015   5.489 -0.2351 -0.2229  0.0298
 6569SOL    HW131340   0.335   3.945   5.522 -0.8891 -0.4413  0.6733
 6569SOL    HW231341   0.349   4.073   5.458  0.4722 -1.4858 -0.7197
 6570SOL     OW31342   0.472   2.198   6.345 -0.1784  0.4282  0.3737
 6570SOL    HW131343   0.448   2.243   6.426  1.5807  0.8019  0.6938
 6570SOL    HW231344   0.555   2.167   6.382  0.0084 -0.0892 -0.4789
 6571SOL     OW31345   4.393   0.769  16.592 -0.0482  0.2432  0.4097
 6571SOL    HW131346   4.340   0.694  16.619  0.2059 -0.5228 -1.2090
 6571SOL    HW231347   4.350   0.844  16.634  1.4790  1.4789 -0.2232
 6572SOL     OW31348   3.963   0.722   8.796 -0.3565 -0.0595  0.1213
 6572SOL    HW131349   3.996   0.649   8.848  1.5491  0.7950  0.1278
 6572SOL    HW231350   3.991   0.701   8.707  0.0216 -2.5886  0.8529
 6573SOL     OW31351   3.048   0.998  17.427  0.3365 -0.1738  0.1207
 6573SOL    HW131352   3.102   1.071  17.455  1.1513  0.3030 -2.6926
 6573SOL    HW231353   2.970   1.002  17.483 -0.0949  2.9369 -0.7254
 6574SOL     OW31354   1.484   0.414   6.318 -0.4697 -0.2030  0.0637
 6574SOL    HW131355   1.563   0.427   6.265  0.5600 -0.9470  1.4172
 6574SOL    HW231356   1.439   0.347   6.266 -1.6493 -0.4327  1.3917
 6575SOL     OW31357   4.179   2.237   3.260 -0.8034  0.1005 -0.3923
 6575SOL    HW131358   4.187   2.184   3.339 -0.6577  1.8978  0.7928
 6575SOL    HW231359   4.088   2.217   3.236 -0.7944 -0.3848 -0.0248
 6576SOL     OW31360   3.076   3.626   5.756  0.1807 -0.2567 -0.1875
 6576SOL    HW131361   3.063   3.531   5.749 -0.8131 -0.1924  0.9337
 6576SOL    HW231362   3.157   3.623   5.807  0.5319  0.3853 -0.7062
 6577SOL     OW31363   1.055   4.175   9.259  0.1454 -0.0730  0.1216
 6577SOL    HW131364   0.992   4.221   9.203  0.7362 -0.4515 -0.8701
 6577SOL    HW231365   1.020   4.088   9.281  0.5521 -0.2533  0.0556
 6578SOL     OW31366   0.217   0.620  16.951 -0.2997  0.9702  0.4228
 6578SOL    HW131367   0.272   0.665  16.887  0.1014 -0.5441 -0.2849
 6578SOL    HW231368   0.213   0.530  16.918  0.3139  0.5054  1.6030
 6579SOL     OW31369   4.650   0.735  15.727 -0.5829  0.5888  0.2050
 6579SOL    HW131370   4.670   0.646  15.702 -4.0814 -0.8495  2.4451
 6579SOL    HW231371   4.559   0.754  15.702 -0.9804 -0.5261  0.8282
 6580SOL     OW31372   4.316   0.412   3.752 -0.2734 -0.6394  0.4015
 6580SOL    HW131373   4.374   0.383   3.822  1.8318  1.1445 -0.6077
 6580SOL    HW231374   4.361   0.373   3.678  0.2903 -0.9539  0.9124
 6581SOL     OW31375   1.749   0.850   7.515 -0.2380  0.4647 -0.3867
 6581SOL    HW131376   1.796   0.796   7.452  0.3476 -1.3981  1.6535
 6581SOL    HW231377   1.715   0.919   7.457 -0.4514  0.5644 -0.1406
 6582SOL     OW31378   2.381   2.004   2.733 -0.7424 -0.0105 -0.0021
 6582SOL    HW131379   2.352   2.000   2.824  0.2325  1.4918  0.3838
 6582SOL    HW231380   2.464   1.957   2.745 -0.7227  0.0543  0.1129
 6583SOL     OW31381   0.873   0.302   9.137 -0.2285 -0.1297  0.3523
 6583SOL    HW131382   0.955   0.253   9.139  0.0256  0.3533  1.6776
 6583SOL    HW231383   0.874   0.350   9.054  2.5440 -2.0390 -0.6935
 6584SOL     OW31384   3.376   1.423   8.744  0.1693 -0.4391  0.2223
 6584SOL    HW131385   3.443   1.434   8.811 -1.0281 -1.6163  1.6091
 6584SOL    HW231386   3.419   1.377   8.671  1.5646 -0.2222  0.9083
 6585SOL     OW31387   2.430   1.517   9.260  0.6789 -0.0590  0.1535
 6585SOL    HW131388   2.354   1.486   9.210 -0.4151  3.1066 -0.1080
 6585SOL    HW231389   2.469   1.586   9.206 -0.0270  0.5546  0.4290
 6586SOL     OW31390   1.915   1.998  16.776  0.0034 -0.4328 -0.7120
 6586SOL    HW131391   1.966   2.063  16.727 -1.3199  1.9770  1.0733
 6586SOL    HW231392   1.830   2.004  16.733  0.3802  0.5989 -1.3130
 6587SOL     OW31393   4.356   0.116  12.711 -0.2913  0.4636  0.5447
 6587SOL    HW131394   4.360   0.201  12.667 -1.0377  0.4116  0.3826
 6587SOL    HW231395   4.397   0.128  12.797  1.5242 -2.3084  0.0690
 6588SOL     OW31396   2.764   0.446   3.579 -0.4041 -0.6307  0.8561
 6588SOL    HW131397   2.767   0.541   3.566  3.5615 -1.0000 -0.8460
 6588SOL    HW231398   2.746   0.441   3.673 -0.3082  2.9333  1.0726
 6589SOL     OW31399   4.041   4.607  17.734 -0.0853 -0.1774  0.3783
 6589SOL    HW131400   4.076   4.564  17.656  0.7174  1.9769 -0.4424
 6589SOL    HW231401   3.964   4.641  17.688  0.5880  0.6608 -0.1216
 6590SOL     OW31402   4.274   0.675   6.055 -0.0892  0.6433  0.2475
 6590SOL    HW131403   4.270   0.770   6.064  0.7557  0.5446  1.7096
 6590SOL    HW231404   4.183   0.651   6.037 -0.7145  1.0247  2.7863
 6591SOL     OW31405   1.002   3.984  11.751  0.2287  0.4145 -0.0567
 6591SOL    HW131406   1.027   4.065  11.795 -0.2910  0.2413  0.5562
 6591SOL    HW231407   0.914   4.014  11.728  0.2669  2.4645  2.4865
 6592SOL     OW31408   1.647   4.399  14.433 -0.3618  0.1871 -0.4768
 6592SOL    HW131409   1.699   4.401  14.513  1.7544  0.3357 -1.8551
 6592SOL    HW231410   1.690   4.333  14.379 -0.3099  2.7851 -3.6110
 6593SOL     OW31411   1.546   3.983   4.794 -0.5398 -0.2151 -0.5517
 6593SOL    HW131412   1.634   3.975   4.828 -1.2920 -0.5190  1.3090
 6593SOL    HW231413   1.560   4.031   4.712  1.2795 -2.1046 -1.3244
 6594SOL     OW31414   1.950   4.634   5.222 -0.0988  0.2090 -0.7753
 6594SOL    HW131415   1.990   4.634   5.135  0.1973  0.0808 -0.6374
 6594SOL    HW231416   1.864   4.668   5.196  0.2546  0.6129 -1.4128
 6595SOL     OW31417   1.885   2.987  16.568  0.0793  0.0937  0.1217
 6595SOL    HW131418   1.912   3.017  16.482 -1.1270  1.8861  0.3619
 6595SOL    HW231419   1.818   2.923  16.545  0.2373  0.1198 -0.3921
 6596SOL     OW31420   4.447   3.578   4.060  0.2308  0.1486  0.7997
 6596SOL    HW131421   4.425   3.557   4.150 -0.2488  1.9816  1.1142
 6596SOL    HW231422   4.458   3.488   4.027  1.8164  1.1054 -1.3555
 6597SOL     OW31423   4.369   4.612   4.524 -0.0422 -0.1244  0.5558
 6597SOL    HW131424   4.310   4.537   4.526  1.5238 -1.3696  0.8292
 6597SOL    HW231425   4.312   4.679   4.486 -1.2208 -1.2904  0.2858
 6598SOL     OW31426   2.514   0.534   7.003  0.5035 -0.3985  0.2895
 6598SOL    HW131427   2.434   0.583   7.020 -0.1564 -1.2210 -0.4604
 6598SOL    HW231428   2.525   0.493   7.089  1.2371  0.0995  0.4286
 6599SOL     OW31429   3.647   0.841   7.454  0.7768  0.0212  0.7711
 6599SOL    HW131430   3.576   0.776   7.454  1.1859 -0.4293  1.8130
 6599SOL    HW231431   3.715   0.785   7.417 -1.3239 -1.5628 -0.6890
 6600SOL     OW31432   3.192   3.109   6.799  0.3113 -0.4992 -0.5477
 6600SOL    HW131433   3.256   3.179   6.786 -0.4165 -0.2239 -2.5849
 6600SOL    HW231434   3.109   3.152   6.817  1.7762  1.7320  0.9126
 6601SOL     OW31435   3.039   1.977  15.809  0.1000 -0.8777  0.0061
 6601SOL    HW131436   2.948   1.999  15.826  0.3486 -0.2365  0.4854
 6601SOL    HW231437   3.057   1.905  15.871  0.8065  0.2076  1.0592
 6602SOL     OW31438   2.628   2.801   3.013 -0.5441 -0.8151 -0.0117
 6602SOL    HW131439   2.618   2.834   2.924 -1.3246  2.0363  1.1229
 6602SOL    HW231440   2.665   2.713   3.006  1.2069 -0.3259  2.7454
 6603SOL     OW31441   1.643   4.517   8.912  0.4642 -0.1639  0.0119
 6603SOL    HW131442   1.719   4.511   8.970  0.8822  0.0830 -0.5097
 6603SOL    HW231443   1.656   4.441   8.855 -0.1348  0.2188 -0.6315
 6604SOL     OW31444   2.782   2.685   4.320 -0.0510 -0.2340  0.2076
 6604SOL    HW131445   2.707   2.628   4.334 -0.3638 -0.1103 -1.0025
 6604SOL    HW231446   2.824   2.696   4.406  2.1543  0.3679 -0.9671
 6605SOL     OW31447   0.545   0.454   7.518  0.3654 -0.5648  0.5277
 6605SOL    HW131448   0.565   0.404   7.439 -0.7353 -2.0995  1.1998
 6605SOL    HW231449   0.468   0.410   7.554  1.4711 -1.7459  1.4348
 6606SOL     OW31450   3.842   3.077   6.893  0.3947  0.1807 -0.9389
 6606SOL    HW131451   3.759   3.055   6.936  1.2679  0.3056  0.7854
 6606SOL    HW231452   3.901   3.066   6.967  0.0250 -1.7889 -0.9210
 6607SOL     OW31453   1.377   0.911   6.049  0.0710  0.2328 -0.1586
 6607SOL    HW131454   1.367   0.858   6.129 -0.0814  0.9953  0.3225
 6607SOL    HW231455   1.448   0.969   6.076  0.0389  0.1685  0.0669
 6608SOL     OW31456   0.502   3.504   9.005  0.3706  0.5129  0.0520
 6608SOL    HW131457   0.552   3.527   8.927 -0.1386  1.6835  0.0740
 6608SOL    HW231458   0.441   3.575   9.025 -1.5818 -1.1119 -0.1240
 6609SOL     OW31459   2.531   2.558   1.728  0.0175  0.0204 -0.0279
 6609SOL    HW131460   2.626   2.556   1.715  0.1995 -0.9654  1.5173
 6609SOL    HW231461   2.504   2.648   1.711  1.4253  0.7599  1.7764
 6610SOL     OW31462   2.885   4.135   2.005 -0.1567 -0.0006  0.2285
 6610SOL    HW131463   2.905   4.175   2.090  0.1310 -1.7725  1.0059
 6610SOL    HW231464   2.852   4.217   1.969 -0.8206 -0.1511  0.4953
 6611SOL     OW31465   3.339   3.099   4.823  0.7187  0.1714 -0.4210
 6611SOL    HW131466   3.342   3.094   4.919 -0.3542  0.1331 -0.3937
 6611SOL    HW231467   3.250   3.131   4.811  0.4387 -0.6388 -0.4578
 6612SOL     OW31468   1.238   1.225   3.463  0.2014  0.4202  0.2280
 6612SOL    HW131469   1.287   1.195   3.387  1.1532 -0.4201  1.1909
 6612SOL    HW231470   1.150   1.205   3.430  0.9361 -1.8388 -0.3564
 6613SOL     OW31471   1.983   4.458   1.289  0.0098  0.1930 -0.3298
 6613SOL    HW131472   2.037   4.402   1.234 -1.0140 -1.1483  0.0579
 6613SOL    HW231473   1.905   4.463   1.234 -0.5227  2.1732  0.5742
 6614SOL     OW31474   2.831   0.418   3.006  0.0193  0.0902  0.2186
 6614SOL    HW131475   2.847   0.467   2.925 -0.3447  2.0442  1.3126
 6614SOL    HW231476   2.915   0.442   3.044  1.2185 -2.7480 -0.6989
 6615SOL     OW31477   3.713   2.274   6.878  0.3493  0.1166 -0.0733
 6615SOL    HW131478   3.690   2.355   6.833 -0.3081  0.8224  1.5298
 6615SOL    HW231479   3.750   2.314   6.957 -0.4495  2.8351 -1.0580
 6616SOL     OW31480   3.680   1.032   2.670 -0.1812 -0.1072  0.3426
 6616SOL    HW131481   3.760   1.074   2.700  0.2417 -0.1591 -0.7117
 6616SOL    HW231482   3.669   1.074   2.585  2.5734 -0.5805 -0.2450
 6617SOL     OW31483   2.167   0.692   5.874 -0.2933  0.1579  0.3205
 6617SOL    HW131484   2.089   0.638   5.886 -1.0206  0.8315 -1.3750
 6617SOL    HW231485   2.134   0.773   5.837 -1.4333 -0.0818  0.7973
 6618SOL     OW31486   0.079   3.338   5.803  0.0312  0.3663  0.6184
 6618SOL    HW131487   0.142   3.401   5.839 -1.5949 -0.2075  4.4565
 6618SOL    HW231488   0.143   3.270   5.779  1.2675  1.5920  0.4545
 6619SOL     OW31489   0.099   0.008   6.778  0.0356 -0.3837 -0.0294
 6619SOL    HW131490   0.029   0.040   6.835 -0.3943  1.1137 -1.4230
 6619SOL    HW231491   0.137   4.680   6.835 -1.9943 -1.9038 -0.4714
 6620SOL     OW31492   4.664   0.027   3.956 -0.3385 -0.2742  0.1677
 6620SOL    HW131493   4.568   0.018   3.957 -0.3042 -0.6678 -0.3585
 6620SOL    HW231494   4.691   4.733   4.041 -2.1813  0.2079  0.9596
 6621SOL     OW31495   4.226   1.393  14.855  0.6733  0.3952 -0.2457
 6621SOL    HW131496   4.223   1.318  14.913 -1.4801  0.3816 -0.3530
 6621SOL    HW231497   4.231   1.464  14.919  0.4113 -0.2153  0.4461
 6622SOL     OW31498   2.418   0.646   3.365 -0.3429 -0.4822 -0.0508
 6622SOL    HW131499   2.396   0.558   3.336  0.1670 -1.8265  3.6279
 6622SOL    HW231500   2.339   0.673   3.412  0.2112  2.5047 -0.7960
 6623SOL     OW31501   3.408   2.401  11.302  0.1844  0.3685 -0.6939
 6623SOL    HW131502   3.411   2.439  11.390  2.9938 -0.6851 -0.3306
 6623SOL    HW231503   3.336   2.338  11.311  0.0848  0.5789  0.0144
 6624SOL     OW31504   1.419   3.658  14.945  0.7163  0.2744 -0.3759
 6624SOL    HW131505   1.341   3.679  14.997 -0.1771  0.2653 -1.6954
 6624SOL    HW231506   1.412   3.563  14.940  0.2997  0.3888 -2.0901
 6625SOL     OW31507   0.370   0.999   7.220 -0.3279  0.2394  0.3358
 6625SOL    HW131508   0.356   1.002   7.125  1.4639  0.2349  0.0669
 6625SOL    HW231509   0.466   1.006   7.216 -0.4194  1.1746 -0.3790
 6626SOL     OW31510   3.718   4.403   7.519  0.2542 -0.2302  0.3462
 6626SOL    HW131511   3.777   4.475   7.499 -0.1892 -0.2346 -0.9262
 6626SOL    HW231512   3.759   4.324   7.485 -0.8263 -0.8334  0.4410
 6627SOL     OW31513   1.667   0.220   7.841 -0.1375  0.2817 -0.3607
 6627SOL    HW131514   1.638   0.144   7.892 -0.6449  0.0766 -0.9569
 6627SOL    HW231515   1.580   0.255   7.820  0.9200  2.4262 -1.1947
 6628SOL     OW31516   0.590   4.324   7.370  0.8775  0.3790 -0.7102
 6628SOL    HW131517   0.505   4.284   7.386  2.1623 -1.5195  1.3225
 6628SOL    HW231518   0.570   4.417   7.365  0.8723  0.3468 -1.3565
 6629SOL     OW31519   0.571   1.656   4.796 -0.1303 -0.9095 -0.0694
 6629SOL    HW131520   0.574   1.576   4.745  1.8089 -1.1162  0.3635
 6629SOL    HW231521   0.504   1.712   4.756  0.6701 -0.1364 -0.3339
 6630SOL     OW31522   3.172   1.795   1.049  0.4814  0.0164  0.6797
 6630SOL    HW131523   3.100   1.808   1.111 -0.5038  1.8715 -0.8956
 6630SOL    HW231524   3.141   1.857   0.984 -0.8800 -0.5411  0.7936
 6631SOL     OW31525   2.506   2.716   1.055  0.2901  0.2881  0.2432
 6631SOL    HW131526   2.543   2.688   1.139  0.6541  1.6310  0.5224
 6631SOL    HW231527   2.413   2.734   1.072  0.2373  1.5718 -1.4225
 6632SOL     OW31528   0.109   0.986   0.166  0.3653 -0.3692  0.1204
 6632SOL    HW131529   0.016   1.008   0.164  0.0183 -2.0351 -1.3616
 6632SOL    HW231530   0.141   0.970   0.078 -1.6507  1.6319 -0.9618
 6633SOL     OW31531   1.401   2.261   8.616 -0.2391  0.2004  0.2469
 6633SOL    HW131532   1.430   2.334   8.561  0.3787  0.1285  0.4676
 6633SOL    HW231533   1.478   2.253   8.673  0.1121 -1.0692 -0.3919
 6634SOL     OW31534   3.916   1.578   5.023 -0.2793  0.7128  0.2312
 6634SOL    HW131535   3.950   1.492   5.001 -2.2765  0.1011 -0.4810
 6634SOL    HW231536   3.951   1.631   4.951  0.5432  1.9491  1.5494
 6635SOL     OW31537   2.746   3.070   4.692 -0.2260 -0.7080 -0.4180
 6635SOL    HW131538   2.665   3.048   4.739  0.2426  0.8920  1.1430
 6635SOL    HW231539   2.816   3.070   4.757 -1.7212 -0.4298  1.2036
 6636SOL     OW31540   4.692   3.329   9.091  0.3628 -0.6461 -1.2313
 6636SOL    HW131541   4.705   3.248   9.141 -0.5243 -1.8523 -2.9259
 6636SOL    HW231542   0.039   3.368   9.103 -0.6255  0.4286  2.4103
 6637SOL     OW31543   0.821   1.893   5.691  0.1101  0.6387 -0.4653
 6637SOL    HW131544   0.740   1.847   5.710  0.2523  0.2018 -0.9243
 6637SOL    HW231545   0.826   1.934   5.778 -0.0572 -1.9527  0.7554
 6638SOL     OW31546   3.284   1.131   2.137 -0.2414  0.2087 -0.0531
 6638SOL    HW131547   3.320   1.051   2.098  0.0116 -0.2679  1.1394
 6638SOL    HW231548   3.365   1.174   2.167  0.2783 -0.3009 -0.7213
 6639SOL     OW31549   3.616   3.820  16.862 -0.7591  0.2720 -0.0865
 6639SOL    HW131550   3.657   3.799  16.778  0.0350 -0.8836  0.5930
 6639SOL    HW231551   3.696   3.813  16.915 -0.7224 -0.8331 -0.2953
 6640SOL     OW31552   2.797   2.524   5.212 -0.3520 -0.0726 -0.1598
 6640SOL    HW131553   2.832   2.448   5.165 -2.3936 -1.5860  0.7657
 6640SOL    HW231554   2.713   2.514   5.169  0.3128 -1.2463 -1.2162
 6641SOL     OW31555   2.866   3.225   5.913  0.3868 -0.1449 -0.6946
 6641SOL    HW131556   2.779   3.239   5.875  0.0735 -0.1507  0.0310
 6641SOL    HW231557   2.845   3.219   6.006  0.6847 -0.2794 -0.6354
 6642SOL     OW31558   4.208   0.633   2.346 -0.2707 -0.2382 -0.3064
 6642SOL    HW131559   4.154   0.711   2.359  1.1089  0.6978 -0.2147
 6642SOL    HW231560   4.144   0.563   2.338  0.7322 -0.9588 -2.1835
 6643SOL     OW31561   1.470   1.126   4.541  0.2574 -0.4395  0.4800
 6643SOL    HW131562   1.393   1.167   4.580 -0.9728 -2.5382  0.2871
 6643SOL    HW231563   1.509   1.094   4.622 -0.3165 -1.9303  0.1619
 6644SOL     OW31564   2.931   2.694   4.089  0.3183 -0.0918  0.0995
 6644SOL    HW131565   2.950   2.735   4.174  0.6873 -0.7952  0.3566
 6644SOL    HW231566   2.849   2.647   4.101 -0.7292  2.2272  1.9421
 6645SOL     OW31567   1.854   0.270   4.116 -0.4584  0.4832 -0.2427
 6645SOL    HW131568   1.832   0.271   4.209  0.1738  1.3133 -0.0966
 6645SOL    HW231569   1.837   0.361   4.093 -0.3730  0.4818 -0.3116
 6646SOL     OW31570   1.656   3.263  14.273  0.1624  0.6559 -0.9727
 6646SOL    HW131571   1.740   3.250  14.319  0.2930  2.3595 -0.7247
 6646SOL    HW231572   1.682   3.322  14.203 -2.5370 -0.6172 -3.0453
 6647SOL     OW31573   3.529   1.902   5.060  0.8632  0.0088 -0.4252
 6647SOL    HW131574   3.452   1.862   5.100  1.4085 -1.1883 -0.5929
 6647SOL    HW231575   3.596   1.912   5.128 -0.3440  1.3662  0.5748
 6648SOL     OW31576   1.040   1.073   1.037  0.1620  0.0002  0.3898
 6648SOL    HW131577   1.129   1.043   1.020  1.4383  2.5801  2.5272
 6648SOL    HW231578   1.013   1.120   0.958 -0.9129  0.8402  1.2532
 6649SOL     OW31579   1.636   1.823   6.882 -0.0471  0.3819  0.4085
 6649SOL    HW131580   1.549   1.829   6.842 -0.5300  2.2188  1.7728
 6649SOL    HW231581   1.641   1.898   6.940  2.3613 -1.1203  2.1338
 6650SOL     OW31582   4.382   0.937   4.534  0.3706  0.0774 -0.0987
 6650SOL    HW131583   4.301   0.967   4.576  0.6709 -1.6705  1.7237
 6650SOL    HW231584   4.379   0.850   4.575 -1.6393  0.7292  1.1207
 6651SOL     OW31585   0.535   4.363  13.570 -0.7274  0.0891 -0.8726
 6651SOL    HW131586   0.461   4.305  13.590 -1.1858  0.7573 -0.6130
 6651SOL    HW231587   0.538   4.372  13.475  0.5645 -1.7432 -1.0121
 6652SOL     OW31588   2.964   4.195   1.696 -0.0514  0.1973 -0.0322
 6652SOL    HW131589   3.028   4.148   1.643  0.4377  0.9410 -0.1076
 6652SOL    HW231590   3.018   4.268   1.727 -1.3020  1.3734 -0.5564
 6653SOL     OW31591   1.127   0.839   9.263  0.8541  0.2490  0.0585
 6653SOL    HW131592   1.162   0.752   9.246 -1.6307 -0.0511 -3.4641
 6653SOL    HW231593   1.032   0.824   9.267  0.5173  1.9045 -1.8476
 6654SOL     OW31594   0.686   2.753  13.724 -0.1391 -0.2363  0.0732
 6654SOL    HW131595   0.629   2.678  13.738 -0.1827  0.0203  1.2322
 6654SOL    HW231596   0.766   2.744  13.776  1.1360 -0.4897 -1.8931
 6655SOL     OW31597   3.292   2.844   7.733  0.2414 -0.0146 -0.2698
 6655SOL    HW131598   3.276   2.852   7.827 -1.7115 -0.3366 -0.5664
 6655SOL    HW231599   3.383   2.871   7.722  0.5786 -1.1525 -0.3396
 6656SOL     OW31600   3.472   2.922  14.970 -0.2253 -0.2642  0.2862
 6656SOL    HW131601   3.482   3.010  15.007 -0.7963  0.3598 -1.0654
 6656SOL    HW231602   3.554   2.889  15.007  0.9492  1.3225 -0.9024
 6657SOL     OW31603   2.722   0.334   8.459  0.1147  0.5763 -0.4924
 6657SOL    HW131604   2.779   0.377   8.396  2.4716 -1.3878  0.2822
 6657SOL    HW231605   2.646   0.391   8.446 -1.1658 -0.9994 -0.1101
 6658SOL     OW31606   4.611   0.067   7.834 -0.1143  0.3836  0.1525
 6658SOL    HW131607   4.684   0.005   7.831 -1.1605 -0.8399  0.0514
 6658SOL    HW231608   4.542   0.015   7.793 -0.2688  1.0013 -0.3625
 6659SOL     OW31609   4.096   2.933   2.737  0.4117  0.3212  0.1460
 6659SOL    HW131610   4.008   2.969   2.737 -0.3054 -1.4473  2.4573
 6659SOL    HW231611   4.124   2.960   2.649  0.8066  3.0984  1.1246
 6660SOL     OW31612   2.435   2.044   6.615  0.0851  0.4890 -0.5331
 6660SOL    HW131613   2.370   2.103   6.576 -0.1911 -0.2872 -1.2395
 6660SOL    HW231614   2.494   2.039   6.540  1.2683  2.1047  0.2781
 6661SOL     OW31615   0.019   2.531   2.103 -0.2644 -0.3232  0.2076
 6661SOL    HW131616   4.713   2.610   2.074 -0.0470  0.0663  0.9065
 6661SOL    HW231617   0.035   2.487   2.020 -0.6130 -0.6580  0.3194
 6662SOL     OW31618   4.292   0.007  15.417  0.5383  0.3013  0.3100
 6662SOL    HW131619   4.379   4.720  15.447  1.1749  1.3829 -0.6066
 6662SOL    HW231620   4.250   0.009  15.503  0.1636  0.0505  0.1340
 6663SOL     OW31621   0.687   3.052   8.493 -0.3213 -0.6673  0.0018
 6663SOL    HW131622   0.662   2.993   8.564 -0.2831 -0.0605  0.5158
 6663SOL    HW231623   0.621   3.121   8.489 -0.1306 -0.3633  1.8285
 6664SOL     OW31624   0.251   2.825   8.785 -0.1624 -0.7441 -0.5233
 6664SOL    HW131625   0.271   2.901   8.731  2.9317  0.6739  2.6607
 6664SOL    HW231626   0.241   2.760   8.716 -1.2295 -0.8007 -0.3114
 6665SOL     OW31627   0.551   3.124   0.933 -0.2847  0.1629  0.1481
 6665SOL    HW131628   0.491   3.053   0.913  1.1205 -1.3385  1.1869
 6665SOL    HW231629   0.629   3.069   0.923  0.5085  1.3467 -0.2083
 6666SOL     OW31630   1.550   3.889   4.336  0.0727  0.3509  0.2584
 6666SOL    HW131631   1.574   3.809   4.382  1.7668 -0.3129 -1.8283
 6666SOL    HW231632   1.468   3.866   4.292  0.3450  0.6654 -0.4079
 6667SOL     OW31633   2.198   3.008  16.594 -0.0015 -0.5277  0.4896
 6667SOL    HW131634   2.104   3.017  16.582  0.3227  0.6045 -1.1375
 6667SOL    HW231635   2.210   3.094  16.633 -0.7099 -0.7003  1.0731
 6668SOL     OW31636   2.280   0.579   4.649 -0.4542  0.0964  0.1801
 6668SOL    HW131637   2.322   0.493   4.655 -2.0367 -0.6427  0.6052
 6668SOL    HW231638   2.303   0.609   4.561  1.9092  1.8081  1.3990
 6669SOL     OW31639   2.570   2.553   5.574  0.2717 -0.5765 -0.5162
 6669SOL    HW131640   2.476   2.561   5.593 -0.0237  1.2651 -2.8481
 6669SOL    HW231641   2.574   2.595   5.489  1.1209  1.3820  0.4997
 6670SOL     OW31642   1.933   4.412   8.710  0.9955 -0.0052 -0.1207
 6670SOL    HW131643   1.864   4.347   8.727  0.2433  0.7772 -0.1755
 6670SOL    HW231644   1.993   4.351   8.668  1.0672  0.1445 -0.2376
 6671SOL     OW31645   4.646   4.032  15.765 -0.1355 -0.0344  0.3176
 6671SOL    HW131646   4.574   4.087  15.796 -0.5071 -0.6326  0.5120
 6671SOL    HW231647   4.589   3.992  15.700 -0.6160 -1.0382  1.3410
 6672SOL     OW31648   0.694   1.953   2.658  0.0464  0.2124 -0.0604
 6672SOL    HW131649   0.623   2.012   2.682  0.7431  0.8265  0.4864
 6672SOL    HW231650   0.748   1.951   2.737 -0.3147 -2.2153  0.1352
 6673SOL     OW31651   0.547   0.612   7.135  0.5812  0.3523 -0.5080
 6673SOL    HW131652   0.477   0.626   7.072 -0.2272  0.6483  0.4600
 6673SOL    HW231653   0.628   0.601   7.085  0.2546 -0.3174 -0.8774
 6674SOL     OW31654   0.342   0.424   9.054  0.0931  0.3885 -0.5670
 6674SOL    HW131655   0.397   0.474   9.114  0.9396 -1.6713  0.3830
 6674SOL    HW231656   0.398   0.436   8.977  2.8598  0.1965  1.4409
 6675SOL     OW31657   3.233   4.711   4.052 -0.0348 -0.1927  0.4767
 6675SOL    HW131658   3.314   4.708   4.001 -0.6722 -0.9552 -0.4945
 6675SOL    HW231659   3.207   0.062   4.034 -0.4620 -0.2541  0.7923
 6676SOL     OW31660   4.583   3.440   4.766  0.3340  0.3755 -0.3550
 6676SOL    HW131661   4.636   3.506   4.721  1.3142 -0.1813 -0.0221
 6676SOL    HW231662   4.625   3.429   4.851  0.8309 -1.6717 -0.8422
 6677SOL     OW31663   3.963   1.344   7.626  0.3697 -0.2624 -0.5717
 6677SOL    HW131664   4.028   1.408   7.594  0.3380 -0.2537 -0.6193
 6677SOL    HW231665   4.032   1.285   7.656 -0.7973  0.8746  4.2391
 6678SOL     OW31666   4.531   4.070   6.089  0.0465 -0.7232  0.1063
 6678SOL    HW131667   4.591   4.117   6.032  1.1217 -2.0443  0.1680
 6678SOL    HW231668   4.486   4.134   6.144  1.4272  0.7778 -0.5254
 6679SOL     OW31669   2.687   4.088  16.982  0.3643  0.4542 -0.1538
 6679SOL    HW131670   2.734   4.032  17.044  0.2806  1.7513  1.0789
 6679SOL    HW231671   2.646   4.024  16.924  0.1456  1.6402 -1.3008
 6680SOL     OW31672   2.972   2.269  12.121 -0.7337  0.7987 -0.1320
 6680SOL    HW131673   2.919   2.349  12.119  0.5658  1.6016 -2.5739
 6680SOL    HW231674   2.909   2.206  12.088 -0.4062  0.0236  0.7440
 6681SOL     OW31675   2.443   3.922  16.908  0.5657 -0.2099 -0.3478
 6681SOL    HW131676   2.368   3.863  16.904  1.7593 -1.6420 -1.9906
 6681SOL    HW231677   2.510   3.864  16.870  0.7341 -0.6150  0.5663
 6682SOL     OW31678   1.870   3.167   7.152 -0.1590 -0.4049 -0.0493
 6682SOL    HW131679   1.941   3.104   7.165  0.7089 -0.1798 -3.6898
 6682SOL    HW231680   1.817   3.155   7.230 -0.2667  0.4519  0.0041
 6683SOL     OW31681   0.507   4.692   7.634  0.2124  0.0388 -0.2483
 6683SOL    HW131682   0.476   4.645   7.712  0.5636  0.8918  0.4130
 6683SOL    HW231683   0.424   4.711   7.589  1.2612  3.2033 -0.8545
 6684SOL     OW31684   3.096   1.543   2.995 -0.1444  0.6058  0.7259
 6684SOL    HW131685   3.130   1.566   3.082  2.5156 -0.7600  0.0612
 6684SOL    HW231686   3.127   1.453   2.991 -2.6211 -0.2628  1.4508
 6685SOL     OW31687   3.734   1.648   3.557 -0.1091 -0.1816  0.0778
 6685SOL    HW131688   3.753   1.664   3.465 -1.4845 -3.1838 -0.7286
 6685SOL    HW231689   3.774   1.561   3.563  0.7732  0.1870 -0.3471
 6686SOL     OW31690   2.468   1.315   5.119  0.2295  0.1731  0.1993
 6686SOL    HW131691   2.420   1.318   5.202  0.4252 -0.2803  0.3351
 6686SOL    HW231692   2.521   1.236   5.134  0.5115  0.8316  2.6613
 6687SOL     OW31693   3.252   1.639   7.630 -0.0805  0.1604  0.1861
 6687SOL    HW131694   3.224   1.573   7.566 -0.3915  1.0670 -0.6177
 6687SOL    HW231695   3.253   1.587   7.710  1.3949 -1.4343 -0.8691
 6688SOL     OW31696   4.086   3.673  14.310 -1.0504 -0.0926 -0.4459
 6688SOL    HW131697   4.003   3.641  14.344 -1.3653  0.6314 -0.5400
 6688SOL    HW231698   4.059   3.755  14.270  1.1097 -0.3794 -2.4963
 6689SOL     OW31699   3.339   0.635   3.063  0.1543  0.6508 -0.3554
 6689SOL    HW131700   3.422   0.680   3.047 -1.0153  2.6015 -0.9686
 6689SOL    HW231701   3.374   0.564   3.116 -0.2371 -1.2122 -2.5685
 6690SOL     OW31702   3.473   0.374   4.576  0.2611  0.0789  0.3625
 6690SOL    HW131703   3.522   0.335   4.504  0.4862 -2.9743  2.1523
 6690SOL    HW231704   3.523   0.319   4.636  0.1940 -1.7246 -1.2273
 6691SOL     OW31705   0.062   0.922  10.723  0.6377 -0.1031  0.3108
 6691SOL    HW131706   4.714   0.928  10.684  0.1458 -3.0613  0.9298
 6691SOL    HW231707   0.112   0.894  10.647  0.5938 -0.1166  0.2866
 6692SOL     OW31708   1.405   3.186  17.389  0.2018  0.6198  0.3361
 6692SOL    HW131709   1.470   3.244  17.350 -2.1107  3.6420  0.9765
 6692SOL    HW231710   1.374   3.244  17.458 -3.9573  0.1991 -1.1410
 6693SOL     OW31711   3.121   1.075   5.831 -0.1662 -0.2193  0.0580
 6693SOL    HW131712   3.144   0.988   5.863 -0.9681 -0.9070 -1.2392
 6693SOL    HW231713   3.026   1.077   5.836 -0.1360  0.2662  0.4214
 6694SOL     OW31714   4.579   0.162   8.811 -0.4239  0.5362 -0.2060
 6694SOL    HW131715   4.566   0.251   8.844  0.2802 -0.0901  1.8168
 6694SOL    HW231716   4.505   0.151   8.752  0.2900  0.6124 -1.1098
 6695SOL     OW31717   4.178   0.260   3.017  0.2326  0.0571 -0.9181
 6695SOL    HW131718   4.243   0.315   2.974  1.9943  0.0789  1.8055
 6695SOL    HW231719   4.229   0.226   3.090  1.1821  2.0034 -0.6762
 6696SOL     OW31720   0.401   2.391   4.604  0.1870  0.2460 -0.3041
 6696SOL    HW131721   0.461   2.458   4.636  0.6579 -1.2364  1.8650
 6696SOL    HW231722   0.455   2.312   4.610  0.6289  0.6468  0.8485
 6697SOL     OW31723   4.639   2.409   5.158  0.2253  0.4498 -0.2580
 6697SOL    HW131724   4.616   2.479   5.219 -0.2791 -1.2490  1.5030
 6697SOL    HW231725   4.573   2.347   5.189  1.7270 -0.1904  1.6490
 6698SOL     OW31726   2.368   4.351   9.105 -0.6425  0.3791 -0.1487
 6698SOL    HW131727   2.282   4.320   9.079  0.2215  0.2136 -2.8168
 6698SOL    HW231728   2.421   4.321   9.031  0.5202  0.5386  0.6241
 6699SOL     OW31729   2.315   4.178   6.675 -0.0261  0.0308 -0.5222
 6699SOL    HW131730   2.334   4.094   6.632 -1.3059 -0.5197 -0.0161
 6699SOL    HW231731   2.325   4.241   6.603  1.4368 -0.5713 -0.8456
 6700SOL     OW31732   2.187   0.544   2.683 -0.2807 -0.4319 -0.1738
 6700SOL    HW131733   2.174   0.611   2.749 -2.0605 -1.5099  0.5764
 6700SOL    HW231734   2.100   0.504   2.692  0.3301 -1.0757  2.8176
 6701SOL     OW31735   3.037   0.489  15.896  0.7863 -0.8519  0.1686
 6701SOL    HW131736   2.986   0.521  15.971  0.3804  0.2096 -0.5530
 6701SOL    HW231737   3.083   0.570  15.875  0.7973 -0.9854 -0.3171
 6702SOL     OW31738   1.840   3.035   2.479 -0.3505  0.0928 -0.3530
 6702SOL    HW131739   1.867   3.033   2.571  0.1655 -3.3043 -0.5647
 6702SOL    HW231740   1.912   2.987   2.437 -1.3883 -1.6941 -0.1027
 6703SOL     OW31741   3.950   2.547   1.848  0.1717 -0.2645 -0.4967
 6703SOL    HW131742   4.025   2.603   1.871 -1.7993  2.0563  0.1891
 6703SOL    HW231743   4.003   2.472   1.820  0.2871  0.4200 -2.1227
 6704SOL     OW31744   1.391   1.950   9.628 -0.0593  0.3032 -0.0036
 6704SOL    HW131745   1.329   1.970   9.558  2.9047 -0.1180 -2.7323
 6704SOL    HW231746   1.400   1.856   9.613 -0.6824 -0.1928  2.6485
 6705SOL     OW31747   2.324   0.737   7.088  0.3837 -0.0093  0.2525
 6705SOL    HW131748   2.230   0.744   7.104 -0.1192 -0.4184 -2.4447
 6705SOL    HW231749   2.361   0.768   7.170  2.2367 -2.4971  0.3222
 6706SOL     OW31750   2.221   4.494   9.829 -0.6548  0.1960 -0.0951
 6706SOL    HW131751   2.250   4.482   9.738 -1.5443 -0.3477 -0.3155
 6706SOL    HW231752   2.222   4.404   9.862  0.9335  0.0565 -0.5203
 6707SOL     OW31753   0.922   3.130   0.723 -0.0058 -0.1663  0.1262
 6707SOL    HW131754   0.882   3.101   0.642  1.6793  0.5310 -0.9509
 6707SOL    HW231755   0.962   3.215   0.706 -0.9054 -0.1283 -1.7211
 6708SOL     OW31756   1.032   2.814   6.063 -0.6756 -0.1837 -0.4612
 6708SOL    HW131757   0.943   2.843   6.043 -0.5541 -0.3555 -1.2155
 6708SOL    HW231758   1.033   2.814   6.159  0.0946  0.3992 -0.4696
 6709SOL     OW31759   3.497   0.449   6.752  0.2310 -0.5137 -0.0804
 6709SOL    HW131760   3.499   0.506   6.675 -0.8138  0.3468  0.5353
 6709SOL    HW231761   3.583   0.467   6.791  0.5698  0.3523 -1.2268
 6710SOL     OW31762   0.564   4.314   3.232  0.2679  0.1914  0.4520
 6710SOL    HW131763   0.507   4.240   3.210 -1.6520  1.2357  1.8579
 6710SOL    HW231764   0.559   4.365   3.152  0.2147 -1.4555 -0.5949
 6711SOL     OW31765   0.891   1.904  16.939  0.1286  0.4069 -0.1072
 6711SOL    HW131766   0.909   1.978  16.998  0.0743 -0.3491  0.8617
 6711SOL    HW231767   0.844   1.845  16.998 -1.1475  2.0907  0.5557
 6712SOL     OW31768   3.962   0.853   5.123 -0.0353 -0.6054 -0.3918
 6712SOL    HW131769   4.030   0.817   5.181 -1.2834 -0.6113  1.0549
 6712SOL    HW231770   3.950   0.943   5.153 -0.6672 -0.8623  0.1129
 6713SOL     OW31771   2.363   4.484   2.414  0.1379 -0.1093  0.1003
 6713SOL    HW131772   2.315   4.446   2.487 -0.1110 -2.2524 -1.1743
 6713SOL    HW231773   2.374   4.409   2.355  2.2013 -0.3721  0.8140
 6714SOL     OW31774   1.136   4.640   5.275  0.0898  0.4910 -0.8012
 6714SOL    HW131775   1.157   4.556   5.315 -0.7407  0.0818 -1.2140
 6714SOL    HW231776   1.133   4.694   5.354  1.3650 -1.5082  0.5969
 6715SOL     OW31777   1.395   2.264   5.475  0.1620  0.1683  0.8120
 6715SOL    HW131778   1.326   2.211   5.516  0.5105 -2.1582 -1.5891
 6715SOL    HW231779   1.362   2.261   5.386 -1.4943 -0.9104  1.4601
 6716SOL     OW31780   2.492   3.143   1.312 -0.2620 -0.2051  0.1759
 6716SOL    HW131781   2.409   3.189   1.302  0.0104  0.4701  1.1108
 6716SOL    HW231782   2.535   3.171   1.231 -3.4229  1.6409 -0.8514
 6717SOL     OW31783   3.023   2.357  14.662  0.2594 -0.0300 -0.1418
 6717SOL    HW131784   3.007   2.320  14.749  1.6455  0.3580  0.2701
 6717SOL    HW231785   3.066   2.282  14.622 -1.8664 -1.9610  1.1695
 6718SOL     OW31786   2.672   0.460   3.821  0.4019 -0.2991  0.2723
 6718SOL    HW131787   2.585   0.434   3.852  0.4386  0.2416  0.8234
 6718SOL    HW231788   2.715   0.446   3.905  1.2147 -2.6328 -0.5320
 6719SOL     OW31789   1.532   4.048   7.939 -0.0724  0.6532 -0.7698
 6719SOL    HW131790   1.484   4.126   7.968  1.7923  0.9600  1.4641
 6719SOL    HW231791   1.620   4.074   7.913 -0.6526  2.2339 -1.1894
 6720SOL     OW31792   3.294   0.168  14.288  0.1953  0.0014 -0.0701
 6720SOL    HW131793   3.207   0.147  14.321  0.9974 -0.5949  1.6700
 6720SOL    HW231794   3.281   0.254  14.248  1.1214  0.1793  0.0010
 6721SOL     OW31795   2.381   0.702   6.261  0.0726  0.8103 -0.4483
 6721SOL    HW131796   2.315   0.680   6.195  0.9202  0.3225 -1.1427
 6721SOL    HW231797   2.322   0.687   6.334 -0.0594 -2.0004 -1.1623
 6722SOL     OW31798   0.153   0.180   6.532  0.2519  0.5548  0.6344
 6722SOL    HW131799   0.238   0.147   6.501 -0.4702  0.0334 -0.7894
 6722SOL    HW231800   0.127   0.117   6.600 -0.0536  0.2590  0.2448
 6723SOL     OW31801   4.089   3.870   3.423 -0.7294  0.2039  0.5128
 6723SOL    HW131802   4.131   3.784   3.427 -1.9964 -0.4820 -0.7918
 6723SOL    HW231803   4.140   3.917   3.356 -2.6373  1.5417 -0.0198
 6724SOL     OW31804   2.441   0.284   9.686 -0.4284  0.3239 -0.4293
 6724SOL    HW131805   2.511   0.312   9.628  0.3040  1.2997  0.9376
 6724SOL    HW231806   2.489   0.225   9.744 -2.8412 -0.6611  0.5814
 6725SOL     OW31807   4.034   1.862   2.580  0.4756 -0.2583 -0.2613
 6725SOL    HW131808   3.982   1.868   2.660 -2.0834  1.4247 -2.0191
 6725SOL    HW231809   3.982   1.809   2.519  0.1486 -0.0831 -0.1341
 6726SOL     OW31810   3.199   1.242   9.221 -0.4549 -0.1606  0.2093
 6726SOL    HW131811   3.106   1.264   9.226 -0.5448  0.0351 -2.2862
 6726SOL    HW231812   3.216   1.220   9.129  1.1084 -1.0528  0.7171
 6727SOL     OW31813   1.795   3.526   9.212 -0.0989 -0.6228 -0.2825
 6727SOL    HW131814   1.752   3.513   9.127  1.0496 -1.9717 -0.6619
 6727SOL    HW231815   1.751   3.462   9.268 -1.5032  1.0060  0.4861
 6728SOL     OW31816   0.462   1.614   5.563  0.3339  0.0797 -0.4537
 6728SOL    HW131817   0.383   1.561   5.550  0.3557 -0.2345  0.7402
 6728SOL    HW231818   0.429   1.699   5.535  0.2925 -0.1819 -1.2033
 6729SOL     OW31819   4.575   3.305   5.974 -0.2622  0.3855 -0.3374
 6729SOL    HW131820   4.580   3.210   5.982  0.8173  0.3683 -1.2337
 6729SOL    HW231821   4.651   3.323   5.919 -0.2144  0.4432 -0.2537
 6730SOL     OW31822   0.185   1.719   7.477 -0.3831 -0.2182  0.0033
 6730SOL    HW131823   0.144   1.646   7.431  0.7735 -1.6320  1.2352
 6730SOL    HW231824   0.227   1.767   7.405 -4.5268  0.7062 -1.8220
 6731SOL     OW31825   1.163   1.281   7.663  0.1802  0.2427  0.5237
 6731SOL    HW131826   1.074   1.314   7.672  0.7794  2.5439 -1.7893
 6731SOL    HW231827   1.207   1.297   7.746 -1.1809  1.2678  1.0343
 6732SOL     OW31828   0.722   2.651   2.178  0.9018  0.0950  0.2938
 6732SOL    HW131829   0.661   2.725   2.177  2.4012  1.3751  2.0176
 6732SOL    HW231830   0.734   2.638   2.084  2.1524  1.0628  0.3029
 6733SOL     OW31831   1.563   4.642   1.705 -0.1901 -0.1419  0.2411
 6733SOL    HW131832   1.649   4.613   1.674 -0.1381  0.9538 -0.6230
 6733SOL    HW231833   1.580   4.699   1.779 -2.3164 -1.0755  1.4405
 6734SOL     OW31834   0.410   0.090   9.504  0.2204 -0.0951 -0.3517
 6734SOL    HW131835   0.362   0.092   9.587  0.1821 -2.6930 -0.3337
 6734SOL    HW231836   0.351   0.135   9.444 -2.1919 -0.3298  1.8255
 6735SOL     OW31837   0.493   4.542   0.443 -0.3098  0.3363  0.8241
 6735SOL    HW131838   0.439   4.550   0.364  0.3517  0.0475  0.3347
 6735SOL    HW231839   0.432   4.576   0.507 -1.6777  0.4019 -0.5076
 6736SOL     OW31840   0.235   3.033  14.716 -0.9964 -0.0624  0.7559
 6736SOL    HW131841   0.310   2.975  14.726 -1.2887 -0.5274  0.2359
 6736SOL    HW231842   0.185   2.984  14.651 -2.1118  2.0440  0.0237
 6737SOL     OW31843   3.838   2.261   1.131  0.0257 -0.6796 -0.4372
 6737SOL    HW131844   3.868   2.277   1.042 -0.4315  0.0541 -0.4636
 6737SOL    HW231845   3.922   2.253   1.175 -0.6531 -0.6181  0.8831
 6738SOL     OW31846   0.988   1.387   2.400  0.2682 -0.0129  0.4069
 6738SOL    HW131847   0.931   1.419   2.470  0.6664  1.2366  0.1717
 6738SOL    HW231848   0.973   1.453   2.333 -0.9696 -2.1473 -1.4001
 6739SOL     OW31849   1.846   3.522   8.258  0.1197 -0.8613 -0.0049
 6739SOL    HW131850   1.826   3.510   8.351  0.5437  1.9359  0.4494
 6739SOL    HW231851   1.841   3.618   8.258 -2.4123 -0.9887  0.6253
 6740SOL     OW31852   0.709   2.221   0.346 -0.4335  0.2186 -0.0285
 6740SOL    HW131853   0.647   2.183   0.284  2.9986 -3.3712 -1.2867
 6740SOL    HW231854   0.728   2.140   0.393  0.2139  0.5203  0.2332
 6741SOL     OW31855   4.370   0.259  10.785  0.0192  0.0107 -0.4966
 6741SOL    HW131856   4.360   0.251  10.880 -0.5047  0.4455 -0.5151
 6741SOL    HW231857   4.450   0.310  10.774 -0.2524  0.4985 -0.2152
 6742SOL     OW31858   1.320   4.549  17.420 -0.2715 -0.2448 -0.0367
 6742SOL    HW131859   1.339   4.634  17.381  0.7666 -0.7286 -0.5854
 6742SOL    HW231860   1.234   4.525  17.386 -0.3208  0.0166 -0.0953
 6743SOL     OW31861   4.055   2.792   9.884  0.0954  0.6845 -0.0007
 6743SOL    HW131862   4.015   2.869   9.926 -0.2496  0.3842  0.2232
 6743SOL    HW231863   4.143   2.824   9.868  0.6176 -1.4907 -1.5761
 6744SOL     OW31864   2.890   4.720   5.182  0.4318 -0.2272 -0.1282
 6744SOL    HW131865   2.944   4.697   5.106 -0.3661  1.5733 -1.2411
 6744SOL    HW231866   2.871   4.633   5.216 -0.3323 -0.2573 -0.6272
 6745SOL     OW31867   2.717   1.950   1.289 -0.1115 -0.5127 -0.1616
 6745SOL    HW131868   2.630   1.910   1.283 -0.9410  1.3795 -0.6209
 6745SOL    HW231869   2.691   2.042   1.290 -0.2024 -0.5300 -0.6951
 6746SOL     OW31870   4.163   3.180   5.048  0.1176  0.3819  0.2312
 6746SOL    HW131871   4.069   3.162   5.042  0.3004 -0.0970 -1.2144
 6746SOL    HW231872   4.196   3.095   5.076  1.3040  0.9174  0.4311
 6747SOL     OW31873   4.002   2.998  17.675 -0.5449 -0.2420 -0.3466
 6747SOL    HW131874   4.080   3.054  17.675 -0.6487 -0.1030  0.2433
 6747SOL    HW231875   3.987   3.010  17.581 -2.3565 -3.6527 -0.4603
 6748SOL     OW31876   4.183   2.205  17.434  0.2483  0.0969  0.0685
 6748SOL    HW131877   4.196   2.273  17.367  0.2016  1.8591  1.8339
 6748SOL    HW231878   4.102   2.228  17.479  0.1795  0.4004 -0.2042
 6749SOL     OW31879   2.630   3.282  15.221  0.3678 -0.8718 -0.0124
 6749SOL    HW131880   2.584   3.201  15.242 -0.4954  0.0095  1.4609
 6749SOL    HW231881   2.561   3.331  15.177  2.5036 -0.8576 -3.3685
 6750SOL     OW31882   3.303   4.636   5.999 -0.8016 -0.1930  0.5398
 6750SOL    HW131883   3.271   4.716   5.956 -0.1849  1.6436  3.4729
 6750SOL    HW231884   3.385   4.615   5.955 -0.0651  0.4665  1.5829
 6751SOL     OW31885   2.590   3.035   5.591  0.1348 -0.2566  0.3133
 6751SOL    HW131886   2.626   2.947   5.595 -0.1405 -0.4141 -0.9352
 6751SOL    HW231887   2.499   3.010   5.606  0.5877 -2.1473 -0.0707
 6752SOL     OW31888   3.523   1.283  10.467 -0.2897 -0.7133  0.0517
 6752SOL    HW131889   3.525   1.195  10.505  0.8907 -0.0169  1.6067
 6752SOL    HW231890   3.589   1.333  10.516  0.6621 -2.0770  0.1576
 6753SOL     OW31891   4.069   1.884   6.732 -0.2881 -0.7645  0.2771
 6753SOL    HW131892   3.981   1.870   6.767 -0.0771 -0.1493  1.0433
 6753SOL    HW231893   4.065   1.978   6.716  0.6918 -0.5163  1.4769
 6754SOL     OW31894   4.416   3.323   4.473 -0.3196 -0.1744  0.1680
 6754SOL    HW131895   4.364   3.287   4.545 -2.2010 -3.0608 -2.6108
 6754SOL    HW231896   4.484   3.256   4.482 -0.1324 -0.0340 -0.2059
 6755SOL     OW31897   1.048   4.041   6.924  0.3364 -0.1763 -0.1737
 6755SOL    HW131898   1.140   4.055   6.947  0.1975  1.5570 -0.6081
 6755SOL    HW231899   1.006   4.064   7.007 -4.0155  0.1737 -2.5054
 6756SOL     OW31900   4.264   1.744   1.933 -0.3171 -0.1951  0.1930
 6756SOL    HW131901   4.344   1.706   1.897 -0.8196  0.4248 -1.6098
 6756SOL    HW231902   4.260   1.696   2.016 -4.5435  1.2776  0.8452
 6757SOL     OW31903   4.136   3.921   8.005 -0.0063 -0.0402  0.0470
 6757SOL    HW131904   4.059   3.925   8.061 -1.0318 -2.1549 -1.2023
 6757SOL    HW231905   4.135   4.003   7.955 -0.1271 -0.0657  0.0089
 6758SOL     OW31906   2.071   2.052   2.648 -0.0096  0.6134 -0.2813
 6758SOL    HW131907   2.102   1.980   2.702 -0.6953 -0.3309 -1.1471
 6758SOL    HW231908   2.151   2.079   2.603 -0.5615  1.1204 -0.9629
 6759SOL     OW31909   3.970   3.489  14.651  0.1787 -0.1446 -0.1711
 6759SOL    HW131910   4.048   3.462  14.603  0.3316  0.6958 -0.3991
 6759SOL    HW231911   3.909   3.490  14.577  0.1481 -2.0082 -0.1657
 6760SOL     OW31912   1.086   3.716   7.039  0.0717  0.2167  0.4584
 6760SOL    HW131913   1.127   3.676   7.115 -0.4565 -1.7997 -0.3348
 6760SOL    HW231914   1.113   3.648   6.979  1.8321  1.8886 -0.6384
 6761SOL     OW31915   0.145   3.438   4.500  0.6040 -0.1522  0.0707
 6761SOL    HW131916   0.100   3.375   4.444  0.4073  1.3180 -1.4279
 6761SOL    HW231917   0.082   3.499   4.538  1.4859  0.9611 -0.2498
 6762SOL     OW31918   3.173   1.892  14.732 -0.2214  0.9256  0.0900
 6762SOL    HW131919   3.101   1.873  14.672 -2.5390  1.6626  2.6235
 6762SOL    HW231920   3.203   1.806  14.763 -0.4188  0.9332  0.3007
 6763SOL     OW31921   2.688   0.824   7.315  0.3954  0.4989  0.3705
 6763SOL    HW131922   2.689   0.739   7.359  2.1606 -1.0099 -2.6020
 6763SOL    HW231923   2.593   0.826   7.299  0.1187 -1.2772  1.8101
 6764SOL     OW31924   1.929   0.322   1.440  0.2715  0.1176 -0.1298
 6764SOL    HW131925   2.003   0.265   1.461 -0.0982 -0.2482  0.1526
 6764SOL    HW231926   1.862   0.300   1.504 -0.9393  0.6046 -1.2370
 6765SOL     OW31927   3.031   4.021   6.629 -0.0392  0.2544 -0.0199
 6765SOL    HW131928   2.940   4.051   6.631 -0.1080  0.1757 -2.1359
 6765SOL    HW231929   3.075   4.105   6.613 -1.5387  1.1311  0.4507
 6766SOL     OW31930   1.708   3.100   3.172  0.0715 -0.5091  0.0305
 6766SOL    HW131931   1.768   3.174   3.174 -0.7314  0.1294  0.3158
 6766SOL    HW231932   1.681   3.103   3.264 -3.3327  2.9056 -1.0790
 6767SOL     OW31933   1.712   0.469  16.370 -0.5466 -0.2864 -0.3773
 6767SOL    HW131934   1.690   0.547  16.422 -2.2742 -0.8381 -0.2698
 6767SOL    HW231935   1.655   0.485  16.295 -2.0064  0.7094  0.9190
 6768SOL     OW31936   3.540   1.439   2.009 -0.3122  0.3315  0.3486
 6768SOL    HW131937   3.527   1.463   1.917 -0.7276 -1.2336 -0.0057
 6768SOL    HW231938   3.543   1.348   1.977  1.2357  0.7240 -0.6373
 6769SOL     OW31939   4.009   3.908   9.214  0.2343  0.4911  0.5107
 6769SOL    HW131940   4.066   3.970   9.169 -0.4345  1.8849  1.5874
 6769SOL    HW231941   4.073   3.841   9.240 -0.4624 -0.1255  0.6266
 6770SOL     OW31942   0.562   2.961  10.555  0.4140  0.0239 -0.2142
 6770SOL    HW131943   0.632   3.021  10.584  0.5983 -0.2453 -0.1038
 6770SOL    HW231944   0.488   3.020  10.565 -0.1542 -1.1190  2.4322
 6771SOL     OW31945   2.463   4.002   0.478  0.4153  0.4708  0.0254
 6771SOL    HW131946   2.438   3.915   0.448  0.8682  0.7366 -1.1251
 6771SOL    HW231947   2.548   4.015   0.435  0.8581 -1.3302  0.3815
 6772SOL     OW31948   3.232   4.115   3.670 -0.0340  0.0673 -0.1543
 6772SOL    HW131949   3.292   4.067   3.613 -1.8264 -1.1716 -0.9707
 6772SOL    HW231950   3.210   4.048   3.735 -0.8619  0.1690 -0.3314
 6773SOL     OW31951   4.259   1.232   2.119 -0.1460 -0.2649 -0.0510
 6773SOL    HW131952   4.288   1.214   2.029  2.1953  0.1100  0.6081
 6773SOL    HW231953   4.286   1.324   2.124  1.6363 -0.7534 -0.4389
 6774SOL     OW31954   0.328   0.423   9.947  0.4970  0.7247  0.0343
 6774SOL    HW131955   0.298   0.506   9.983 -3.6835 -0.5699 -0.5077
 6774SOL    HW231956   0.388   0.456   9.879  0.1906  0.6549 -0.2714
 6775SOL     OW31957   4.028   3.130   5.682 -0.2559  0.4416  0.2546
 6775SOL    HW131958   4.099   3.190   5.662 -0.9088  1.2507  0.3864
 6775SOL    HW231959   4.070   3.083   5.755 -2.6111 -0.5703  0.9829
 6776SOL     OW31960   2.966   2.464   6.141  0.4778 -0.2304  0.3393
 6776SOL    HW131961   3.041   2.406   6.154  0.8760  0.9595  3.2874
 6776SOL    HW231962   2.949   2.446   6.048 -0.9974  0.1224  0.5463
 6777SOL     OW31963   2.807   0.951   9.930  0.3292  0.0713 -0.0743
 6777SOL    HW131964   2.770   0.895   9.999 -1.6871  2.1172  0.5009
 6777SOL    HW231965   2.767   0.912   9.852 -0.2688  0.4044  0.0624
 6778SOL     OW31966   3.674   4.388   4.118  0.2998 -0.0234  0.2069
 6778SOL    HW131967   3.761   4.361   4.147 -0.4452 -1.2616  1.2935
 6778SOL    HW231968   3.645   4.309   4.072  0.4759  0.2919 -0.4387
 6779SOL     OW31969   3.674   2.503   9.241 -0.0605  0.5981  0.4694
 6779SOL    HW131970   3.670   2.420   9.194  0.3089  0.1099  1.3101
 6779SOL    HW231971   3.703   2.476   9.328  0.9147  3.0444  0.9020
 6780SOL     OW31972   1.160   4.684  14.274 -0.7629 -0.1916 -0.2200
 6780SOL    HW131973   1.071   4.693  14.241 -0.9341 -1.1816 -0.0334
 6780SOL    HW231974   1.194   0.032  14.294 -0.0576 -0.2408 -1.2428
 6781SOL     OW31975   3.906   0.507  12.463  0.6020 -0.5830  0.0624
 6781SOL    HW131976   3.976   0.506  12.529  0.9556 -0.8127 -0.3164
 6781SOL    HW231977   3.944   0.445  12.401 -0.5987 -0.3384 -0.9194
 6782SOL     OW31978   3.508   4.259   0.862 -0.1398  0.4758  0.3879
 6782SOL    HW131979   3.485   4.166   0.855  0.2069  0.3866  0.4291
 6782SOL    HW231980   3.452   4.288   0.934 -1.1659  0.1369 -0.2831
 6783SOL     OW31981   4.196   0.521   8.703 -0.4158  0.1216 -0.0486
 6783SOL    HW131982   4.168   0.480   8.785 -1.3451  4.0656  1.6018
 6783SOL    HW231983   4.204   0.614   8.724  0.1425  0.2025 -0.6170
 6784SOL     OW31984   4.661   2.349   9.679  0.3559 -0.3038 -0.1839
 6784SOL    HW131985   4.597   2.419   9.670  1.0790  0.5358  1.3351
 6784SOL    HW231986   4.666   2.323   9.586 -0.5199 -2.2371  0.3097
 6785SOL     OW31987   2.082   1.915  17.462 -0.1005 -0.2521  0.1324
 6785SOL    HW131988   2.107   1.865  17.384 -0.1000 -0.3740  0.2112
 6785SOL    HW231989   2.109   1.999  17.425 -2.1487  0.6804  0.7922
 6786SOL     OW31990   2.348   3.570   4.750 -0.2604 -0.3885 -0.9606
 6786SOL    HW131991   2.372   3.657   4.781  1.1495 -1.1906  0.2233
 6786SOL    HW231992   2.329   3.524   4.832  0.4502  0.6786 -0.1966
 6787SOL     OW31993   3.762   2.886   3.728  0.1547  0.2503  0.4726
 6787SOL    HW131994   3.849   2.849   3.717  1.1079  3.1309 -1.3615
 6787SOL    HW231995   3.772   2.977   3.703 -0.9771  0.3877  0.4831
 6788SOL     OW31996   3.113   1.929   3.831  0.1127  0.0270 -0.2607
 6788SOL    HW131997   3.037   1.935   3.889  0.4458  0.7345  0.1035
 6788SOL    HW231998   3.070   1.918   3.746 -0.4946 -0.8375  0.1663
 6789SOL     OW31999   0.319   4.626   0.627  0.5086 -0.0170  0.3852
 6789SOL    HW132000   0.289   4.624   0.718  1.6601 -1.0403  0.7604
 6789SOL    HW232001   0.233   4.639   0.587  2.0319 -0.1071 -2.9647
 6790SOL     OW32002   2.768   2.342   3.306  0.5167 -0.1281 -0.1242
 6790SOL    HW132003   2.735   2.429   3.281 -0.5150 -0.2039  1.0032
 6790SOL    HW232004   2.706   2.291   3.254 -0.3965  1.0651 -0.2115
 6791SOL     OW32005   0.791   2.925   6.000 -0.0291  0.1442  0.0677
 6791SOL    HW132006   0.716   2.867   5.986  0.4255 -0.8406  1.6766
 6791SOL    HW232007   0.769   3.000   5.945 -1.6860  1.2030  2.1934
 6792SOL     OW32008   2.616   0.209   5.682 -0.1642 -0.0103  0.5490
 6792SOL    HW132009   2.694   0.214   5.738 -1.9595  0.5068  2.9791
 6792SOL    HW232010   2.548   0.197   5.749 -2.5014 -1.1154 -2.0206
 6793SOL     OW32011   1.006   4.210   5.613  0.0897  0.0713 -0.4363
 6793SOL    HW132012   0.960   4.136   5.652 -1.0423  0.0389 -1.8151
 6793SOL    HW232013   1.092   4.170   5.601 -0.5279 -2.2946  3.1491
 6794SOL     OW32014   3.747   1.768  16.027 -0.2516 -0.4149 -0.1926
 6794SOL    HW132015   3.693   1.801  15.955  1.5838  1.2956 -0.7739
 6794SOL    HW232016   3.730   1.834  16.094  0.8070 -0.6630  0.3070
 6795SOL     OW32017   4.469   4.163   0.567 -0.5616  0.1095 -0.1030
 6795SOL    HW132018   4.514   4.086   0.533  0.9131  0.7728  0.3479
 6795SOL    HW232019   4.501   4.155   0.657  2.5520  0.8090 -1.1400
 6796SOL     OW32020   0.494   3.597   5.811 -0.2235 -0.7674 -0.2986
 6796SOL    HW132021   0.487   3.661   5.881  0.1829  0.5691 -1.4770
 6796SOL    HW232022   0.414   3.547   5.827 -0.4613  0.1741  1.4049
 6797SOL     OW32023   3.871   0.402   2.025  0.1863 -0.6756 -0.0181
 6797SOL    HW132024   3.858   0.440   1.938 -0.5501 -1.4681 -0.2583
 6797SOL    HW232025   3.935   0.339   1.992  1.0156 -0.7437  1.7269
 6798SOL     OW32026   4.061   3.680   9.013  0.8804  0.4863  0.6065
 6798SOL    HW132027   4.009   3.669   9.093  0.6427  0.0159  0.3845
 6798SOL    HW232028   4.007   3.627   8.954  0.6110 -1.2843  2.4329
 6799SOL     OW32029   0.318   3.144   7.963 -0.2265  0.1487  0.4418
 6799SOL    HW132030   0.408   3.178   7.955 -0.5781  0.7845 -0.6842
 6799SOL    HW232031   0.280   3.225   7.929 -1.1040 -1.0253 -1.3437
 6800SOL     OW32032   3.479   1.314   6.967 -0.0449 -0.4433  0.0772
 6800SOL    HW132033   3.561   1.323   7.016  0.3559 -0.7135 -0.5446
 6800SOL    HW232034   3.421   1.282   7.037 -0.0786 -0.2616  0.1312
 6801SOL     OW32035   3.884   2.169   4.281  0.4302 -1.0078  0.2396
 6801SOL    HW132036   3.793   2.140   4.289 -0.1579  0.8354  0.1449
 6801SOL    HW232037   3.908   2.117   4.205  0.3588  2.0695 -1.8780
 6802SOL     OW32038   0.122   2.598   8.354  0.1021  0.7175  0.1006
 6802SOL    HW132039   0.114   2.564   8.265 -1.9991  0.3232  0.4367
 6802SOL    HW232040   0.208   2.640   8.352  0.2723  0.3494 -0.2638
 6803SOL     OW32041   3.492   2.052   8.318  0.3266  0.0235 -0.6763
 6803SOL    HW132042   3.452   2.130   8.358  0.4053 -1.0490  1.4831
 6803SOL    HW232043   3.580   2.088   8.304  1.1070 -1.6362  0.0375
 6804SOL     OW32044   0.587   1.205   4.853 -0.2398  0.3413 -0.7728
 6804SOL    HW132045   0.518   1.225   4.916  0.6795  2.1455 -0.3392
 6804SOL    HW232046   0.600   1.286   4.802 -1.1785  0.7743 -0.3191
 6805SOL     OW32047   1.551   1.002   0.141  0.0505  0.1699  0.1467
 6805SOL    HW132048   1.499   1.038   0.069 -1.1134  0.6220  1.2347
 6805SOL    HW232049   1.627   1.061   0.142 -0.7649  1.2053  2.0132
 6806SOL     OW32050   4.690   4.454   7.130 -0.4456 -0.5365  0.5618
 6806SOL    HW132051   4.649   4.399   7.197 -1.5992  0.5631  0.7727
 6806SOL    HW232052   4.678   4.399   7.053 -0.3105 -1.3165  1.0993
 6807SOL     OW32053   1.840   1.690  11.968 -0.0619 -0.7158 -0.0968
 6807SOL    HW132054   1.914   1.707  11.910  0.1625 -0.0700  0.3792
 6807SOL    HW232055   1.814   1.779  11.993  0.6260 -0.9675  1.5077
 6808SOL     OW32056   1.579   2.031  15.175 -0.5438  0.1544 -0.0723
 6808SOL    HW132057   1.578   2.122  15.146 -1.1956  0.4580  0.9304
 6808SOL    HW232058   1.675   2.029  15.172 -0.5948 -0.2587 -1.5360
 6809SOL     OW32059   3.391   0.843   8.930 -0.2800 -0.4441  0.0284
 6809SOL    HW132060   3.420   0.757   8.960  0.8490  0.2573  0.9293
 6809SOL    HW232061   3.394   0.900   9.006 -1.1866 -0.0408 -0.2275
 6810SOL     OW32062   2.670   2.027  17.352 -0.5646  0.3873  0.5656
 6810SOL    HW132063   2.592   2.033  17.407 -2.3753  1.4486 -2.1020
 6810SOL    HW232064   2.709   2.112  17.374  2.1411 -0.6535 -0.2685
 6811SOL     OW32065   0.325   2.877   9.041  0.7075 -0.0806  0.4697
 6811SOL    HW132066   0.383   2.806   9.070  0.5620  0.1520  1.3379
 6811SOL    HW232067   0.296   2.848   8.954  1.1527  0.8706  0.0078
 6812SOL     OW32068   0.252   3.034  16.023 -0.1297 -0.1186 -0.1868
 6812SOL    HW132069   0.251   3.002  15.932  0.7859 -3.3806  0.9593
 6812SOL    HW232070   0.192   3.106  16.005 -0.7302 -0.3498  0.9216
 6813SOL     OW32071   2.595   4.650   8.824  0.6885 -0.0810  0.2332
 6813SOL    HW132072   2.554   4.670   8.908  1.6858 -0.3409  0.7853
 6813SOL    HW232073   2.536   4.694   8.763 -1.9585 -0.1612  2.7332
 6814SOL     OW32074   1.376   2.587   2.939  0.5952  0.4050  0.3362
 6814SOL    HW132075   1.412   2.618   3.022 -0.9484 -1.3313  1.6650
 6814SOL    HW232076   1.459   2.596   2.892  0.3304  3.9642  0.5591
 6815SOL     OW32077   0.307   4.551   3.869  0.1183 -0.5026 -0.3399
 6815SOL    HW132078   0.366   4.616   3.832 -0.0900 -0.3932 -0.4794
 6815SOL    HW232079   0.301   4.575   3.962 -0.2687 -2.2207  0.0910
 6816SOL     OW32080   0.417   1.442   3.509  0.4357 -0.4883 -0.2574
 6816SOL    HW132081   0.385   1.527   3.538 -0.1655 -0.9971  0.5947
 6816SOL    HW232082   0.353   1.403   3.450 -0.9739  1.1220  0.2065
 6817SOL     OW32083   4.641   0.874  13.666 -0.3513  0.4635 -0.0784
 6817SOL    HW132084   4.583   0.949  13.679  0.7474  1.3777 -0.4812
 6817SOL    HW232085   4.604   0.829  13.591 -0.4530 -0.3614  0.4730
 6818SOL     OW32086   2.185   1.937   2.402  0.0668  0.3877  0.1335
 6818SOL    HW132087   2.211   2.022   2.368 -1.7926  1.9590  2.6544
 6818SOL    HW232088   2.089   1.942   2.398  0.2630  3.6663 -0.0809
 6819SOL     OW32089   0.559   0.873   8.447  0.2793 -0.5840 -0.1068
 6819SOL    HW132090   0.474   0.837   8.420  1.5947 -3.7357 -0.0363
 6819SOL    HW232091   0.602   0.800   8.492  0.7885 -0.6172 -0.6435
 6820SOL     OW32092   3.610   2.596  14.772 -0.2507 -0.3167 -0.6206
 6820SOL    HW132093   3.526   2.597  14.725 -1.8569  0.3231  2.3018
 6820SOL    HW232094   3.670   2.641  14.712  0.6358  0.2045  0.6568
 6821SOL     OW32095   2.889   3.246   1.160  0.1070  0.2373 -0.5526
 6821SOL    HW132096   2.977   3.238   1.124  0.7625 -3.0003  1.7127
 6821SOL    HW232097   2.894   3.338   1.185  1.2580 -0.1149  0.4967
 6822SOL     OW32098   0.741   4.096   1.473  0.0110 -0.0831  0.6695
 6822SOL    HW132099   0.747   4.164   1.406 -0.9852 -1.1614 -0.5262
 6822SOL    HW232100   0.650   4.071   1.455  0.4573 -0.0847 -1.6870
 6823SOL     OW32101   0.610   3.046   6.630  0.1686  0.1525 -0.1825
 6823SOL    HW132102   0.566   3.018   6.710  3.0403 -0.8374  1.0490
 6823SOL    HW232103   0.701   3.054   6.661  0.0323 -1.2392  0.5867
 6824SOL     OW32104   2.979   1.711   0.134 -0.3206  0.2773 -0.0609
 6824SOL    HW132105   3.057   1.657   0.126 -1.6552 -1.5120 -1.1922
 6824SOL    HW232106   2.977   1.754   0.219 -2.1528 -0.0774  0.0903
 6825SOL     OW32107   2.275   4.496   2.101 -0.5927 -0.1377 -0.0170
 6825SOL    HW132108   2.354   4.548   2.111  0.9345 -2.1465 -1.6227
 6825SOL    HW232109   2.302   4.425   2.160  1.8593  0.6582 -0.2101
 6826SOL     OW32110   0.266   2.696  12.715  0.2303 -0.1042 -0.5884
 6826SOL    HW132111   0.335   2.632  12.695  0.6073 -0.2373  1.1186
 6826SOL    HW232112   0.247   2.682  12.808  0.3274 -0.3887 -0.6119
 6827SOL     OW32113   2.040   1.713  11.799 -0.4154  0.3741 -0.4804
 6827SOL    HW132114   2.127   1.702  11.762  0.0760  0.5960  0.6185
 6827SOL    HW232115   1.997   1.768  11.734 -0.7106 -0.5335 -1.0449
 6828SOL     OW32116   3.597   4.494  12.619 -0.4440 -0.2904 -0.1141
 6828SOL    HW132117   3.641   4.476  12.702 -2.0796 -0.8135  0.6411
 6828SOL    HW232118   3.548   4.416  12.593  0.6218 -0.4799 -1.5369
 6829SOL     OW32119   1.164   3.108   4.019  0.1541  0.2970  0.7327
 6829SOL    HW132120   1.253   3.135   4.042  1.2359 -1.9715 -0.7543
 6829SOL    HW232121   1.169   3.012   4.012  0.0642  0.4413 -1.5913
 6830SOL     OW32122   0.129   2.555  13.350  0.6176  0.1737  0.1642
 6830SOL    HW132123   0.172   2.544  13.435  0.4934 -0.8247  0.1023
 6830SOL    HW232124   0.040   2.575  13.378  0.6350 -0.6691  0.8578
 6831SOL     OW32125   2.303   1.264  15.307  0.2812 -0.3454 -0.4862
 6831SOL    HW132126   2.320   1.254  15.401 -1.7266  0.5397 -0.0158
 6831SOL    HW232127   2.385   1.303  15.278 -0.2092  1.5191  0.6163
 6832SOL     OW32128   1.623   3.656   5.641  0.1763  0.4486 -0.1443
 6832SOL    HW132129   1.585   3.741   5.616  1.8747  0.8129 -1.5862
 6832SOL    HW232130   1.707   3.689   5.673  0.5614 -0.7300  0.0446
 6833SOL     OW32131   4.088   0.566  13.285 -0.1308 -0.2088  0.2925
 6833SOL    HW132132   4.052   0.612  13.360 -2.5295  2.1864 -2.3376
 6833SOL    HW232133   4.011   0.565  13.228 -0.3616 -2.8985  0.6357
 6834SOL     OW32134   4.440   1.703  15.389 -0.2345 -0.1358  0.3108
 6834SOL    HW132135   4.460   1.657  15.307 -2.0361 -0.5884  0.1278
 6834SOL    HW232136   4.360   1.659  15.417  0.3473 -2.7606 -2.0942
 6835SOL     OW32137   3.653   2.020   0.032  0.1777 -0.6138  0.2699
 6835SOL    HW132138   3.566   1.981   0.025  0.1121 -0.4834  0.3722
 6835SOL    HW232139   3.708   1.959  17.738  1.0786  1.0052 -0.7253
 6836SOL     OW32140   2.225   2.552   5.391 -0.5150  0.0584 -0.1272
 6836SOL    HW132141   2.130   2.542   5.380 -0.4418  0.5482 -1.2065
 6836SOL    HW232142   2.246   2.609   5.317 -0.4588  1.9408  1.3402
 6837SOL     OW32143   1.665   0.354  12.114 -0.2021 -0.2619 -0.2345
 6837SOL    HW132144   1.576   0.320  12.124 -0.4995  0.4327 -0.5087
 6837SOL    HW232145   1.679   0.397  12.199 -0.9534 -1.9111  0.7274
 6838SOL     OW32146   3.867   3.341   5.802  0.0821  0.1230  0.1418
 6838SOL    HW132147   3.932   3.284   5.760  0.0125 -0.0658  0.2891
 6838SOL    HW232148   3.850   3.285   5.878  1.3201 -1.8737 -1.0496
 6839SOL     OW32149   1.415   2.538  10.603 -0.4638  0.2222  0.1166
 6839SOL    HW132150   1.348   2.553  10.669  1.0530  0.3333  1.6405
 6839SOL    HW232151   1.450   2.453  10.630  0.8048  1.0982  1.2509
 6840SOL     OW32152   0.738   3.565   7.424 -0.0003  0.3563  0.6560
 6840SOL    HW132153   0.703   3.504   7.360  0.9789  1.1873 -0.6693
 6840SOL    HW232154   0.734   3.637   7.361  0.3239  0.4444  0.7346
 6841SOL     OW32155   4.568   3.786   1.921 -0.2945 -0.1910 -0.8262
 6841SOL    HW132156   4.598   3.846   1.853  0.6962  0.9282  0.6177
 6841SOL    HW232157   4.534   3.710   1.874 -1.5341 -0.9382  1.2855
 6842SOL     OW32158   3.701   0.875   9.030 -0.2535  0.2489 -0.2558
 6842SOL    HW132159   3.630   0.929   9.066 -1.8045 -1.2133 -1.1219
 6842SOL    HW232160   3.746   0.854   9.112  0.9965  1.9760 -0.5002
 6843SOL     OW32161   3.878   3.624   1.736 -0.1525 -0.8011 -0.0885
 6843SOL    HW132162   3.873   3.720   1.742  3.4756 -0.7517  2.3533
 6843SOL    HW232163   3.967   3.616   1.702 -0.5069 -2.3188 -0.6457
 6844SOL     OW32164   1.269   4.533   7.274  0.4088 -0.6562  0.1865
 6844SOL    HW132165   1.188   4.492   7.304 -0.2520 -1.5719 -2.8276
 6844SOL    HW232166   1.321   4.459   7.241  1.8002  0.8840 -1.0392
 6845SOL     OW32167   0.607   2.606   9.528 -0.3111  0.2431  0.3948
 6845SOL    HW132168   0.529   2.558   9.499 -0.6275  0.8896  0.1658
 6845SOL    HW232169   0.659   2.536   9.566  1.9602  0.8562 -1.6234
 6846SOL     OW32170   4.214   1.051  10.297 -0.4681 -0.1549  0.1912
 6846SOL    HW132171   4.205   1.115  10.226  1.1237  2.0335  1.9943
 6846SOL    HW232172   4.224   1.106  10.374 -0.5786 -0.6275  0.5453
 6847SOL     OW32173   0.536   0.486   9.780  0.6901  0.0833 -0.6535
 6847SOL    HW132174   0.584   0.408   9.806 -0.8834 -0.3373  0.9435
 6847SOL    HW232175   0.589   0.557   9.815 -1.2807  0.5232  1.4460
 6848SOL     OW32176   0.171   1.834  14.163 -0.0625 -0.3716 -0.2785
 6848SOL    HW132177   0.247   1.851  14.107  1.3109  0.8120  1.9059
 6848SOL    HW232178   0.118   1.800  14.091 -1.9374  1.2155  0.3584
 6849SOL     OW32179   0.591   1.975  11.599  0.0695  0.1711 -0.5544
 6849SOL    HW132180   0.664   1.952  11.543  1.4486  1.4607  0.6751
 6849SOL    HW232181   0.513   1.955  11.547 -0.4077 -0.4716  0.4061
 6850SOL     OW32182   3.650   0.305   1.706 -0.2550 -0.2539 -0.4514
 6850SOL    HW132183   3.622   0.396   1.702  0.1944 -0.0505  0.7888
 6850SOL    HW232184   3.662   0.292   1.612  0.4295  1.0803 -0.5545
 6851SOL     OW32185   1.538   3.969  12.968 -0.1499 -0.0089 -0.2774
 6851SOL    HW132186   1.592   3.980  12.890 -0.9049 -0.9820 -0.9337
 6851SOL    HW232187   1.476   4.039  12.950  1.2164  1.7540  1.7990
 6852SOL     OW32188   0.337   2.114  14.096  0.1751 -0.5837 -0.2027
 6852SOL    HW132189   0.314   2.033  14.050 -1.4797 -1.6311  2.4432
 6852SOL    HW232190   0.433   2.110  14.088  0.3163  1.0654  0.6725
 6853SOL     OW32191   0.218   3.121   3.628 -0.0877  0.4433  0.3851
 6853SOL    HW132192   0.132   3.079   3.630 -0.1461  0.3316 -3.7544
 6853SOL    HW232193   0.179   3.208   3.624 -4.8250 -1.5864  1.8380
 6854SOL     OW32194   0.794   0.562  11.365 -0.2051  0.0152  0.1644
 6854SOL    HW132195   0.860   0.500  11.398  0.9530  1.2572  0.1565
 6854SOL    HW232196   0.785   0.533  11.274  2.8269  1.9076 -0.7594
 6855SOL     OW32197   0.364   3.522  11.433 -0.0184  0.7954 -0.3405
 6855SOL    HW132198   0.401   3.434  11.443 -2.1341 -0.2178 -1.5169
 6855SOL    HW232199   0.293   3.526  11.497 -2.7350 -3.0016 -3.1649
 6856SOL     OW32200   1.386   3.270   8.104 -0.5376  0.0259 -1.0032
 6856SOL    HW132201   1.477   3.241   8.096 -1.7617 -2.5864 -5.2945
 6856SOL    HW232202   1.403   3.360   8.134  0.9559  0.1441 -2.2151
 6857SOL     OW32203   4.361   3.073   8.397 -0.1858 -0.2630  0.1597
 6857SOL    HW132204   4.402   3.159   8.410  0.2297 -0.3203 -0.7831
 6857SOL    HW232205   4.407   3.014   8.457 -1.3741 -0.4022  0.9286
 6858SOL     OW32206   2.080   1.683   4.584  0.0094  0.0763 -0.7333
 6858SOL    HW132207   2.068   1.769   4.626  2.1020 -1.4586  2.9989
 6858SOL    HW232208   2.152   1.646   4.634  0.1402  0.5464 -0.5729
 6859SOL     OW32209   4.731   1.907  13.715 -0.2331  0.4877  0.0732
 6859SOL    HW132210   0.019   1.996  13.739  0.5996 -0.1269  1.3751
 6859SOL    HW232211   4.652   1.924  13.663  0.1001 -0.9129 -0.8796
 6860SOL     OW32212   4.047   0.258   4.659 -0.1172 -0.4805 -0.3166
 6860SOL    HW132213   4.022   0.231   4.571  2.3536  1.0805 -1.4995
 6860SOL    HW232214   4.112   0.192   4.685 -2.1726 -1.5961  1.9619
 6861SOL     OW32215   3.578   1.121   2.228  0.0129  0.2894 -0.1005
 6861SOL    HW132216   3.656   1.168   2.198  0.3360  1.3829  2.4779
 6861SOL    HW232217   3.583   1.159   2.315  1.4522  0.2706 -0.1698
 6862SOL     OW32218   2.855   0.542   1.977 -0.5389 -0.4848 -0.0137
 6862SOL    HW132219   2.774   0.594   1.979 -0.1114  0.1374  0.6929
 6862SOL    HW232220   2.884   0.538   1.885 -1.9773 -0.0925 -0.4840
 6863SOL     OW32221   3.260   1.047  10.401  0.1744  0.4821 -0.4561
 6863SOL    HW132222   3.229   1.014  10.317  0.3858  0.4290 -0.5118
 6863SOL    HW232223   3.207   1.001  10.466  2.7361 -0.1644  1.1970
 6864SOL     OW32224   1.722   3.435  17.369 -0.1176 -0.0241  0.1156
 6864SOL    HW132225   1.750   3.344  17.378  2.2383  0.4023 -2.9090
 6864SOL    HW232226   1.641   3.426  17.319  0.5945 -1.6622 -0.7357
 6865SOL     OW32227   4.397   4.531   6.703 -0.1705  0.2328 -0.2806
 6865SOL    HW132228   4.492   4.525   6.714 -0.3941 -2.5834  0.1157
 6865SOL    HW232229   4.390   4.611   6.650 -0.2770  1.3062  1.3676
 6866SOL     OW32230   2.949   2.345   9.723 -0.5251  0.3929 -0.4588
 6866SOL    HW132231   3.005   2.383   9.655 -0.0676 -0.0006 -0.3052
 6866SOL    HW232232   2.884   2.415   9.715 -1.0652 -0.0467  0.1271
 6867SOL     OW32233   3.691   3.910   0.202  0.4435 -0.3809 -0.2011
 6867SOL    HW132234   3.709   3.958   0.283  0.6923 -1.2846  0.2816
 6867SOL    HW232235   3.757   3.841   0.212 -1.8057 -2.6341 -0.8679
 6868SOL     OW32236   1.382   3.065   0.847  0.2818 -0.6704  0.0239
 6868SOL    HW132237   1.388   3.138   0.785 -1.8438  0.1900  0.8211
 6868SOL    HW232238   1.399   3.115   0.927 -3.8031  1.2628 -0.3024
 6869SOL     OW32239   3.279   3.098  13.919 -0.3033 -0.1056  0.5109
 6869SOL    HW132240   3.338   3.086  13.994  1.0765 -1.5789 -0.8009
 6869SOL    HW232241   3.294   3.016  13.873 -0.8804 -0.4434  0.9285
 6870SOL     OW32242   1.917   3.806   0.772  0.1410 -0.2420 -0.0130
 6870SOL    HW132243   1.932   3.750   0.848 -1.2625 -0.3132  0.2197
 6870SOL    HW232244   1.984   3.874   0.783 -0.4360  0.3084  0.1644
 6871SOL     OW32245   3.252   0.865  17.269 -0.0900 -0.0913 -0.6898
 6871SOL    HW132246   3.329   0.879  17.324  0.0251 -1.0448 -0.6087
 6871SOL    HW232247   3.191   0.909  17.328  0.2169 -1.4096  0.6093
 6872SOL     OW32248   1.564   1.889   8.286 -0.1174  0.1532 -0.3343
 6872SOL    HW132249   1.598   1.922   8.369 -2.4115 -0.8434  1.0133
 6872SOL    HW232250   1.508   1.960   8.254 -0.3608  0.0095 -0.2307
 6873SOL     OW32251   2.340   4.193  13.670  0.0824  0.7594 -0.8751
 6873SOL    HW132252   2.246   4.211  13.676 -0.0989 -0.3456 -0.2989
 6873SOL    HW232253   2.374   4.282  13.662 -0.6506  0.9316 -2.1625
 6874SOL     OW32254   3.149   0.733   1.163  0.3634 -0.2737 -0.4217
 6874SOL    HW132255   3.238   0.705   1.187  0.3360  0.3495  0.4000
 6874SOL    HW232256   3.102   0.710   1.243  1.3902  2.0272  0.8516
 6875SOL     OW32257   0.697   1.095   8.748  0.3281 -0.0418 -0.2952
 6875SOL    HW132258   0.630   1.140   8.800  2.2380  0.9261  1.3014
 6875SOL    HW232259   0.660   1.084   8.660 -1.3477 -1.6541  0.5996
 6876SOL     OW32260   3.479   3.712   4.657  0.1315 -0.4582 -0.5824
 6876SOL    HW132261   3.459   3.723   4.564  0.4783 -1.1700 -0.7451
 6876SOL    HW232262   3.571   3.684   4.658  0.2589  0.0332  1.6511
 6877SOL     OW32263   0.755   4.402   3.432  0.0495 -0.0334  0.2426
 6877SOL    HW132264   0.688   4.384   3.365  0.1040 -1.2312  0.4981
 6877SOL    HW232265   0.804   4.320   3.438 -1.3030 -0.8198  0.6782
 6878SOL     OW32266   1.339   2.709   5.286  0.0380 -0.1517 -0.2621
 6878SOL    HW132267   1.419   2.664   5.258  0.5002  0.4627  0.0822
 6878SOL    HW232268   1.276   2.691   5.216 -2.1594 -0.0309  1.6522
 6879SOL     OW32269   4.157   2.875   6.858 -0.8181 -0.2578  0.0713
 6879SOL    HW132270   4.097   2.935   6.813  3.3368  0.5357 -4.3933
 6879SOL    HW232271   4.096   2.835   6.920  0.1998 -2.3364 -0.2842
 6880SOL     OW32272   0.286   2.675   6.486 -0.4057 -0.4399  0.4649
 6880SOL    HW132273   0.211   2.650   6.540 -0.3342 -1.0372  0.2953
 6880SOL    HW232274   0.346   2.667   6.560  0.5931  0.0209 -0.2973
 6881SOL     OW32275   0.516   3.046   2.689 -0.1676 -0.1775 -0.2992
 6881SOL    HW132276   0.572   2.984   2.734  0.6120 -0.8032 -2.1366
 6881SOL    HW232277   0.435   2.995   2.681 -1.7074  1.8235  2.4527
 6882SOL     OW32278   3.625   3.414   7.236 -0.3442  0.0381  0.5233
 6882SOL    HW132279   3.589   3.483   7.291  1.0162  1.5827 -0.5327
 6882SOL    HW232280   3.706   3.454   7.202 -2.1144  3.2910  0.1865
 6883SOL     OW32281   1.162   4.527   7.843  0.5493 -0.0070 -0.7086
 6883SOL    HW132282   1.099   4.468   7.885  0.5950  1.2614  1.1264
 6883SOL    HW232283   1.203   4.553   7.925 -2.6735  0.4231  0.7328
 6884SOL     OW32284   0.997   1.919   8.585  0.1531  0.0316 -0.2445
 6884SOL    HW132285   1.075   1.944   8.635 -1.2449  3.1902  0.3474
 6884SOL    HW232286   0.976   1.826   8.593 -2.8473  0.8121  0.7523
 6885SOL     OW32287   0.281   3.458   5.163  0.1854 -0.6267  0.1301
 6885SOL    HW132288   0.230   3.437   5.242 -0.0535 -0.8788 -0.0910
 6885SOL    HW232289   0.314   3.373   5.135 -1.0314 -1.1601  0.3161
 6886SOL     OW32290   0.867   1.101   2.741 -0.2870  0.1737 -0.5981
 6886SOL    HW132291   0.855   1.042   2.666 -1.0692  2.7314 -2.5143
 6886SOL    HW232292   0.787   1.154   2.728  0.4750  1.3405 -0.5097
 6887SOL     OW32293   3.054   2.772   9.080 -0.1343 -0.5952 -0.2511
 6887SOL    HW132294   3.078   2.680   9.091 -3.0227 -1.5669 -1.9408
 6887SOL    HW232295   3.060   2.773   8.984 -2.6407 -0.9000 -0.4147
 6888SOL     OW32296   3.695   0.820   3.605  0.9112  0.2454 -0.5444
 6888SOL    HW132297   3.624   0.880   3.584 -0.7670 -2.2572 -1.9711
 6888SOL    HW232298   3.665   0.786   3.690  0.8642 -0.6711 -0.9257
 6889SOL     OW32299   3.138   1.124   1.149 -0.2834  0.5852  0.1337
 6889SOL    HW132300   3.210   1.187   1.141  2.6330 -2.9570 -1.5981
 6889SOL    HW232301   3.062   1.176   1.173  0.7132  1.9789  0.2821
 6890SOL     OW32302   2.328   2.279   3.277  0.0377  0.2103  0.0469
 6890SOL    HW132303   2.298   2.198   3.236  1.9831 -0.1032 -0.7387
 6890SOL    HW232304   2.245   2.318   3.304 -0.7330 -0.6051 -1.1759
 6891SOL     OW32305   1.957   1.982   8.762  0.4461 -0.5444  0.1256
 6891SOL    HW132306   2.016   2.051   8.731  1.0784 -0.8859  0.5685
 6891SOL    HW232307   1.948   2.000   8.855  0.4823 -0.2533  0.0725
 6892SOL     OW32308   1.250   2.589   2.685 -0.4426  0.5999  0.2925
 6892SOL    HW132309   1.254   2.585   2.781 -0.3800  1.8344  0.3484
 6892SOL    HW232310   1.174   2.648   2.677 -0.6064  0.0287 -2.4105
 6893SOL     OW32311   1.985   3.021  15.738  0.1850 -0.0695  0.0466
 6893SOL    HW132312   1.968   2.951  15.675 -0.4224  0.4384 -0.3568
 6893SOL    HW232313   1.907   3.076  15.734  0.0364 -0.3611 -1.1797
 6894SOL     OW32314   2.826   2.154  17.085  0.1365 -0.7563 -0.3392
 6894SOL    HW132315   2.901   2.186  17.135 -1.1943 -0.4998  1.4835
 6894SOL    HW232316   2.821   2.065  17.120 -0.0652 -0.5472  0.1599
 6895SOL     OW32317   3.341   4.090  15.541 -0.0985 -1.1337 -0.5293
 6895SOL    HW132318   3.325   4.097  15.635 -0.0210 -2.1425 -0.4394
 6895SOL    HW232319   3.259   4.061  15.501 -0.5582 -0.5404 -0.0201
 6896SOL     OW32320   4.437   1.659   4.978 -0.4441  0.4538 -0.2392
 6896SOL    HW132321   4.496   1.730   4.956 -1.1513  0.7066 -1.3240
 6896SOL    HW232322   4.377   1.712   5.030  0.5949  0.2086  1.1859
 6897SOL     OW32323   3.984   3.648   3.705 -0.2225  0.6840  0.0925
 6897SOL    HW132324   4.028   3.604   3.632 -0.7265  2.6982 -1.4156
 6897SOL    HW232325   3.922   3.704   3.658  2.0523  1.8439 -1.5517
 6898SOL     OW32326   4.503   3.544  14.934  0.5947  0.4897  0.2280
 6898SOL    HW132327   4.493   3.580  15.022  0.3955  1.6192 -0.2492
 6898SOL    HW232328   4.412   3.527  14.908  1.3462 -0.2232 -1.9378
 6899SOL     OW32329   3.997   1.783  14.500 -0.1978  0.4221 -0.2235
 6899SOL    HW132330   3.940   1.811  14.572  1.8577 -2.5313  2.5437
 6899SOL    HW232331   4.069   1.733  14.539  0.4504  0.7445 -0.9936
 6900SOL     OW32332   1.658   1.032   9.245  0.4413 -0.6345  0.0188
 6900SOL    HW132333   1.595   1.054   9.314  0.3293  1.1728 -0.6806
 6900SOL    HW232334   1.728   1.096   9.248 -0.0895 -0.0246 -0.6360
 6901SOL     OW32335   0.465   1.702   8.003  0.2039  0.0833  0.2863
 6901SOL    HW132336   0.415   1.725   7.925 -1.8801 -0.8646  1.3340
 6901SOL    HW232337   0.403   1.684   8.073  2.3093 -1.1329  1.8494
 6902SOL     OW32338   0.940   2.578   0.909 -0.2836  0.0823  0.4678
 6902SOL    HW132339   0.935   2.573   0.814 -1.3819 -0.4637  0.5517
 6902SOL    HW232340   0.904   2.493   0.933 -2.3373  0.8011 -0.0497
 6903SOL     OW32341   0.159   3.109  12.207 -0.7308 -0.0956  0.9685
 6903SOL    HW132342   0.081   3.056  12.223 -2.3529  0.8901 -3.5145
 6903SOL    HW232343   0.226   3.041  12.206 -1.8508 -1.1925  0.6017
 6904SOL     OW32344   3.335   1.123  15.511 -0.4022 -0.0107  0.0083
 6904SOL    HW132345   3.403   1.140  15.446 -2.6211  0.5450 -2.1985
 6904SOL    HW232346   3.289   1.053  15.464 -0.2983  0.3653 -0.6633
 6905SOL     OW32347   0.079   3.054   6.936 -0.1502  0.9008  0.1564
 6905SOL    HW132348   0.006   3.009   6.893  0.6843  1.0341 -1.3808
 6905SOL    HW232349   0.071   3.017   7.024 -1.7362 -1.1396 -0.8545
 6906SOL     OW32350   1.908   1.157   4.998 -0.2370  0.4865 -0.0821
 6906SOL    HW132351   1.985   1.172   4.942 -0.5085 -0.2196 -0.6422
 6906SOL    HW232352   1.838   1.172   4.935 -0.3263  1.3407  0.2109
 6907SOL     OW32353   3.059   4.330   0.214  0.3610  0.3549 -0.0210
 6907SOL    HW132354   3.140   4.297   0.253  0.5088  0.0875 -0.5503
 6907SOL    HW232355   2.997   4.261   0.237  1.3933 -0.5496  0.0803
 6908SOL     OW32356   2.808   0.948  15.831 -0.2789  0.4962 -0.1603
 6908SOL    HW132357   2.782   1.020  15.773 -0.6227  0.5531  0.0655
 6908SOL    HW232358   2.885   0.913  15.787 -0.4736  1.6177 -1.4079
 6909SOL     OW32359   1.300   4.329  11.977  0.8554 -0.7597  0.2118
 6909SOL    HW132360   1.290   4.401  12.039 -0.8289  0.2112 -1.1805
 6909SOL    HW232361   1.366   4.360  11.915 -0.1038 -0.6715 -0.7682
 6910SOL     OW32362   3.331   2.119  17.622 -0.1336  0.4719  0.5181
 6910SOL    HW132363   3.401   2.064  17.587 -2.0789 -1.4959 -0.3127
 6910SOL    HW232364   3.372   2.206  17.626  1.3361 -0.1248 -1.3204
 6911SOL     OW32365   2.141   0.524  10.640  0.0529  0.4709  0.0078
 6911SOL    HW132366   2.190   0.443  10.628 -1.5926 -0.3951 -0.9358
 6911SOL    HW232367   2.211   0.583  10.669 -0.6417  2.1797 -1.7453
 6912SOL     OW32368   4.647   1.718   4.659 -0.1471  0.3584  0.4429
 6912SOL    HW132369   4.602   1.766   4.590  1.4532  0.3687 -0.6094
 6912SOL    HW232370   4.731   1.706   4.614 -1.0434  1.0452 -1.3768
 6913SOL     OW32371   0.556   2.701   9.047 -0.7073 -0.2466 -0.1415
 6913SOL    HW132372   0.571   2.623   8.993  0.1258  1.6907 -2.7383
 6913SOL    HW232373   0.602   2.766   8.993  1.3492 -1.7716 -0.2246
 6914SOL     OW32374   1.656   1.156   3.773  0.4463  0.2847  0.5998
 6914SOL    HW132375   1.649   1.146   3.678  0.6663  0.6108  0.5488
 6914SOL    HW232376   1.584   1.106   3.812  0.0778 -0.6870 -1.2993
 6915SOL     OW32377   1.833   2.108   5.655  0.3959  0.5341 -0.4120
 6915SOL    HW132378   1.758   2.166   5.659  0.8222  1.1109 -0.8040
 6915SOL    HW232379   1.867   2.108   5.565 -0.5480 -1.2973 -0.7735
 6916SOL     OW32380   0.220   4.182   2.668  0.2176 -0.1558 -0.0170
 6916SOL    HW132381   0.148   4.153   2.724  1.6684 -0.1187  1.8336
 6916SOL    HW232382   0.253   4.095   2.646  0.0747 -0.0665 -0.5869
 6917SOL     OW32383   4.551   3.231   5.294 -0.0636 -0.5302  0.4012
 6917SOL    HW132384   4.610   3.178   5.348  0.7429  2.2926  2.3057
 6917SOL    HW232385   4.561   3.316   5.337  2.1041  1.2936 -3.7021
 6918SOL     OW32386   1.360   2.408   3.368 -0.7176  0.0663  0.3289
 6918SOL    HW132387   1.411   2.489   3.376 -1.2202  0.4974 -0.9127
 6918SOL    HW232388   1.410   2.368   3.297 -0.3161  1.0446  0.0657
 6919SOL     OW32389   2.631   2.689   8.947  0.0843  0.5331 -0.3700
 6919SOL    HW132390   2.700   2.725   9.003 -2.1684  0.0040  2.7180
 6919SOL    HW232391   2.674   2.610   8.914  1.3560  1.6409 -1.3687
 6920SOL     OW32392   4.722   3.674  14.766  0.8717  0.1949 -0.0905
 6920SOL    HW132393   4.670   3.639  14.837 -0.9249  2.8332 -0.0904
 6920SOL    HW232394   4.658   3.725  14.717  1.5526  1.2639  0.1234
 6921SOL     OW32395   3.990   4.223  13.645  0.8937  0.1860 -0.2288
 6921SOL    HW132396   4.078   4.228  13.683  0.0847 -4.1413  2.2033
 6921SOL    HW232397   4.020   4.230  13.554 -0.1963 -0.5744 -0.6502
 6922SOL     OW32398   3.881   3.692   8.563 -0.3315 -0.2744 -0.3578
 6922SOL    HW132399   3.842   3.779   8.557  0.7278  0.3485  1.6463
 6922SOL    HW232400   3.914   3.691   8.653  1.3937 -1.2499 -0.9933
 6923SOL     OW32401   0.890   1.665   6.012  0.2988 -0.5576  0.2459
 6923SOL    HW132402   0.814   1.613   5.989 -1.2314  0.4507  2.9387
 6923SOL    HW232403   0.958   1.598   6.015  0.3951 -0.4382  0.9125
 6924SOL     OW32404   3.526   2.215   5.907  0.1687 -0.4080  0.6476
 6924SOL    HW132405   3.473   2.246   5.834  0.3803  2.0176  1.4974
 6924SOL    HW232406   3.493   2.127   5.922 -2.3680  0.4111 -0.2290
 6925SOL     OW32407   2.807   1.476   9.142  0.4351  0.4779  0.0671
 6925SOL    HW132408   2.803   1.520   9.227 -2.3143  1.6867 -0.6818
 6925SOL    HW232409   2.891   1.501   9.104 -0.1364 -0.9280 -2.1609
 6926SOL     OW32410   4.542   0.330   3.913 -0.0446 -0.3214 -0.0082
 6926SOL    HW132411   4.612   0.391   3.890 -1.3671  1.1302 -0.2272
 6926SOL    HW232412   4.585   0.247   3.930 -1.2448 -1.1733 -1.0966
 6927SOL     OW32413   1.089   3.660   8.351  0.0532  0.5451  0.0685
 6927SOL    HW132414   1.063   3.748   8.379 -1.7579  0.2856 -0.8049
 6927SOL    HW232415   1.099   3.610   8.432 -0.8155 -1.2206 -0.9346
 6928SOL     OW32416   2.374   4.273   7.559  0.0170 -0.1644 -0.5691
 6928SOL    HW132417   2.429   4.249   7.484 -2.8923 -0.8527 -2.4784
 6928SOL    HW232418   2.329   4.189   7.566 -3.3725  1.8018  1.1132
 6929SOL     OW32419   2.821   0.859   6.895  0.7474  0.6114  0.1697
 6929SOL    HW132420   2.726   0.858   6.911  0.6605 -1.5700 -0.4185
 6929SOL    HW232421   2.833   0.797   6.823 -2.7020  1.9894 -1.5730
 6930SOL     OW32422   0.042   1.808  12.449 -0.2765  0.2077  0.0752
 6930SOL    HW132423   0.087   1.743  12.502  1.8456  2.3941  0.9427
 6930SOL    HW232424   0.037   1.768  12.362 -0.0631 -1.2797  0.7580
 6931SOL     OW32425   1.203   4.659  17.132 -0.5895 -0.9522 -0.0032
 6931SOL    HW132426   1.194   4.665  17.037  3.5893 -2.0391 -0.4925
 6931SOL    HW232427   1.147   4.583  17.147  0.2694 -1.5220  0.3485
 6932SOL     OW32428   0.398   2.963   5.685 -0.6910 -0.4244 -0.1343
 6932SOL    HW132429   0.427   2.963   5.776 -1.1062 -0.1099 -0.0018
 6932SOL    HW232430   0.476   2.956   5.629 -0.6055  0.5185 -0.1462
 6933SOL     OW32431   3.156   3.419   1.214 -0.1144  0.0545 -0.1157
 6933SOL    HW132432   3.231   3.448   1.266 -0.6197  0.7891  0.2021
 6933SOL    HW232433   3.175   3.461   1.131  0.3669  1.4893  0.7343
 6934SOL     OW32434   2.454   4.575   6.874  0.0167 -0.0883 -0.7651
 6934SOL    HW132435   2.406   4.585   6.792  2.3421 -0.3640 -2.1811
 6934SOL    HW232436   2.392   4.535   6.935 -0.8292  0.4485 -1.2801
 6935SOL     OW32437   3.398   4.702   3.673 -0.2507 -0.5095  0.0121
 6935SOL    HW132438   3.305   4.683   3.658  0.0253 -1.3555 -0.5921
 6935SOL    HW232439   3.404   0.058   3.675  0.1985 -0.5505  1.0611
 6936SOL     OW32440   4.421   0.556   4.393 -0.1320 -0.4592 -0.3262
 6936SOL    HW132441   4.362   0.509   4.451  4.9468 -1.6568  3.8167
 6936SOL    HW232442   4.511   0.528   4.412  0.6328  1.3297 -1.1948
 6937SOL     OW32443   2.188   0.971   1.967  0.0021 -0.1093 -0.0551
 6937SOL    HW132444   2.225   1.027   2.036 -2.1808  3.0573 -1.4976
 6937SOL    HW232445   2.222   1.005   1.884  0.9119  0.6999  0.6451
 6938SOL     OW32446   1.879   3.389   7.625  0.1161 -0.1835  1.0020
 6938SOL    HW132447   1.824   3.434   7.689 -0.7633 -3.9710  2.8998
 6938SOL    HW232448   1.814   3.327   7.591  2.7415 -0.8718 -2.7768
 6939SOL     OW32449   2.744   2.003   7.200 -0.2252 -0.0898  0.7011
 6939SOL    HW132450   2.696   2.086   7.202 -0.5848 -0.3184  1.4416
 6939SOL    HW232451   2.825   2.028   7.155 -0.5185  0.2856  0.3795
 6940SOL     OW32452   3.754   3.708   6.176 -0.2113  0.2010  0.5211
 6940SOL    HW132453   3.832   3.654   6.163  1.4933  2.1835  2.5577
 6940SOL    HW232454   3.762   3.750   6.262 -0.7667 -1.9291  1.6106
 6941SOL     OW32455   4.043   0.894   6.040  0.4710  0.4199 -0.0437
 6941SOL    HW132456   4.068   0.918   5.951 -0.2987  0.7010 -0.1854
 6941SOL    HW232457   3.996   0.813   6.024 -0.2143  0.8283 -0.0863
 6942SOL     OW32458   4.604   1.536  11.562 -0.1281  0.0206  0.2592
 6942SOL    HW132459   4.652   1.456  11.581  1.6044  0.8389 -0.6588
 6942SOL    HW232460   4.516   1.505  11.541  0.3878  1.5945 -4.0995
 6943SOL     OW32461   0.349   3.364   6.693  0.6723  0.2782  0.2571
 6943SOL    HW132462   0.321   3.444   6.647 -0.9223 -0.4556 -0.0627
 6943SOL    HW232463   0.265   3.317   6.690 -0.0485  1.4731  2.2116
 6944SOL     OW32464   0.291   2.446   0.793 -0.4369 -0.3894  0.9617
 6944SOL    HW132465   0.234   2.521   0.811 -0.6746  0.2282 -2.3666
 6944SOL    HW232466   0.365   2.473   0.848  0.3184  1.4508 -0.9862
 6945SOL     OW32467   0.605   1.650   6.882 -0.2427  0.6240  0.2515
 6945SOL    HW132468   0.573   1.740   6.872  3.1414  1.7244 -0.7330
 6945SOL    HW232469   0.668   1.671   6.812  0.1897  1.6092  0.9438
 6946SOL     OW32470   2.296   1.432   4.146 -0.1313 -0.0981  0.2137
 6946SOL    HW132471   2.220   1.423   4.087  1.3836 -0.0224 -1.7475
 6946SOL    HW232472   2.263   1.384   4.222 -0.1984 -0.0148  0.2365
 6947SOL     OW32473   1.621   0.837   5.331  0.0251  0.5181 -0.0676
 6947SOL    HW132474   1.694   0.777   5.347 -0.9497 -0.9205 -0.9174
 6947SOL    HW232475   1.604   0.873   5.418  2.2737  0.8403  0.2171
 6948SOL     OW32476   3.448   3.228   7.144 -0.2232 -0.2217  0.2962
 6948SOL    HW132477   3.514   3.295   7.160 -1.7698  1.3951 -0.0938
 6948SOL    HW232478   3.392   3.264   7.076  1.6552  1.5684 -0.2864
 6949SOL     OW32479   0.501   1.633   2.601  0.2525  0.2052 -0.4981
 6949SOL    HW132480   0.430   1.651   2.664  0.8730 -0.4893  0.4023
 6949SOL    HW232481   0.482   1.547   2.563  1.2615  0.7820 -2.2728
 6950SOL     OW32482   3.474   3.479   0.860 -0.8515  0.1611 -0.4347
 6950SOL    HW132483   3.534   3.538   0.907 -0.6125 -2.4015  2.5053
 6950SOL    HW232484   3.499   3.483   0.768  1.3146  2.2227  0.2311
 6951SOL     OW32485   0.805   4.544   7.790  0.4889  0.1343 -0.0560
 6951SOL    HW132486   0.780   4.573   7.702 -2.3771 -0.6398  0.5118
 6951SOL    HW232487   0.886   4.593   7.802  0.7345 -0.8416  2.2505
 6952SOL     OW32488   0.542   0.751   8.856  1.1115  0.1316 -0.1853
 6952SOL    HW132489   0.457   0.788   8.832  0.5181 -1.5722 -0.7050
 6952SOL    HW232490   0.546   0.804   8.936  0.2688 -1.0316  0.6242
 6953SOL     OW32491   1.668   4.139  10.244 -0.4359 -0.5755 -0.1318
 6953SOL    HW132492   1.681   4.078  10.317 -5.1071  1.1369  2.1257
 6953SOL    HW232493   1.575   4.134  10.226 -0.3871 -1.4377 -0.1537
 6954SOL     OW32494   3.782   0.484   9.047 -0.1392 -0.3914  0.2093
 6954SOL    HW132495   3.740   0.467   8.963  1.0113 -0.4891 -0.3372
 6954SOL    HW232496   3.727   0.426   9.100 -0.1308 -0.5155  0.0842
 6955SOL     OW32497   2.560   3.511   7.335  0.3961  0.6893  0.1365
 6955SOL    HW132498   2.495   3.482   7.271  0.6333  0.0125  0.2030
 6955SOL    HW232499   2.505   3.532   7.411  0.0519  1.3269 -0.2935
 6956SOL     OW32500   0.416   0.444   6.206  0.2864 -0.3344 -0.3729
 6956SOL    HW132501   0.454   0.369   6.252 -0.0143 -0.7871 -0.8725
 6956SOL    HW232502   0.482   0.501   6.165 -2.4259  2.1670 -1.2578
 6957SOL     OW32503   2.102   3.894   3.646  0.0092  0.1924  0.0065
 6957SOL    HW132504   2.139   3.947   3.576  0.4469 -0.4804 -0.2739
 6957SOL    HW232505   2.130   3.950   3.719  2.1890 -0.1232 -0.5842
 6958SOL     OW32506   1.219   0.573   8.710  0.0283 -0.4531  0.4796
 6958SOL    HW132507   1.258   0.489   8.734  0.7386  0.1599  1.4509
 6958SOL    HW232508   1.247   0.586   8.619  0.7183 -2.0903  0.4446
 6959SOL     OW32509   2.740   0.297  13.235  0.4748  0.1123  0.3943
 6959SOL    HW132510   2.798   0.284  13.310  0.0139 -0.7740  0.5925
 6959SOL    HW232511   2.791   0.261  13.162 -1.2104 -0.9133 -0.2785
 6960SOL     OW32512   1.598   2.015  10.895  0.0705 -0.5078  0.1855
 6960SOL    HW132513   1.686   2.008  10.856 -0.2920  1.1546 -0.9304
 6960SOL    HW232514   1.612   2.085  10.959 -1.8116 -0.2668  0.3166
 6961SOL     OW32515   4.298   3.662   8.905  0.4118 -0.2735 -0.3379
 6961SOL    HW132516   4.266   3.618   8.825 -0.3407 -2.1690  0.9987
 6961SOL    HW232517   4.211   3.671   8.945  1.9317  0.0597  2.8415
 6962SOL     OW32518   2.702   0.394   3.246  0.2013 -0.3291  0.3674
 6962SOL    HW132519   2.735   0.387   3.156  1.8329 -0.5630  0.9805
 6962SOL    HW232520   2.685   0.487   3.235 -0.6595 -0.6136 -0.7204
 6963SOL     OW32521   2.256   4.430   7.339 -0.2359 -0.3557 -0.2496
 6963SOL    HW132522   2.237   4.347   7.383 -3.6472  0.5611  0.0367
 6963SOL    HW232523   2.183   4.490   7.357  0.7756  0.7796  0.0563
 6964SOL     OW32524   2.921   2.695   4.846  0.1275  0.0648  0.1851
 6964SOL    HW132525   2.876   2.612   4.835  1.6127 -0.4396 -2.1714
 6964SOL    HW232526   2.885   2.726   4.929 -0.2042  2.8545 -1.0124
 6965SOL     OW32527   2.233   4.654   2.793 -0.1217  0.0358  0.1641
 6965SOL    HW132528   2.254   4.681   2.883  2.4409  0.8717 -0.6681
 6965SOL    HW232529   2.318   4.649   2.749 -0.3901  0.0979 -0.3553
 6966SOL     OW32530   0.490   3.155  12.285 -0.0305  0.6591  0.6649
 6966SOL    HW132531   0.407   3.204  12.283  0.4594  1.5021  1.2515
 6966SOL    HW232532   0.473   3.097  12.359  0.4732  0.5933  0.7252
 6967SOL     OW32533   2.878   4.521   4.873 -0.2396  0.0086 -0.7347
 6967SOL    HW132534   2.912   4.434   4.895 -0.0033  0.3768  0.3956
 6967SOL    HW232535   2.942   4.574   4.921 -1.4623  1.7115 -0.9763
 6968SOL     OW32536   3.371   2.475   6.019  0.5828  0.3616 -0.3598
 6968SOL    HW132537   3.372   2.489   5.924 -0.5203  2.0668 -0.1181
 6968SOL    HW232538   3.461   2.446   6.035  0.7202 -0.8788 -3.3918
 6969SOL     OW32539   4.171   4.738  12.560 -0.2909  0.4060  0.7544
 6969SOL    HW132540   4.131   4.678  12.623 -0.5187  0.8558  1.0309
 6969SOL    HW232541   4.232   0.044  12.617  0.5198  1.0620 -0.6310
 6970SOL     OW32542   2.814   3.731   5.793  0.2924  0.4511  0.0418
 6970SOL    HW132543   2.822   3.823   5.768 -0.8287  0.6349  0.3632
 6970SOL    HW232544   2.904   3.706   5.813  0.3740  1.3596  0.7755
 6971SOL     OW32545   4.467   2.893  17.480 -0.2318  0.4937  0.2101
 6971SOL    HW132546   4.384   2.938  17.467  0.3193  0.9743 -1.5457
 6971SOL    HW232547   4.521   2.961  17.440  1.6880 -0.4767  1.1205
 6972SOL     OW32548   4.398   4.361   3.828  0.2246  0.3436  0.6328
 6972SOL    HW132549   4.454   4.362   3.906  0.4200  1.7013  0.4703
 6972SOL    HW232550   4.399   4.455   3.810 -0.7487  0.6292  2.0632
 6973SOL     OW32551   0.640   3.310   3.438  0.6309  0.1989 -0.6924
 6973SOL    HW132552   0.612   3.353   3.519  0.3204 -1.3525  0.0094
 6973SOL    HW232553   0.566   3.327   3.379 -1.9389 -0.0999  2.4340
 6974SOL     OW32554   4.679   3.827  15.285 -0.4853 -0.5865 -0.9416
 6974SOL    HW132555   0.034   3.837  15.279 -0.5003 -1.1999 -2.1822
 6974SOL    HW232556   4.662   3.878  15.207 -0.7606  0.9094  0.0992
 6975SOL     OW32557   3.062   2.740   1.044 -0.3216  0.0907  0.0535
 6975SOL    HW132558   2.972   2.709   1.038 -0.6953  1.4448 -1.6276
 6975SOL    HW232559   3.044   2.829   1.074 -2.7444 -0.0210 -1.0897
 6976SOL     OW32560   0.211   4.344   1.197  0.5036  0.1421 -0.1057
 6976SOL    HW132561   0.124   4.382   1.209 -0.0314 -0.9919 -0.3259
 6976SOL    HW232562   0.199   4.299   1.113  0.3855 -1.2604  0.6488
 6977SOL     OW32563   2.326   2.288  12.701 -0.0131 -0.1275  0.1589
 6977SOL    HW132564   2.266   2.340  12.755 -1.2468 -1.3678  0.0118
 6977SOL    HW232565   2.389   2.345  12.658 -0.7252 -0.4792 -1.3621
 6978SOL     OW32566   4.342   2.777   5.335 -0.3572  0.5164 -0.3853
 6978SOL    HW132567   4.328   2.871   5.344 -1.4806  0.3828 -0.7882
 6978SOL    HW232568   4.281   2.739   5.399  0.8719 -0.9691 -0.0969
 6979SOL     OW32569   1.434   0.014  15.260 -0.4661  0.0016  0.0466
 6979SOL    HW132570   1.473   0.081  15.205 -1.4469  1.0150  0.5789
 6979SOL    HW232571   1.344   0.027  15.230 -0.3749 -0.9634 -0.6497
 6980SOL     OW32572   4.084   1.177   2.358  0.0158  0.1920 -0.0854
 6980SOL    HW132573   4.019   1.247   2.365 -0.0353  0.3361 -2.0758
 6980SOL    HW232574   4.160   1.228   2.331  1.6646 -1.6415  1.1381
 6981SOL     OW32575   1.388   1.490   1.989 -0.3385  0.3020  0.1699
 6981SOL    HW132576   1.298   1.511   1.963  0.1548  1.1389 -0.9093
 6981SOL    HW232577   1.387   1.478   2.083 -2.0306 -1.7285 -0.1187
 6982SOL     OW32578   3.184   0.759  10.153 -0.2905 -0.0109 -0.1516
 6982SOL    HW132579   3.228   0.744  10.237 -0.7544 -2.6506 -0.3954
 6982SOL    HW232580   3.112   0.698  10.139 -0.0768 -0.3671  0.2905
 6983SOL     OW32581   0.674   4.517   2.232 -0.5682 -0.4215  0.2239
 6983SOL    HW132582   0.679   4.431   2.191 -2.8662 -1.7716  2.7865
 6983SOL    HW232583   0.582   4.542   2.224 -0.3198 -0.0334 -1.5106
 6984SOL     OW32584   3.688   3.800  13.629 -0.4140  0.5861 -0.7821
 6984SOL    HW132585   3.616   3.863  13.625  0.2860  1.4181 -0.1187
 6984SOL    HW232586   3.644   3.724  13.668  0.1967  0.2318 -0.7749
 6985SOL     OW32587   3.872   2.571   7.335 -0.0979  0.2805  0.2278
 6985SOL    HW132588   3.835   2.528   7.412  1.8405  0.0329  1.0185
 6985SOL    HW232589   3.821   2.652   7.328 -1.4302 -0.5241  0.7576
 6986SOL     OW32590   2.733   2.294   1.183  0.2891  0.4293  0.0020
 6986SOL    HW132591   2.760   2.309   1.273 -1.6725  2.7960  0.1998
 6986SOL    HW232592   2.659   2.355   1.179 -0.1378 -0.3424 -3.9796
 6987SOL     OW32593   3.282   0.280   7.688 -0.1157 -0.0884  0.1252
 6987SOL    HW132594   3.286   0.301   7.781  1.1537 -2.3925  0.5747
 6987SOL    HW232595   3.285   0.372   7.660 -1.4113 -0.2062 -0.4128
 6988SOL     OW32596   0.443   3.774  11.601 -0.7855 -0.6551 -0.2409
 6988SOL    HW132597   0.392   3.840  11.554 -0.9491 -1.7802 -1.6506
 6988SOL    HW232598   0.449   3.705  11.535 -0.4578  1.2546 -2.2312
 6989SOL     OW32599   2.107   0.283   3.437 -0.1161  0.7291  0.1095
 6989SOL    HW132600   2.110   0.206   3.494  0.3094  1.7264  1.4497
 6989SOL    HW232601   2.015   0.298   3.416  0.2400  2.3341 -0.3075
 6990SOL     OW32602   2.513   4.621   3.344 -0.0185 -0.4132 -0.0343
 6990SOL    HW132603   2.489   4.624   3.251 -3.4433  0.1199  0.8597
 6990SOL    HW232604   2.449   4.686   3.372  2.0992  1.7725 -0.2320
 6991SOL     OW32605   2.276   0.866   2.290 -0.1330 -0.0884 -0.3486
 6991SOL    HW132606   2.185   0.853   2.316  0.6737 -4.9094 -0.0111
 6991SOL    HW232607   2.310   0.812   2.361  1.9371 -0.3899 -1.5909
 6992SOL     OW32608   3.493   1.311  12.286 -0.8730  0.3608  0.4928
 6992SOL    HW132609   3.497   1.216  12.282 -0.3598  0.3740  0.7215
 6992SOL    HW232610   3.446   1.326  12.204  0.8333 -2.6827 -1.0275
 6993SOL     OW32611   1.181   4.042   4.654  0.5474 -0.2168 -0.0080
 6993SOL    HW132612   1.210   3.958   4.619 -1.1725 -1.1607  0.8581
 6993SOL    HW232613   1.113   4.018   4.717  0.3743 -2.6168 -1.0984
 6994SOL     OW32614   0.293   2.848   8.442  0.0035 -0.4685 -0.2805
 6994SOL    HW132615   0.380   2.811   8.426  0.1403 -0.2624 -0.0229
 6994SOL    HW232616   0.297   2.927   8.386 -1.2357 -1.6336 -2.0044
 6995SOL     OW32617   2.821   2.776   5.121 -0.3559  0.8594 -0.3651
 6995SOL    HW132618   2.818   2.692   5.165  0.9051  1.5755  1.0976
 6995SOL    HW232619   2.879   2.818   5.184  0.3444  0.0663 -0.4834
 6996SOL     OW32620   2.598   4.450   7.779 -0.0767  0.4004 -0.4147
 6996SOL    HW132621   2.591   4.498   7.696 -2.4001  2.4390  0.9673
 6996SOL    HW232622   2.558   4.365   7.758  1.5788 -1.1863  2.7651
 6997SOL     OW32623   3.474   3.866   8.055  0.0040 -0.0646  0.2405
 6997SOL    HW132624   3.412   3.853   7.984 -0.3856 -1.1293  0.7707
 6997SOL    HW232625   3.550   3.817   8.025  0.2652  0.2728  0.3465
 6998SOL     OW32626   0.663   0.396   4.431  0.2148 -0.3007  0.3121
 6998SOL    HW132627   0.687   0.485   4.455 -1.0787  0.7779 -2.3459
 6998SOL    HW232628   0.655   0.391   4.335 -1.1053 -0.5606  0.4327
 6999SOL     OW32629   2.327   3.698   4.347  0.1735 -0.1529  0.1325
 6999SOL    HW132630   2.272   3.713   4.270  1.2383 -0.1164 -0.6185
 6999SOL    HW232631   2.344   3.789   4.369 -0.4375 -0.6167  2.5235
 7000SOL     OW32632   4.151   3.618   5.653 -0.5014  0.5452  0.3700
 7000SOL    HW132633   4.229   3.591   5.702 -0.9069 -2.4647 -0.6162
 7000SOL    HW232634   4.087   3.627   5.724  0.7487  0.7020  1.4877
 7001SOL     OW32635   2.691   2.009   8.169 -0.4273 -0.0081  0.5469
 7001SOL    HW132636   2.740   2.025   8.249 -0.0860 -1.5743  0.6530
 7001SOL    HW232637   2.761   1.979   8.111 -0.3216  0.2591  0.5391
 7002SOL     OW32638   0.638   3.636   5.214 -0.1702  0.2259 -0.2920
 7002SOL    HW132639   0.726   3.605   5.191  0.1442 -0.1473  1.4336
 7002SOL    HW232640   0.670   3.720   5.247 -1.1795  1.2878 -2.0121
 7003SOL     OW32641   2.484   1.713   3.078 -0.0594 -0.3387  0.1077
 7003SOL    HW132642   2.561   1.688   3.131  0.8218  4.1556  0.8977
 7003SOL    HW232643   2.526   1.701   2.993  1.2260 -3.8078  1.2113
 7004SOL     OW32644   0.540   1.619   0.061 -0.3268 -0.1474 -0.0528
 7004SOL    HW132645   0.535   1.692   0.122  5.5610 -1.3698  1.9313
 7004SOL    HW232646   0.633   1.624   0.038 -0.1979 -1.2204  0.2047
 7005SOL     OW32647   0.852   1.902   7.116 -0.3271 -0.1580  0.4501
 7005SOL    HW132648   0.806   1.907   7.200  0.1505 -1.3495  0.7705
 7005SOL    HW232649   0.861   1.808   7.107 -2.5850 -0.2260 -1.1429
 7006SOL     OW32650   3.013   3.719  13.771  0.5097 -0.5540  0.5481
 7006SOL    HW132651   3.003   3.791  13.709  1.8894 -0.6208  0.2464
 7006SOL    HW232652   2.922   3.688  13.777  0.1954  0.3129  0.3705
 7007SOL     OW32653   2.242   1.731   3.225 -0.3383 -0.1290 -0.1714
 7007SOL    HW132654   2.291   1.725   3.307 -2.1157 -0.0860  0.8969
 7007SOL    HW232655   2.312   1.698   3.169 -0.2330  2.0104 -1.2901
 7008SOL     OW32656   0.695   0.472   6.702 -0.0702 -0.0136 -0.1563
 7008SOL    HW132657   0.674   0.517   6.620 -2.8379 -2.2415 -0.6599
 7008SOL    HW232658   0.758   0.405   6.674 -0.7982 -1.0937  0.7946
 7009SOL     OW32659   3.837   0.392   3.985  0.0887  0.2198 -0.5741
 7009SOL    HW132660   3.744   0.391   3.962 -0.6966 -1.5214  2.5413
 7009SOL    HW232661   3.886   0.363   3.909  1.0449 -1.7352  0.7772
 7010SOL     OW32662   4.230   0.057   4.756  0.1345  0.1890 -0.2131
 7010SOL    HW132663   4.255   4.707   4.737 -1.3633 -0.6363  1.7142
 7010SOL    HW232664   4.303   0.109   4.722  0.8681 -0.4979  0.3302
 7011SOL     OW32665   1.182   3.643   6.332 -0.4461 -0.6403  0.2725
 7011SOL    HW132666   1.268   3.601   6.326  0.3107  0.9097  0.2171
 7011SOL    HW232667   1.144   3.613   6.414 -1.9051  1.9400  0.5507
 7012SOL     OW32668   2.269   3.784   8.562  0.0559  0.0117  0.3152
 7012SOL    HW132669   2.190   3.837   8.553  1.0846  1.4997  0.0099
 7012SOL    HW232670   2.278   3.787   8.657 -0.6144 -0.1505  0.3835
 7013SOL     OW32671   2.792   2.185   4.119  0.4567 -0.4806  0.3815
 7013SOL    HW132672   2.865   2.180   4.181  2.5136 -1.4429 -2.0982
 7013SOL    HW232673   2.835   2.190   4.034 -2.8530  1.0707 -1.1906
 7014SOL     OW32674   3.928   3.742   0.437 -0.1146 -0.0485 -0.1160
 7014SOL    HW132675   3.860   3.682   0.407  0.2625  0.0208 -1.0892
 7014SOL    HW232676   3.965   3.694   0.511 -2.7676  1.8168  2.4270
 7015SOL     OW32677   0.453   4.179   4.852 -0.2583  0.4811 -0.0985
 7015SOL    HW132678   0.430   4.230   4.930 -0.4995 -0.2052  0.2743
 7015SOL    HW232679   0.476   4.096   4.892  0.8020  1.3186  0.9963
 7016SOL     OW32680   1.971   4.024  17.081 -0.1621 -0.1865 -0.0979
 7016SOL    HW132681   1.880   4.024  17.111 -0.0037 -0.4687  0.3778
 7016SOL    HW232682   2.016   4.061  17.157 -3.4619  3.1803  0.2096
 7017SOL     OW32683   0.964   1.515  16.928 -0.4517  0.5282  0.2912
 7017SOL    HW132684   0.879   1.558  16.918  0.8141  2.9629 -0.0760
 7017SOL    HW232685   0.990   1.527  16.836 -2.8658  1.3558 -0.2920
 7018SOL     OW32686   0.164   3.249  11.386  0.0663  0.2474  0.1512
 7018SOL    HW132687   0.159   3.297  11.303  0.0278 -0.2060 -0.1047
 7018SOL    HW232688   0.115   3.314  11.437 -0.3604 -0.7211  0.9743
 7019SOL     OW32689   1.795   4.089   7.189 -0.7823  0.1255 -0.0617
 7019SOL    HW132690   1.786   3.996   7.167  0.1899 -0.2329  1.0282
 7019SOL    HW232691   1.798   4.082   7.285 -0.9278  1.4782  0.0410
 7020SOL     OW32692   4.068   0.037   5.555  0.9315 -0.2547  0.1431
 7020SOL    HW132693   4.132   0.063   5.622  0.6028 -0.3816  0.5076
 7020SOL    HW232694   4.055   0.115   5.501  0.0148  0.3679  1.2671
 7021SOL     OW32695   2.186   4.501  12.882  0.1309  0.2402  0.6987
 7021SOL    HW132696   2.124   4.520  12.952  0.1673  0.6633  0.6196
 7021SOL    HW232697   2.263   4.479  12.935 -0.2526 -3.9309 -0.4715
 7022SOL     OW32698   1.671   2.951  17.451 -0.1339  0.4573 -0.0126
 7022SOL    HW132699   1.739   3.017  17.464 -0.3832  0.5862  0.6562
 7022SOL    HW232700   1.716   2.870  17.425  1.3626  0.8395  1.3787
 7023SOL     OW32701   3.225   2.305   5.780  0.3704  0.3985 -0.1022
 7023SOL    HW132702   3.274   2.384   5.753  1.3908 -0.3228 -0.3655
 7023SOL    HW232703   3.145   2.308   5.728  0.5598 -0.5612 -0.4316
 7024SOL     OW32704   0.367   4.589   3.201 -0.4829  0.1573  0.1646
 7024SOL    HW132705   0.408   4.614   3.118 -1.5448 -1.9377 -0.9710
 7024SOL    HW232706   0.377   4.494   3.195 -1.9036  0.1192 -1.6447
 7025SOL     OW32707   0.643   1.730   8.258  0.3212 -0.0526  0.3167
 7025SOL    HW132708   0.709   1.760   8.195  0.6527 -0.9261  0.2398
 7025SOL    HW232709   0.645   1.805   8.317  0.6039 -0.9180  1.4052
 7026SOL     OW32710   3.250   1.404   8.436 -0.1694  0.0255 -0.3397
 7026SOL    HW132711   3.296   1.462   8.376  1.0554  0.3038  0.8706
 7026SOL    HW232712   3.163   1.396   8.396 -0.4897 -1.4230  0.6539
 7027SOL     OW32713   0.365   1.777   4.611 -0.5247  0.3525 -1.0610
 7027SOL    HW132714   0.342   1.854   4.559 -0.3998  0.1029 -1.4843
 7027SOL    HW232715   0.349   1.708   4.547  1.6680 -1.6287  0.5527
 7028SOL     OW32716   4.564   3.071  12.266  0.8702 -0.2603 -0.0502
 7028SOL    HW132717   4.508   3.131  12.218  0.0643  0.0260  1.2532
 7028SOL    HW232718   4.572   2.990  12.214  0.6185 -0.7099  0.6091
 7029SOL     OW32719   4.452   1.743   0.404  0.2801 -0.3846  0.1906
 7029SOL    HW132720   4.395   1.819   0.396  4.5008  2.7968  0.1644
 7029SOL    HW232721   4.502   1.754   0.324 -0.2921  0.7425 -0.0133
 7030SOL     OW32722   3.601   1.855  11.237  0.4632 -1.1392  0.1012
 7030SOL    HW132723   3.668   1.791  11.216  0.6452 -0.9859  0.2098
 7030SOL    HW232724   3.584   1.891  11.150  1.3167  0.6729  0.6860
 7031SOL     OW32725   1.093   1.206   5.772 -1.4488 -0.3127 -0.5885
 7031SOL    HW132726   1.123   1.143   5.707  0.0649 -0.3722  0.1693
 7031SOL    HW232727   1.135   1.173   5.852  0.6921  1.7528 -0.8490
 7032SOL     OW32728   1.887   3.904   9.982 -0.2472 -0.3111  0.4305
 7032SOL    HW132729   1.882   3.814  10.014  1.3410  0.4295  2.7404
 7032SOL    HW232730   1.948   3.945  10.044  0.0464 -1.8264  1.1249
 7033SOL     OW32731   2.222   1.957   7.335 -0.4304 -0.6928 -0.0524
 7033SOL    HW132732   2.251   2.048   7.333  0.1468 -0.8951 -0.7473
 7033SOL    HW232733   2.307   1.914   7.345 -1.0584 -1.6386  1.2699
 7034SOL     OW32734   2.271   2.299   9.908 -0.5056 -0.0648 -0.3664
 7034SOL    HW132735   2.264   2.343   9.823  0.3717  0.2517 -0.2700
 7034SOL    HW232736   2.289   2.209   9.880  2.3413 -0.6453  3.3406
 7035SOL     OW32737   0.632   4.018   8.044 -0.5716 -0.5842  0.1042
 7035SOL    HW132738   0.687   4.002   8.121 -1.5555 -0.1294  0.9148
 7035SOL    HW232739   0.544   4.022   8.082 -1.3209 -0.4240 -1.6543
 7036SOL     OW32740   0.389   0.273   4.867  0.2707  0.0991 -0.4112
 7036SOL    HW132741   0.403   0.186   4.904 -1.3243  0.0603  0.0769
 7036SOL    HW232742   0.476   0.312   4.856 -1.1351  2.9523 -1.3798
 7037SOL     OW32743   3.363   2.003   7.021  0.2045 -0.0969  0.6679
 7037SOL    HW132744   3.453   2.017   6.992 -0.7301  1.7216 -1.3818
 7037SOL    HW232745   3.367   1.923   7.072 -2.0312 -1.4814 -1.2758
 7038SOL     OW32746   0.645   4.716  11.782  0.3893 -0.4413 -0.0860
 7038SOL    HW132747   0.587   0.040  11.740  0.1771 -2.1971 -2.4556
 7038SOL    HW232748   0.709   0.033  11.824 -0.7494  1.8912 -1.5116
 7039SOL     OW32749   3.587   0.487  12.008 -0.8852  0.3272  0.1148
 7039SOL    HW132750   3.548   0.445  11.932 -2.1130 -0.4330  1.1653
 7039SOL    HW232751   3.518   0.474  12.073 -1.5604 -0.4336 -0.7658
 7040SOL     OW32752   0.648   3.716   7.889  0.8299 -0.3298 -1.0368
 7040SOL    HW132753   0.599   3.797   7.882  2.0650  0.4979 -0.2855
 7040SOL    HW232754   0.616   3.672   7.811  0.1827 -0.8795 -0.4537
 7041SOL     OW32755   4.187   2.569  16.808 -0.0720  0.3473  0.0220
 7041SOL    HW132756   4.237   2.548  16.729 -0.4102 -1.4205  0.2669
 7041SOL    HW232757   4.145   2.648  16.775  1.4465  1.5273  0.8902
 7042SOL     OW32758   3.493   0.697  10.844  0.1411 -0.1011 -0.5252
 7042SOL    HW132759   3.530   0.633  10.905 -1.1854 -0.8091 -0.4662
 7042SOL    HW232760   3.454   0.759  10.906  0.4180  0.3199 -0.7689
 7043SOL     OW32761   2.354   4.378   4.620 -0.3118  0.0524  0.2033
 7043SOL    HW132762   2.442   4.351   4.595 -0.5588  0.2371 -0.8973
 7043SOL    HW232763   2.318   4.380   4.531  1.1772  2.6069 -0.3383
 7044SOL     OW32764   1.397   0.268   7.697  0.0034  0.2114 -0.4946
 7044SOL    HW132765   1.382   0.281   7.604  0.5711 -0.3518 -0.6604
 7044SOL    HW232766   1.372   0.176   7.708  0.9894  0.1190  0.9864
 7045SOL     OW32767   2.885   2.636   9.302  0.4222 -0.1575 -0.6118
 7045SOL    HW132768   2.895   2.702   9.234  0.6889  0.6003  0.1631
 7045SOL    HW232769   2.931   2.567   9.254 -1.0555 -2.7619  1.7157
 7046SOL     OW32770   0.936   3.135   9.778  0.1065 -0.2014  0.1103
 7046SOL    HW132771   0.901   3.216   9.740  0.1349  1.4738  3.6193
 7046SOL    HW232772   0.867   3.115   9.842  0.2978  0.1531  0.4268
 7047SOL     OW32773   0.363   3.508   7.086 -0.0231 -0.5970 -0.4023
 7047SOL    HW132774   0.358   3.588   7.138  2.5830 -0.3060 -0.6018
 7047SOL    HW232775   0.304   3.529   7.013  0.2106  0.1587 -0.3768
 7048SOL     OW32776   0.131   1.017   8.916  0.1307 -0.3223  0.0368
 7048SOL    HW132777   0.036   1.015   8.903 -0.1504 -1.2299  2.2194
 7048SOL    HW232778   0.151   1.108   8.891 -1.1883 -0.6728 -2.3104
 7049SOL     OW32779   1.990   2.384  15.244 -0.2943 -0.0767  0.6608
 7049SOL    HW132780   1.944   2.306  15.274  0.3635 -0.3059  1.0500
 7049SOL    HW232781   2.069   2.344  15.208 -0.8893  0.3236 -1.1100
 7050SOL     OW32782   4.385   1.367  16.343 -0.1743 -0.4872  0.2583
 7050SOL    HW132783   4.437   1.312  16.402 -2.8091 -1.3822  1.7609
 7050SOL    HW232784   4.428   1.448  16.368 -1.1994  0.4825 -1.0935
 7051SOL     OW32785   3.413   2.855  13.469  0.0029  0.0049 -0.3918
 7051SOL    HW132786   3.453   2.770  13.454 -1.1688 -0.7780  0.8982
 7051SOL    HW232787   3.431   2.895  13.384 -0.6544  1.9552  0.3759
 7052SOL     OW32788   2.408   3.765  14.061  0.2648 -0.2297 -0.2231
 7052SOL    HW132789   2.492   3.727  14.035  1.0582  2.0379 -1.0219
 7052SOL    HW232790   2.438   3.835  14.119 -2.0979  2.0774 -1.7606
 7053SOL     OW32791   0.944   2.876   1.127 -0.2450  0.2845 -0.3209
 7053SOL    HW132792   0.960   2.867   1.221  1.4900 -0.2714 -0.6718
 7053SOL    HW232793   1.030   2.851   1.093  0.3085  0.0831  1.2227
 7054SOL     OW32794   0.866   2.847   5.428 -0.2399 -0.9369 -0.0715
 7054SOL    HW132795   0.900   2.840   5.338  0.2304 -2.0828  0.1916
 7054SOL    HW232796   0.951   2.834   5.471 -0.8090 -1.9841  0.7326
 7055SOL     OW32797   3.523   0.239  15.494  0.0021 -0.1274  0.1483
 7055SOL    HW132798   3.514   0.191  15.576  0.3670 -0.4516 -0.0052
 7055SOL    HW232799   3.605   0.283  15.515  0.8015 -1.8786  0.6565
 7056SOL     OW32800   4.624   1.015  17.560 -0.9651  0.7435 -0.4464
 7056SOL    HW132801   4.611   0.922  17.543  1.8755  0.1744  0.4662
 7056SOL    HW232802   4.543   1.054  17.527 -1.4865 -0.3000 -0.3554
 7057SOL     OW32803   0.998   0.981   7.820 -0.1576  0.3518  0.2568
 7057SOL    HW132804   1.062   1.029   7.873  1.1299  0.1585 -1.1265
 7057SOL    HW232805   1.036   0.896   7.842  2.7441  1.2592 -1.1739
 7058SOL     OW32806   3.496   1.001  14.571  0.2576 -0.0163 -0.1262
 7058SOL    HW132807   3.538   1.065  14.513 -1.1203  3.3364  2.6246
 7058SOL    HW232808   3.418   1.043  14.606  0.8595  0.7887  0.2535
 7059SOL     OW32809   3.374   2.481   8.107  0.0709 -0.7066  0.0014
 7059SOL    HW132810   3.423   2.553   8.147 -0.7216 -0.9742  1.4646
 7059SOL    HW232811   3.292   2.472   8.157  0.0413 -2.4210 -0.3697
 7060SOL     OW32812   2.622   3.635   6.305 -0.4868 -0.4131  0.4354
 7060SOL    HW132813   2.533   3.619   6.273 -0.7788 -0.0410  1.0727
 7060SOL    HW232814   2.664   3.552   6.328  0.0316 -0.4862 -0.7510
 7061SOL     OW32815   3.571   1.197   9.363 -0.5415  0.0097  0.2833
 7061SOL    HW132816   3.571   1.217   9.457  1.9940 -2.1196  0.7409
 7061SOL    HW232817   3.483   1.162   9.351 -0.5636  0.0451  0.3406
 7062SOL     OW32818   2.922   0.722   0.033  0.4322 -0.2429  0.2807
 7062SOL    HW132819   2.990   0.659   0.059  1.5168  0.5188 -0.7416
 7062SOL    HW232820   2.945   0.726  17.696  0.4962  0.0478  0.3078
 7063SOL     OW32821   4.050   3.320   6.899 -1.0204 -0.0777 -0.3463
 7063SOL    HW132822   4.110   3.258   6.857 -1.6348  0.2708 -1.7443
 7063SOL    HW232823   4.094   3.402   6.875 -0.2747 -0.7616 -1.3426
 7064SOL     OW32824   2.815   1.736   0.542  0.0099  0.1110 -0.1247
 7064SOL    HW132825   2.858   1.650   0.547  0.1038  0.2039  0.6619
 7064SOL    HW232826   2.763   1.736   0.622  1.6092  0.5330  0.9037
 7065SOL     OW32827   1.933   3.456   7.144 -0.0883 -0.0562 -0.1502
 7065SOL    HW132828   1.931   3.379   7.088 -0.4284 -0.5722  0.5746
 7065SOL    HW232829   1.839   3.475   7.150  0.4397  2.1902  1.2915
 7066SOL     OW32830   4.160   3.483   4.545 -0.1590  0.0322  0.0080
 7066SOL    HW132831   4.131   3.416   4.607  0.4682 -0.8871 -0.7002
 7066SOL    HW232832   4.073   3.510   4.518  0.4286  2.3299  0.3805
 7067SOL     OW32833   1.730   2.094   9.308 -0.2671  0.4610  0.8115
 7067SOL    HW132834   1.636   2.096   9.291 -0.0353 -0.6160 -0.5503
 7067SOL    HW232835   1.746   2.007   9.344  2.0649  1.0402  1.2065
 7068SOL     OW32836   1.984   0.613  16.498  0.1880  0.1778  0.3458
 7068SOL    HW132837   1.907   0.663  16.470  0.2445 -0.3914 -0.8152
 7068SOL    HW232838   2.038   0.625  16.420  1.0738  0.6518  1.0334
 7069SOL     OW32839   0.210   0.643  17.241 -0.2866 -0.2264  0.7144
 7069SOL    HW132840   0.217   0.669  17.150  1.2654 -1.9944  0.3497
 7069SOL    HW232841   0.293   0.597  17.249 -0.6085 -1.0055 -0.5661
 7070SOL     OW32842   3.104   4.734   8.583  0.7063 -0.6862  0.4007
 7070SOL    HW132843   3.100   4.654   8.635 -1.4318 -1.0197 -0.2694
 7070SOL    HW232844   3.012   0.021   8.593  0.9943  0.5921 -0.3508
 7071SOL     OW32845   4.155   2.714  13.295 -0.9352 -1.0108 -0.4863
 7071SOL    HW132846   4.144   2.644  13.230  2.6426  0.2399 -2.4579
 7071SOL    HW232847   4.228   2.677  13.344 -1.8637 -2.0599  0.1019
 7072SOL     OW32848   2.719   4.480   6.111 -0.3946 -0.1050 -0.4028
 7072SOL    HW132849   2.669   4.468   6.031  1.1215 -1.5782 -1.1099
 7072SOL    HW232850   2.771   4.400   6.119 -0.3385  0.3024  3.7456
 7073SOL     OW32851   0.129   4.256   4.524 -0.2736  0.0142 -0.2338
 7073SOL    HW132852   0.181   4.176   4.532  1.8083  1.2649 -1.3287
 7073SOL    HW232853   0.176   4.320   4.577 -0.4468 -0.4702  0.4930
 7074SOL     OW32854   0.433   4.007  12.010  0.5152 -0.1908  0.3371
 7074SOL    HW132855   0.407   3.919  11.983  0.2443 -0.7190  2.2758
 7074SOL    HW232856   0.354   4.054  11.983  0.4252  0.5473  1.8986
 7075SOL     OW32857   2.657   0.140   1.980  0.5789 -0.0591 -0.5928
 7075SOL    HW132858   2.576   0.189   1.968 -0.6816 -1.7787  0.8715
 7075SOL    HW232859   2.622   0.067   2.032 -1.1512 -0.1626 -1.9023
 7076SOL     OW32860   0.921   4.685   1.252  0.0494  0.4498  0.1972
 7076SOL    HW132861   0.943   4.694   1.345  2.7107  2.7235 -0.6511
 7076SOL    HW232862   0.878   0.031   1.254  0.0678  0.4638 -0.0820
 7077SOL     OW32863   3.564   2.724  12.154 -0.6795  0.4474  0.2893
 7077SOL    HW132864   3.566   2.783  12.229  1.4642 -0.1068  0.6684
 7077SOL    HW232865   3.505   2.660  12.195 -0.5097  0.5010  0.6101
 7078SOL     OW32866   3.523   4.264  10.461  0.2123  0.3154  0.6410
 7078SOL    HW132867   3.440   4.273  10.507 -0.6488 -0.2359 -0.8033
 7078SOL    HW232868   3.560   4.352  10.472  3.3929 -0.7575 -1.4657
 7079SOL     OW32869   4.050   4.273  12.931 -0.3044  0.6293  0.4995
 7079SOL    HW132870   3.979   4.295  12.992  0.1412  1.5504  0.6771
 7079SOL    HW232871   4.098   4.203  12.974 -2.3350 -0.1168  1.5768
 7080SOL     OW32872   1.513   2.119  13.240 -0.2945  0.2180 -0.0500
 7080SOL    HW132873   1.479   2.188  13.183 -0.9679  0.0462  0.1467
 7080SOL    HW232874   1.542   2.054  13.176 -2.6243 -1.5023  0.6725
 7081SOL     OW32875   4.097   2.333   9.029 -0.4225  0.4728  0.2836
 7081SOL    HW132876   4.050   2.332   8.946  1.2524  0.8734 -0.6602
 7081SOL    HW232877   4.037   2.291   9.091 -1.4755 -2.9828 -3.0804
 7082SOL     OW32878   1.036   2.240   8.994  0.2976 -0.3385  0.3044
 7082SOL    HW132879   1.094   2.247   8.918  1.7947 -0.7388  1.4037
 7082SOL    HW232880   0.960   2.203   8.950  0.2058 -0.2809  0.4153
 7083SOL     OW32881   3.702   2.692   1.720  0.3690 -0.7897  0.0258
 7083SOL    HW132882   3.655   2.768   1.687  0.8712 -0.9201 -0.9909
 7083SOL    HW232883   3.752   2.659   1.646  0.2122  0.7456 -0.7575
 7084SOL     OW32884   1.594   0.911   5.608 -0.0133 -0.5310  1.0928
 7084SOL    HW132885   1.531   0.903   5.679  1.1808 -0.3804  2.1577
 7084SOL    HW232886   1.627   0.996   5.635 -2.6965  0.6726  0.5652
 7085SOL     OW32887   2.347   3.628   2.650  0.4377 -0.1660  0.2994
 7085SOL    HW132888   2.330   3.644   2.743  0.7427  0.9517  0.1624
 7085SOL    HW232889   2.264   3.649   2.606  0.6871  2.5938  1.0894
 7086SOL     OW32890   1.045   2.538   6.025 -0.7529 -0.3621  0.3543
 7086SOL    HW132891   1.046   2.633   6.013 -1.5918 -0.1491  2.0681
 7086SOL    HW232892   1.121   2.504   5.976 -1.8380 -2.3519  0.0538
 7087SOL     OW32893   3.109   1.994  14.969 -0.6097 -0.2802 -0.4817
 7087SOL    HW132894   3.060   1.915  14.992  0.4189 -0.2178  1.9849
 7087SOL    HW232895   3.132   1.981  14.877  0.5286 -3.4875  0.2630
 7088SOL     OW32896   3.659   3.526   6.906 -0.1384  0.7154  0.0898
 7088SOL    HW132897   3.726   3.492   6.966  1.3343 -1.5550 -2.7921
 7088SOL    HW232898   3.633   3.610   6.943  1.8268  0.3629  2.3157
 7089SOL     OW32899   3.333   3.594   5.906  0.0581  0.2627 -0.0649
 7089SOL    HW132900   3.269   3.564   5.970 -1.1678  3.9584  0.4119
 7089SOL    HW232901   3.393   3.624   5.974 -1.5812  1.4015  0.8685
 7090SOL     OW32902   1.716   1.115  13.285 -0.1058  0.6629 -0.1741
 7090SOL    HW132903   1.810   1.103  13.300  0.6330  3.1858 -2.5850
 7090SOL    HW232904   1.695   1.196  13.332 -0.4167 -1.1454  2.7816
 7091SOL     OW32905   3.146   2.158  16.569  0.0318  0.2420  0.4763
 7091SOL    HW132906   3.109   2.140  16.656 -0.7987 -0.3788 -0.0022
 7091SOL    HW232907   3.140   2.066  16.542 -2.6966  0.5759 -0.0823
 7092SOL     OW32908   4.545   3.469  16.898 -0.3268 -0.0756  0.1057
 7092SOL    HW132909   4.538   3.411  16.822  0.1118 -0.3471  0.2738
 7092SOL    HW232910   4.631   3.510  16.887  0.2497 -1.2917  0.1213
 7093SOL     OW32911   1.303   4.637  10.131  0.3600  0.3424  0.1328
 7093SOL    HW132912   1.263   4.708  10.081  2.1320  1.2976  0.0726
 7093SOL    HW232913   1.228   4.600  10.176  0.3292 -1.9534 -1.8473
 7094SOL     OW32914   0.827   3.911   9.729 -0.1563  0.2703  0.1568
 7094SOL    HW132915   0.911   3.928   9.685 -0.1665  2.2501  0.8774
 7094SOL    HW232916   0.834   3.975   9.800  1.1088 -1.7824  1.8992
 7095SOL     OW32917   1.444   2.922   3.893 -0.0945  0.5936 -0.5266
 7095SOL    HW132918   1.515   2.928   3.956  0.7101 -1.8019 -1.1870
 7095SOL    HW232919   1.452   3.011   3.861  1.9914  0.1417 -1.2481
 7096SOL     OW32920   2.322   2.011   3.201  0.1269  0.0820 -0.9175
 7096SOL    HW132921   2.263   1.985   3.271  0.0253  2.0270 -0.2845
 7096SOL    HW232922   2.303   1.944   3.135  0.3159 -0.6492 -0.2331
 7097SOL     OW32923   0.699   2.931   8.986  0.3349  0.8054 -0.3295
 7097SOL    HW132924   0.718   3.017   8.947  1.1262  1.8254  2.3165
 7097SOL    HW232925   0.732   2.952   9.073  2.4558  1.9846 -1.4287
 7098SOL     OW32926   3.171   2.701   1.789 -0.4607 -0.1940  0.1504
 7098SOL    HW132927   3.119   2.621   1.778 -1.2512  0.4631 -0.9119
 7098SOL    HW232928   3.108   2.746   1.846  0.9233  1.9968 -0.0777
 7099SOL     OW32929   4.611   4.196   7.596  0.2381 -0.0544  0.2997
 7099SOL    HW132930   4.582   4.109   7.622  2.0914 -0.7657  0.0087
 7099SOL    HW232931   4.608   4.232   7.685 -0.0785  0.2954  0.1454
 7100SOL     OW32932   3.162   0.320  12.542  0.5497  0.1548 -0.2232
 7100SOL    HW132933   3.160   0.260  12.468 -0.7457  1.8287 -1.5384
 7100SOL    HW232934   3.254   0.349  12.539  0.4297  0.4214 -1.2554
 7101SOL     OW32935   0.130   2.166   5.842  0.3045  0.0521 -0.3242
 7101SOL    HW132936   0.206   2.160   5.784  2.2717  1.2701  2.0941
 7101SOL    HW232937   0.110   2.259   5.834 -0.9059 -0.2388 -0.5564
 7102SOL     OW32938   2.266   3.686   0.897  0.0274 -0.3341 -0.0988
 7102SOL    HW132939   2.350   3.721   0.867  0.2435  0.1330  1.0515
 7102SOL    HW232940   2.214   3.766   0.888  0.5100  0.3157  2.9919
 7103SOL     OW32941   2.356   0.148   6.290  0.2162 -0.0279 -0.1975
 7103SOL    HW132942   2.329   0.058   6.274  0.5833  0.0150 -1.0637
 7103SOL    HW232943   2.446   0.139   6.323 -1.2032 -1.1102  3.4407
 7104SOL     OW32944   3.629   4.004   8.313 -0.1832  0.1716  0.7134
 7104SOL    HW132945   3.651   4.096   8.307 -0.5279  0.2863  1.1898
 7104SOL    HW232946   3.652   3.971   8.226  1.7446 -0.9773  1.6610
 7105SOL     OW32947   3.014   4.090   4.007  0.0510  0.2095 -0.4056
 7105SOL    HW132948   3.003   4.032   4.083 -2.1983 -0.6586 -1.3905
 7105SOL    HW232949   3.077   4.037   3.958  0.4077 -0.8310  1.1881
 7106SOL     OW32950   4.040   0.499   8.956 -0.0909  0.0435 -0.2206
 7106SOL    HW132951   3.947   0.487   8.979 -0.1974 -1.8123 -1.5675
 7106SOL    HW232952   4.083   0.426   9.001  2.1486  0.1070 -2.2503
 7107SOL     OW32953   1.184   3.108   5.695  0.5082  0.1804  0.1538
 7107SOL    HW132954   1.160   3.159   5.773 -1.2440 -0.9987  0.3772
 7107SOL    HW232955   1.186   3.020   5.730 -0.3396  0.0775 -0.0368
 7108SOL     OW32956   1.497   4.065   9.732 -0.4261 -0.7618  0.6893
 7108SOL    HW132957   1.538   4.060   9.818  0.9034  0.3080  0.1272
 7108SOL    HW232958   1.576   4.076   9.678 -1.4199 -1.6176 -0.9576
 7109SOL     OW32959   2.588   2.906   4.992  0.0847 -0.0631  0.7706
 7109SOL    HW132960   2.664   2.848   4.999  0.1834 -0.1652 -1.0706
 7109SOL    HW232961   2.518   2.842   4.980  0.7892 -0.5384 -0.7326
 7110SOL     OW32962   4.644   0.525   1.349  0.5410 -0.0338  0.1279
 7110SOL    HW132963   4.633   0.534   1.254  1.4507  3.7101  0.3811
 7110SOL    HW232964   4.581   0.453   1.352 -0.2029  0.5953 -0.5662
 7111SOL     OW32965   2.727   3.773   1.244  0.5324 -0.0817 -0.0963
 7111SOL    HW132966   2.806   3.802   1.200 -0.5841  0.5341 -1.6828
 7111SOL    HW232967   2.744   3.790   1.337 -0.3182 -2.5815  0.5311
 7112SOL     OW32968   0.209   2.600   3.571 -0.5572 -0.2294 -0.3376
 7112SOL    HW132969   0.117   2.611   3.597  0.0375  0.6006  1.4146
 7112SOL    HW232970   0.243   2.689   3.557 -0.0567 -0.1135  1.6751
 7113SOL     OW32971   2.071   4.213   5.973  0.2763  0.5953  0.8569
 7113SOL    HW132972   2.165   4.225   5.985  0.5600  0.2578 -1.1156
 7113SOL    HW232973   2.048   4.163   6.051 -0.6826 -0.7862 -0.3096
 7114SOL     OW32974   0.061   3.545   8.803 -0.6529 -0.4558  0.6472
 7114SOL    HW132975   4.717   3.581   8.834 -1.5246 -0.6255 -1.5299
 7114SOL    HW232976   0.109   3.628   8.809 -2.0538  0.4344 -0.4908
 7115SOL     OW32977   2.299   4.341   6.432  0.2136 -0.0116 -0.4239
 7115SOL    HW132978   2.253   4.388   6.362 -1.6971 -2.1530 -0.6329
 7115SOL    HW232979   2.347   4.417   6.463  1.8346 -1.0073 -0.5133
 7116SOL     OW32980   0.590   2.483   2.653  0.6191 -0.3423  0.0423
 7116SOL    HW132981   0.535   2.560   2.640 -1.6103 -2.1398 -1.1850
 7116SOL    HW232982   0.593   2.472   2.748 -1.7851 -1.2247  0.0012
 7117SOL     OW32983   1.173   4.588   3.099  0.2908 -0.8009 -0.5408
 7117SOL    HW132984   1.101   4.647   3.123  1.4723  0.2325  0.4161
 7117SOL    HW232985   1.140   4.503   3.130 -2.2751 -0.7156 -2.9639
 7118SOL     OW32986   2.064   4.088  11.128  0.2957 -0.4337  0.5031
 7118SOL    HW132987   2.060   4.179  11.097  2.9592 -0.7327 -0.7058
 7118SOL    HW232988   2.159   4.085  11.130  0.3117  1.0684  2.1358
 7119SOL     OW32989   2.241   1.627   7.299 -0.1085  0.0802  0.0998
 7119SOL    HW132990   2.190   1.575   7.361 -0.4582 -0.4251 -0.6135
 7119SOL    HW232991   2.298   1.681   7.354  0.0220 -0.0258  0.0672
 7120SOL     OW32992   4.255   1.956   5.578 -0.0551 -0.2346  0.6554
 7120SOL    HW132993   4.260   1.876   5.631 -2.6496 -1.5465 -1.0818
 7120SOL    HW232994   4.171   1.989   5.609  0.5136  0.0530  1.8827
 7121SOL     OW32995   0.154   3.595   2.500 -0.1206 -0.0349 -0.3089
 7121SOL    HW132996   0.140   3.618   2.408 -3.4630  0.6615  0.3808
 7121SOL    HW232997   0.176   3.682   2.534 -2.2600 -0.3117  1.7247
 7122SOL     OW32998   1.662   0.139   7.246 -0.3689  0.0749 -0.7187
 7122SOL    HW132999   1.733   0.151   7.183 -0.4171 -0.4697 -0.8754
 7122SOL    HW233000   1.708   0.127   7.330 -1.5716  2.2053  0.2412
 7123SOL     OW33001   1.861   1.032   6.132  0.2541  0.1369 -0.3326
 7123SOL    HW133002   1.772   1.000   6.117  0.2555 -0.6451  1.3664
 7123SOL    HW233003   1.883   0.994   6.217  1.3848  0.6470 -0.4002
 7124SOL     OW33004   2.569   3.458   3.823 -0.1899  0.0902 -0.0243
 7124SOL    HW133005   2.632   3.529   3.836  0.2375 -0.4798  0.9745
 7124SOL    HW233006   2.596   3.440   3.733  0.5144  0.3925  0.1314
 7125SOL     OW33007   4.187   4.555  17.150 -0.4497  0.2683 -0.2878
 7125SOL    HW133008   4.120   4.497  17.184  0.8733 -0.2148  1.4957
 7125SOL    HW233009   4.267   4.536  17.199  0.3908  2.4313 -0.7779
 7126SOL     OW33010   3.987   2.890   6.300  0.1737  0.5478 -0.3380
 7126SOL    HW133011   3.965   2.895   6.393 -1.0651 -0.2420 -0.5940
 7126SOL    HW233012   3.917   2.945   6.266 -1.9131 -3.6432 -2.9141
 7127SOL     OW33013   3.893   1.804   6.145  0.2196  0.4947 -0.0526
 7127SOL    HW133014   3.940   1.764   6.218 -2.7593  1.4011  2.3514
 7127SOL    HW233015   3.811   1.811   6.194 -1.0747  1.8585 -2.3564
 7128SOL     OW33016   3.907   4.595   1.767  0.3810  0.4977  0.0567
 7128SOL    HW133017   3.942   4.589   1.856  0.7839  2.0681  0.0012
 7128SOL    HW233018   3.831   4.542   1.790 -0.5576  0.9691 -1.9658
 7129SOL     OW33019   0.292   0.845   8.327  0.3991  0.7099  0.5885
 7129SOL    HW133020   0.205   0.884   8.335 -0.4881 -1.1267  0.0547
 7129SOL    HW233021   0.280   0.815   8.237 -1.5079  2.5622  0.2391
 7130SOL     OW33022   0.665   1.549   3.653  0.0377  0.1932  0.5776
 7130SOL    HW133023   0.576   1.557   3.620  1.1324 -1.0875 -2.6793
 7130SOL    HW233024   0.658   1.468   3.704 -3.0621  0.9431  1.3399
 7131SOL     OW33025   4.196   1.184   0.719  0.4447 -0.2141  0.0167
 7131SOL    HW133026   4.143   1.192   0.640  1.5065 -0.8589 -0.7482
 7131SOL    HW233027   4.125   1.199   0.782 -0.8067 -0.6609 -1.3033
 7132SOL     OW33028   3.611   1.879  15.811 -0.1155 -0.7874  0.0120
 7132SOL    HW133029   3.538   1.896  15.752 -0.4596 -0.4154  0.5459
 7132SOL    HW233030   3.678   1.837  15.757  0.7327 -0.0341  0.4843
 7133SOL     OW33031   0.202   4.206   7.200  0.0013 -0.8557  0.2063
 7133SOL    HW133032   0.288   4.203   7.157  0.5863  0.9820  1.2295
 7133SOL    HW233033   0.152   4.175   7.125  1.0799 -2.3938  0.1159
 7134SOL     OW33034   0.256   2.942   4.147 -0.7463 -0.2015  0.6105
 7134SOL    HW133035   0.208   2.890   4.083 -0.5561 -1.5930  1.5755
 7134SOL    HW233036   0.192   2.920   4.215  0.5643 -0.7357  1.6957
 7135SOL     OW33037   0.928   4.227   8.703 -0.0603 -0.3682 -0.8018
 7135SOL    HW133038   0.909   4.298   8.765  1.2749 -1.1715  0.5289
 7135SOL    HW233039   0.991   4.174   8.752 -2.3465 -0.5803  1.9246
 7136SOL     OW33040   2.230   2.897  10.487  0.2505  0.5479  0.5253
 7136SOL    HW133041   2.305   2.911  10.428  0.9583  1.1385  1.5714
 7136SOL    HW233042   2.167   2.950  10.437  0.0414  0.2078  0.4260
 7137SOL     OW33043   3.159   1.343   5.388  0.3390  0.0165  0.0319
 7137SOL    HW133044   3.149   1.414   5.452 -1.9699 -0.3914  0.0999
 7137SOL    HW233045   3.169   1.272   5.451  0.2669  0.2731  0.3344
 7138SOL     OW33046   2.535   3.501  15.673 -0.3210 -0.3910 -0.2464
 7138SOL    HW133047   2.581   3.581  15.700 -1.4085  0.5869 -1.3048
 7138SOL    HW233048   2.471   3.484  15.743  1.0468 -0.8851  0.8977
 7139SOL     OW33049   2.779   1.266   5.950  0.8075  0.3517 -0.1198
 7139SOL    HW133050   2.807   1.280   5.859  0.7843  1.5576  0.0584
 7139SOL    HW233051   2.706   1.208   5.927  0.1846  0.2421  2.1547
 7140SOL     OW33052   1.546   3.746  12.487  0.0351 -0.3972  0.1027
 7140SOL    HW133053   1.603   3.677  12.519  1.1995 -0.2324 -1.6046
 7140SOL    HW233054   1.465   3.730  12.536 -1.0375  0.4207 -1.3943
 7141SOL     OW33055   2.381   1.900   4.998  0.1708  0.1838  0.1995
 7141SOL    HW133056   2.457   1.925   4.946  1.4008 -2.5782  0.6521
 7141SOL    HW233057   2.315   1.957   4.957  1.5057  1.9087  0.4703
 7142SOL     OW33058   1.611   3.921  12.302  0.4562  0.5715  0.1542
 7142SOL    HW133059   1.669   3.957  12.369 -2.0394  2.3991  1.2976
 7142SOL    HW233060   1.605   3.836  12.346 -0.3293  0.9921  0.8497
 7143SOL     OW33061   2.159   0.401   3.870 -0.1169  0.0242  0.4331
 7143SOL    HW133062   2.168   0.481   3.922 -1.1108  2.2704 -2.8279
 7143SOL    HW233063   2.070   0.400   3.835  0.2304 -3.2804 -0.3714
 7144SOL     OW33064   4.599   3.610   9.158 -0.3456 -0.0545 -0.3672
 7144SOL    HW133065   4.619   3.518   9.137  0.7306 -0.2657  1.6400
 7144SOL    HW233066   4.608   3.598   9.252 -0.3800 -2.5311 -0.6724
 7145SOL     OW33067   4.289   4.164   8.116  0.1978  0.1871 -0.0015
 7145SOL    HW133068   4.259   4.174   8.026  2.2702  1.0894 -0.5894
 7145SOL    HW233069   4.223   4.207   8.171  0.1542  0.3582 -0.1885
 7146SOL     OW33070   4.578   3.691   8.859 -0.1425  0.0453  0.5625
 7146SOL    HW133071   4.494   3.664   8.895 -0.2910 -2.9588 -2.0681
 7146SOL    HW233072   4.592   3.767   8.916 -1.7182  0.2565  0.6751
 7147SOL     OW33073   2.472   0.482   8.879 -0.4944  0.2746 -0.2370
 7147SOL    HW133074   2.418   0.537   8.822  0.9523  2.8971  0.9492
 7147SOL    HW233075   2.402   0.443   8.932 -1.3749  2.0456 -0.0835
 7148SOL     OW33076   1.088   4.384  10.232 -0.8067  0.3657  0.0705
 7148SOL    HW133077   1.114   4.307  10.182 -2.0462 -1.4107  2.1562
 7148SOL    HW233078   1.009   4.350  10.273 -1.8410  0.6211 -1.7177
 7149SOL     OW33079   2.071   4.251  13.679 -0.1375 -0.0063  0.0910
 7149SOL    HW133080   2.023   4.207  13.608  1.2161 -1.6564  0.1927
 7149SOL    HW233081   2.033   4.339  13.679 -0.7700 -0.2770 -0.8077
 7150SOL     OW33082   3.717   0.158  15.745  0.3651  0.7931  0.0924
 7150SOL    HW133083   3.800   0.179  15.703  1.3387 -1.4114  0.9397
 7150SOL    HW233084   3.692   0.074  15.708  1.2751  1.4565 -2.0393
 7151SOL     OW33085   1.281   2.452   8.133 -0.6403  0.0682 -0.2651
 7151SOL    HW133086   1.226   2.525   8.105 -1.2884  0.5594  2.2813
 7151SOL    HW233087   1.255   2.384   8.071  0.8848  0.1054 -0.9275
 7152SOL     OW33088   4.075   4.571   3.960  0.2416 -0.1969 -0.0159
 7152SOL    HW133089   4.120   4.601   3.881  1.0121 -0.2733  0.3919
 7152SOL    HW233090   3.982   4.565   3.940 -0.3450  1.0886  2.3791
 7153SOL     OW33091   3.297   4.230   8.151  0.2925 -0.4628 -0.4096
 7153SOL    HW133092   3.305   4.182   8.234  0.5192 -0.7939 -0.6226
 7153SOL    HW233093   3.365   4.294   8.169 -2.2037  1.6903  1.3963
 7154SOL     OW33094   0.977   1.641   8.344 -0.2881  0.4608  0.1599
 7154SOL    HW133095   1.039   1.613   8.276  0.9660  0.2838  1.3761
 7154SOL    HW233096   0.924   1.562   8.358  0.9899 -0.0569  2.1272
 7155SOL     OW33097   2.151   4.639   5.015 -0.2220 -0.1995 -0.0858
 7155SOL    HW133098   2.173   4.615   4.925  0.2488  0.9149 -0.2608
 7155SOL    HW233099   2.207   4.716   5.025 -2.2640  1.2876 -0.0714
 7156SOL     OW33100   1.291   0.021   9.521 -0.6690  0.1914  0.5418
 7156SOL    HW133101   1.222   0.030   9.456  0.7639  0.7303 -0.8919
 7156SOL    HW233102   1.352   4.697   9.484  0.3381  0.2665  2.0267
 7157SOL     OW33103   2.265   1.242  12.569  0.4682  0.0364 -0.4085
 7157SOL    HW133104   2.232   1.181  12.503  1.0445 -1.0275  0.2982
 7157SOL    HW233105   2.177   1.271  12.594  0.1306 -0.2110 -1.2890
 7158SOL     OW33106   4.327   4.575  14.386 -0.1584  0.3385 -0.3095
 7158SOL    HW133107   4.340   4.621  14.303 -0.4183  0.5360 -0.2422
 7158SOL    HW233108   4.394   4.507  14.381 -1.7466 -1.0673 -2.0783
 7159SOL     OW33109   2.552   0.906   6.315  0.6548 -0.2028 -0.2351
 7159SOL    HW133110   2.495   0.946   6.250  0.5237  0.6848  0.4293
 7159SOL    HW233111   2.514   0.819   6.300 -1.0894  0.4632  0.3243
 7160SOL     OW33112   3.361   1.958  12.205 -0.1357  0.2069 -0.0372
 7160SOL    HW133113   3.333   2.005  12.127  0.5331 -0.6959 -0.8156
 7160SOL    HW233114   3.448   1.933  12.174 -1.3079 -1.4661 -1.9677
 7161SOL     OW33115   1.363   2.039   3.741 -0.0334 -0.1499  0.0512
 7161SOL    HW133116   1.274   2.053   3.710  0.1574  1.6663  0.2917
 7161SOL    HW233117   1.377   2.130   3.769 -1.6281  0.0326  0.2410
 7162SOL     OW33118   2.892   2.451  16.706 -0.0186 -0.6334 -1.1608
 7162SOL    HW133119   2.966   2.512  16.707 -0.2765 -0.3265 -0.9742
 7162SOL    HW233120   2.833   2.495  16.644 -1.3991  1.2516  1.5230
 7163SOL     OW33121   3.942   0.935   5.528  0.8983 -0.4256  0.0278
 7163SOL    HW133122   3.916   1.007   5.471  0.3769  0.3083  1.1913
 7163SOL    HW233123   3.896   0.951   5.611  1.8254  0.4027  0.3830
 7164SOL     OW33124   1.496   0.671   7.551  0.5053 -0.1712  0.6317
 7164SOL    HW133125   1.401   0.665   7.542  0.7187 -2.2227 -0.2701
 7164SOL    HW233126   1.504   0.766   7.542 -1.0264  0.2498  3.7541
 7165SOL     OW33127   3.051   4.390   8.902 -0.1243  0.0208 -0.3823
 7165SOL    HW133128   3.135   4.390   8.948 -0.9431 -2.2345  1.1402
 7165SOL    HW233129   2.998   4.388   8.982 -0.1880 -1.0741 -0.4471
 7166SOL     OW33130   3.209   0.726   3.557 -0.3507 -0.2235 -0.8622
 7166SOL    HW133131   3.157   0.680   3.491 -0.5286 -0.6017 -0.4579
 7166SOL    HW233132   3.280   0.772   3.512  0.0297 -1.1188 -1.1619
 7167SOL     OW33133   4.715   0.219   9.110 -0.5125 -0.0829  0.2171
 7167SOL    HW133134   4.700   0.227   9.205  1.9414  2.0342  0.4589
 7167SOL    HW233135   4.715   0.124   9.102  0.3496 -0.0896  0.2075
 7168SOL     OW33136   3.283   2.434   0.282  0.3525 -0.4690 -0.5008
 7168SOL    HW133137   3.303   2.497   0.213  0.0987  2.0967  1.7494
 7168SOL    HW233138   3.302   2.346   0.249 -0.5307  0.1755 -2.7340
 7169SOL     OW33139   2.698   4.234   9.209  0.3763  0.4001 -0.3578
 7169SOL    HW133140   2.684   4.143   9.234  0.5697  0.3243 -0.5268
 7169SOL    HW233141   2.650   4.247   9.127  1.3235 -0.0237 -0.9735
 7170SOL     OW33142   0.684   2.583   5.315 -0.3805  0.2959 -0.9419
 7170SOL    HW133143   0.641   2.643   5.254  0.4356  1.4686 -0.3559
 7170SOL    HW233144   0.669   2.500   5.269 -0.6524 -0.6290  0.8333
 7171SOL     OW33145   2.152   0.640  15.504  0.1011  0.1798 -0.1815
 7171SOL    HW133146   2.199   0.709  15.552 -0.5882  1.2615 -1.0476
 7171SOL    HW233147   2.148   0.678  15.416  2.7777  0.4267 -0.1744
 7172SOL     OW33148   2.339   1.905  14.339 -0.2229 -0.4264 -0.3167
 7172SOL    HW133149   2.358   1.888  14.431 -1.2806  0.4342  0.0652
 7172SOL    HW233150   2.378   1.991  14.320 -1.2407 -0.4018 -2.2976
 7173SOL     OW33151   2.612   1.548   3.757 -0.1009 -0.3561  0.5261
 7173SOL    HW133152   2.587   1.632   3.720  1.5666 -1.1998 -2.5265
 7173SOL    HW233153   2.676   1.579   3.822  2.0712  0.0659 -1.8292
 7174SOL     OW33154   4.404   2.305  17.598  0.0493 -0.1315 -0.2685
 7174SOL    HW133155   4.320   2.266  17.573  0.2797  0.1662 -1.4973
 7174SOL    HW233156   4.394   2.308  17.693  0.1643  0.4927 -0.2769
 7175SOL     OW33157   2.477   1.507   1.296 -0.0247 -0.2444 -0.3691
 7175SOL    HW133158   2.394   1.464   1.275 -1.5988  2.4405  0.3160
 7175SOL    HW233159   2.511   1.433   1.345 -0.8511 -0.5828 -0.3132
 7176SOL     OW33160   4.510   2.426   7.760 -0.3480 -0.0949 -0.3660
 7176SOL    HW133161   4.495   2.332   7.746 -2.2144 -0.0832  1.5104
 7176SOL    HW233162   4.426   2.455   7.795  0.2980 -2.2907  3.0117
 7177SOL     OW33163   0.061   2.653   5.341 -0.1295 -1.0910 -0.0406
 7177SOL    HW133164   4.705   2.649   5.342 -0.3035  2.3096 -1.2150
 7177SOL    HW233165   0.065   2.710   5.264  0.6290 -2.2156 -0.8360
 7178SOL     OW33166   3.839   3.978   4.993 -0.3155 -0.0547 -0.3798
 7178SOL    HW133167   3.878   3.981   4.905 -0.5435  2.0677 -0.4063
 7178SOL    HW233168   3.781   4.053   5.002 -1.1136 -0.8373  0.9116
 7179SOL     OW33169   1.005   0.815   3.059 -0.4620 -0.1875 -0.6349
 7179SOL    HW133170   1.008   0.763   2.979  0.3141  1.1944 -1.5108
 7179SOL    HW233171   1.020   0.899   3.016 -0.4424  0.4891  0.6863
 7180SOL     OW33172   2.114   3.796   8.128  0.0647 -0.8844  0.1793
 7180SOL    HW133173   2.122   3.705   8.157  0.4021 -1.4716 -1.7878
 7180SOL    HW233174   2.199   3.820   8.166 -0.6284  1.2464  0.4068
 7181SOL     OW33175   0.950   3.606  10.801  0.0011  0.8102 -0.5570
 7181SOL    HW133176   0.944   3.623  10.895  0.0728 -0.2642 -0.3497
 7181SOL    HW233177   0.911   3.519  10.794 -1.5638  1.3972  0.7733
 7182SOL     OW33178   0.864   1.280  14.697  0.2185 -0.1034  0.4825
 7182SOL    HW133179   0.823   1.207  14.652 -1.2062  0.5189  0.7816
 7182SOL    HW233180   0.874   1.342  14.624  0.5052 -0.2060  0.4351
 7183SOL     OW33181   3.499   3.032  10.323 -0.4385  0.7442 -0.1849
 7183SOL    HW133182   3.511   3.111  10.270 -1.0278  0.4102 -0.8051
 7183SOL    HW233183   3.562   3.054  10.392  0.9296 -0.8798 -0.9227
 7184SOL     OW33184   2.786   2.467   8.866  0.1275 -0.4339 -0.0803
 7184SOL    HW133185   2.759   2.383   8.830  2.5890 -0.6882 -1.3170
 7184SOL    HW233186   2.866   2.475   8.814 -0.1747 -2.5116 -0.8777
 7185SOL     OW33187   0.887   2.758   6.316  0.0236  0.0023 -0.0720
 7185SOL    HW133188   0.913   2.669   6.292  0.8106  0.4428 -0.8256
 7185SOL    HW233189   0.815   2.741   6.378  0.4344 -0.9728  0.1378
 7186SOL     OW33190   1.841   3.362   2.197  0.0935  0.0409  0.2399
 7186SOL    HW133191   1.801   3.284   2.236  0.5961 -0.1637  0.3448
 7186SOL    HW233192   1.761   3.405   2.165 -0.5290 -0.2615  1.3546
 7187SOL     OW33193   2.763   0.350   2.145  0.5080  0.2147  0.0107
 7187SOL    HW133194   2.764   0.276   2.085 -1.5516  0.2034 -0.0165
 7187SOL    HW233195   2.830   0.407   2.106  1.3984 -0.0233  1.1923
 7188SOL     OW33196   4.519   3.323   7.437 -0.3488 -0.2097  0.2601
 7188SOL    HW133197   4.465   3.340   7.515  0.5994  1.2480  0.5915
 7188SOL    HW233198   4.529   3.228   7.428 -0.7920 -0.2070 -0.2916
 7189SOL     OW33199   1.428   1.482  12.954 -0.0670  0.5332 -0.2676
 7189SOL    HW133200   1.463   1.470  13.043 -4.5279 -0.0520  1.4138
 7189SOL    HW233201   1.433   1.394  12.916  2.3471 -0.3637  2.1682
 7190SOL     OW33202   3.060   2.621   6.709  0.3107  0.3630  0.6631
 7190SOL    HW133203   3.056   2.673   6.790 -0.5132  1.5826 -0.1480
 7190SOL    HW233204   3.113   2.680   6.655  0.3351 -1.7064 -1.5376
 7191SOL     OW33205   1.281   2.559   8.388 -0.3560 -0.1621 -0.3120
 7191SOL    HW133206   1.287   2.553   8.293 -1.3253  1.3746 -0.4776
 7191SOL    HW233207   1.369   2.529   8.410  0.2782  0.4079 -2.0700
 7192SOL     OW33208   1.333   2.981   9.384 -0.0628  0.6196  0.1969
 7192SOL    HW133209   1.245   2.945   9.381  0.7377 -1.4018  0.6369
 7192SOL    HW233210   1.366   2.961   9.471  1.4159 -0.9857 -0.7231
 7193SOL     OW33211   2.043   4.052   2.969 -0.0104  0.1296 -0.7432
 7193SOL    HW133212   2.015   4.015   2.885 -1.0938  1.3568 -0.9206
 7193SOL    HW233213   2.125   4.096   2.949 -1.4637  2.4407 -1.6066
 7194SOL     OW33214   3.626   2.350   6.109  0.0216 -0.4353 -0.3239
 7194SOL    HW133215   3.581   2.328   6.190  1.2869 -2.1941 -0.0934
 7194SOL    HW233216   3.581   2.286   6.054 -0.5663  0.7736 -1.2509
 7195SOL     OW33217   2.176   2.494  14.926  0.1190 -0.3713  0.4429
 7195SOL    HW133218   2.160   2.461  15.014  0.9022  1.1180  1.1378
 7195SOL    HW233219   2.186   2.589  14.933  0.8750 -0.3707 -0.7155
 7196SOL     OW33220   3.268   2.562  14.538 -0.1652 -0.2041  0.4384
 7196SOL    HW133221   3.197   2.570  14.602 -1.1327 -1.8491 -0.4305
 7196SOL    HW233222   3.320   2.489  14.574  1.4173 -0.6023 -2.6216
 7197SOL     OW33223   2.696   1.708   4.038 -0.6720  0.4440 -0.4700
 7197SOL    HW133224   2.600   1.707   4.033 -0.6936  0.0461  0.1047
 7197SOL    HW233225   2.707   1.763   4.115  1.0972 -1.4071  0.5634
 7198SOL     OW33226   2.870   1.873   0.836  0.4359 -0.4181 -0.5292
 7198SOL    HW133227   2.841   1.804   0.776 -1.3432  0.4207 -0.6461
 7198SOL    HW233228   2.836   1.851   0.923  0.8626 -0.6399 -0.4191
 7199SOL     OW33229   3.260   0.181   2.306 -0.5990  0.2021 -0.7409
 7199SOL    HW133230   3.236   0.091   2.285  2.0138 -0.4973 -0.8418
 7199SOL    HW233231   3.308   0.156   2.386 -0.0207 -1.7039 -1.6911
 7200SOL     OW33232   3.066   0.282   7.345 -0.1474 -0.3124 -0.3303
 7200SOL    HW133233   3.132   0.236   7.398 -0.9982 -1.2304 -0.0579
 7200SOL    HW233234   3.119   0.319   7.275  1.2816 -1.0888  0.3406
 7201SOL     OW33235   2.362   3.271  16.536 -0.1386  0.3662 -0.3683
 7201SOL    HW133236   2.438   3.294  16.483  1.1196  2.5552  2.3274
 7201SOL    HW233237   2.349   3.354  16.582  0.4964  1.6470 -2.5454
 7202SOL     OW33238   1.861   4.470   9.681  0.6256  0.0062  0.3877
 7202SOL    HW133239   1.929   4.441   9.621  0.9573  0.8315  0.3631
 7202SOL    HW233240   1.788   4.463   9.619  1.7062 -0.8271 -0.7881
 7203SOL     OW33241   2.342   0.748   4.867 -0.6267  0.2143 -0.2296
 7203SOL    HW133242   2.270   0.720   4.923 -0.1098  1.3804  1.0166
 7203SOL    HW233243   2.325   0.696   4.789 -1.0883  0.7266 -0.4779
 7204SOL     OW33244   0.092   4.359   3.876  0.3118  0.2918 -0.0395
 7204SOL    HW133245   0.088   4.361   3.780 -1.5033  0.8664  0.0409
 7204SOL    HW233246   0.167   4.417   3.879  0.8055 -0.3446 -0.2056
 7205SOL     OW33247   3.386   0.075   4.784  0.4776 -0.1452 -0.4664
 7205SOL    HW133248   3.416   0.165   4.791  0.7207 -0.1158 -2.0089
 7205SOL    HW233249   3.381   0.054   4.691 -1.7329 -0.6651 -0.2403
 7206SOL     OW33250   0.819   0.471  13.194 -0.1160 -0.5349  0.0835
 7206SOL    HW133251   0.808   0.495  13.286 -0.7875  2.1344 -0.6844
 7206SOL    HW233252   0.767   0.544  13.159  2.3416  1.2280  0.1058
 7207SOL     OW33253   3.938   2.832   1.362  0.2610  0.1938  0.4856
 7207SOL    HW133254   3.953   2.927   1.356 -1.6891  0.5048  0.6261
 7207SOL    HW233255   3.989   2.813   1.440  0.3672 -1.4558  0.0014
 7208SOL     OW33256   4.144   2.309   5.551  0.3756  0.3326  0.0883
 7208SOL    HW133257   4.050   2.297   5.539 -0.0153  0.6613  2.7631
 7208SOL    HW233258   4.151   2.289   5.644  0.4444 -0.3954 -0.0746
 7209SOL     OW33259   2.885   3.354  15.349 -0.1828  0.2940  0.5894
 7209SOL    HW133260   2.903   3.420  15.282  1.6010 -0.4053  0.3640
 7209SOL    HW233261   2.796   3.335  15.321  0.6052 -0.8901 -1.0789
 7210SOL     OW33262   0.435   3.030  14.993  0.1238  0.6606 -0.6965
 7210SOL    HW133263   0.459   2.950  15.040 -0.5014  1.7607  1.4514
 7210SOL    HW233264   0.339   3.026  14.994  0.1520 -0.0081 -0.4406
 7211SOL     OW33265   2.589   2.944   7.515  0.1959  0.1448  0.0992
 7211SOL    HW133266   2.552   2.884   7.450 -2.8118  0.7153  1.2644
 7211SOL    HW233267   2.636   3.007   7.459 -2.4756  1.2245 -0.9377
 7212SOL     OW33268   1.696   4.272   8.744 -0.0174 -0.4445 -0.0911
 7212SOL    HW133269   1.718   4.197   8.800  0.0470  1.1524  1.9971
 7212SOL    HW233270   1.655   4.234   8.666 -1.6794 -0.7622  0.9570
 7213SOL     OW33271   3.170   3.252   8.093  0.0321 -0.2102  0.2310
 7213SOL    HW133272   3.092   3.263   8.147  0.1393  0.2015  0.3081
 7213SOL    HW233273   3.248   3.234   8.146  0.3239  1.5796  0.4068
 7214SOL     OW33274   1.672   3.496   4.572 -0.0955 -0.1881  0.2815
 7214SOL    HW133275   1.761   3.519   4.598  0.3909 -3.3246  1.5041
 7214SOL    HW233276   1.656   3.425   4.635  0.3491 -0.5893 -0.0582
 7215SOL     OW33277   4.488   1.946  17.516  0.7171  0.8382  0.3513
 7215SOL    HW133278   4.523   1.999  17.445  1.5416  1.3810  1.1586
 7215SOL    HW233279   4.443   2.007  17.575 -2.4784 -3.3250  2.1899
 7216SOL     OW33280   3.526   3.036   3.700  0.1577  0.2816 -0.5090
 7216SOL    HW133281   3.497   2.977   3.630  1.1597 -1.2821  0.3937
 7216SOL    HW233282   3.617   3.009   3.712  0.5476  1.4434 -0.8624
 7217SOL     OW33283   1.480   3.010  10.881 -0.2930  0.4206 -0.1216
 7217SOL    HW133284   1.568   2.982  10.905 -0.8302  0.4549  1.8766
 7217SOL    HW233285   1.484   3.063  10.801 -1.4224  0.2624 -0.2790
 7218SOL     OW33286   4.190   4.421   5.622  0.0460 -0.1603  0.0239
 7218SOL    HW133287   4.173   4.398   5.531 -0.0099  4.1251 -1.0680
 7218SOL    HW233288   4.104   4.415   5.664 -0.4251  2.7146 -0.5172
 7219SOL     OW33289   0.467   0.108   7.363  0.1186 -0.0893 -0.3288
 7219SOL    HW133290   0.418   0.132   7.285 -0.9154 -0.2432  0.2752
 7219SOL    HW233291   0.390   0.104   7.419 -0.1748  2.0510 -0.5638
 7220SOL     OW33292   0.778   0.067   0.685 -0.6714 -0.4159 -0.4238
 7220SOL    HW133293   0.798   0.012   0.761  0.9792  2.2418  1.0423
 7220SOL    HW233294   0.685   0.047   0.676 -0.4350 -0.2332 -3.2439
 7221SOL     OW33295   3.244   4.294   3.902  0.3850 -0.1082  0.8435
 7221SOL    HW133296   3.299   4.272   3.827  1.9582  1.1772  1.6323
 7221SOL    HW233297   3.164   4.313   3.853 -0.8268 -1.2549  2.3576
 7222SOL     OW33298   2.270   3.784   6.121  0.1557  0.0718  0.3656
 7222SOL    HW133299   2.213   3.832   6.061  2.2640  2.0549 -0.0431
 7222SOL    HW233300   2.355   3.779   6.078 -0.2463 -2.3111 -0.1239
 7223SOL     OW33301   3.229   2.079   4.245  0.0903  0.4386  0.5433
 7223SOL    HW133302   3.228   2.000   4.192  1.0779  0.2090  0.8718
 7223SOL    HW233303   3.166   2.133   4.196 -0.6801 -1.7980 -0.9190
 7224SOL     OW33304   1.692   1.716   5.622  0.0328  0.2157 -0.4839
 7224SOL    HW133305   1.786   1.736   5.629 -0.4592  1.8190  1.4982
 7224SOL    HW233306   1.654   1.783   5.679 -1.1103  0.2507 -1.2979
 7225SOL     OW33307   4.258   1.973   7.925  0.4517 -0.7214  0.1427
 7225SOL    HW133308   4.308   1.937   7.998  0.7712  1.3412  0.9143
 7225SOL    HW233309   4.302   1.930   7.851 -0.3950  0.0565 -0.8088
 7226SOL     OW33310   3.555   2.392  16.670 -0.3326  0.5264  0.2215
 7226SOL    HW133311   3.463   2.412  16.685 -0.5317  0.5354 -1.0177
 7226SOL    HW233312   3.583   2.368  16.759  1.6345 -1.1701 -0.8419
 7227SOL     OW33313   0.396   2.998  11.924  0.0737  0.2913  0.4225
 7227SOL    HW133314   0.308   2.987  11.890 -0.2941  1.0131  1.1537
 7227SOL    HW233315   0.386   2.987  12.018 -1.9448  2.4698  0.4580
 7228SOL     OW33316   3.963   2.936   5.952 -0.8371 -0.1839 -0.0021
 7228SOL    HW133317   3.999   2.847   5.954  0.5740  0.2811 -4.0341
 7228SOL    HW233318   3.926   2.942   5.863  2.3044 -2.3128 -1.4672
 7229SOL     OW33319   2.621   3.881   6.438  0.2242  0.2616 -0.2377
 7229SOL    HW133320   2.695   3.927   6.401 -0.0358  2.2856  1.7786
 7229SOL    HW233321   2.636   3.789   6.414 -1.2988 -0.1234  0.2643
 7230SOL     OW33322   1.702   1.917   8.810 -0.0376 -0.0265 -0.1315
 7230SOL    HW133323   1.677   2.009   8.810 -1.7030 -0.4782 -0.8916
 7230SOL    HW233324   1.788   1.924   8.769  0.7407  3.7910  2.2072
 7231SOL     OW33325   1.007   3.597   0.468  0.4671 -0.4822 -0.2946
 7231SOL    HW133326   1.024   3.546   0.389  0.2096  0.8897 -1.2306
 7231SOL    HW233327   1.081   3.658   0.466  0.5020 -0.4872  0.7703
 7232SOL     OW33328   1.193   0.562   2.994 -0.0965 -0.2144 -0.2032
 7232SOL    HW133329   1.101   0.583   2.980  0.6693  0.7603 -3.9225
 7232SOL    HW233330   1.182   0.521   3.079 -0.1955 -0.4512 -0.3305
 7233SOL     OW33331   3.184   0.571   2.159 -0.1938 -0.0295  0.2330
 7233SOL    HW133332   3.255   0.532   2.210  0.5777 -0.8538 -1.4795
 7233SOL    HW233333   3.211   0.562   2.068 -2.9562 -1.9497 -0.3708
 7234SOL     OW33334   4.220   0.758   4.918 -0.0468  0.2542 -0.2287
 7234SOL    HW133335   4.225   0.755   5.014 -0.8951  2.5048 -0.1031
 7234SOL    HW233336   4.163   0.686   4.891  1.4566 -1.0788  0.2048
 7235SOL     OW33337   2.735   1.742  15.076  0.1837  0.1377  0.0367
 7235SOL    HW133338   2.647   1.753  15.040 -0.5601 -0.1701  1.7849
 7235SOL    HW233339   2.708   1.666  15.128 -1.0410 -0.8215 -1.9809
 7236SOL     OW33340   3.521   4.593   9.053  0.2516 -0.1097 -0.3807
 7236SOL    HW133341   3.543   4.600   9.146 -0.2631 -1.2415 -0.1727
 7236SOL    HW233342   3.592   4.540   9.016  0.2468 -1.7368  1.9420
 7237SOL     OW33343   4.241   1.707   9.730 -0.1588 -0.2970 -0.0018
 7237SOL    HW133344   4.251   1.800   9.708  1.7422  0.1314  2.7160
 7237SOL    HW233345   4.295   1.669   9.661  2.0097 -0.4599  1.7923
 7238SOL     OW33346   0.040   0.567   5.958 -0.4041  0.2021 -0.4298
 7238SOL    HW133347   0.091   0.559   5.877 -0.5268 -0.3386 -0.4482
 7238SOL    HW233348   0.025   0.662   5.950  1.1793  0.3900 -1.3032
 7239SOL     OW33349   0.080   0.897   5.817 -0.0050  0.3359 -0.0829
 7239SOL    HW133350   0.134   0.875   5.893 -0.2909 -0.7808 -0.2029
 7239SOL    HW233351   0.141   0.888   5.744 -0.1117  1.7034 -0.3359
 7240SOL     OW33352   1.292   2.042   8.979 -0.4724 -0.9097 -0.2192
 7240SOL    HW133353   1.300   2.132   9.011 -0.9272 -0.6107 -0.9177
 7240SOL    HW233354   1.374   2.006   9.012  0.3449 -0.7081 -1.9939
 7241SOL     OW33355   1.574   1.737   8.622  0.1255 -0.5143  0.1752
 7241SOL    HW133356   1.622   1.819   8.636  1.2150 -1.0219 -0.6022
 7241SOL    HW233357   1.605   1.680   8.693  0.8348  1.0104  1.1099
 7242SOL     OW33358   2.816   1.437   3.563 -0.1329 -0.3091 -0.0485
 7242SOL    HW133359   2.827   1.342   3.569  1.5216 -0.1303 -0.3117
 7242SOL    HW233360   2.758   1.441   3.639 -1.5353  3.3362 -1.3480
 7243SOL     OW33361   4.186   4.017   0.298  0.0932  0.6394 -0.2940
 7243SOL    HW133362   4.212   3.951   0.362 -1.1559 -0.1507 -0.6109
 7243SOL    HW233363   4.271   4.049   0.266  1.2269 -0.2792  1.7897
 7244SOL     OW33364   1.858   2.741   1.137  0.0072 -0.1565  0.5960
 7244SOL    HW133365   1.768   2.769   1.152 -0.8661 -1.5313 -1.9140
 7244SOL    HW233366   1.866   2.661   1.188  0.7707  0.7838  1.9413
 7245SOL     OW33367   1.252   1.969   6.477  0.0777 -0.6334  0.1357
 7245SOL    HW133368   1.241   1.900   6.411  0.9977  1.7173 -2.4741
 7245SOL    HW233369   1.239   2.043   6.418 -0.8806 -1.2847 -0.4697
 7246SOL     OW33370   4.089   1.130  16.722  0.1676  0.3159 -0.3644
 7246SOL    HW133371   4.176   1.100  16.693  0.6746  0.6082  0.8635
 7246SOL    HW233372   4.108   1.164  16.809  0.3380 -2.0591  0.5270
 7247SOL     OW33373   4.381   4.511   3.517 -0.0063 -0.0377 -0.0604
 7247SOL    HW133374   4.457   4.453   3.506  0.2659  0.6076 -1.6949
 7247SOL    HW233375   4.359   4.538   3.428 -0.0481  0.4928  0.1086
 7248SOL     OW33376   3.656   2.868   0.053 -0.1015 -0.3789  0.1374
 7248SOL    HW133377   3.693   2.790   0.012  0.6321  0.5322 -0.9302
 7248SOL    HW233378   3.578   2.886   0.001  0.2807  0.8565  0.0013
 7249SOL     OW33379   0.766   1.982   0.104  0.9485 -0.5215 -0.2318
 7249SOL    HW133380   0.789   1.908   0.048  1.1679 -0.3953 -0.3076
 7249SOL    HW233381   0.671   1.979   0.100  0.9209  0.0078  0.0894
 7250SOL     OW33382   4.723   3.007   1.885 -0.4690 -0.3989 -1.0231
 7250SOL    HW133383   0.011   2.954   1.960 -0.2835 -0.5181 -1.1765
 7250SOL    HW233384   0.068   3.035   1.851  0.0382 -0.4932  0.1759
 7251SOL     OW33385   2.663   3.965   3.621  0.5076  0.5760  0.3657
 7251SOL    HW133386   2.719   4.028   3.666 -0.9097  1.1232  1.3450
 7251SOL    HW233387   2.715   3.887   3.644  1.9799  1.6422  0.6684
 7252SOL     OW33388   4.683   1.178   1.939 -0.0476  0.3231  0.2778
 7252SOL    HW133389   4.677   1.083   1.952 -1.6525  0.3138 -0.5563
 7252SOL    HW233390   0.002   1.199   2.012  1.2877  1.2526 -1.0580
 7253SOL     OW33391   2.276   4.733   4.231  0.1446  0.5576 -0.5404
 7253SOL    HW133392   2.294   0.074   4.280  2.3390  0.4305 -1.1243
 7253SOL    HW233393   2.202   0.018   4.176 -0.9861  0.4729  0.9505
 7254SOL     OW33394   3.559   2.621  12.512  0.4402 -0.1757 -0.0891
 7254SOL    HW133395   3.491   2.611  12.446  0.9857 -0.9143 -0.5498
 7254SOL    HW233396   3.549   2.711  12.542 -1.8827 -0.0299 -1.2950
 7255SOL     OW33397   0.071   2.753   4.019  0.5833 -0.3003 -0.5299
 7255SOL    HW133398   4.723   2.789   4.005 -0.5317 -2.0036  1.9396
 7255SOL    HW233399   0.061   2.674   3.966 -2.6212 -0.3399  0.1086
 7256SOL     OW33400   2.314   1.382  16.361 -0.4024 -0.3170  0.1523
 7256SOL    HW133401   2.353   1.391  16.274  1.0569 -1.5239  0.6541
 7256SOL    HW233402   2.324   1.472  16.390 -3.5052  0.2258 -0.5290
 7257SOL     OW33403   3.159   3.606   7.152 -0.2598 -0.5711  0.3545
 7257SOL    HW133404   3.071   3.641   7.168 -0.3225 -0.9275  0.7673
 7257SOL    HW233405   3.188   3.614   7.242 -0.1355  1.2990  0.1401
 7258SOL     OW33406   3.326   0.483   8.686 -0.4375 -0.4150 -0.1343
 7258SOL    HW133407   3.323   0.389   8.703  0.7070 -0.3752  0.2925
 7258SOL    HW233408   3.233   0.503   8.681 -0.4321 -0.8427 -1.9817
 7259SOL     OW33409   3.212   3.432  16.750 -0.6171 -0.4184 -0.3057
 7259SOL    HW133410   3.279   3.448  16.816 -0.0232 -3.3068 -0.2092
 7259SOL    HW233411   3.264   3.443  16.670 -1.0430  2.2055 -0.2065
 7260SOL     OW33412   3.928   3.640   5.803  0.1875  0.0428 -0.0097
 7260SOL    HW133413   3.906   3.548   5.799 -0.2716  0.1608 -0.1494
 7260SOL    HW233414   3.907   3.646   5.897 -0.9765 -0.8717 -0.2181
 7261SOL     OW33415   0.202   2.800  14.334 -0.0144  0.0286 -0.1684
 7261SOL    HW133416   0.180   2.801  14.427  0.8130  0.3336  0.0305
 7261SOL    HW233417   0.266   2.729  14.324 -1.0143 -0.9720  0.6393
 7262SOL     OW33418   3.662   2.692   6.088  0.1653  0.4860 -0.0693
 7262SOL    HW133419   3.626   2.763   6.035  1.9565 -0.2033 -2.2061
 7262SOL    HW233420   3.678   2.628   6.020 -1.2167 -0.1458  0.2050
 7263SOL     OW33421   2.893   3.143   6.802 -1.0342 -0.5587 -0.5535
 7263SOL    HW133422   2.848   3.166   6.721 -0.0140  3.0586 -0.1115
 7263SOL    HW233423   2.823   3.174   6.859  1.5726  1.4747  1.5514
 7264SOL     OW33424   1.131   0.139  10.033 -0.1387  0.0602  0.6816
 7264SOL    HW133425   1.165   0.228  10.019 -1.3336  0.4561  0.2108
 7264SOL    HW233426   1.136   0.119   9.939  0.0345 -1.4701  1.0275
 7265SOL     OW33427   1.168   3.447   4.271 -0.2539 -0.4868 -0.0999
 7265SOL    HW133428   1.107   3.470   4.341  1.0365  1.7473  0.2940
 7265SOL    HW233429   1.178   3.356   4.298 -1.6107 -1.5440 -3.3155
 7266SOL     OW33430   1.004   2.947  11.387  0.6946 -0.2428  0.4659
 7266SOL    HW133431   1.100   2.949  11.386  0.6779  1.4712  3.9063
 7266SOL    HW233432   0.980   2.882  11.453 -0.0852 -0.1383  0.2802
 7267SOL     OW33433   3.983   1.701   2.033 -0.0543 -0.7581 -0.1293
 7267SOL    HW133434   4.038   1.627   2.007  1.8678  0.3173  0.8415
 7267SOL    HW233435   3.907   1.687   1.977 -0.9841 -0.3209  1.0245
 7268SOL     OW33436   3.475   0.684   2.240 -0.1483  0.7328  0.0294
 7268SOL    HW133437   3.438   0.610   2.289 -2.0035  0.3059 -2.0205
 7268SOL    HW233438   3.517   0.633   2.171 -0.6555  0.2662  0.0699
 7269SOL     OW33439   3.576   1.156  14.386 -0.5100 -0.3056  0.1229
 7269SOL    HW133440   3.607   1.135  14.297 -1.4125 -3.2896  0.5019
 7269SOL    HW233441   3.582   1.251  14.377 -3.0607 -0.2757 -1.2269
 7270SOL     OW33442   2.590   4.376   2.910 -0.1142 -0.6291 -0.1592
 7270SOL    HW133443   2.683   4.391   2.928 -0.1206  0.0353 -0.6913
 7270SOL    HW233444   2.583   4.280   2.912 -1.7980 -0.5075 -0.0839
 7271SOL     OW33445   3.512   3.684   0.141 -0.3746 -0.7940 -0.0671
 7271SOL    HW133446   3.586   3.667   0.083 -1.0038 -0.8793 -0.8437
 7271SOL    HW233447   3.516   3.779   0.158 -2.4714 -0.5154 -1.0618
 7272SOL     OW33448   1.249   3.792   4.529 -0.2307  0.4813 -0.7634
 7272SOL    HW133449   1.321   3.732   4.509 -2.4469 -2.4145 -0.2269
 7272SOL    HW233450   1.180   3.770   4.466 -1.6901  0.5952  0.7765
 7273SOL     OW33451   2.095   2.241   7.041  0.6755  0.0962 -0.4442
 7273SOL    HW133452   2.182   2.212   7.067  0.3550 -0.9143 -0.5018
 7273SOL    HW233453   2.033   2.173   7.067 -0.5268  1.4209  0.1586
 7274SOL     OW33454   2.384   3.214  10.494 -0.1399  0.0268  0.0849
 7274SOL    HW133455   2.323   3.145  10.465 -1.4484  0.7655  1.0812
 7274SOL    HW233456   2.441   3.163  10.551  1.1283  0.1566 -1.0726
 7275SOL     OW33457   1.055   4.407   4.820  0.4222  0.1297  0.0594
 7275SOL    HW133458   1.084   4.496   4.802 -1.7672  1.8148  4.7068
 7275SOL    HW233459   0.974   4.388   4.774 -0.6268  2.1500  1.0506
 7276SOL     OW33460   1.428   0.236   9.594 -0.9496 -0.1003 -0.1742
 7276SOL    HW133461   1.393   0.149   9.575  1.1535 -0.5452 -2.0307
 7276SOL    HW233462   1.499   0.249   9.531 -0.3694  1.0252  0.7245
 7277SOL     OW33463   2.926   4.388   9.132 -0.0987 -0.1763  0.0077
 7277SOL    HW133464   2.847   4.348   9.166  0.0301 -0.0074  0.5102
 7277SOL    HW233465   2.962   4.426   9.212 -0.2732 -0.7426  0.3504
 7278SOL     OW33466   4.713   0.503   3.506  0.3583  0.3021  0.2751
 7278SOL    HW133467   4.655   0.469   3.438  0.2810 -0.8003  0.8897
 7278SOL    HW233468   4.649   0.524   3.573 -1.5988  0.3567 -1.5930
 7279SOL     OW33469   1.515   2.181   9.678 -0.1194  0.7187 -1.0390
 7279SOL    HW133470   1.471   2.098   9.660  0.2250  0.0569  1.2309
 7279SOL    HW233471   1.526   2.179   9.773 -1.3745  0.3223 -0.9003
 7280SOL     OW33472   0.845   0.471   7.282 -0.1287 -0.3205  0.0897
 7280SOL    HW133473   0.780   0.402   7.269  0.8976 -1.0869 -0.9864
 7280SOL    HW233474   0.893   0.437   7.358  0.8918 -1.7555 -1.2055
 7281SOL     OW33475   3.851   0.570  14.945  0.2395 -0.0912  0.4888
 7281SOL    HW133476   3.939   0.601  14.922  0.0784  1.1221  1.5170
 7281SOL    HW233477   3.851   0.475  14.955  0.9003 -0.0939  0.5103
 7282SOL     OW33478   4.501   1.912   7.252  0.4380  0.0598  0.7645
 7282SOL    HW133479   4.581   1.920   7.200  1.0419  0.6710  1.7711
 7282SOL    HW233480   4.480   1.824   7.223  2.2417  0.3523 -1.3536
 7283SOL     OW33481   3.051   3.804  17.342 -0.1653  0.3087  0.1637
 7283SOL    HW133482   3.108   3.743  17.389 -1.6710 -0.8443  0.4948
 7283SOL    HW233483   2.993   3.830  17.414 -1.0932  1.2978 -0.9362
 7284SOL     OW33484   4.107   1.730   1.684 -0.3456 -0.6022  0.6185
 7284SOL    HW133485   4.149   1.733   1.770  1.7881  0.3701 -0.4544
 7284SOL    HW233486   4.017   1.739   1.714 -0.3080 -0.0797  0.5792
 7285SOL     OW33487   2.650   2.866   6.946  0.4237 -0.0370  0.0605
 7285SOL    HW133488   2.574   2.848   7.002 -1.3160  1.9764 -1.6333
 7285SOL    HW233489   2.630   2.834   6.858  1.2570  0.0888 -0.1750
 7286SOL     OW33490   1.363   4.226   6.261  0.2431 -0.0488 -0.5211
 7286SOL    HW133491   1.295   4.287   6.233  0.4516  0.2293 -0.4333
 7286SOL    HW233492   1.322   4.159   6.315 -1.0540  0.2758 -1.1026
 7287SOL     OW33493   1.980   1.348   7.726 -0.0915 -0.4491  0.3000
 7287SOL    HW133494   1.982   1.356   7.631 -3.0118  0.3125  0.3070
 7287SOL    HW233495   1.922   1.273   7.736 -1.2160  0.3685 -0.1361
 7288SOL     OW33496   3.527   3.706   6.621  0.4629  0.5272  0.3682
 7288SOL    HW133497   3.581   3.627   6.624  0.0311  0.2973  2.0775
 7288SOL    HW233498   3.594   3.758   6.665  0.2806  0.9516  0.1500
 7289SOL     OW33499   3.102   4.045   0.540  0.0455  0.4982 -0.1235
 7289SOL    HW133500   3.102   3.966   0.486 -0.2223  1.7322 -1.9323
 7289SOL    HW233501   3.026   4.088   0.501 -0.4980  0.4385  0.8784
 7290SOL     OW33502   1.460   2.282   2.211 -0.1150 -0.0302  0.3975
 7290SOL    HW133503   1.532   2.255   2.153 -0.3653 -1.2723  0.6477
 7290SOL    HW233504   1.501   2.266   2.295  0.8955 -0.4563 -0.1777
 7291SOL     OW33505   4.025   3.085   9.195 -0.1004 -0.5973  0.5055
 7291SOL    HW133506   3.943   3.091   9.146 -0.3350  0.8468  1.0723
 7291SOL    HW233507   4.071   3.168   9.184  0.8307 -1.5478 -2.6131
 7292SOL     OW33508   2.125   4.329   3.957 -0.2562 -0.2048 -0.5867
 7292SOL    HW133509   2.061   4.344   3.887 -0.9630  0.6497  0.2503
 7292SOL    HW233510   2.144   4.423   3.962  0.2842 -0.2370 -1.8898
 7293SOL     OW33511   1.973   1.124   0.398 -0.4650  0.2278  0.0461
 7293SOL    HW133512   1.899   1.123   0.459 -1.2215 -0.4135 -0.8971
 7293SOL    HW233513   1.931   1.156   0.318  1.3184  0.8606 -0.6434
 7294SOL     OW33514   2.355   3.958   6.508  0.1773 -0.8465 -0.6014
 7294SOL    HW133515   2.376   4.005   6.427  0.6725 -0.3866 -0.2098
 7294SOL    HW233516   2.446   3.938   6.530  1.2991  2.3514 -2.2677
 7295SOL     OW33517   3.967   2.326  13.624 -0.0937 -0.1428  0.4079
 7295SOL    HW133518   3.871   2.334  13.618 -0.0998  0.2680  1.0390
 7295SOL    HW233519   3.986   2.414  13.658 -2.0598  0.7755 -0.8703
 7296SOL     OW33520   2.221   2.542   7.586 -0.2665  0.1396  0.0029
 7296SOL    HW133521   2.235   2.634   7.608  0.8190  0.1599 -0.7428
 7296SOL    HW233522   2.149   2.513   7.642 -0.9551 -0.3044 -1.1074
 7297SOL     OW33523   1.405   2.642   4.907 -0.1285  0.7566 -0.2239
 7297SOL    HW133524   1.343   2.674   4.972 -0.8358 -0.6216 -0.2128
 7297SOL    HW233525   1.411   2.548   4.927 -0.3820  0.3052 -2.2976
 7298SOL     OW33526   3.428   3.126  11.523 -0.3867 -0.4777 -0.1204
 7298SOL    HW133527   3.375   3.198  11.558  0.8807  1.4253 -2.0965
 7298SOL    HW233528   3.444   3.147  11.431  0.7074 -1.2747 -0.1111
 7299SOL     OW33529   0.562   0.601   8.288  0.0291  0.4704  0.1421
 7299SOL    HW133530   0.513   0.560   8.359  0.5923  0.6974  0.6621
 7299SOL    HW233531   0.538   0.538   8.220  0.1065  0.5807  0.0105
 7300SOL     OW33532   3.887   4.393  13.147 -0.1049  0.3671 -0.1233
 7300SOL    HW133533   3.866   4.301  13.165  1.1057  0.0207 -0.5446
 7300SOL    HW233534   3.889   4.442  13.230  0.8490 -0.8056  0.5418
 7301SOL     OW33535   1.700   2.308   5.894 -0.3561 -0.4207 -0.4522
 7301SOL    HW133536   1.652   2.301   5.812 -1.6913  2.5607  0.0795
 7301SOL    HW233537   1.666   2.229   5.936  0.0380 -0.3474  0.0128
 7302SOL     OW33538   4.135   4.052   5.403 -0.0597 -0.3620 -0.0554
 7302SOL    HW133539   4.088   4.060   5.486  2.2881  1.4195  1.0991
 7302SOL    HW233540   4.088   3.979   5.362 -1.3518 -0.2037  1.1331
 7303SOL     OW33541   4.241   0.629   1.813  0.0309 -0.0462  0.3970
 7303SOL    HW133542   4.300   0.555   1.801 -2.1043 -1.2192 -2.7372
 7303SOL    HW233543   4.276   0.670   1.893  0.1880  0.1236  0.2430
 7304SOL     OW33544   2.570   3.544   5.028 -0.2003 -0.0734 -0.3598
 7304SOL    HW133545   2.540   3.625   4.986  0.5097  0.1797 -0.3716
 7304SOL    HW233546   2.632   3.588   5.087  1.6619  1.2161 -3.2913
 7305SOL     OW33547   3.774   0.535   2.917  0.1688  0.7840  0.0169
 7305SOL    HW133548   3.806   0.571   3.000 -0.7458 -0.0186  0.7088
 7305SOL    HW233549   3.752   0.607   2.858 -1.0161 -0.2310 -0.7664
 7306SOL     OW33550   1.300   3.351   9.016  0.1343 -0.0310 -0.1235
 7306SOL    HW133551   1.323   3.400   9.094  3.3776  0.5466 -1.4626
 7306SOL    HW233552   1.207   3.343   9.037 -0.1763  1.9680 -0.6916
 7307SOL     OW33553   1.385   1.131   7.442 -0.2210 -0.5789  0.3745
 7307SOL    HW133554   1.371   1.073   7.517  1.4878  1.1022  2.0115
 7307SOL    HW233555   1.297   1.132   7.403  0.3566 -1.1580 -0.9310
 7308SOL     OW33556   3.291   3.361   3.569  0.2521 -0.3846 -0.0105
 7308SOL    HW133557   3.339   3.315   3.499 -0.1150 -0.3913 -0.2575
 7308SOL    HW233558   3.268   3.282   3.618  0.1085 -1.0452 -1.1409
 7309SOL     OW33559   2.300   0.986   6.964 -0.2050 -0.8171 -0.1821
 7309SOL    HW133560   2.372   1.031   7.008  0.6581 -0.4265 -1.9993
 7309SOL    HW233561   2.303   0.898   7.001 -2.6891  0.6398  3.5327
 7310SOL     OW33562   2.319   1.454   9.743  0.0705 -0.1355 -1.1700
 7310SOL    HW133563   2.382   1.383   9.754 -1.6606 -1.6215 -0.8316
 7310SOL    HW233564   2.368   1.536   9.751 -1.8420  0.9153 -0.0261
 7311SOL     OW33565   3.605   2.499   5.201 -0.1338  0.5639 -0.3007
 7311SOL    HW133566   3.607   2.420   5.147  2.2414 -0.1362  0.7841
 7311SOL    HW233567   3.691   2.540   5.193  0.4491 -0.2824  1.5597
 7312SOL     OW33568   2.840   1.907   6.310  0.5801  0.3532 -0.2862
 7312SOL    HW133569   2.895   1.957   6.248 -0.5897  0.9718 -0.8197
 7312SOL    HW233570   2.847   1.959   6.390 -0.7482  0.4206 -0.2218
 7313SOL     OW33571   3.294   2.676  11.858  0.0551 -0.2346 -0.6848
 7313SOL    HW133572   3.330   2.587  11.859 -1.5061 -0.8394  1.3429
 7313SOL    HW233573   3.352   2.716  11.922 -1.7786  0.2636  0.6767
 7314SOL     OW33574   1.935   0.378  11.897  0.3242 -0.4423  0.3052
 7314SOL    HW133575   2.002   0.412  11.957  1.1263 -0.7755 -0.3997
 7314SOL    HW233576   1.972   0.425  11.822 -0.2000  0.3565  0.5460
 7315SOL     OW33577   1.756   2.941   7.937  0.9594  0.1617  0.3104
 7315SOL    HW133578   1.807   2.922   8.015  3.0253 -1.2558 -1.3712
 7315SOL    HW233579   1.766   2.859   7.888  1.9623  0.3570  0.1712
 7316SOL     OW33580   0.475   4.226   7.095 -0.0632 -0.4087 -0.6292
 7316SOL    HW133581   0.524   4.306   7.079  0.6146 -0.8049 -0.5158
 7316SOL    HW233582   0.491   4.175   7.015 -0.5884 -1.1081 -0.2952
 7317SOL     OW33583   3.159   3.518   2.985  0.3525  0.4598  0.2664
 7317SOL    HW133584   3.189   3.444   2.931 -0.5045  0.7347 -0.5998
 7317SOL    HW233585   3.172   3.595   2.930 -0.5570 -0.3616 -1.1272
 7318SOL     OW33586   4.523   4.367  16.831  0.2334  0.1300  0.0454
 7318SOL    HW133587   4.452   4.329  16.882  0.9052 -0.3206  0.6582
 7318SOL    HW233588   4.486   4.388  16.745  0.5073 -1.9029 -0.5627
 7319SOL     OW33589   2.282   3.154   8.087  0.1641  0.5499  0.2840
 7319SOL    HW133590   2.267   3.228   8.144 -1.5576 -0.5081  1.2144
 7319SOL    HW233591   2.310   3.201   8.009  1.7863 -1.3128 -0.2715
 7320SOL     OW33592   4.534   0.509   7.087 -0.4777  0.1506 -0.5661
 7320SOL    HW133593   4.610   0.549   7.045  1.1986 -0.6163  1.7814
 7320SOL    HW233594   4.465   0.535   7.026  0.7224  1.6369 -1.2873
 7321SOL     OW33595   3.584   3.079  10.780  0.2752 -0.4996 -0.0472
 7321SOL    HW133596   3.596   3.042  10.868 -3.2252 -0.3132  0.5266
 7321SOL    HW233597   3.493   3.059  10.757  0.0939  2.1783 -1.6378
 7322SOL     OW33598   2.554   0.963   1.487  0.7037 -0.0716 -0.2115
 7322SOL    HW133599   2.528   0.911   1.411  0.1607 -0.7526  0.4431
 7322SOL    HW233600   2.546   1.046   1.441  0.6755 -1.3875 -2.5995
 7323SOL     OW33601   0.774   0.662   9.576 -0.2779  0.1963  0.0320
 7323SOL    HW133602   0.758   0.689   9.666 -0.5135  0.1654 -0.0019
 7323SOL    HW233603   0.802   0.573   9.596 -1.4239  0.6107  3.4164
 7324SOL     OW33604   3.570   3.414   4.095 -0.3609  0.0523 -0.0744
 7324SOL    HW133605   3.510   3.455   4.157  0.5943  1.9238 -0.3977
 7324SOL    HW233606   3.568   3.474   4.020 -0.6900  0.2722  0.1105
 7325SOL     OW33607   4.586   1.184  12.956 -0.7768 -0.2998 -0.1198
 7325SOL    HW133608   4.537   1.102  12.953  0.2380 -0.9027 -0.1642
 7325SOL    HW233609   4.580   1.213  12.865 -4.7814  0.6387  0.4566
 7326SOL     OW33610   4.245   1.511   6.492  0.8172 -0.1068 -0.4913
 7326SOL    HW133611   4.307   1.562   6.543  2.2220 -1.6325 -0.6714
 7326SOL    HW233612   4.166   1.565   6.497  2.1420  1.9609 -1.9812
 7327SOL     OW33613   0.621   0.175   1.160  0.1426  0.5984 -0.0996
 7327SOL    HW133614   0.584   0.243   1.216  1.1125  1.2888 -0.3016
 7327SOL    HW233615   0.653   0.228   1.087  0.0858  1.4180  0.4778
 7328SOL     OW33616   1.595   2.260   2.468 -0.0341 -0.3855 -0.1692
 7328SOL    HW133617   1.530   2.309   2.517 -1.4254 -0.7387 -1.6448
 7328SOL    HW233618   1.656   2.219   2.529 -0.6491  0.2187  0.8421
 7329SOL     OW33619   4.229   1.488  17.171 -0.8607 -0.1176 -0.4650
 7329SOL    HW133620   4.317   1.485  17.133 -1.2735  3.0310 -1.6364
 7329SOL    HW233621   4.228   1.447  17.258 -0.4333 -0.0040 -0.4080
 7330SOL     OW33622   1.475   4.498   5.005  0.5981 -0.2890 -0.0900
 7330SOL    HW133623   1.494   4.494   5.099  0.7407  1.2930 -0.0394
 7330SOL    HW233624   1.394   4.448   5.006 -0.9868  2.2850  0.4273
 7331SOL     OW33625   2.678   1.011  10.319  0.2735  0.2818 -0.1810
 7331SOL    HW133626   2.615   1.082  10.306 -0.3797 -0.0436  1.1358
 7331SOL    HW233627   2.671   0.956  10.241 -0.0147 -0.6578  0.4902
 7332SOL     OW33628   2.061   2.316  15.986 -0.0788 -0.7492 -0.2667
 7332SOL    HW133629   2.117   2.273  15.921  0.3836  0.0563 -0.3934
 7332SOL    HW233630   1.975   2.308  15.946 -0.9497  1.5395  1.1380
 7333SOL     OW33631   1.372   1.618   9.817  0.2094  0.7194 -0.1002
 7333SOL    HW133632   1.285   1.625   9.777 -0.3506 -3.9616  0.3315
 7333SOL    HW233633   1.417   1.602   9.734  0.3169  1.8343 -0.2598
 7334SOL     OW33634   3.609   0.992   7.219 -0.5819  0.0689  0.6637
 7334SOL    HW133635   3.520   1.028   7.225 -0.4928  0.2049  1.2399
 7334SOL    HW233636   3.609   0.933   7.294 -0.3187 -0.1131  0.5180
 7335SOL     OW33637   0.072   4.292   8.036 -0.3586 -0.2344  0.6178
 7335SOL    HW133638   4.729   4.342   8.036  0.2792  0.8219 -2.3035
 7335SOL    HW233639   0.132   4.366   8.049 -0.3453 -0.1385  0.0383
 7336SOL     OW33640   1.824   3.653  10.114  0.0247 -0.3819  0.0031
 7336SOL    HW133641   1.886   3.665  10.186 -0.0778 -1.0740  0.2067
 7336SOL    HW233642   1.846   3.562  10.096  1.3361  0.0346 -0.5507
 7337SOL     OW33643   2.837   0.215  14.275 -0.0381 -0.1645 -0.2742
 7337SOL    HW133644   2.787   0.172  14.206 -0.9704  0.3362  0.0895
 7337SOL    HW233645   2.918   0.164  14.273  0.5181  0.7251 -0.2814
 7338SOL     OW33646   0.098   3.725  13.302 -0.1847  0.0545  0.3931
 7338SOL    HW133647   0.178   3.735  13.354 -0.4033  1.6252  0.4423
 7338SOL    HW233648   0.104   3.637  13.265  1.0104  2.6754 -5.6012
 7339SOL     OW33649   3.906   1.089  15.162 -0.2796  0.4184 -0.1073
 7339SOL    HW133650   3.946   1.002  15.156  0.6006  0.7889  0.4714
 7339SOL    HW233651   3.932   1.135  15.082  0.0081 -0.7049 -0.6636
 7340SOL     OW33652   3.208   0.542  17.301 -0.1021  0.1199  0.5285
 7340SOL    HW133653   3.272   0.531  17.372  0.2877 -0.5311  0.0649
 7340SOL    HW233654   3.185   0.634  17.319 -0.0963  0.0202  1.0594
 7341SOL     OW33655   3.489   1.694  11.418 -0.0630 -0.1031  0.5223
 7341SOL    HW133656   3.502   1.751  11.342 -0.9989 -1.0089 -0.3091
 7341SOL    HW233657   3.555   1.627  11.401 -0.1797 -0.3150  0.9146
 7342SOL     OW33658   3.333   0.206   0.444 -0.3895 -0.1019 -0.0683
 7342SOL    HW133659   3.385   0.222   0.523 -0.6095  2.4578 -0.4209
 7342SOL    HW233660   3.319   0.112   0.438  1.4108 -0.3878  0.2649
 7343SOL     OW33661   2.481   4.529   6.494  0.4712 -0.3704 -0.3219
 7343SOL    HW133662   2.558   4.528   6.437  0.4284  1.2367 -0.3888
 7343SOL    HW233663   2.533   4.504   6.571 -1.6399 -3.0406  0.2323
 7344SOL     OW33664   3.456   0.385  14.436 -0.3797  0.0757 -0.1498
 7344SOL    HW133665   3.432   0.449  14.370  0.7537 -0.2291 -0.8559
 7344SOL    HW233666   3.448   0.320  14.367 -0.5415  0.4259 -0.4594
 7345SOL     OW33667   4.407   0.647   6.825 -0.1095 -0.1952  0.5633
 7345SOL    HW133668   4.355   0.568   6.809  0.6749 -0.8856  1.4971
 7345SOL    HW233669   4.476   0.659   6.760 -0.2539 -0.3537  0.3795
 7346SOL     OW33670   1.055   0.698   4.150  1.0003  0.4420 -0.1637
 7346SOL    HW133671   1.101   0.761   4.206  1.0028 -0.5600  0.9551
 7346SOL    HW233672   1.023   0.756   4.081 -2.2305  0.0308  0.9581
 7347SOL     OW33673   0.443   0.336   7.151 -0.1793 -0.4728  0.4868
 7347SOL    HW133674   0.428   0.337   7.056  1.7656 -0.5233  0.1837
 7347SOL    HW233675   0.458   0.427   7.175 -2.4349  0.1040 -0.2544
 7348SOL     OW33676   3.997   0.324  16.610  0.7980 -0.4284 -0.2985
 7348SOL    HW133677   4.010   0.233  16.637 -1.4676 -0.0191  2.1744
 7348SOL    HW233678   3.908   0.330  16.575 -0.2951  0.4579  2.6421
 7349SOL     OW33679   3.900   3.885   1.745 -0.3417 -0.3520 -0.3416
 7349SOL    HW133680   3.868   3.942   1.674  0.7684 -2.4636 -2.5363
 7349SOL    HW233681   3.823   3.891   1.802  0.2676  2.7445  0.1798
 7350SOL     OW33682   1.505   0.293   2.783 -0.2207  0.2330 -0.3131
 7350SOL    HW133683   1.488   0.234   2.856  0.1822  0.6002  0.0749
 7350SOL    HW233684   1.423   0.336   2.758 -0.2352 -0.4604 -1.4738
 7351SOL     OW33685   3.994   0.706  16.437 -0.1893  0.3115 -0.5105
 7351SOL    HW133686   3.922   0.643  16.438  0.4160 -0.3719 -0.1382
 7351SOL    HW233687   4.030   0.702  16.349  2.8133 -0.1875  0.7217
 7352SOL     OW33688   0.706   3.041   4.986  0.2791  0.0661  0.1987
 7352SOL    HW133689   0.745   2.959   4.956 -1.1285 -0.8240  0.7865
 7352SOL    HW233690   0.780   3.079   5.032 -0.2200  1.0688  0.1873
 7353SOL     OW33691   1.682   2.105   6.760  0.1423  1.0298 -0.0849
 7353SOL    HW133692   1.684   2.201   6.768  0.9661  0.5642  4.8622
 7353SOL    HW233693   1.608   2.085   6.817 -0.5124  1.4813 -0.7663
 7354SOL     OW33694   1.054   4.348   0.875  0.4982  0.1325  0.2164
 7354SOL    HW133695   1.039   4.423   0.932  1.2412  2.3317 -2.4416
 7354SOL    HW233696   0.984   4.355   0.809  1.3103  0.1712 -0.6507
 7355SOL     OW33697   2.869   3.792   4.091 -0.9556 -0.0289 -0.6638
 7355SOL    HW133698   2.790   3.845   4.097 -0.3753  0.9915 -2.0931
 7355SOL    HW233699   2.872   3.762   4.182 -0.9227 -1.7466 -1.2378
 7356SOL     OW33700   3.295   1.994   6.285 -0.3543 -0.2976  0.1020
 7356SOL    HW133701   3.320   1.942   6.362  1.3678  0.8112  0.2984
 7356SOL    HW233702   3.360   2.063   6.274 -0.3654  0.6583  5.8390
 7357SOL     OW33703   4.127   4.481   4.244 -0.9953  0.5051  0.1256
 7357SOL    HW133704   4.222   4.471   4.251 -1.1943 -0.4909  1.5356
 7357SOL    HW233705   4.116   4.520   4.157  2.1637 -1.6587 -1.2144
 7358SOL     OW33706   4.047   1.758  17.078 -0.3666  0.4075 -0.3389
 7358SOL    HW133707   4.051   1.672  17.121  2.0876  0.6955  0.0091
 7358SOL    HW233708   4.126   1.790  17.122 -0.9155  1.0834  0.1564
 7359SOL     OW33709   0.443   3.736   8.574  0.1157  0.1797 -0.1687
 7359SOL    HW133710   0.445   3.831   8.566  1.1638  0.2141  0.3770
 7359SOL    HW233711   0.380   3.699   8.512 -1.4883  4.2713 -0.9842
 7360SOL     OW33712   2.252   3.742  16.906  0.2307  0.2864 -0.9821
 7360SOL    HW133713   2.180   3.800  16.881 -1.4143 -1.1138  0.4804
 7360SOL    HW233714   2.198   3.674  16.947  2.6459 -0.6843  0.6055
 7361SOL     OW33715   4.392   4.296   4.466 -0.2425 -0.4674  0.7279
 7361SOL    HW133716   4.419   4.216   4.421 -3.6499 -0.0758 -1.9848
 7361SOL    HW233717   4.467   4.311   4.524 -0.1626  0.3418  0.4174
 7362SOL     OW33718   4.484   1.647   3.541 -0.7371 -0.4307  0.4069
 7362SOL    HW133719   4.556   1.706   3.563 -0.2742 -0.4600 -1.0904
 7362SOL    HW233720   4.500   1.591   3.617  2.2541  2.7761  2.1092
 7363SOL     OW33721   0.374   0.888   7.646  0.1312 -0.4053 -0.5282
 7363SOL    HW133722   0.328   0.819   7.693  2.2879 -1.9322 -0.6424
 7363SOL    HW233723   0.407   0.939   7.719 -2.0179 -0.0415  0.1845
 7364SOL     OW33724   4.325   2.687   4.773 -0.0660 -0.1566 -0.0859
 7364SOL    HW133725   4.369   2.617   4.820 -1.0468 -0.9295 -0.3299
 7364SOL    HW233726   4.308   2.660   4.683 -2.2109 -1.6273  0.7808
 7365SOL     OW33727   4.302   1.214   6.420 -0.1067  0.0589  0.1729
 7365SOL    HW133728   4.286   1.139   6.363  3.7099 -0.4106 -0.2796
 7365SOL    HW233729   4.304   1.286   6.358 -2.3865  0.0539  0.1173
 7366SOL     OW33730   1.722   2.479   7.896  0.0878 -0.0259  0.1150
 7366SOL    HW133731   1.737   2.461   7.803 -1.0142  0.3670 -0.1372
 7366SOL    HW233732   1.780   2.556   7.890  0.4966 -0.4180 -0.9655
 7367SOL     OW33733   4.591   1.900   6.398  0.1378 -0.2349  0.1657
 7367SOL    HW133734   4.561   1.973   6.343 -0.0577  0.6428  1.4346
 7367SOL    HW233735   4.670   1.944   6.429 -0.4595 -0.4880  2.0672
 7368SOL     OW33736   2.994   1.207   4.076  0.0676 -1.0817  0.0696
 7368SOL    HW133737   2.909   1.248   4.090  1.1787  1.7617 -1.5090
 7368SOL    HW233738   3.012   1.181   4.166 -0.2180  0.3375  0.5447
 7369SOL     OW33739   4.739   2.473   7.229 -0.5158  0.0399  0.1650
 7369SOL    HW133740   0.033   2.383   7.233  2.4001  1.0912 -0.4347
 7369SOL    HW233741   4.649   2.443   7.215 -0.7658  1.8649 -2.0100
 7370SOL     OW33742   0.752   0.440  10.672 -0.3705 -0.0947  0.1788
 7370SOL    HW133743   0.665   0.423  10.637 -0.0809  0.4815 -0.8238
 7370SOL    HW233744   0.728   0.477  10.758 -0.3085  0.5164 -0.0667
 7371SOL     OW33745   1.556   0.671   9.276  0.3181  0.1203 -0.5634
 7371SOL    HW133746   1.569   0.741   9.340  4.2127 -0.0447 -1.1403
 7371SOL    HW233747   1.648   0.650   9.260  0.6569 -0.1989  1.7193
 7372SOL     OW33748   2.428   4.307   1.771  0.1082  0.1409 -0.1625
 7372SOL    HW133749   2.438   4.344   1.683 -0.6603  1.2997  0.2365
 7372SOL    HW233750   2.340   4.270   1.772  0.7481 -1.3817  0.3849
 7373SOL     OW33751   4.605   3.964   9.446  0.6232  0.4141  0.0658
 7373SOL    HW133752   4.580   3.914   9.368  1.8714  1.1885 -0.8260
 7373SOL    HW233753   4.528   4.019   9.460 -0.2616 -0.9454  0.5768
 7374SOL     OW33754   0.005   0.922   8.292  0.7074  0.0454  0.4852
 7374SOL    HW133755   4.712   0.998   8.244  0.6373  0.7491  1.6472
 7374SOL    HW233756   4.709   0.928   8.381  0.2185  0.3347  0.2661
 7375SOL     OW33757   2.177   1.739   2.120 -0.5272  0.0076 -0.0078
 7375SOL    HW133758   2.134   1.813   2.162 -0.3627 -0.6097  1.2584
 7375SOL    HW233759   2.246   1.784   2.071 -0.9085 -0.7116 -1.2088
 7376SOL     OW33760   0.861   4.360  12.770 -0.0778  0.4659 -0.0845
 7376SOL    HW133761   0.793   4.379  12.705 -0.0071 -0.1029 -0.3264
 7376SOL    HW233762   0.811   4.321  12.842  1.5189 -0.9909  0.2449
 7377SOL     OW33763   2.295   4.318   5.040 -0.0581 -0.0865  0.1361
 7377SOL    HW133764   2.358   4.324   5.112  1.2322  2.0871 -1.1757
 7377SOL    HW233765   2.226   4.377   5.069 -1.1353 -2.2955  2.0775
 7378SOL     OW33766   3.816   3.280   6.450  0.1861 -0.2373 -0.0971
 7378SOL    HW133767   3.911   3.287   6.437  0.3871 -1.1492  0.8863
 7378SOL    HW233768   3.812   3.279   6.545 -1.2897 -1.2951 -0.1698
 7379SOL     OW33769   1.524   2.858  15.055  0.0878 -0.5625 -0.9105
 7379SOL    HW133770   1.599   2.915  15.069 -0.1368 -0.5402  0.1672
 7379SOL    HW233771   1.565   2.780  15.093  1.9233  0.5052 -0.7025
 7380SOL     OW33772   0.754   3.104   2.506 -0.4472 -0.3112 -0.2837
 7380SOL    HW133773   0.752   3.039   2.436  0.9213 -1.8562  1.0862
 7380SOL    HW233774   0.687   3.065   2.563  0.1903  0.3157  0.8971
 7381SOL     OW33775   1.726   1.166  13.023  0.5976  0.3073  0.1419
 7381SOL    HW133776   1.712   1.177  13.117  0.1764 -1.5555  0.2800
 7381SOL    HW233777   1.748   1.255  12.993  2.0065 -1.0648 -2.9378
 7382SOL     OW33778   3.054   1.455   3.821 -0.3631 -1.0334 -0.1931
 7382SOL    HW133779   3.008   1.460   3.905  0.4187 -1.3282  0.2505
 7382SOL    HW233780   3.000   1.399   3.766 -1.2025  2.0263 -2.4676
 7383SOL     OW33781   2.144   2.931   5.371 -0.7711 -0.5290 -0.1477
 7383SOL    HW133782   2.224   2.928   5.424  0.0009  1.2010 -1.1943
 7383SOL    HW233783   2.077   2.884   5.420  1.9415 -2.6876  1.4756
 7384SOL     OW33784   4.359   0.619   9.260 -0.3776 -0.2364  0.1718
 7384SOL    HW133785   4.285   0.661   9.217 -1.8878 -1.1473  1.9010
 7384SOL    HW233786   4.402   0.584   9.182  0.6965  0.3215  0.5182
 7385SOL     OW33787   4.320   2.169   6.372  0.0069 -0.4627 -0.6874
 7385SOL    HW133788   4.285   2.090   6.413 -1.0898  0.5737  0.3872
 7385SOL    HW233789   4.388   2.137   6.313 -1.0148 -2.4993 -0.7607
 7386SOL     OW33790   1.203   2.717   6.349  0.0678 -0.3959 -0.0863
 7386SOL    HW133791   1.299   2.723   6.343  0.1944 -1.2603  1.0854
 7386SOL    HW233792   1.169   2.800   6.317 -0.1653 -0.5017 -0.1173
 7387SOL     OW33793   4.372   1.145   3.881  0.2228 -0.5014 -0.0997
 7387SOL    HW133794   4.396   1.056   3.908 -0.0147  0.1646  2.3820
 7387SOL    HW233795   4.362   1.137   3.787  1.9231 -0.8942 -0.2507
 7388SOL     OW33796   0.379   4.174   3.462  0.0261  0.5273 -0.4605
 7388SOL    HW133797   0.469   4.146   3.480 -0.9342 -0.2895  3.0078
 7388SOL    HW233798   0.385   4.184   3.367 -0.5162 -0.4106 -0.5901
 7389SOL     OW33799   2.894   0.729   6.655 -0.4119 -0.0366 -0.1488
 7389SOL    HW133800   2.845   0.759   6.578 -1.2430 -0.4027  0.2260
 7389SOL    HW233801   2.984   0.747   6.630 -0.1425 -0.3908  0.5941
 7390SOL     OW33802   4.044   2.230   7.020  0.1085 -0.2278  0.1107
 7390SOL    HW133803   3.988   2.260   7.092 -0.0510  1.1976 -0.5902
 7390SOL    HW233804   4.075   2.146   7.053 -0.2443 -1.0089 -1.5736
 7391SOL     OW33805   1.432   3.354  14.951 -0.3898 -0.0119 -0.3701
 7391SOL    HW133806   1.352   3.313  14.916  1.1031 -1.7833 -1.7297
 7391SOL    HW233807   1.497   3.284  14.961  1.1677  1.3975 -0.5860
 7392SOL     OW33808   2.321   1.242   2.640 -0.7441 -0.3683  0.4433
 7392SOL    HW133809   2.370   1.164   2.664  3.7171  2.2657 -0.0231
 7392SOL    HW233810   2.249   1.196   2.598  1.1834 -0.6180 -2.5791
 7393SOL     OW33811   2.943   4.375   9.402  0.0988 -0.1498 -0.3079
 7393SOL    HW133812   2.882   4.324   9.454  0.7028 -1.0575 -0.4959
 7393SOL    HW233813   2.920   4.463   9.433  1.3297  0.0951 -0.0789
 7394SOL     OW33814   2.110   3.431   0.895  0.1197 -0.1031  0.4989
 7394SOL    HW133815   2.181   3.495   0.907 -1.1686  1.1616  1.3639
 7394SOL    HW233816   2.032   3.483   0.914  1.1224  0.9006  1.8509
 7395SOL     OW33817   2.637   2.285   2.604  0.4833 -0.1045 -0.0093
 7395SOL    HW133818   2.559   2.236   2.575 -0.6652  0.3259  2.3451
 7395SOL    HW233819   2.596   2.355   2.655 -1.0932 -1.6780  0.9338
 7396SOL     OW33820   2.401   2.698  14.120  0.0986  0.4763 -0.1572
 7396SOL    HW133821   2.346   2.776  14.110 -1.3443 -0.5990 -0.5307
 7396SOL    HW233822   2.370   2.639  14.051  0.3674  0.7033 -0.4767
 7397SOL     OW33823   4.111   3.357   7.751 -0.2514 -0.1332 -0.1719
 7397SOL    HW133824   4.051   3.367   7.825 -0.7220 -1.1009 -0.4179
 7397SOL    HW233825   4.113   3.261   7.745  0.6233 -0.2497  2.0023
 7398SOL     OW33826   3.894   3.765  14.551  0.4602 -0.2081  0.1259
 7398SOL    HW133827   3.925   3.700  14.615 -2.0848 -1.2380  0.3028
 7398SOL    HW233828   3.869   3.839  14.606  3.9174 -0.2156  1.7042
 7399SOL     OW33829   2.371   0.206   2.465  0.1282 -0.5868  0.3671
 7399SOL    HW133830   2.441   0.263   2.434 -0.5502 -0.2718 -0.5813
 7399SOL    HW233831   2.406   0.127   2.424 -1.3379 -0.8779 -0.3405
 7400SOL     OW33832   1.267   1.571   7.322 -0.5028 -0.2834 -0.5615
 7400SOL    HW133833   1.286   1.530   7.406 -2.3000  0.5232  0.2264
 7400SOL    HW233834   1.172   1.566   7.312 -0.7204  0.6525  1.2110
 7401SOL     OW33835   1.864   1.221   8.547  0.0881 -0.1330  0.2305
 7401SOL    HW133836   1.943   1.269   8.575  1.0011 -1.7501  0.4115
 7401SOL    HW233837   1.843   1.279   8.473 -1.7506 -2.6571 -1.2044
 7402SOL     OW33838   3.871   3.381  13.349 -0.1503 -0.1998 -0.3021
 7402SOL    HW133839   3.902   3.472  13.353  0.4798 -0.5162  2.1650
 7402SOL    HW233840   3.934   3.338  13.291 -1.8078 -2.9333 -0.0629
 7403SOL     OW33841   3.637   1.658  17.594  0.3998  0.3742 -0.5958
 7403SOL    HW133842   3.701   1.592  17.621 -1.1018 -0.9735 -0.2882
 7403SOL    HW233843   3.694   1.715  17.544 -1.3867  0.8571 -2.0800
 7404SOL     OW33844   2.027   0.300   8.761 -0.3207  0.2805  0.1153
 7404SOL    HW133845   1.944   0.317   8.717 -0.9246  1.1464  1.6058
 7404SOL    HW233846   2.053   0.212   8.734  0.4431  0.9712 -1.4010
 7405SOL     OW33847   1.632   0.095   4.026  0.3407  0.3201 -0.1497
 7405SOL    HW133848   1.660   0.055   3.944 -0.6276 -1.1993  0.2448
 7405SOL    HW233849   1.711   0.135   4.061 -0.1131 -1.5796  3.1043
 7406SOL     OW33850   3.841   0.931  10.402  0.1649  0.4651 -0.7203
 7406SOL    HW133851   3.754   0.969  10.393  0.2629  1.7799  4.1287
 7406SOL    HW233852   3.896   1.009  10.406 -2.4790  2.2514  0.7642
 7407SOL     OW33853   0.942   2.641   2.759  1.0133 -0.0924  0.3333
 7407SOL    HW133854   0.980   2.687   2.834  2.3666 -2.0131  0.8259
 7407SOL    HW233855   0.937   2.548   2.783 -1.0633 -0.3117 -0.9804
 7408SOL     OW33856   3.559   4.134   3.975 -0.6137  0.3303 -0.4147
 7408SOL    HW133857   3.480   4.152   4.027 -0.4975 -3.6898  1.1913
 7408SOL    HW233858   3.572   4.042   4.000  0.3953 -0.0078 -2.1605
 7409SOL     OW33859   3.685   2.424   0.855 -0.1477 -0.1308 -0.4900
 7409SOL    HW133860   3.619   2.356   0.864  1.7506 -1.7170  1.6195
 7409SOL    HW233861   3.632   2.499   0.828 -1.7684 -0.2920  2.2243
 7410SOL     OW33862   4.605   3.771   4.492 -0.3278  0.1349  0.4724
 7410SOL    HW133863   4.535   3.782   4.427  0.9706 -0.6744 -1.0875
 7410SOL    HW233864   4.627   3.679   4.475  0.8049  0.2935  1.0646
 7411SOL     OW33865   2.193   0.992   1.247  0.2196  0.4735 -0.3444
 7411SOL    HW133866   2.232   0.938   1.178 -0.6983 -1.6781  0.8129
 7411SOL    HW233867   2.109   0.946   1.241 -0.2716  1.3458 -0.1215
 7412SOL     OW33868   1.077   4.174  11.913 -0.0843  0.3749 -0.4040
 7412SOL    HW133869   1.019   4.173  11.989  0.2746  2.4326 -0.0974
 7412SOL    HW233870   1.162   4.192  11.954 -0.4149  0.1937  0.3498
 7413SOL     OW33871   3.934   3.216   4.501 -0.1098  0.5053  0.3056
 7413SOL    HW133872   3.925   3.310   4.516 -3.3728  0.0070  1.3839
 7413SOL    HW233873   3.977   3.187   4.582  1.0021 -0.4495 -0.6192
 7414SOL     OW33874   3.009   0.506   6.756 -0.1001 -0.4560 -0.0609
 7414SOL    HW133875   2.918   0.536   6.751  0.5598  1.9699  2.4921
 7414SOL    HW233876   3.017   0.454   6.676  0.7330 -0.4943  0.0497
 7415SOL     OW33877   1.215   3.555   4.856 -0.2735  0.6228 -0.3339
 7415SOL    HW133878   1.195   3.567   4.949 -0.9938  0.4988 -0.4745
 7415SOL    HW233879   1.290   3.612   4.842 -0.1820  0.5940  0.0549
 7416SOL     OW33880   2.386   2.213   2.047  0.2295 -0.1595 -0.5314
 7416SOL    HW133881   2.365   2.252   1.962  1.0005 -2.7111 -1.8964
 7416SOL    HW233882   2.440   2.283   2.085  1.9408 -0.5649 -2.2094
 7417SOL     OW33883   4.214   2.517   8.827  0.2883  0.8307  0.1914
 7417SOL    HW133884   4.224   2.515   8.922  4.1062 -1.6881 -0.2124
 7417SOL    HW233885   4.251   2.435   8.794  0.1548  0.7732  0.1843
 7418SOL     OW33886   3.429   4.316   8.583 -0.5265 -0.0413  0.2748
 7418SOL    HW133887   3.473   4.383   8.635  0.7233  0.0870 -0.9580
 7418SOL    HW233888   3.410   4.255   8.655 -0.7975  0.1667  0.3791
 7419SOL     OW33889   2.631   0.046   6.395  0.8469 -0.3920 -0.0148
 7419SOL    HW133890   2.638   4.690   6.392 -0.5861 -0.4768 -0.9356
 7419SOL    HW233891   2.693   0.061   6.323  2.5777  0.6999  1.7230
 7420SOL     OW33892   1.687   3.743   9.713 -0.8014 -0.9393 -0.3551
 7420SOL    HW133893   1.646   3.778   9.792  1.9173 -0.8451  0.9840
 7420SOL    HW233894   1.775   3.712   9.733 -1.1467 -0.9682  1.1077
 7421SOL     OW33895   1.725   1.186  14.697  0.6117 -0.1489  0.1066
 7421SOL    HW133896   1.657   1.253  14.707 -0.0186 -0.6648 -0.7043
 7421SOL    HW233897   1.712   1.124  14.769 -1.8668 -1.4108 -1.4246
 7422SOL     OW33898   2.244   1.274   7.324 -0.1626  0.3206  0.4657
 7422SOL    HW133899   2.186   1.326   7.380  0.9410  0.7333  1.2226
 7422SOL    HW233900   2.233   1.317   7.239  1.5240  0.2554  0.2207
 7423SOL     OW33901   0.459   0.762  11.111 -0.2034 -0.5177 -0.5990
 7423SOL    HW133902   0.527   0.827  11.097  0.0120 -0.7578 -0.6624
 7423SOL    HW233903   0.391   0.777  11.046  1.2928  1.1519 -1.7593
 7424SOL     OW33904   4.094   3.428   8.039 -0.6637 -1.1636 -0.4203
 7424SOL    HW133905   4.113   3.340   8.072 -1.8786 -0.6803  1.5942
 7424SOL    HW233906   4.004   3.417   8.009 -1.8421  1.5548  2.0635
 7425SOL     OW33907   2.290   3.000   2.437  0.3888 -0.2513  0.0940
 7425SOL    HW133908   2.242   2.921   2.460  3.9593 -1.8855  1.9230
 7425SOL    HW233909   2.264   3.065   2.502 -2.1833  0.9904 -2.1667
 7426SOL     OW33910   3.378   2.384  11.884  0.0665  0.3064  0.6723
 7426SOL    HW133911   3.339   2.356  11.967  0.2521  0.2613  0.7428
 7426SOL    HW233912   3.466   2.401  11.918  0.1055  1.4602  0.0070
 7427SOL     OW33913   3.428   3.651   3.342  0.1129  0.0309 -0.5225
 7427SOL    HW133914   3.387   3.719   3.288 -0.9661 -0.0207  0.2194
 7427SOL    HW233915   3.417   3.577   3.283  3.1483 -2.0112  1.4933
 7428SOL     OW33916   4.522   4.290   8.113  0.2045 -0.3706  0.3946
 7428SOL    HW133917   4.533   4.299   8.208  0.5306 -0.4555  0.3650
 7428SOL    HW233918   4.436   4.248   8.111 -0.2328  0.5779 -0.1514
 7429SOL     OW33919   3.572   1.646   5.734 -0.4288  0.6106 -0.1902
 7429SOL    HW133920   3.521   1.633   5.654 -0.9837  0.6391  0.1623
 7429SOL    HW233921   3.659   1.664   5.697  1.0762 -3.1014  1.5459
 7430SOL     OW33922   3.752   2.958  16.600 -0.5250 -0.0879  0.0565
 7430SOL    HW133923   3.683   2.953  16.534 -0.0434 -0.4034 -0.4229
 7430SOL    HW233924   3.742   2.871  16.639 -2.0328  0.4230  0.7980
 7431SOL     OW33925   2.537   2.332   6.753 -0.8296  0.1917  0.2656
 7431SOL    HW133926   2.630   2.332   6.733 -0.8024  0.6006  0.3971
 7431SOL    HW233927   2.499   2.328   6.665 -2.4177  0.7200  0.9139
 7432SOL     OW33928   3.366   0.949  17.544 -0.0925 -0.1191  0.5378
 7432SOL    HW133929   3.435   1.010  17.519 -1.3121  1.2109  0.4096
 7432SOL    HW233930   3.323   0.991  17.619  1.8396  2.2154  0.3274
 7433SOL     OW33931   4.130   0.914   4.114  0.8493 -0.6759  0.0443
 7433SOL    HW133932   4.053   0.960   4.079  0.6672 -1.0510 -0.0520
 7433SOL    HW233933   4.161   0.865   4.037 -0.1406  1.5298 -1.7585
 7434SOL     OW33934   3.483   0.063   0.879 -0.0904  0.4031 -0.5690
 7434SOL    HW133935   3.514   4.718   0.847  1.4765  1.3272 -1.5193
 7434SOL    HW233936   3.477   0.103   0.792  2.9520 -1.4438 -1.6125
 7435SOL     OW33937   1.959   4.672   3.970 -0.0785  0.1519 -0.2734
 7435SOL    HW133938   2.030   4.736   3.979 -1.6829  2.1021 -1.5231
 7435SOL    HW233939   1.933   4.664   4.062  0.4249  1.9344  0.0211
 7436SOL     OW33940   3.750   1.050   3.821 -1.0797  0.0273  0.0679
 7436SOL    HW133941   3.768   1.038   3.727  0.1363  0.0885  0.3001
 7436SOL    HW233942   3.657   1.024   3.825 -1.0372 -0.0956  0.2476
 7437SOL     OW33943   2.421   1.423   2.442  0.1169  0.0625 -0.4424
 7437SOL    HW133944   2.392   1.379   2.522  0.1168 -2.1000 -1.6452
 7437SOL    HW233945   2.410   1.512   2.477 -2.0079 -0.2523 -0.2829
 7438SOL     OW33946   3.782   2.092  15.975  0.1402  0.3133 -0.8854
 7438SOL    HW133947   3.773   2.172  16.027  0.9267 -1.0786  1.4142
 7438SOL    HW233948   3.870   2.091  15.937 -0.1874  1.3375 -1.6710
 7439SOL     OW33949   2.292   4.295   8.236 -0.0364 -0.1848 -0.0303
 7439SOL    HW133950   2.279   4.324   8.146  0.5988  3.1594  0.9406
 7439SOL    HW233951   2.378   4.336   8.242 -0.8227  1.4920  0.0188
 7440SOL     OW33952   1.740   2.553   6.518  0.3509  0.7663 -0.1745
 7440SOL    HW133953   1.790   2.482   6.559 -0.1823  0.0988 -0.6854
 7440SOL    HW233954   1.715   2.515   6.434  1.0573  1.4995 -0.7172
 7441SOL     OW33955   2.131   4.618   8.411 -0.9430 -0.0058  0.0712
 7441SOL    HW133956   2.166   4.600   8.498 -2.0673  0.3753  0.6140
 7441SOL    HW233957   2.103   4.530   8.385 -0.2595 -0.0303 -0.5686
 7442SOL     OW33958   0.066   0.079   8.639 -0.0678 -0.3821  0.0212
 7442SOL    HW133959   0.073   0.014   8.708  1.0432 -1.2695 -0.9489
 7442SOL    HW233960   4.736   0.132   8.680  0.0053  1.7975 -2.6613
 7443SOL     OW33961   2.447   1.726   9.675 -0.8323 -0.2476 -0.4355
 7443SOL    HW133962   2.362   1.762   9.651 -1.0478 -0.2418  0.3219
 7443SOL    HW233963   2.486   1.695   9.594 -0.3746  0.2446 -0.4075
 7444SOL     OW33964   0.978   0.435  12.376 -0.4632  0.4740 -0.4717
 7444SOL    HW133965   1.017   0.516  12.411  1.3680 -0.8332  0.4907
 7444SOL    HW233966   1.053   0.403  12.327 -0.4588 -0.2736  0.0302
 7445SOL     OW33967   1.217   0.585   5.112  0.3274 -0.2849  0.0614
 7445SOL    HW133968   1.251   0.651   5.052  0.3190 -0.6267 -0.3256
 7445SOL    HW233969   1.140   0.545   5.072 -1.0186  0.2098  2.1688
 7446SOL     OW33970   2.055   4.637   2.174  0.2685  0.1327  0.1113
 7446SOL    HW133971   2.079   4.722   2.137 -1.0760  0.5801  0.2545
 7446SOL    HW233972   2.133   4.582   2.180 -0.3678 -1.0049 -1.9714
 7447SOL     OW33973   3.764   1.517   4.224 -0.1802 -0.2535 -0.1476
 7447SOL    HW133974   3.758   1.612   4.226  0.4980 -0.2438  1.6293
 7447SOL    HW233975   3.846   1.515   4.274  0.2435 -4.0296 -0.9869
 7448SOL     OW33976   1.250   0.334   8.050  0.4470  0.1748  0.1429
 7448SOL    HW133977   1.279   0.390   7.978 -1.0714  0.8369  0.0591
 7448SOL    HW233978   1.186   0.285   7.999  1.2065 -1.2334  0.5351
 7449SOL     OW33979   1.815   4.082   1.822 -0.2874 -0.2740 -0.5335
 7449SOL    HW133980   1.746   4.016   1.825 -0.1557 -0.4188 -0.7331
 7449SOL    HW233981   1.764   4.155   1.787  0.8947  1.3681  1.1295
 7450SOL     OW33982   2.023   0.733   4.141 -0.0309  0.0740 -0.7154
 7450SOL    HW133983   1.953   0.701   4.084 -2.0025  0.8458  1.2614
 7450SOL    HW233984   2.004   0.700   4.229 -3.5136  2.8703 -0.4015
 7451SOL     OW33985   3.423   0.235   3.333  0.6713  0.3460 -0.1328
 7451SOL    HW133986   3.329   0.221   3.321  0.6403  0.1464  0.3363
 7451SOL    HW233987   3.460   0.155   3.294 -0.3239  0.8495 -2.1113
 7452SOL     OW33988   3.650   3.094   8.278 -0.0591  0.0942  0.1767
 7452SOL    HW133989   3.685   3.029   8.217 -2.2552 -2.1013  1.2579
 7452SOL    HW233990   3.712   3.101   8.351 -0.5779 -0.4317  0.6661
 7453SOL     OW33991   3.904   1.103   6.145 -0.4738 -0.2130  0.2451
 7453SOL    HW133992   3.981   1.156   6.124 -1.5358  1.9749  1.9280
 7453SOL    HW233993   3.929   1.024   6.096  1.3917 -0.2457  1.2268
 7454SOL     OW33994   3.634   2.111   4.223  0.3320 -0.1919  0.1674
 7454SOL    HW133995   3.626   2.151   4.136 -0.4049  0.7725  0.6876
 7454SOL    HW233996   3.590   2.028   4.204  0.1593 -0.3614  1.3466
 7455SOL     OW33997   1.608   2.852  15.651 -0.1386  0.0283 -0.5489
 7455SOL    HW133998   1.616   2.758  15.637  0.4687  0.6079 -3.8814
 7455SOL    HW233999   1.539   2.844  15.718  1.1362  0.1847  0.7876
 7456SOL     OW34000   0.632   2.096   4.307 -0.3926  0.0660 -0.1331
 7456SOL    HW134001   0.647   2.040   4.384  0.6642  2.4513  1.4172
 7456SOL    HW234002   0.537   2.101   4.301 -0.5380  1.3122  2.9206
 7457SOL     OW34003   2.557   0.269   6.560 -0.2491 -0.0220 -0.3509
 7457SOL    HW134004   2.623   0.334   6.534  0.2739 -0.9464 -1.3653
 7457SOL    HW234005   2.582   0.196   6.504  1.0752  1.1586 -1.3264
 7458SOL     OW34006   4.314   0.199   6.193  0.0203  0.4034 -0.0200
 7458SOL    HW134007   4.327   0.106   6.209  0.7417  0.2065 -1.7315
 7458SOL    HW234008   4.407   0.221   6.208  0.1141 -0.4183  0.6432
 7459SOL     OW34009   2.731   4.173   3.064  0.6315  0.9626 -0.2806
 7459SOL    HW134010   2.787   4.225   3.122  3.4126 -2.9126  0.5321
 7459SOL    HW234011   2.785   4.094   3.060  0.1957  0.6503  0.0417
 7460SOL     OW34012   4.281   3.848   5.619 -0.1862  0.2367  0.6849
 7460SOL    HW134013   4.230   3.769   5.605 -0.0891 -0.0417  1.8567
 7460SOL    HW234014   4.353   3.831   5.559 -0.9608  0.5090 -0.3262
 7461SOL     OW34015   3.115   4.367   6.969  1.0064  0.2706  0.2870
 7461SOL    HW134016   3.136   4.435   6.905 -0.0195  0.4360  0.1277
 7461SOL    HW234017   3.050   4.315   6.922  3.6948 -2.0217 -0.8804
 7462SOL     OW34018   0.287   0.415  12.165 -0.2271 -0.0848 -0.9998
 7462SOL    HW134019   0.256   0.440  12.078  0.6149  0.6187 -1.0899
 7462SOL    HW234020   0.380   0.414  12.146 -0.1009 -0.2332 -0.3458
 7463SOL     OW34021   4.120   1.915  14.289  0.0296 -0.3948  0.3082
 7463SOL    HW134022   4.170   1.844  14.250  1.9232  0.2755  1.5152
 7463SOL    HW234023   4.122   1.903  14.384  1.9116  0.7743  0.4110
 7464SOL     OW34024   1.593   2.194   4.880 -0.2167 -0.3292  0.1205
 7464SOL    HW134025   1.531   2.128   4.850 -1.9212  0.0442  2.8175
 7464SOL    HW234026   1.628   2.226   4.797  0.7426  1.5462  1.2324
 7465SOL     OW34027   0.743   1.810   9.251 -0.2380 -0.0125 -0.6268
 7465SOL    HW134028   0.783   1.755   9.183  2.4376  2.0626 -0.7437
 7465SOL    HW234029   0.786   1.895   9.242 -1.1124  0.3996 -0.7998
 7466SOL     OW34030   2.632   4.213   6.546 -0.0369  0.3745 -0.6632
 7466SOL    HW134031   2.661   4.292   6.591  0.3228  0.1464 -0.4963
 7466SOL    HW234032   2.680   4.144   6.592 -1.7191 -0.7728 -0.6021
 7467SOL     OW34033   4.567   1.295  11.310 -0.4334  0.0606  0.4154
 7467SOL    HW134034   4.512   1.235  11.260  2.3649 -1.2476 -1.0806
 7467SOL    HW234035   4.592   1.247  11.389 -2.0650  0.7250  1.3346
 7468SOL     OW34036   2.428   0.816   7.318  0.2763 -0.3245 -0.4465
 7468SOL    HW134037   2.393   0.897   7.356 -1.6629 -1.5012  0.2996
 7468SOL    HW234038   2.396   0.758   7.387 -1.5692 -0.0410 -1.0711
 7469SOL     OW34039   1.558   3.050   2.929  0.5975 -0.6249 -0.0655
 7469SOL    HW134040   1.549   3.107   3.005 -2.7246  0.8860 -1.5810
 7469SOL    HW234041   1.467   3.018   2.924 -0.2492  1.4459  2.0565
 7470SOL     OW34042   3.165   2.959   5.992  0.4570  0.4317 -0.6548
 7470SOL    HW134043   3.114   3.022   6.043  1.2012  0.9636 -0.5643
 7470SOL    HW234044   3.115   2.883   6.021  0.3532  0.9897  0.6282
 7471SOL     OW34045   2.858   0.565   5.964  0.0849 -0.7715 -0.6019
 7471SOL    HW134046   2.855   0.470   5.971 -1.3733 -0.6673  0.4040
 7471SOL    HW234047   2.788   0.591   5.903 -2.2047 -3.1139  1.0321
 7472SOL     OW34048   1.448   1.721  13.909 -0.0316  0.4619  0.1100
 7472SOL    HW134049   1.528   1.673  13.929  1.1009  2.0168 -0.7072
 7472SOL    HW234050   1.466   1.811  13.883  0.8383  0.3528  0.3364
 7473SOL     OW34051   3.031   4.674   1.925 -0.7089 -0.0042 -0.1053
 7473SOL    HW134052   3.086   0.008   1.900  0.9499 -0.1408  3.1615
 7473SOL    HW234053   3.014   4.679   2.019 -0.8716  0.3426 -0.1566
 7474SOL     OW34054   3.206   3.442   0.947 -0.0380  0.0813 -0.3766
 7474SOL    HW134055   3.297   3.446   0.918 -0.3341 -1.4329 -1.5036
 7474SOL    HW234056   3.164   3.416   0.866 -1.3805  1.3597 -0.0898
 7475SOL     OW34057   4.633   1.820   4.916 -0.1202  0.4954 -0.3771
 7475SOL    HW134058   4.640   1.912   4.890  2.3019  0.6842  0.9580
 7475SOL    HW234059   4.617   1.782   4.830 -0.8924  0.2965 -0.1488
 7476SOL     OW34060   2.365   3.983   5.041  0.6312 -0.0641 -0.6028
 7476SOL    HW134061   2.295   4.049   5.046  0.1300 -0.7911  1.9890
 7476SOL    HW234062   2.370   3.935   5.124  2.9577 -0.4059 -0.9593
 7477SOL     OW34063   1.567   1.293   9.089 -0.3849 -0.1968 -0.4713
 7477SOL    HW134064   1.623   1.249   9.025 -1.3246  0.9254 -2.0747
 7477SOL    HW234065   1.628   1.304   9.162 -1.9975 -0.1418  0.8652
 7478SOL     OW34066   3.137   4.428   4.432 -0.2580  0.3613  0.0200
 7478SOL    HW134067   3.055   4.402   4.390 -1.1510 -1.1190  2.6852
 7478SOL    HW234068   3.185   4.468   4.360  0.1782 -1.9165 -0.9469
 7479SOL     OW34069   1.995   2.361   5.036  0.7764  0.2094 -0.0816
 7479SOL    HW134070   1.929   2.333   4.972 -2.1149  1.4125  2.3597
 7479SOL    HW234071   2.069   2.304   5.018  1.3910  0.9324  0.1456
 7480SOL     OW34072   1.512   3.271   4.761 -0.0067 -0.0238  0.1298
 7480SOL    HW134073   1.447   3.296   4.695  0.4674 -2.1981 -1.1902
 7480SOL    HW234074   1.458   3.216   4.817  1.4624  1.5025  3.0041
 7481SOL     OW34075   2.575   2.457  16.739 -0.2932  0.0989  0.2004
 7481SOL    HW134076   2.634   2.430  16.810 -2.4489 -0.4824  1.7728
 7481SOL    HW234077   2.625   2.519  16.686 -0.7392  0.1067 -0.2061
 7482SOL     OW34078   1.548   1.840   9.061 -0.2177  0.4231 -1.1071
 7482SOL    HW134079   1.492   1.787   9.004 -0.8892 -1.5159  1.3485
 7482SOL    HW234080   1.610   1.878   8.999 -0.8506  2.3001 -0.6110
 7483SOL     OW34081   2.224   4.163   0.734 -0.1479 -0.0520 -0.0752
 7483SOL    HW134082   2.194   4.133   0.648 -0.9085 -0.9720  0.5145
 7483SOL    HW234083   2.166   4.239   0.740  0.5479  0.4076  0.7786
 7484SOL     OW34084   2.202   3.580   6.751  0.1354  0.7436  0.4825
 7484SOL    HW134085   2.179   3.669   6.726  0.4795  0.9633  0.9592
 7484SOL    HW234086   2.184   3.579   6.845 -1.9481  1.3634  0.0819
 7485SOL     OW34087   1.894   1.196   9.240  0.5251  0.2431  0.2484
 7485SOL    HW134088   1.990   1.196   9.242  0.5440  1.2988 -0.6294
 7485SOL    HW234089   1.888   1.284   9.278 -1.8025 -0.1416  0.7483
 7486SOL     OW34090   1.731   4.354  15.111 -0.0407 -0.0839  0.4695
 7486SOL    HW134091   1.782   4.403  15.176 -0.9178 -0.7910  1.6992
 7486SOL    HW234092   1.645   4.377  15.146 -0.7405 -0.1515 -1.2155
 7487SOL     OW34093   1.459   4.666   5.729  0.3653 -0.6837  0.4843
 7487SOL    HW134094   1.379   4.666   5.677 -0.2969  2.3204  1.5332
 7487SOL    HW234095   1.534   4.660   5.669 -0.7010 -0.9752 -0.8246
 7488SOL     OW34096   1.769   1.535   4.867 -0.0929 -0.0920 -0.3013
 7488SOL    HW134097   1.809   1.521   4.953  0.1977  0.2415 -0.3815
 7488SOL    HW234098   1.708   1.608   4.879 -0.7247 -0.3920 -1.7360
 7489SOL     OW34099   3.410   0.645   9.105  0.3603 -0.2260 -1.0982
 7489SOL    HW134100   3.360   0.680   9.178  1.1758 -2.3890  0.4992
 7489SOL    HW234101   3.433   0.559   9.140  0.3686  0.1854 -0.0982
 7490SOL     OW34102   1.247   1.754  16.630 -0.1553  0.0869 -0.2909
 7490SOL    HW134103   1.220   1.778  16.718  1.3813  0.3189  0.1191
 7490SOL    HW234104   1.170   1.776  16.578  0.0658 -1.1216 -1.1474
 7491SOL     OW34105   4.508   0.888  16.387  0.3049  0.1831 -0.2629
 7491SOL    HW134106   4.445   0.836  16.437 -0.1167  2.5182  1.6632
 7491SOL    HW234107   4.582   0.908  16.445  0.3112  0.5272 -0.3860
 7492SOL     OW34108   2.201   2.990   6.725  0.7209  0.2033  0.7115
 7492SOL    HW134109   2.186   3.074   6.681  0.8234 -0.3017 -0.2914
 7492SOL    HW234110   2.183   2.921   6.661 -0.4338  2.1947 -1.0762
 7493SOL     OW34111   1.273   3.417   9.450 -0.0464  0.6030  0.6165
 7493SOL    HW134112   1.276   3.423   9.546 -2.6741 -0.2801  0.7466
 7493SOL    HW234113   1.232   3.501   9.429 -0.0398 -0.0398 -1.9280
 7494SOL     OW34114   4.531   4.510   3.270 -0.3631  0.3439  0.0668
 7494SOL    HW134115   4.615   4.554   3.259 -0.1162 -0.2216 -0.3001
 7494SOL    HW234116   4.564   4.440   3.326 -1.4901  1.0029  1.5959
 7495SOL     OW34117   2.170   3.961  16.570  0.5177  0.4448 -0.3912
 7495SOL    HW134118   2.082   3.972  16.535  0.2355  0.8244  0.4416
 7495SOL    HW234119   2.163   3.980  16.663  1.4763 -0.6291 -0.0954
 7496SOL     OW34120   1.821   1.406   5.376  0.0707 -0.4569 -0.5099
 7496SOL    HW134121   1.804   1.315   5.354  1.1298 -1.0128  0.9467
 7496SOL    HW234122   1.777   1.456   5.307 -0.6286  3.7500  2.9352
 7497SOL     OW34123   3.761   1.503   9.774 -0.0042  0.1199 -0.1350
 7497SOL    HW134124   3.710   1.482   9.852  0.2507  0.8045  0.2147
 7497SOL    HW234125   3.698   1.543   9.715  1.8883 -0.3740 -2.4929
 7498SOL     OW34126   2.689   3.837   8.305 -0.0208  0.2680 -0.2996
 7498SOL    HW134127   2.650   3.924   8.318 -1.0332 -0.2124 -0.1195
 7498SOL    HW234128   2.626   3.776   8.344  1.0226 -0.6469 -0.0236
 7499SOL     OW34129   4.338   3.763   7.043  0.3768 -0.5985  0.2570
 7499SOL    HW134130   4.273   3.790   7.107  0.9897 -0.2938  0.7438
 7499SOL    HW234131   4.402   3.710   7.090 -1.2549 -2.5916  0.2327
 7500SOL     OW34132   1.372   0.896   5.790  0.0411  0.0834  0.4074
 7500SOL    HW134133   1.361   0.910   5.885 -1.3371  0.8810  0.1364
 7500SOL    HW234134   1.282   0.879   5.763  0.4237 -1.5048  0.1212
 7501SOL     OW34135   3.173   0.644   3.840  0.4559  0.3831 -0.0203
 7501SOL    HW134136   3.191   0.628   3.747 -0.7997 -1.6724  0.0767
 7501SOL    HW234137   3.130   0.561   3.860 -1.7932  1.3235 -1.0983
 7502SOL     OW34138   0.962   1.263   1.596 -0.3644 -0.1385 -0.4685
 7502SOL    HW134139   0.966   1.203   1.521  0.0714  1.1748 -1.4913
 7502SOL    HW234140   0.882   1.230   1.638  0.2386  0.1713  0.9108
 7503SOL     OW34141   3.797   1.858   6.838  0.1467 -0.0664 -0.3818
 7503SOL    HW134142   3.775   1.918   6.909 -1.1747 -2.0708  0.8896
 7503SOL    HW234143   3.753   1.777   6.860  2.7700 -1.4888 -0.3816
 7504SOL     OW34144   1.453   1.576   8.040  0.2078 -0.0400  0.5897
 7504SOL    HW134145   1.511   1.653   8.035  1.9788 -1.4755 -0.7363
 7504SOL    HW234146   1.463   1.551   8.132  1.6786  0.3244  0.5292
 7505SOL     OW34147   1.222   3.685   9.374 -0.2659 -0.0268 -0.2201
 7505SOL    HW134148   1.153   3.708   9.436 -0.3848 -1.4716  0.1963
 7505SOL    HW234149   1.269   3.766   9.357 -1.2850  0.7425  0.6869
 7506SOL     OW34150   2.569   3.287   4.648  0.5371 -0.0457  0.2166
 7506SOL    HW134151   2.536   3.228   4.716  0.4666  0.8616  0.9638
 7506SOL    HW234152   2.630   3.339   4.701 -1.4131  2.4205  0.0608
 7507SOL     OW34153   2.291   4.617   4.792  0.1341 -0.5529  0.4897
 7507SOL    HW134154   2.381   4.603   4.821  0.3353  0.3752  0.3200
 7507SOL    HW234155   2.281   4.543   4.732 -1.9552 -1.0767  1.4935
 7508SOL     OW34156   3.709   3.264  13.519  0.4483 -0.0230 -0.2623
 7508SOL    HW134157   3.771   3.201  13.556  0.3293 -0.0811 -0.1644
 7508SOL    HW234158   3.771   3.303  13.457 -0.5016  0.3379 -0.9997
 7509SOL     OW34159   2.723   2.703   7.630 -0.1379 -0.3723  0.0380
 7509SOL    HW134160   2.658   2.772   7.616  0.8785  0.6693  0.4331
 7509SOL    HW234161   2.797   2.730   7.576 -0.9456  0.2857 -0.7482
 7510SOL     OW34162   0.860   1.189  12.039 -0.2084  0.3675  0.4340
 7510SOL    HW134163   0.790   1.150  11.987  0.3275  0.3259 -0.2543
 7510SOL    HW234164   0.942   1.145  12.017 -0.9773 -0.5073 -0.6685
 7511SOL     OW34165   4.542   0.890   2.002  0.1136 -0.3133  0.3628
 7511SOL    HW134166   4.600   0.824   2.039 -1.3164 -0.6651  1.9664
 7511SOL    HW234167   4.513   0.925   2.086  0.9428  1.8236 -0.2235
 7512SOL     OW34168   2.476   3.413   5.560 -0.0681 -0.0326  0.7214
 7512SOL    HW134169   2.381   3.415   5.571 -0.4840 -2.8583 -2.4641
 7512SOL    HW234170   2.483   3.345   5.493  0.3904  3.0637 -2.3596
 7513SOL     OW34171   3.567   0.125  14.239  0.2569 -0.1288  0.5089
 7513SOL    HW134172   3.475   0.131  14.266  0.0459 -0.3200 -0.1561
 7513SOL    HW234173   3.556   0.046  14.186 -0.3702 -0.2326  0.7939
 7514SOL     OW34174   3.041   1.852   2.898  0.2667 -0.4401 -0.0828
 7514SOL    HW134175   3.101   1.905   2.950 -2.1604  0.1950  2.0029
 7514SOL    HW234176   2.990   1.804   2.962  1.1498 -1.9960 -0.5523
 7515SOL     OW34177   3.708   1.763   8.898 -0.1966 -0.3088  0.1440
 7515SOL    HW134178   3.734   1.693   8.838 -0.6608  0.1961 -0.6429
 7515SOL    HW234179   3.717   1.836   8.837  2.2634 -1.7549 -1.2722
 7516SOL     OW34180   0.859   1.151   8.185 -0.7686  0.0329 -0.0154
 7516SOL    HW134181   0.919   1.091   8.228  1.9106  0.7824 -2.7244
 7516SOL    HW234182   0.772   1.114   8.204 -0.8196 -0.4915 -1.2533
 7517SOL     OW34183   2.496   3.850   2.894 -0.3575  0.0631  0.3901
 7517SOL    HW134184   2.423   3.793   2.871 -0.9341  0.1174  2.1115
 7517SOL    HW234185   2.510   3.820   2.984  0.3043 -0.6816  0.0421
 7518SOL     OW34186   4.200   1.581   3.171 -0.4109  0.4487  0.5848
 7518SOL    HW134187   4.294   1.564   3.179 -0.3276  0.8650  0.4907
 7518SOL    HW234188   4.173   1.567   3.081 -1.1114  1.6480  0.6010
 7519SOL     OW34189   2.037   2.294  10.610 -0.1831 -0.2341 -0.2084
 7519SOL    HW134190   2.105   2.226  10.606  2.9193  2.7559  1.5023
 7519SOL    HW234191   2.071   2.342  10.685  0.6125  0.7698 -1.2006
 7520SOL     OW34192   2.618   1.939   2.893 -0.0902  0.2073  0.1402
 7520SOL    HW134193   2.690   1.997   2.867 -1.9700  1.5675 -1.9785
 7520SOL    HW234194   2.625   1.945   2.989 -1.3904 -2.0401  0.3650
 7521SOL     OW34195   2.099   4.285   8.984 -0.0444 -0.1414 -0.4831
 7521SOL    HW134196   2.099   4.252   8.894  2.5930 -2.7228  0.4667
 7521SOL    HW234197   2.006   4.271   9.002  0.2181 -1.3389 -0.0466
 7522SOL     OW34198   0.332   1.433   2.994 -0.0807 -0.2643  0.5116
 7522SOL    HW134199   0.273   1.425   2.919 -1.6921 -0.4564  1.8020
 7522SOL    HW234200   0.393   1.493   2.951  0.2175  0.4542  1.9318
 7523SOL     OW34201   1.221   4.493   5.885 -0.0546 -0.3818 -0.7724
 7523SOL    HW134202   1.201   4.547   5.961  0.9083 -0.6886 -0.2977
 7523SOL    HW234203   1.136   4.476   5.845 -0.0905  1.3654 -1.4698
 7524SOL     OW34204   0.349   2.394   3.758  0.0502  0.0869  0.4253
 7524SOL    HW134205   0.310   2.436   3.835  0.9699  1.0886  0.3384
 7524SOL    HW234206   0.280   2.410   3.693 -0.2565 -0.9988  0.4890
 7525SOL     OW34207   1.981   0.708   3.623 -0.3710 -0.2346  0.1954
 7525SOL    HW134208   2.068   0.710   3.664 -0.4164  0.3118  0.2691
 7525SOL    HW234209   1.982   0.781   3.561  1.7412 -1.3737 -1.1085
 7526SOL     OW34210   2.098   4.626   6.936 -0.6454 -0.0424  0.2346
 7526SOL    HW134211   2.145   4.559   6.985  0.2847 -0.2747 -0.9815
 7526SOL    HW234212   2.137   4.616   6.849  0.2374  0.0758  0.6224
 7527SOL     OW34213   2.889   4.149   2.393  0.2737 -0.6476 -0.0219
 7527SOL    HW134214   2.906   4.200   2.472 -1.5846  0.6314 -0.4619
 7527SOL    HW234215   2.937   4.192   2.323 -2.5641  0.7940 -1.0716
 7528SOL     OW34216   1.288   3.678   3.941  0.2379 -0.2853  0.0796
 7528SOL    HW134217   1.230   3.670   4.016  0.2036 -2.7497 -0.2133
 7528SOL    HW234218   1.224   3.647   3.877 -0.5013 -0.5243  0.9387
 7529SOL     OW34219   0.586   2.900   8.695  0.2364  0.1040 -0.3785
 7529SOL    HW134220   0.579   2.805   8.703  3.0162 -0.0867 -0.2812
 7529SOL    HW234221   0.602   2.922   8.786  1.5172  0.0277 -0.5876
 7530SOL     OW34222   2.093   0.790   4.641 -0.7662 -0.0403  0.7925
 7530SOL    HW134223   2.051   0.768   4.724  1.3925 -0.2839  1.8114
 7530SOL    HW234224   2.179   0.747   4.649  0.2139  1.8633  0.3645
 7531SOL     OW34225   3.805   2.569  17.395  0.3620  0.3497  0.0428
 7531SOL    HW134226   3.726   2.621  17.383  1.8035  2.4581 -0.3614
 7531SOL    HW234227   3.782   2.496  17.453  0.0532 -0.6038 -1.2896
 7532SOL     OW34228   3.876   4.639  15.202 -0.0769 -0.2138  0.1934
 7532SOL    HW134229   3.820   4.710  15.170  1.7755  0.8676 -0.6256
 7532SOL    HW234230   3.811   4.595  15.257 -0.3103 -0.9198 -0.6597
 7533SOL     OW34231   0.000   4.646   9.122 -0.7788 -0.5223  0.4412
 7533SOL    HW134232   4.703   4.641   9.210 -0.2382  0.2646  0.7164
 7533SOL    HW234233   0.093   4.638   9.141 -0.8376  0.1123  1.0160
 7534SOL     OW34234   4.539   2.520   3.375  0.2535  0.2574  0.0595
 7534SOL    HW134235   4.596   2.444   3.379 -1.0811 -0.7939 -1.2915
 7534SOL    HW234236   4.577   2.582   3.437  1.9779  1.2485 -1.9781
 7535SOL     OW34237   2.576   0.575   4.447  0.1095 -0.0317  0.0851
 7535SOL    HW134238   2.596   0.647   4.506  1.4261 -0.8257  0.5852
 7535SOL    HW234239   2.560   0.507   4.513 -0.0093 -1.2901 -1.2203
 7536SOL     OW34240   4.696   2.530  12.585 -0.0958  0.5168  0.0579
 7536SOL    HW134241   4.609   2.490  12.585  0.4146 -0.6212  1.1928
 7536SOL    HW234242   0.001   2.503  12.665 -1.7556 -0.0209  0.7947
 7537SOL     OW34243   0.839   0.392  15.940  0.5136  0.0114 -0.3711
 7537SOL    HW134244   0.921   0.440  15.929  1.7748 -2.0652 -0.1158
 7537SOL    HW234245   0.870   0.305  15.966 -2.5736 -0.7330  0.7400
 7538SOL     OW34246   1.186   1.854   3.937  0.5544  0.5217  0.3190
 7538SOL    HW134247   1.279   1.835   3.925  1.0120  1.7201  1.9930
 7538SOL    HW234248   1.160   1.893   3.854  1.2258 -0.1969 -0.2245
 7539SOL     OW34249   4.379   3.162  13.156  0.0193 -0.4992 -0.5198
 7539SOL    HW134250   4.347   3.072  13.157  0.7109 -0.7484 -0.7525
 7539SOL    HW234251   4.474   3.154  13.150  0.0927 -0.9245  1.4526
 7540SOL     OW34252   2.201   3.384  16.128 -0.1845  0.1784  0.2096
 7540SOL    HW134253   2.139   3.378  16.056  1.5355 -1.8119 -1.1239
 7540SOL    HW234254   2.136   3.388  16.198 -1.4517 -1.7253 -0.8726
 7541SOL     OW34255   0.415   1.231   3.807  0.2570 -0.6518 -0.4475
 7541SOL    HW134256   0.438   1.151   3.761  3.9622 -0.1423  0.5197
 7541SOL    HW234257   0.493   1.285   3.794  0.4648 -0.5059  1.4084
 7542SOL     OW34258   0.659   2.983   6.260 -0.6115 -0.2262 -0.4622
 7542SOL    HW134259   0.708   2.901   6.251  0.0070  0.1693 -0.7139
 7542SOL    HW234260   0.579   2.950   6.302 -0.5797  1.9600  1.3214
 7543SOL     OW34261   2.029   4.507   4.524  0.1019  0.4375  0.1156
 7543SOL    HW134262   1.949   4.476   4.482  0.8083 -1.3490  0.1004
 7543SOL    HW234263   2.035   4.450   4.601  2.6075 -1.7677 -1.6708
 7544SOL     OW34264   3.939   1.372   0.286 -0.2316 -0.4391  0.8182
 7544SOL    HW134265   3.959   1.422   0.206 -3.4646  0.6228  0.6958
 7544SOL    HW234266   3.849   1.395   0.306 -0.3408 -0.2221  0.0823
 7545SOL     OW34267   3.327   2.281   7.268  0.1571  0.3183 -0.2293
 7545SOL    HW134268   3.275   2.325   7.201 -1.7023 -1.6913 -0.1109
 7545SOL    HW234269   3.394   2.234   7.218 -0.5287 -1.2235  0.2776
 7546SOL     OW34270   2.436   0.762   5.879 -0.1434 -0.2914  0.6750
 7546SOL    HW134271   2.465   0.679   5.840  1.2598  0.3788  0.2742
 7546SOL    HW234272   2.343   0.741   5.891 -0.1707 -1.5183 -1.6019
 7547SOL     OW34273   3.757   1.895   4.585  0.4013 -0.4605 -0.1134
 7547SOL    HW134274   3.784   1.888   4.676 -0.4545  0.5234  0.2226
 7547SOL    HW234275   3.675   1.943   4.597  0.3143 -0.8845  0.9322
 7548SOL     OW34276   2.029   3.061   2.904  0.1832 -0.5676  0.2320
 7548SOL    HW134277   2.015   3.000   2.832  0.8625 -1.0183  0.4776
 7548SOL    HW234278   1.970   3.135   2.893  2.3838  1.0431 -0.7077
 7549SOL     OW34279   2.651   0.692   3.215  0.2146 -0.3049 -0.8435
 7549SOL    HW134280   2.628   0.703   3.122 -0.3397 -2.7948 -1.0078
 7549SOL    HW234281   2.570   0.668   3.260  0.6625 -0.9705 -0.4039
 7550SOL     OW34282   3.553   2.253   3.718 -0.4033 -0.3784 -0.4355
 7550SOL    HW134283   3.615   2.230   3.649  1.4107  1.5704  0.5314
 7550SOL    HW234284   3.492   2.181   3.704 -2.1830  0.7093  1.8037
 7551SOL     OW34285   2.506   3.198   6.210  0.6836 -0.5204  0.1124
 7551SOL    HW134286   2.458   3.156   6.138 -1.8316  2.0306  0.3094
 7551SOL    HW234287   2.467   3.148   6.282  0.7290 -0.4118  0.2120
 7552SOL     OW34288   1.132   4.315   3.827 -0.8557  0.0176 -0.4310
 7552SOL    HW134289   1.087   4.394   3.797 -0.7104  0.8828  1.6007
 7552SOL    HW234290   1.087   4.311   3.912  0.5609  1.0869  0.3738
 7553SOL     OW34291   4.159   2.543  17.426  0.2238  0.2581  0.0051
 7553SOL    HW134292   4.110   2.529  17.508  0.1319 -1.4548 -0.3411
 7553SOL    HW234293   4.102   2.603  17.377  1.1370  1.6008  0.5984
 7554SOL     OW34294   0.885   4.190   0.385 -0.3363  0.4598  0.2209
 7554SOL    HW134295   0.831   4.268   0.391  0.6918  1.2475 -0.9452
 7554SOL    HW234296   0.876   4.143   0.469 -1.3038  0.6390  0.2142
 7555SOL     OW34297   2.403   2.107   8.249 -0.3465 -0.0922 -0.4724
 7555SOL    HW134298   2.485   2.067   8.219  0.0154  0.4921 -0.2686
 7555SOL    HW234299   2.398   2.173   8.180 -3.8866  1.4571  1.2870
 7556SOL     OW34300   3.342   1.478   2.864 -0.2326  0.6756  0.1914
 7556SOL    HW134301   3.329   1.456   2.772 -1.8781 -0.4862  0.7025
 7556SOL    HW234302   3.295   1.561   2.863  0.0819  0.8535  0.1483
 7557SOL     OW34303   2.496   4.520   0.163  0.2370 -0.4590 -0.8007
 7557SOL    HW134304   2.411   4.541   0.202 -0.5171 -2.3203 -1.4768
 7557SOL    HW234305   2.500   4.589   0.097 -3.3194 -0.2920 -0.8182
 7558SOL     OW34306   3.753   2.277  13.382 -0.2139  0.1300  0.2387
 7558SOL    HW134307   3.754   2.195  13.431 -2.2355 -0.1329 -0.1761
 7558SOL    HW234308   3.664   2.305  13.401  0.0528 -1.1604  3.3707
 7559SOL     OW34309   3.836   0.301   9.850  0.3012 -0.3071  0.3356
 7559SOL    HW134310   3.759   0.352   9.875  1.1529  0.9427  0.4002
 7559SOL    HW234311   3.888   0.293   9.930  0.3192 -0.4283  0.3118
 7560SOL     OW34312   1.850   0.863   8.960  0.7391 -0.4779  0.2297
 7560SOL    HW134313   1.856   0.901   8.873  1.1060  0.7202  0.7733
 7560SOL    HW234314   1.754   0.865   8.959  0.7296 -0.8340  0.4761
 7561SOL     OW34315   1.623   3.964   3.093  0.1903  0.1694  0.0392
 7561SOL    HW134316   1.672   4.005   3.022 -0.8433  1.6849  0.1907
 7561SOL    HW234317   1.571   4.035   3.131  1.0054 -0.5309  2.4602
 7562SOL     OW34318   2.479   0.929   3.107  0.2257  0.5234 -0.0446
 7562SOL    HW134319   2.438   0.996   3.053  1.0188  0.2497 -0.9879
 7562SOL    HW234320   2.567   0.948   3.075 -0.3760  2.2407 -0.6929
 7563SOL     OW34321   4.315   4.131  10.707 -0.1509 -0.2504  0.0661
 7563SOL    HW134322   4.238   4.074  10.706 -0.5966  0.3741 -1.5290
 7563SOL    HW234323   4.349   4.120  10.796 -1.9854 -4.2176  0.2668
 7564SOL     OW34324   1.360   0.832  16.012  0.4923  0.3437  0.5757
 7564SOL    HW134325   1.301   0.828  15.937  1.0129  0.2654  0.1648
 7564SOL    HW234326   1.441   0.809  15.966  0.9597 -0.9354  2.0452
 7565SOL     OW34327   2.266   1.432   7.663 -0.1834  0.0686  0.3101
 7565SOL    HW134328   2.184   1.441   7.711 -1.0352  1.2555 -1.3632
 7565SOL    HW234329   2.265   1.516   7.618  0.6233  0.0683  0.2920
 7566SOL     OW34330   1.405   1.546   9.077  0.3290  0.0160  0.1751
 7566SOL    HW134331   1.426   1.584   8.992  0.4235 -0.6430 -0.0969
 7566SOL    HW234332   1.452   1.463   9.088  2.0255  1.0516  0.7326
 7567SOL     OW34333   1.220   1.070   9.366  0.2260  0.0456 -0.0734
 7567SOL    HW134334   1.183   0.989   9.332  1.8847 -0.9680  0.5034
 7567SOL    HW234335   1.143   1.125   9.352 -0.0121 -0.3238 -0.1974
 7568SOL     OW34336   3.530   1.294   7.568 -0.3105 -0.0484  0.1715
 7568SOL    HW134337   3.606   1.302   7.510 -0.4068  1.2319  0.2262
 7568SOL    HW234338   3.509   1.386   7.560 -2.7596 -0.6309 -0.0549
 7569SOL     OW34339   2.583   0.243   4.221  0.4727 -0.0016 -0.7382
 7569SOL    HW134340   2.538   0.324   4.194 -2.0517 -1.0373  0.4095
 7569SOL    HW234341   2.630   0.218   4.142 -1.1786 -1.1881 -1.3622
 7570SOL     OW34342   1.481   2.975   7.934  0.3436  0.7204  0.4649
 7570SOL    HW134343   1.452   2.923   8.008  0.5248 -0.7502 -0.4943
 7570SOL    HW234344   1.574   2.954   7.928  0.4350  0.1759  3.9833
 7571SOL     OW34345   3.519   1.395   3.730 -0.4200  0.0437 -0.2251
 7571SOL    HW134346   3.532   1.490   3.735  2.1524 -0.4137  1.7993
 7571SOL    HW234347   3.424   1.390   3.742 -0.5870  0.7064 -1.2309
 7572SOL     OW34348   2.352   4.724  13.288  0.4935 -0.0955 -0.7485
 7572SOL    HW134349   2.290   0.044  13.246 -1.7106 -1.2476  0.8086
 7572SOL    HW234350   2.356   4.656  13.220 -0.8113 -0.0055 -0.9096
 7573SOL     OW34351   4.000   1.068  16.023  0.3309 -0.1127  0.0402
 7573SOL    HW134352   3.993   1.101  16.113 -1.3841 -0.5178  0.0599
 7573SOL    HW234353   3.909   1.069  15.994 -0.0754 -0.6512  1.2931
 7574SOL     OW34354   0.731   2.425   1.639 -0.2510 -0.0127  0.1961
 7574SOL    HW134355   0.684   2.426   1.555  0.7012  3.1275 -0.3200
 7574SOL    HW234356   0.817   2.464   1.627  0.0199 -1.4124 -2.5054
 7575SOL     OW34357   4.554   2.120  12.658 -0.5196  0.4345 -0.0772
 7575SOL    HW134358   4.553   2.028  12.632  1.6460 -0.0882  1.7021
 7575SOL    HW234359   4.560   2.119  12.754 -1.6930 -3.3702 -0.0775
 7576SOL     OW34360   4.634   4.339   6.910 -0.0190 -0.4221  0.3607
 7576SOL    HW134361   4.683   4.383   6.841 -1.6264  0.9476  0.1148
 7576SOL    HW234362   4.664   4.248   6.904  0.6445 -0.2540  1.1836
 7577SOL     OW34363   0.911   3.325   1.906 -0.3755 -0.4464 -0.0395
 7577SOL    HW134364   0.988   3.363   1.949  0.1686 -0.9580 -0.5583
 7577SOL    HW234365   0.945   3.240   1.879  0.5261  0.2159 -0.9829
 7578SOL     OW34366   2.100   1.497   3.622  0.3935  0.2635 -0.2050
 7578SOL    HW134367   2.103   1.401   3.633 -0.6945  0.3447  0.7901
 7578SOL    HW234368   2.160   1.524   3.691 -0.7660 -0.2050  0.9796
 7579SOL     OW34369   0.229   2.553   3.207 -0.3724 -0.4661 -0.2219
 7579SOL    HW134370   0.311   2.600   3.222 -0.4637 -0.9689  1.8141
 7579SOL    HW234371   0.232   2.489   3.278 -0.3577  1.3520  1.4128
 7580SOL     OW34372   3.559   2.461   3.270 -0.3279  0.0259 -0.1932
 7580SOL    HW134373   3.475   2.435   3.309  1.2011 -2.7191  1.2836
 7580SOL    HW234374   3.577   2.380   3.222  1.3415 -0.2052  0.8191
 7581SOL     OW34375   1.787   2.653  11.505 -0.0545  0.4048 -0.4524
 7581SOL    HW134376   1.876   2.637  11.534  0.0491  1.8714  0.0415
 7581SOL    HW234377   1.735   2.626  11.580  0.6408 -0.4442 -0.2821
 7582SOL     OW34378   1.766   4.226   0.643 -0.0130  0.3907 -0.0602
 7582SOL    HW134379   1.770   4.311   0.599  0.1106  0.4002 -0.0318
 7582SOL    HW234380   1.699   4.241   0.709  0.3570  0.1811  0.3661
 7583SOL     OW34381   1.597   0.744   0.088  0.0770  0.1602  0.6371
 7583SOL    HW134382   1.583   0.835   0.116  2.7121  0.8940 -0.3725
 7583SOL    HW234383   1.675   0.748   0.032 -0.6599  0.2020 -0.4034
 7584SOL     OW34384   1.476   2.486   2.572  0.0103  0.0687 -0.3260
 7584SOL    HW134385   1.393   2.512   2.611  0.9607 -0.0464  1.7914
 7584SOL    HW234386   1.482   2.554   2.505 -0.5274 -1.1973 -1.6657
 7585SOL     OW34387   0.528   1.247   3.261 -0.0377 -0.0415 -0.5499
 7585SOL    HW134388   0.572   1.256   3.176 -0.6965 -1.9448 -1.1092
 7585SOL    HW234389   0.442   1.286   3.244  0.0588  0.6734  0.6291
 7586SOL     OW34390   0.078   2.213  11.167 -0.4933 -0.0087 -0.3589
 7586SOL    HW134391   0.004   2.153  11.179 -0.7375  0.5296  0.8344
 7586SOL    HW234392   0.148   2.174  11.219 -0.7745 -2.1416 -1.5630
 7587SOL     OW34393   4.127   0.661  14.971 -0.1024  0.5401 -0.2241
 7587SOL    HW134394   4.136   0.611  15.052 -1.7535 -0.1635 -0.4667
 7587SOL    HW234395   4.170   0.590  14.922  1.8755  0.4755  1.5987
 7588SOL     OW34396   0.774   4.383   8.875  0.3865  0.1230  0.1315
 7588SOL    HW134397   0.731   4.465   8.852  0.6492 -0.1275 -1.2815
 7588SOL    HW234398   0.696   4.327   8.869  1.8055 -1.4908 -3.3472
 7589SOL     OW34399   2.237   4.679  12.681 -0.5722  0.1554 -0.7144
 7589SOL    HW134400   2.277   0.018  12.717 -1.6665  0.5643 -0.3856
 7589SOL    HW234401   2.220   4.623  12.757  1.9216  1.0506  0.5039
 7590SOL     OW34402   0.704   1.216   5.230 -0.0846  0.1429  0.4265
 7590SOL    HW134403   0.715   1.122   5.245 -1.0256 -0.1133 -0.4833
 7590SOL    HW234404   0.613   1.235   5.255 -1.0758 -3.7943 -0.2230
 7591SOL     OW34405   0.131   2.973   8.068  0.1036  0.4005  0.4728
 7591SOL    HW134406   0.106   3.030   8.141  0.9583 -0.9849  1.8313
 7591SOL    HW234407   0.165   3.038   8.006 -0.2713  0.6642  0.5423
 7592SOL     OW34408   4.187   3.992  13.822  0.0204  0.7620 -0.4679
 7592SOL    HW134409   4.131   3.915  13.827 -0.6174  1.2274 -0.4071
 7592SOL    HW234410   4.135   4.065  13.857  0.5616  0.3029  1.3053
 7593SOL     OW34411   0.683   1.158   4.518 -0.1882  0.0331  0.1148
 7593SOL    HW134412   0.745   1.178   4.588  0.1591  0.3703 -0.2915
 7593SOL    HW234413   0.738   1.097   4.469  0.4179  0.9557 -0.3600
 7594SOL     OW34414   0.024   3.858  16.008 -0.9977  0.4529 -0.0353
 7594SOL    HW134415   0.025   3.766  15.983  1.0036  0.7121 -0.8818
 7594SOL    HW234416   4.705   3.891  15.939 -0.2534 -0.4642 -1.1071
 7595SOL     OW34417   1.556   2.303  10.709 -0.3425  0.0509 -0.2741
 7595SOL    HW134418   1.649   2.285  10.697  0.0323  0.2371  2.2640
 7595SOL    HW234419   1.532   2.267  10.624  1.4927 -0.2342 -0.6735
 7596SOL     OW34420   3.262   3.271   5.643 -0.1817 -0.5820  0.1305
 7596SOL    HW134421   3.296   3.361   5.636  1.1175 -0.7748  3.9425
 7596SOL    HW234422   3.221   3.289   5.727 -1.6113 -5.4064  0.4664
 7597SOL     OW34423   4.227   2.576   0.106  0.5275  0.1534  0.7682
 7597SOL    HW134424   4.167   2.621   0.165  1.5760  2.3303  0.1774
 7597SOL    HW234425   4.181   2.593   0.024  3.4833 -2.3033 -1.4198
 7598SOL     OW34426   2.974   0.276   8.099  0.1329 -0.1584 -0.2953
 7598SOL    HW134427   2.942   0.198   8.052 -1.2717  1.2367 -1.6615
 7598SOL    HW234428   2.991   0.321   8.016  0.9921  0.5071  0.2537
 7599SOL     OW34429   1.711   4.616   3.490  0.1202  0.3787  0.4293
 7599SOL    HW134430   1.639   4.648   3.436 -0.8607 -0.1679  1.4270
 7599SOL    HW234431   1.700   4.684   3.557  1.5319  0.4974  0.5462
 7600SOL     OW34432   4.503   1.469   4.690  0.8775  0.0653 -0.0181
 7600SOL    HW134433   4.556   1.549   4.691  1.0693 -0.0682  0.7208
 7600SOL    HW234434   4.541   1.412   4.623  0.0770 -2.5617  1.7600
 7601SOL     OW34435   3.147   4.438  17.743 -0.3095 -0.1857 -0.1194
 7601SOL    HW134436   3.223   4.479   0.029  0.7200 -0.5961 -1.6295
 7601SOL    HW234437   3.116   4.398   0.069  0.7708 -1.0917 -0.1458
 7602SOL     OW34438   3.651   2.079   1.013  0.4315 -0.5011 -0.2245
 7602SOL    HW134439   3.693   2.100   1.097 -1.0786 -1.9622  0.8889
 7602SOL    HW234440   3.722   2.101   0.952  2.9023 -0.7627  2.5212
 7603SOL     OW34441   1.997   4.506   7.393 -0.0251  0.3953 -0.1851
 7603SOL    HW134442   1.994   4.429   7.450 -0.5949  2.4525  2.5441
 7603SOL    HW234443   1.942   4.484   7.318 -1.3182 -0.3697  1.0080
 7604SOL     OW34444   2.643   1.144  12.990  0.0717 -0.3418 -0.1800
 7604SOL    HW134445   2.667   1.056  12.960  0.3581 -0.5212  0.5527
 7604SOL    HW234446   2.569   1.161  12.932 -0.1634 -1.2509 -0.1480
 7605SOL     OW34447   4.492   1.611  15.126 -0.5316  0.9353  0.5699
 7605SOL    HW134448   4.515   1.666  15.051 -0.2820 -0.7788 -0.6059
 7605SOL    HW234449   4.562   1.546  15.124  1.2623  2.9310 -1.3016
 7606SOL     OW34450   4.359   1.849   0.632  0.0209  0.1417  0.3447
 7606SOL    HW134451   4.412   1.804   0.568 -1.3344 -0.3214 -0.4532
 7606SOL    HW234452   4.281   1.794   0.621 -1.2123  2.2335 -1.3536
 7607SOL     OW34453   4.118   1.536   2.916 -0.0386 -0.1008 -0.3086
 7607SOL    HW134454   4.077   1.473   2.857  1.9185 -0.5385 -1.2249
 7607SOL    HW234455   4.192   1.563   2.861 -0.3800 -0.0912 -0.7596
 7608SOL     OW34456   1.207   4.639   4.776 -0.7054 -0.0187 -1.0075
 7608SOL    HW134457   1.227   4.641   4.870 -0.1249 -0.8222 -1.1196
 7608SOL    HW234458   1.292   4.669   4.745 -0.0231 -1.5854 -0.6644
 7609SOL     OW34459   0.780   4.246   6.319 -0.1259  0.4405  0.1385
 7609SOL    HW134460   0.805   4.333   6.350  2.2964  0.2321 -1.1979
 7609SOL    HW234461   0.829   4.197   6.384  0.7422  1.0831 -0.0344
 7610SOL     OW34462   2.139   3.827  13.931  0.5821  0.2028 -0.3540
 7610SOL    HW134463   2.215   3.804  13.984  0.3739  0.4323  0.0484
 7610SOL    HW234464   2.184   3.842  13.848  0.9696  0.1170 -0.1605
 7611SOL     OW34465   2.262   3.335   8.322  0.2518 -0.6668 -0.6212
 7611SOL    HW134466   2.305   3.266   8.373 -1.0715 -0.2186  1.0838
 7611SOL    HW234467   2.260   3.397   8.394  2.8644 -0.6151 -0.5955
 7612SOL     OW34468   4.202   3.791   8.284  0.1393 -0.0672  0.3487
 7612SOL    HW134469   4.108   3.809   8.284  0.7329  3.0459  0.0017
 7612SOL    HW234470   4.230   3.796   8.193  0.8364  0.7797  0.6133
 7613SOL     OW34471   0.266   4.273   5.677  0.3275  0.6675  0.0180
 7613SOL    HW134472   0.237   4.221   5.602 -0.1721 -1.4811  1.7086
 7613SOL    HW234473   0.341   4.224   5.710  0.3142 -0.2824 -1.3464
 7614SOL     OW34474   0.265   2.194   1.458  0.3656 -0.0428 -0.5757
 7614SOL    HW134475   0.315   2.172   1.379  1.8525 -1.3159  0.7296
 7614SOL    HW234476   0.187   2.152   1.421  0.3324 -1.2257  0.8200
 7615SOL     OW34477   1.915   2.004   4.026  0.0323  0.0023  0.3125
 7615SOL    HW134478   1.865   2.086   4.023 -2.9268 -1.8259  0.1220
 7615SOL    HW234479   1.868   1.958   4.095 -0.1083  0.4664  0.5261
 7616SOL     OW34480   3.202   1.771  17.547  0.6382  0.2554 -0.2607
 7616SOL    HW134481   3.218   1.716  17.471  1.9380  0.7046 -0.3166
 7616SOL    HW234482   3.155   1.844  17.507  1.5997  0.7685 -0.4488
 7617SOL     OW34483   2.166   4.332   3.546 -0.4180  0.4304 -0.4946
 7617SOL    HW134484   2.130   4.420   3.534 -1.5706 -0.0296 -0.3673
 7617SOL    HW234485   2.253   4.346   3.585 -0.2232  0.3925 -0.9141
 7618SOL     OW34486   1.142   2.818   5.473  0.1112  0.3637 -0.2270
 7618SOL    HW134487   1.209   2.872   5.516 -0.2125  1.9155 -1.6553
 7618SOL    HW234488   1.195   2.771   5.408 -2.2081 -2.0898 -0.3334
 7619SOL     OW34489   3.003   3.449   0.075  0.1056  0.2553 -0.6319
 7619SOL    HW134490   2.925   3.500   0.099  0.6912 -0.3023  2.4380
 7619SOL    HW234491   2.964   3.362   0.081 -2.6735  1.6935  2.4574
 7620SOL     OW34492   1.345   3.393  15.196  0.7051 -0.4118  0.0138
 7620SOL    HW134493   1.412   3.382  15.265  2.2383  0.5685 -1.3314
 7620SOL    HW234494   1.400   3.391  15.118  0.3048 -1.0855 -0.2440
 7621SOL     OW34495   2.135   3.833   6.653 -0.5449 -0.0283  0.1730
 7621SOL    HW134496   2.208   3.891   6.629  0.1856 -0.2065  1.9922
 7621SOL    HW234497   2.103   3.814   6.565  0.3101  2.1130 -0.6045
 7622SOL     OW34498   1.564   4.344   3.016  0.8314  0.3267 -0.8167
 7622SOL    HW134499   1.615   4.321   2.939 -0.9294  0.9233 -2.1664
 7622SOL    HW234500   1.529   4.431   2.997 -1.5075 -0.3946  0.2253
 7623SOL     OW34501   4.135   1.591  15.707 -0.0090  0.6549 -0.4015
 7623SOL    HW134502   4.179   1.539  15.775  0.6282 -0.5666 -1.7342
 7623SOL    HW234503   4.092   1.654  15.765 -0.8658  0.4125 -0.7669
 7624SOL     OW34504   2.734   3.018  11.738  0.5402 -0.2835 -0.4440
 7624SOL    HW134505   2.646   3.042  11.710  0.1567 -1.4758 -0.2632
 7624SOL    HW234506   2.718   2.924  11.742  0.2027 -0.2797 -1.6134
 7625SOL     OW34507   4.203   4.509   4.761 -0.5141 -0.0567 -0.5610
 7625SOL    HW134508   4.125   4.550   4.798 -0.4331 -1.1924  0.8578
 7625SOL    HW234509   4.177   4.482   4.673 -1.0820 -1.0727 -0.0865
 7626SOL     OW34510   4.386   3.951  15.344  0.0600  0.5795 -0.0065
 7626SOL    HW134511   4.381   3.987  15.433 -1.1223  1.3397 -0.3777
 7626SOL    HW234512   4.478   3.974  15.333  0.2744 -0.9298 -1.3828
 7627SOL     OW34513   0.330   0.957   8.029 -0.0382  0.2674  0.2436
 7627SOL    HW134514   0.396   0.888   8.038 -1.1252 -0.7103  0.7240
 7627SOL    HW234515   0.383   1.033   8.004 -0.5626  0.5886  0.0951
 7628SOL     OW34516   1.966   4.012   6.157 -0.4576  0.0292  0.4942
 7628SOL    HW134517   1.991   3.948   6.224 -2.1962  0.5073  1.6147
 7628SOL    HW234518   1.904   4.069   6.203  2.5340  2.9438  0.8657
 7629SOL     OW34519   1.618   1.746   9.940  0.6570  0.5165  0.4655
 7629SOL    HW134520   1.535   1.699   9.927  1.2704  0.2752 -2.5838
 7629SOL    HW234521   1.636   1.779   9.852  0.2579 -1.9573 -0.5503
 7630SOL     OW34522   3.358   1.888   0.529 -0.2993  0.4503  0.1023
 7630SOL    HW134523   3.267   1.915   0.537 -0.4379  0.7072 -2.3560
 7630SOL    HW234524   3.349   1.814   0.468  1.9932  1.4521 -1.4342
 7631SOL     OW34525   0.739   1.760   8.896 -0.1625 -0.2406 -0.2112
 7631SOL    HW134526   0.751   1.697   8.825 -1.3465 -1.3964  0.6091
 7631SOL    HW234527   0.718   1.837   8.844 -1.5395  0.1111  0.8483
 7632SOL     OW34528   2.387   2.899   3.125 -0.1786  0.3188 -0.0252
 7632SOL    HW134529   2.468   2.861   3.091 -2.0044 -0.8345 -3.0811
 7632SOL    HW234530   2.348   2.829   3.178  4.0036 -0.3301  2.1714
 7633SOL     OW34531   4.075   3.863   6.266  0.3698  0.2106 -0.3206
 7633SOL    HW134532   4.127   3.798   6.313  1.6952  0.8500 -0.8881
 7633SOL    HW234533   4.124   3.854   6.184  0.9091  0.7426 -0.0659
 7634SOL     OW34534   4.484   1.290  16.081  0.0784 -0.0104  0.5137
 7634SOL    HW134535   4.435   1.298  16.162  0.7106 -0.5428  0.9480
 7634SOL    HW234536   4.478   1.375  16.037  1.1056 -0.6382 -0.8540
 7635SOL     OW34537   2.335   2.137   7.633 -0.0658  0.0738  0.1985
 7635SOL    HW134538   2.365   2.225   7.653 -1.4642  0.3892  0.9300
 7635SOL    HW234539   2.245   2.151   7.664  0.1797 -0.9399  1.3709
 7636SOL     OW34540   0.377   2.742   7.044 -0.2907 -0.3592  0.4312
 7636SOL    HW134541   0.319   2.737   7.120 -0.1398  0.0034  0.5701
 7636SOL    HW234542   0.329   2.678   6.991  1.4004 -1.6050  0.4422
 7637SOL     OW34543   2.724   3.961   6.974  0.1417  0.5834  0.4001
 7637SOL    HW134544   2.655   3.898   6.992  0.9810  0.0461  1.7768
 7637SOL    HW234545   2.784   3.937   7.045 -1.8338  2.1694  2.5698
 7638SOL     OW34546   3.948   4.184   9.551  0.3907  0.3302  0.5982
 7638SOL    HW134547   4.003   4.257   9.522  0.3152  1.1545  2.4882
 7638SOL    HW234548   3.895   4.226   9.619 -1.2942  0.1560 -0.5982
 7639SOL     OW34549   3.238   3.342  13.783 -0.6466 -0.0720 -0.1420
 7639SOL    HW134550   3.252   3.258  13.826 -0.1268  0.6185  1.0387
 7639SOL    HW234551   3.270   3.407  13.846  0.7982  0.1378 -1.0729
 7640SOL     OW34552   4.671   2.767   7.262 -0.7810 -0.0664  0.3703
 7640SOL    HW134553   4.692   2.780   7.355 -1.9321 -0.0198  0.6253
 7640SOL    HW234554   4.585   2.726   7.267 -0.8354  0.1662  1.4468
 7641SOL     OW34555   4.287   1.269   3.229 -0.1961  0.2003  0.2935
 7641SOL    HW134556   4.363   1.263   3.171  0.4714 -0.3011  1.2217
 7641SOL    HW234557   4.318   1.328   3.298  1.3421 -1.2510  0.8386
 7642SOL     OW34558   4.385   3.227   9.972 -0.0670 -0.2009  0.1518
 7642SOL    HW134559   4.314   3.276  10.012  0.1256  0.9533 -0.9226
 7642SOL    HW234560   4.431   3.191  10.049 -2.2722 -2.7038  0.2962
 7643SOL     OW34561   2.948   2.354   0.477 -0.3467  0.2246 -0.3432
 7643SOL    HW134562   2.879   2.417   0.457 -0.0205  0.9819  0.8921
 7643SOL    HW234563   3.003   2.335   0.401 -0.0793 -1.4538  0.2746
 7644SOL     OW34564   3.259   4.119   6.882 -0.2092  0.2092 -0.3604
 7644SOL    HW134565   3.168   4.096   6.861 -0.0603 -0.7327  0.0303
 7644SOL    HW234566   3.275   4.169   6.802  1.5724  1.8562  1.0097
 7645SOL     OW34567   3.195   3.715   0.981  0.2825 -0.5824  0.2336
 7645SOL    HW134568   3.275   3.706   0.929  0.4889  0.4291  0.3696
 7645SOL    HW234569   3.169   3.623   0.984 -1.3746 -0.1742 -1.5555
 7646SOL     OW34570   0.206   3.960   1.166  1.3438  0.3952 -0.2049
 7646SOL    HW134571   0.204   4.036   1.107 -0.5202  2.5098  2.5803
 7646SOL    HW234572   0.187   3.885   1.109 -0.3900  1.0169 -0.4362
 7647SOL     OW34573   2.878   2.779   4.547  0.1351  0.4786  0.1698
 7647SOL    HW134574   2.908   2.868   4.567 -1.5653  0.9104  0.8405
 7647SOL    HW234575   2.917   2.716   4.607 -2.4828 -1.0663  0.2772
 7648SOL     OW34576   1.412   3.231   2.151 -0.2343  0.3572 -0.3929
 7648SOL    HW134577   1.366   3.255   2.231  2.0141  2.6890  0.2073
 7648SOL    HW234578   1.486   3.184   2.190  0.7174  0.6669 -1.8405
 7649SOL     OW34579   3.506   3.441   8.088  0.2353  0.1113 -0.0430
 7649SOL    HW134580   3.440   3.455   8.021  0.6074 -0.9457 -0.6233
 7649SOL    HW234581   3.454   3.387   8.148  0.9041 -1.0397 -0.4907
 7650SOL     OW34582   1.598   3.287   8.692  0.0359  0.2551  0.5097
 7650SOL    HW134583   1.552   3.371   8.684 -0.3097 -0.1210 -1.4719
 7650SOL    HW234584   1.520   3.240   8.723 -1.5080  1.2606 -1.8365
 7651SOL     OW34585   1.831   3.814   5.709  0.3510  0.0989  0.5655
 7651SOL    HW134586   1.847   3.857   5.793  1.5812 -1.8470  1.3150
 7651SOL    HW234587   1.860   3.890   5.658  0.8780 -1.2599 -1.1524
 7652SOL     OW34588   2.698   3.859  10.754  0.0083  0.4188 -0.5717
 7652SOL    HW134589   2.740   3.869  10.668  2.6846  0.5296  0.7331
 7652SOL    HW234590   2.635   3.788  10.743 -2.0366  2.0017  0.9904
 7653SOL     OW34591   3.838   0.287  10.692 -0.3976  0.1149 -0.3664
 7653SOL    HW134592   3.906   0.222  10.676 -0.0283  0.9939 -2.4408
 7653SOL    HW234593   3.764   0.234  10.720 -1.3891  0.8580 -1.5673
 7654SOL     OW34594   3.602   3.949   8.843 -0.8817 -0.8321  0.3915
 7654SOL    HW134595   3.531   3.901   8.800 -1.2799  0.6599 -0.6515
 7654SOL    HW234596   3.640   3.878   8.895  0.0393 -1.3618 -1.0053
 7655SOL     OW34597   2.988   1.818   7.080 -0.2555  0.2726  0.6827
 7655SOL    HW134598   3.014   1.777   7.163  0.9519 -1.2816 -0.4774
 7655SOL    HW234599   3.011   1.911   7.079  0.1230  0.2124  2.5257
 7656SOL     OW34600   1.484   3.590  13.857  0.0102  0.4926 -0.8228
 7656SOL    HW134601   1.533   3.557  13.781  2.2161  1.8809 -0.0234
 7656SOL    HW234602   1.420   3.644  13.810 -0.1497  0.8763 -0.1559
 7657SOL     OW34603   0.183   0.301   0.432  0.2396 -0.1469  0.1762
 7657SOL    HW134604   0.163   0.377   0.376  0.5930  0.1026  0.3875
 7657SOL    HW234605   0.231   0.248   0.369 -2.4907  0.3930 -2.3717
 7658SOL     OW34606   3.633   0.234  15.984  0.7104  0.5297 -0.4506
 7658SOL    HW134607   3.674   0.198  15.905 -0.3777 -1.6193 -0.0541
 7658SOL    HW234608   3.540   0.231  15.964  0.8384  1.6077 -1.1588
 7659SOL     OW34609   1.682   1.126  15.836  0.5758  0.3627 -0.3425
 7659SOL    HW134610   1.665   1.101  15.927  0.0360  0.4387 -0.4217
 7659SOL    HW234611   1.760   1.177  15.856  1.3907 -0.6188 -1.0200
 7660SOL     OW34612   4.559   2.456   4.874  0.2812 -0.9469  0.1726
 7660SOL    HW134613   4.583   2.401   4.948  0.8871 -2.2266 -0.9732
 7660SOL    HW234614   4.576   2.538   4.921 -1.7705  0.5591 -1.6985
 7661SOL     OW34615   1.753   4.505   3.885 -0.3666  0.0737  0.1373
 7661SOL    HW134616   1.790   4.432   3.835  0.6780 -1.3870  3.0289
 7661SOL    HW234617   1.828   4.559   3.912 -1.5183  1.3547  0.7984
 7662SOL     OW34618   0.796   1.351   8.869 -0.0146 -0.1379  0.0584
 7662SOL    HW134619   0.739   1.428   8.867 -0.8553 -0.7485  0.5654
 7662SOL    HW234620   0.738   1.279   8.893  0.3110 -1.2190 -2.3972
 7663SOL     OW34621   0.892   0.337   7.655  0.2904 -0.0226  0.1540
 7663SOL    HW134622   0.928   0.322   7.568  1.5123 -0.0017  0.6683
 7663SOL    HW234623   0.845   0.253   7.660  1.1818 -0.5129  0.2337
 7664SOL     OW34624   1.138   2.913   8.964  0.0721 -0.6021 -0.3078
 7664SOL    HW134625   1.220   2.905   9.012  0.0600 -0.7363 -0.3084
 7664SOL    HW234626   1.068   2.889   9.025 -0.2415 -0.0811 -0.4598
 7665SOL     OW34627   0.739   4.650   6.734  0.0264 -0.6682  0.2639
 7665SOL    HW134628   0.652   4.618   6.712 -0.1521  0.7161 -0.9900
 7665SOL    HW234629   0.722   4.659   6.828 -1.4952  0.3008 -0.1214
 7666SOL     OW34630   1.602   3.306   5.171 -0.7426 -0.4887  0.8245
 7666SOL    HW134631   1.653   3.288   5.093  0.5342 -1.7403  1.9579
 7666SOL    HW234632   1.671   3.335   5.231  0.4910  0.3453 -0.9842
 7667SOL     OW34633   2.368   3.716  16.004  0.1168  0.0800 -0.5375
 7667SOL    HW134634   2.335   3.798  16.040 -1.3067 -0.0780 -1.4803
 7667SOL    HW234635   2.370   3.660  16.081 -1.6060  0.1416 -0.4690
 7668SOL     OW34636   4.200   4.501  10.916 -0.4557 -0.5623 -0.1773
 7668SOL    HW134637   4.246   4.470  10.839 -0.7934  0.1499 -0.6691
 7668SOL    HW234638   4.146   4.575  10.887  0.7527 -0.1919 -1.4908
 7669SOL     OW34639   2.887   1.181  11.013  0.0935 -0.5815 -0.1486
 7669SOL    HW134640   2.839   1.262  10.993  1.3278  0.7249  2.1800
 7669SOL    HW234641   2.862   1.168  11.105  3.1592 -0.9866  0.6149
 7670SOL     OW34642   2.021   1.757   8.340  0.4996 -0.2648 -0.5331
 7670SOL    HW134643   1.952   1.721   8.283  1.5952 -0.5803 -1.6586
 7670SOL    HW234644   2.092   1.777   8.279  0.4307  1.5573 -0.0205
 7671SOL     OW34645   0.187   0.775   2.868 -0.3939  0.3078 -0.8765
 7671SOL    HW134646   0.156   0.781   2.778 -0.3601 -0.2806 -0.9278
 7671SOL    HW234647   0.213   0.866   2.881  0.5578 -0.1280  0.2401
 7672SOL     OW34648   0.960   1.173   9.402  0.0020  0.2758 -0.6214
 7672SOL    HW134649   0.993   1.257   9.434  0.8725 -0.4152  0.2993
 7672SOL    HW234650   0.872   1.172   9.440  0.2209 -2.0132 -0.2203
 7673SOL     OW34651   2.502   0.219  11.074  0.4508 -0.1620  0.2739
 7673SOL    HW134652   2.462   0.244  10.991  1.3048 -1.4558 -0.5148
 7673SOL    HW234653   2.590   0.256  11.064  0.9308 -1.6213 -0.8939
 7674SOL     OW34654   4.394   2.168   6.855  0.3387 -0.2113 -0.2960
 7674SOL    HW134655   4.426   2.142   6.769  1.8700  1.0598 -0.0979
 7674SOL    HW234656   4.333   2.237   6.831  0.4312  0.8413  2.5244
 7675SOL     OW34657   1.690   1.666   6.485  0.0209 -0.1969 -0.4386
 7675SOL    HW134658   1.773   1.650   6.441 -0.0105 -3.3069  0.6741
 7675SOL    HW234659   1.715   1.733   6.548  2.1254  0.1303 -1.6281
 7676SOL     OW34660   4.735   0.623   3.012  0.4013 -0.2536 -0.6690
 7676SOL    HW134661   0.020   0.531   3.020  2.4675  0.2600 -1.2210
 7676SOL    HW234662   0.059   0.657   2.950  0.2287 -0.4980 -0.9759
 7677SOL     OW34663   3.095   3.856   2.542 -0.5219  0.3363 -0.2574
 7677SOL    HW134664   3.115   3.950   2.546  1.0190 -0.0057 -0.0235
 7677SOL    HW234665   3.172   3.821   2.497 -0.7351  0.3042 -0.6016
 7678SOL     OW34666   1.454   1.385   5.890 -0.4845 -0.1105  0.1584
 7678SOL    HW134667   1.525   1.335   5.930 -0.2918 -1.4643 -1.8628
 7678SOL    HW234668   1.449   1.459   5.951  2.1514  0.6862 -0.5779
 7679SOL     OW34669   0.507   4.634   5.307  0.4366 -0.1544 -0.1013
 7679SOL    HW134670   0.530   4.551   5.266 -0.4089 -1.3106  1.7528
 7679SOL    HW234671   0.412   4.636   5.300  0.3698  0.5057  1.0864
 7680SOL     OW34672   3.880   4.163   3.274 -0.0534  0.1366  0.1407
 7680SOL    HW134673   3.937   4.129   3.204  0.2548 -0.6568  0.7806
 7680SOL    HW234674   3.941   4.176   3.347 -0.3768 -0.2340  0.4717
 7681SOL     OW34675   1.636   3.454   0.744 -0.3206  0.0358 -0.1325
 7681SOL    HW134676   1.597   3.395   0.680 -0.1364 -0.5555  0.2980
 7681SOL    HW234677   1.709   3.493   0.698  0.7149 -2.9739 -1.0264
 7682SOL     OW34678   3.540   3.254   0.354  0.0300  0.2683  0.4152
 7682SOL    HW134679   3.624   3.290   0.324 -0.3503 -0.2330 -1.2241
 7682SOL    HW234680   3.537   3.161   0.331 -0.7540  0.8499 -1.8639
 7683SOL     OW34681   1.819   1.866  10.103  0.3039 -0.5723  0.1280
 7683SOL    HW134682   1.866   1.799  10.153  1.1139 -0.4648 -0.4765
 7683SOL    HW234683   1.739   1.815  10.092 -0.9480  1.5825 -0.6555
 7684SOL     OW34684   3.243   1.508  13.498  0.1893 -0.1650  0.2840
 7684SOL    HW134685   3.310   1.439  13.505  1.9299  1.6490  1.8530
 7684SOL    HW234686   3.274   1.572  13.563  0.9547 -2.2811  1.9996
 7685SOL     OW34687   4.084   4.688   4.459 -0.0072 -0.4981 -0.0450
 7685SOL    HW134688   4.026   4.613   4.458  0.5452 -0.9272  0.1084
 7685SOL    HW234689   4.066   4.719   4.370  0.4588  1.3960  0.5141
 7686SOL     OW34690   0.622   2.281   1.926 -0.3879  0.7793  0.2678
 7686SOL    HW134691   0.639   2.375   1.932  3.1283  0.1567  0.1727
 7686SOL    HW234692   0.625   2.255   2.018  0.1627  1.7890  0.5369
 7687SOL     OW34693   2.685   1.578   8.491 -0.3056  1.1379 -0.2587
 7687SOL    HW134694   2.715   1.583   8.581 -0.4950  2.8194 -0.2834
 7687SOL    HW234695   2.615   1.513   8.487  1.4178 -0.6265 -2.0098
 7688SOL     OW34696   2.457   3.077   4.811  0.3224 -0.0839 -0.0021
 7688SOL    HW134697   2.501   3.008   4.862 -1.6724 -1.7907 -0.5925
 7688SOL    HW234698   2.452   3.147   4.876  0.8675 -1.4947  1.5777
 7689SOL     OW34699   3.131   1.553   3.566  0.7868 -0.2741 -0.1825
 7689SOL    HW134700   3.186   1.630   3.584  0.7116 -0.2713  0.0305
 7689SOL    HW234701   3.108   1.535   3.657 -1.9933  0.5760 -0.7116
 7690SOL     OW34702   2.991   0.789  15.667 -0.2763 -0.4823 -0.4630
 7690SOL    HW134703   3.032   0.767  15.584  1.2513 -0.7970  0.3817
 7690SOL    HW234704   3.066   0.771  15.724 -0.8788  0.4075  0.6262
 7691SOL     OW34705   2.056   1.114   2.822 -0.2685  0.7206 -0.2313
 7691SOL    HW134706   2.042   1.118   2.727  0.5515  0.4801 -0.3660
 7691SOL    HW234707   1.987   1.177   2.844 -1.8857 -1.2858  0.4264
 7692SOL     OW34708   1.972   3.285   2.575 -0.3491  0.2092  0.8588
 7692SOL    HW134709   1.994   3.315   2.486 -0.7898 -2.9379 -0.3204
 7692SOL    HW234710   1.890   3.239   2.553  0.4438 -0.9424  0.3415
 7693SOL     OW34711   3.672   3.003  13.739  0.0626 -0.4451 -0.0682
 7693SOL    HW134712   3.649   2.912  13.722 -1.8702 -0.1739  1.0807
 7693SOL    HW234713   3.639   3.011  13.829  0.7531  1.0184  0.0682
 7694SOL     OW34714   2.363   2.651   7.935  0.5854  0.5750 -0.1804
 7694SOL    HW134715   2.293   2.616   7.880 -1.2214  2.3141  1.0183
 7694SOL    HW234716   2.312   2.697   8.002  1.0950  1.3102 -0.3033
 7695SOL     OW34717   0.069   0.704   6.494  0.0697  0.4009  0.1937
 7695SOL    HW134718   0.092   0.611   6.485 -0.3816  0.3581 -0.5489
 7695SOL    HW234719   4.720   0.703   6.530 -0.2079  1.9816 -0.4620
 7696SOL     OW34720   1.285   0.063   6.992  0.2384  0.7093  0.5787
 7696SOL    HW134721   1.304   0.063   7.086 -1.0070  3.5898  0.8354
 7696SOL    HW234722   1.362   0.116   6.970  1.3939 -0.3387  2.1229
 7697SOL     OW34723   3.504   3.392   2.008  0.0416  0.3085 -0.0878
 7697SOL    HW134724   3.572   3.435   1.957 -1.5394 -1.6782 -3.8603
 7697SOL    HW234725   3.493   3.459   2.075 -1.5507 -1.3627  1.3506
 7698SOL     OW34726   0.325   0.392   2.965  0.1896  0.0926  0.0747
 7698SOL    HW134727   0.344   0.461   2.901  0.7979  1.3015  1.5378
 7698SOL    HW234728   0.414   0.362   2.986 -0.4213 -1.5260  0.2910
 7699SOL     OW34729   4.694   2.446  17.740  0.3400  0.1738 -0.0183
 7699SOL    HW134730   4.608   2.420   0.017 -0.2410 -0.8521 -2.3808
 7699SOL    HW234731   4.674   2.533  17.706  2.1496  0.8724  0.7322
 7700SOL     OW34732   3.450   3.983  13.535 -0.2021  0.1295  0.2967
 7700SOL    HW134733   3.529   4.037  13.532  0.8505 -1.4561 -0.4786
 7700SOL    HW234734   3.392   4.012  13.464 -0.9074  0.9274  1.1887
 7701SOL     OW34735   3.261   0.578   2.790 -0.1571  0.1365 -0.0236
 7701SOL    HW134736   3.314   0.657   2.781 -1.4147  0.9492 -0.1705
 7701SOL    HW234737   3.274   0.574   2.885  1.4629 -1.9747 -0.3320
 7702SOL     OW34738   1.525   2.461   8.434 -0.0193  0.1066  0.3944
 7702SOL    HW134739   1.526   2.422   8.347  1.1212 -0.6647  0.7479
 7702SOL    HW234740   1.616   2.490   8.438  0.7239 -2.1006 -0.6629
 7703SOL     OW34741   2.242   0.300   6.876  0.4511 -0.4478  0.3096
 7703SOL    HW134742   2.150   0.290   6.852  0.5641 -3.0190  0.8885
 7703SOL    HW234743   2.255   0.392   6.853 -0.4826 -0.1350  1.0510
 7704SOL     OW34744   2.255   3.895  13.678 -0.1488 -0.7870  0.4449
 7704SOL    HW134745   2.276   3.988  13.668 -0.1834 -1.0333 -1.8993
 7704SOL    HW234746   2.166   3.889  13.645  0.1624 -0.8446 -0.3734
 7705SOL     OW34747   3.863   0.089   9.588 -0.4525  0.4061 -0.2558
 7705SOL    HW134748   3.903   0.005   9.610 -0.8880  0.1569 -0.4164
 7705SOL    HW234749   3.906   0.155   9.643  1.8690  0.0999 -1.7352
 7706SOL     OW34750   3.042   0.069   6.093 -0.2333  0.3771  0.7330
 7706SOL    HW134751   3.037   0.003   6.024 -1.8618  0.7650  0.4929
 7706SOL    HW234752   3.041   0.012   6.170 -0.3293 -2.6590 -1.5276
 7707SOL     OW34753   2.625   1.809   5.993 -0.1147  0.5266  0.1412
 7707SOL    HW134754   2.692   1.800   5.925  0.2077 -2.5252  0.8852
 7707SOL    HW234755   2.632   1.732   6.049  0.0042 -0.9706 -1.9506
 7708SOL     OW34756   3.287   1.312   3.892  0.1018 -0.1633  0.1840
 7708SOL    HW134757   3.224   1.384   3.908 -1.0396 -1.2008  0.3572
 7708SOL    HW234758   3.258   1.268   3.813 -0.5199 -0.8106  0.7655
 7709SOL     OW34759   3.577   1.402   8.524  0.0141  0.1810 -0.7682
 7709SOL    HW134760   3.634   1.336   8.563  0.5418  2.3862  2.1908
 7709SOL    HW234761   3.542   1.347   8.454  0.2449 -0.6850 -0.1874
 7710SOL     OW34762   4.224   3.037   7.625 -0.4789  0.1116 -0.4660
 7710SOL    HW134763   4.132   3.063   7.623 -0.4645  0.0291 -1.9966
 7710SOL    HW234764   4.214   2.968   7.691  0.1527  1.0465  0.6027
 7711SOL     OW34765   0.021   1.769   5.164 -0.6437  0.8070  0.1386
 7711SOL    HW134766   4.704   1.756   5.088 -0.0714 -0.2927 -0.0963
 7711SOL    HW234767   0.049   1.859   5.146  1.0008  0.1177 -0.7231
 7712SOL     OW34768   1.907   3.099   8.497  0.0156  0.3386  0.0987
 7712SOL    HW134769   1.989   3.101   8.449 -0.6391 -3.3568 -1.1222
 7712SOL    HW234770   1.859   3.043   8.436  0.3511  0.0252  0.1300
 7713SOL     OW34771   1.246   1.961   8.727  0.2733  0.7033 -0.3016
 7713SOL    HW134772   1.245   1.960   8.823 -0.5804  0.3800 -0.3127
 7713SOL    HW234773   1.315   2.023   8.704 -2.0141  3.4510  0.2255
 7714SOL     OW34774   0.883   2.403   4.023 -0.0675  0.7501 -0.1622
 7714SOL    HW134775   0.889   2.348   4.101  0.4120  1.2929  0.1892
 7714SOL    HW234776   0.812   2.363   3.973  0.6230 -0.9466  0.2193
 7715SOL     OW34777   3.480   2.327   8.465 -0.0655 -0.7534  0.0157
 7715SOL    HW134778   3.570   2.358   8.475 -0.4699  0.8675 -1.5303
 7715SOL    HW234779   3.440   2.336   8.552 -0.8050 -2.9114 -0.0995
 7716SOL     OW34780   2.985   0.394   7.862 -0.1604 -0.1858  0.1553
 7716SOL    HW134781   2.924   0.359   7.797 -1.1046 -1.3441  1.6648
 7716SOL    HW234782   3.041   0.438   7.798  0.5372 -1.8101 -0.3674
 7717SOL     OW34783   0.147   2.438  11.984  0.0527  0.6212 -0.2352
 7717SOL    HW134784   0.165   2.401  12.070  3.4182  1.3658 -0.5964
 7717SOL    HW234785   0.079   2.373  11.966  1.2514 -0.3764 -1.1652
 7718SOL     OW34786   0.857   4.707   0.074  0.0989  0.3200  0.5333
 7718SOL    HW134787   0.925   0.031   0.095 -0.8972  0.4459  3.2959
 7718SOL    HW234788   0.910   4.629   0.056 -1.0946 -0.3841  0.0526
 7719SOL     OW34789   0.483   0.029   4.217  0.3915  0.0487  0.2025
 7719SOL    HW134790   0.465   0.119   4.189 -1.3068  0.0376  1.2895
 7719SOL    HW234791   0.533   0.043   4.298 -1.0915  2.2325  0.7276
 7720SOL     OW34792   3.789   3.525  12.640  0.0975  0.3635 -0.6473
 7720SOL    HW134793   3.701   3.562  12.652 -0.1414 -0.5167  0.2727
 7720SOL    HW234794   3.814   3.571  12.560 -2.2058  0.3100 -1.3933
 7721SOL     OW34795   3.939   2.102  15.645 -0.7456 -0.2348  0.1453
 7721SOL    HW134796   4.003   2.050  15.596 -1.6816 -0.2879 -1.0058
 7721SOL    HW234797   3.972   2.099  15.735 -0.4585  0.7937  0.0752
 7722SOL     OW34798   3.734   3.334   4.828  0.5533 -0.2511 -0.4380
 7722SOL    HW134799   3.727   3.243   4.859 -0.1329 -0.0507 -0.0121
 7722SOL    HW234800   3.766   3.377   4.907  0.5933  0.7463 -1.0040
 7723SOL     OW34801   3.327   1.585   2.150  0.1363  0.4357  0.7608
 7723SOL    HW134802   3.304   1.626   2.066  0.4535 -1.8768 -0.4469
 7723SOL    HW234803   3.365   1.504   2.117 -0.1839  0.4094  0.4473
 7724SOL     OW34804   4.453   2.959  12.609 -0.5733  0.8578 -0.2802
 7724SOL    HW134805   4.548   2.966  12.618 -0.5095  0.1069 -0.3528
 7724SOL    HW234806   4.452   2.898  12.535  0.2695 -0.3033  0.6645
 7725SOL     OW34807   1.941   4.385   6.817  0.1293 -0.2904  0.3012
 7725SOL    HW134808   1.864   4.429   6.853 -1.2162 -1.9663 -0.5379
 7725SOL    HW234809   1.954   4.433   6.736  0.4028  0.5220  0.8203
 7726SOL     OW34810   2.200   1.983   9.035 -0.1572 -0.0067 -0.6975
 7726SOL    HW134811   2.294   1.996   9.044  0.1848 -2.2414 -1.2224
 7726SOL    HW234812   2.194   1.891   9.011 -1.0597 -0.6307  1.8647
 7727SOL     OW34813   1.639   4.298   6.836 -0.8505 -0.0932 -0.3184
 7727SOL    HW134814   1.643   4.394   6.832 -0.5815 -0.0982 -0.1241
 7727SOL    HW234815   1.592   4.295   6.752  3.5568  1.2410 -2.8475
 7728SOL     OW34816   3.771   1.300   6.674  0.0336 -0.2183 -0.7681
 7728SOL    HW134817   3.791   1.333   6.762  1.2663  2.6156 -2.0956
 7728SOL    HW234818   3.860   1.291   6.640  0.6995  1.8630  0.4258
 7729SOL     OW34819   2.826   0.026   4.728  0.4335  0.1076  0.0080
 7729SOL    HW134820   2.834   4.685   4.780  0.0082  1.1028  1.6306
 7729SOL    HW234821   2.867   4.732   4.649 -0.1443  0.6161 -0.5024
 7730SOL     OW34822   4.469   3.476   8.272 -0.0128 -0.5034 -0.2466
 7730SOL    HW134823   4.503   3.401   8.320  2.2441 -0.0689 -1.1898
 7730SOL    HW234824   4.394   3.485   8.331 -0.1400  0.4241 -0.5447
 7731SOL     OW34825   3.159   1.330   8.905  0.3985  0.0179 -0.7257
 7731SOL    HW134826   3.152   1.244   8.862 -0.2420  1.2838 -3.1648
 7731SOL    HW234827   3.243   1.360   8.871  0.7906 -0.6846 -0.3847
 7732SOL     OW34828   2.364   3.485   1.063  0.4297  0.5358 -0.3993
 7732SOL    HW134829   2.416   3.518   1.137  0.1601 -1.4268  0.6683
 7732SOL    HW234830   2.345   3.569   1.022 -2.1370  0.5208  0.7743
 7733SOL     OW34831   3.250   0.836   5.919  0.0276  0.0839 -0.2466
 7733SOL    HW134832   3.265   0.743   5.939  0.4320  0.1066 -0.4425
 7733SOL    HW234833   3.210   0.865   6.001  1.1640 -1.9521  1.0241
 7734SOL     OW34834   1.047   2.036  17.118  0.0140 -0.1807  0.3170
 7734SOL    HW134835   1.009   2.076  17.196 -0.5819  2.0908 -1.1331
 7734SOL    HW234836   1.065   1.944  17.139  0.3487  0.1073  1.3175
 7735SOL     OW34837   0.419   4.644   6.021  0.6877 -0.4253 -0.0963
 7735SOL    HW134838   0.334   4.601   6.017  1.1236 -1.4041  1.1639
 7735SOL    HW234839   0.415   4.699   6.099 -2.2928  1.0981 -1.3459
 7736SOL     OW34840   2.434   0.169   5.897  0.9080 -0.7002  0.2427
 7736SOL    HW134841   2.373   0.241   5.912 -0.6504 -2.2671  1.4285
 7736SOL    HW234842   2.369   0.100   5.912 -1.0107  0.9451 -0.4564
 7737SOL     OW34843   3.486   3.740   8.712  0.2060  0.1659  0.1252
 7737SOL    HW134844   3.564   3.693   8.742 -0.6123 -2.5959 -2.0514
 7737SOL    HW234845   3.432   3.673   8.670 -0.9283  0.7706  0.6405
 7738SOL     OW34846   1.543   2.651   9.840  0.0642  0.6485  0.1229
 7738SOL    HW134847   1.506   2.585   9.898  0.0172 -0.4719 -1.2047
 7738SOL    HW234848   1.554   2.593   9.765 -0.4304  1.6358 -0.7222
 7739SOL     OW34849   0.819   3.429   4.900 -0.1834  0.4839 -1.1994
 7739SOL    HW134850   0.812   3.524   4.909 -2.6229  0.3161 -1.4471
 7739SOL    HW234851   0.736   3.406   4.942 -0.4208  1.9793 -0.8321
 7740SOL     OW34852   0.888   2.778   4.567  0.0702  0.0908  1.0123
 7740SOL    HW134853   0.810   2.763   4.513 -0.4091 -0.6165  1.9043
 7740SOL    HW234854   0.898   2.872   4.553 -1.7487 -0.0292 -1.2176
 7741SOL     OW34855   0.388   3.670   3.041 -0.0736  0.2813 -0.5913
 7741SOL    HW134856   0.327   3.635   3.105  0.0988  0.5924 -0.2585
 7741SOL    HW234857   0.450   3.597   3.042 -1.0706 -0.5680 -1.1432
 7742SOL     OW34858   3.893   1.239   4.274 -0.0732 -0.9980  0.4687
 7742SOL    HW134859   3.928   1.174   4.214  0.9430 -2.0120  2.1407
 7742SOL    HW234860   3.805   1.252   4.241  0.7456  0.3118 -1.2038
 7743SOL     OW34861   2.803   0.908   4.058 -0.1293  0.3877  0.2173
 7743SOL    HW134862   2.779   0.904   4.151 -1.5533 -0.9106 -0.2130
 7743SOL    HW234863   2.894   0.877   4.062 -0.5521 -0.4969  2.7719
 7744SOL     OW34864   0.577   4.313  10.013 -0.2242 -0.3000  0.4152
 7744SOL    HW134865   0.527   4.282  10.088 -1.1404 -0.2974 -0.1845
 7744SOL    HW234866   0.510   4.295   9.946 -0.9086  1.9122  0.4879
 7745SOL     OW34867   3.266   4.041   5.993 -0.0482 -0.0940 -0.1093
 7745SOL    HW134868   3.341   4.013   6.045  0.2533  0.9584  0.0306
 7745SOL    HW234869   3.259   3.959   5.945  1.2250 -0.5118  0.4221
 7746SOL     OW34870   1.574   4.238   7.533  0.6441 -0.1425  0.1742
 7746SOL    HW134871   1.667   4.240   7.557  0.5354  0.6791  0.5054
 7746SOL    HW234872   1.535   4.298   7.596 -0.0291 -0.6125  0.1962
 7747SOL     OW34873   2.205   0.226   4.376 -0.7480  0.3117  0.2806
 7747SOL    HW134874   2.234   0.208   4.466 -0.5469  0.5029  0.2543
 7747SOL    HW234875   2.121   0.182   4.389 -0.7218 -0.1308 -1.0696
 7748SOL     OW34876   2.953   3.884   8.183 -0.3198 -0.0539 -0.7917
 7748SOL    HW134877   2.892   3.877   8.256  0.3585  1.4575 -0.0819
 7748SOL    HW234878   2.982   3.798   8.153  1.6624  0.8887 -1.5540
 7749SOL     OW34879   1.061   1.876  15.186 -0.1276 -0.3341  0.0476
 7749SOL    HW134880   1.111   1.957  15.194  1.8929 -1.6191  0.2768
 7749SOL    HW234881   1.121   1.818  15.140 -0.1391  1.0539 -1.7459
 7750SOL     OW34882   2.447   3.913  16.208 -0.1445 -0.2434  0.2689
 7750SOL    HW134883   2.488   3.924  16.123  0.3243  1.2774  0.6876
 7750SOL    HW234884   2.490   3.831  16.233 -1.9222 -1.5437 -0.9191
 7751SOL     OW34885   0.510   3.635   2.766 -0.2293 -0.4400 -0.2122
 7751SOL    HW134886   0.507   3.635   2.862  2.5975  1.3355 -0.1257
 7751SOL    HW234887   0.588   3.582   2.748  0.2540 -0.3201  1.4389
 7752SOL     OW34888   2.955   2.988   1.111 -0.0423 -0.1693 -0.2376
 7752SOL    HW134889   2.891   3.053   1.138 -0.3108  0.0313 -1.3775
 7752SOL    HW234890   2.998   3.034   1.038 -0.0107  0.0565 -0.0771
 7753SOL     OW34891   1.493   2.546   5.526  0.1966  0.1094 -0.2767
 7753SOL    HW134892   1.421   2.583   5.578 -2.0831  0.2380 -3.5371
 7753SOL    HW234893   1.453   2.475   5.476  1.4199 -2.5110  2.4977
 7754SOL     OW34894   3.028   0.550  10.003  0.2553 -0.1066  0.4626
 7754SOL    HW134895   2.948   0.548   9.951  0.7977  1.6674 -0.4259
 7754SOL    HW234896   3.090   0.549   9.931  2.1356 -1.5809  2.0857
 7755SOL     OW34897   4.253   2.020  15.158 -0.6287  0.0640 -0.0873
 7755SOL    HW134898   4.349   2.015  15.158 -0.6622 -0.6051  0.7817
 7755SOL    HW234899   4.232   1.967  15.081  0.3709 -2.5185  1.4038
 7756SOL     OW34900   2.980   1.880   9.223 -0.1091 -0.5765 -0.0006
 7756SOL    HW134901   3.069   1.876   9.186  0.5375  0.2264  1.4460
 7756SOL    HW234902   2.984   1.959   9.277 -2.3373 -1.1591  1.0187
 7757SOL     OW34903   1.904   2.541   4.567 -0.8003 -0.0733  0.5647
 7757SOL    HW134904   1.851   2.520   4.643  0.2850 -0.3108  1.2608
 7757SOL    HW234905   1.836   2.574   4.509 -1.2944 -1.8187  0.1470
 7758SOL     OW34906   3.490   2.356  13.439  0.0644 -0.0000  0.0394
 7758SOL    HW134907   3.415   2.313  13.480  0.5684 -0.6987  0.2242
 7758SOL    HW234908   3.441   2.369  13.358 -0.5433 -3.1316 -0.0855
 7759SOL     OW34909   0.440   1.371   9.254 -0.0648  0.3571  0.1666
 7759SOL    HW134910   0.529   1.375   9.221  0.3458  0.6723  1.3336
 7759SOL    HW234911   0.395   1.401   9.174 -0.5890  4.0749  1.8694
 7760SOL     OW34912   1.394   4.591   8.489 -0.4095 -0.4608  0.2210
 7760SOL    HW134913   1.401   4.622   8.399  1.3991  0.4672  0.6908
 7760SOL    HW234914   1.485   4.571   8.508  0.1476  1.5312 -0.4217
 7761SOL     OW34915   3.856   2.679   9.105 -0.0602 -0.6508  0.0673
 7761SOL    HW134916   3.936   2.675   9.157  1.3873  1.6404 -1.9785
 7761SOL    HW234917   3.792   2.624   9.149 -0.0858 -1.8040 -1.4032
 7762SOL     OW34918   2.929   2.684   8.337 -0.3936  0.0240  0.0621
 7762SOL    HW134919   2.883   2.765   8.360  0.4462  0.0007  1.8239
 7762SOL    HW234920   2.888   2.663   8.253 -1.0316  1.1401  0.0826
 7763SOL     OW34921   1.560   3.966   3.844  0.0465  0.2695  0.7778
 7763SOL    HW134922   1.588   3.905   3.913  1.0874  0.0494  0.1658
 7763SOL    HW234923   1.530   4.036   3.902 -0.7183  1.9303 -1.6542
 7764SOL     OW34924   3.202   0.706  15.806 -0.0311  0.3172  0.3847
 7764SOL    HW134925   3.223   0.736  15.895 -0.0224 -0.9277  0.7933
 7764SOL    HW234926   3.289   0.679  15.777  0.6484  2.2402  0.5698
 7765SOL     OW34927   0.997   4.073   4.312 -0.2539 -0.4243 -0.3172
 7765SOL    HW134928   1.019   4.166   4.319  1.4697 -0.9767  1.3998
 7765SOL    HW234929   0.918   4.065   4.366 -2.0115  1.8153 -2.5391
 7766SOL     OW34930   1.313   3.216  15.577 -0.0889  0.1339  0.5264
 7766SOL    HW134931   1.226   3.227  15.540 -0.0000 -0.4817  0.1250
 7766SOL    HW234932   1.365   3.269  15.515 -1.7395  1.8574  0.6279
 7767SOL     OW34933   3.814   1.436   5.363  0.6120 -0.1900 -0.2775
 7767SOL    HW134934   3.754   1.502   5.327 -2.1910 -1.6051  1.8309
 7767SOL    HW234935   3.773   1.419   5.448  1.7958 -0.1839  0.3015
 7768SOL     OW34936   3.565   4.618   5.713 -0.3086 -0.1778  0.0194
 7768SOL    HW134937   3.576   4.682   5.643  0.2402 -1.8599 -1.4173
 7768SOL    HW234938   3.575   4.538   5.661  0.0211 -0.6530  0.8103
 7769SOL     OW34939   1.639   2.282   4.617 -0.3117  0.6366  0.0853
 7769SOL    HW134940   1.725   2.284   4.574  0.2268 -1.0696  1.0789
 7769SOL    HW234941   1.593   2.254   4.538  2.1535 -0.8601 -0.8427
 7770SOL     OW34942   3.670   2.046  14.352 -0.2346 -0.1276  0.3907
 7770SOL    HW134943   3.736   1.976  14.350 -1.8122 -1.5882 -0.5288
 7770SOL    HW234944   3.654   2.053  14.257  0.9573 -2.5325  0.0008
 7771SOL     OW34945   4.218   0.422   2.135  0.3957 -0.3174  0.2735
 7771SOL    HW134946   4.255   0.379   2.058 -0.8979  0.9521 -1.0351
 7771SOL    HW234947   4.188   0.505   2.098 -0.0748  0.4080  2.2872
 7772SOL     OW34948   0.298   4.453   4.602 -0.9234  0.2146  0.0679
 7772SOL    HW134949   0.322   4.479   4.513  0.6643  0.9125  0.6808
 7772SOL    HW234950   0.374   4.477   4.656 -0.7392  0.7897 -0.4299
 7773SOL     OW34951   2.350   1.110   2.176 -0.0468 -0.2062  0.6099
 7773SOL    HW134952   2.326   1.028   2.219 -0.7639 -1.1285 -1.5730
 7773SOL    HW234953   2.419   1.137   2.236 -0.1787 -0.3297  0.8153
 7774SOL     OW34954   1.952   2.809  15.552  0.7823  0.2283 -0.1808
 7774SOL    HW134955   2.013   2.835  15.483  0.4373  1.3495 -0.0684
 7774SOL    HW234956   1.943   2.717  15.527 -1.1680  0.3029  0.2659
 7775SOL     OW34957   2.920   0.302   9.770  0.1068 -0.5508 -0.0150
 7775SOL    HW134958   2.953   0.392   9.766  0.3603 -0.6699 -0.6198
 7775SOL    HW234959   2.852   0.317   9.836 -0.7146 -0.9892 -0.7597
 7776SOL     OW34960   3.107   3.076   0.391  0.2826  0.4593  0.6125
 7776SOL    HW134961   3.026   3.114   0.425 -0.1045 -0.0142  0.2221
 7776SOL    HW234962   3.166   3.151   0.386  2.7498 -1.5075  0.1334
 7777SOL     OW34963   1.989   3.923   7.485 -0.3446  0.4351 -0.1199
 7777SOL    HW134964   1.970   3.864   7.559 -0.6853  0.7028  0.0089
 7777SOL    HW234965   1.897   3.940   7.463 -0.3952  1.2364  0.7103
 7778SOL     OW34966   1.006   0.959   9.581 -0.2506  0.1791 -0.6207
 7778SOL    HW134967   0.986   1.011   9.659 -0.0951  1.6392 -1.5387
 7778SOL    HW234968   0.980   1.018   9.509 -2.2182  0.0412 -0.0218
 7779SOL     OW34969   3.611   2.305   1.323 -0.0712 -0.9282  0.3478
 7779SOL    HW134970   3.600   2.400   1.319  2.3149 -0.5851  1.4519
 7779SOL    HW234971   3.679   2.293   1.257  1.7569 -0.9344  2.2240
 7780SOL     OW34972   3.844   2.630   7.842 -0.1615 -0.1643  0.0033
 7780SOL    HW134973   3.793   2.569   7.788 -1.5198  3.3010 -2.6388
 7780SOL    HW234974   3.899   2.573   7.896 -1.0348 -2.1246 -1.1385
 7781SOL     OW34975   3.886   0.075   3.962  0.4609  0.1291 -0.2861
 7781SOL    HW134976   3.883   4.727   3.923  1.9088 -0.0345 -0.0086
 7781SOL    HW234977   3.823   0.120   3.905  0.9640 -0.6179 -1.4369
 7782SOL     OW34978   4.054   1.870   2.233 -0.2803  0.8301  0.9360
 7782SOL    HW134979   4.033   1.817   2.156  2.1540  1.0108  0.1756
 7782SOL    HW234980   3.970   1.903   2.266 -0.1332  2.0095  0.1234
 7783SOL     OW34981   3.951   1.509   6.435  0.2341 -0.0276  0.0104
 7783SOL    HW134982   3.879   1.460   6.393 -0.2450  0.1845  0.5836
 7783SOL    HW234983   3.981   1.438   6.492 -1.0961 -1.2290 -0.7642
 7784SOL     OW34984   4.610   2.399   6.499 -0.0690  0.0107  0.6185
 7784SOL    HW134985   4.673   2.393   6.427 -0.1206  0.4241  0.5429
 7784SOL    HW234986   4.528   2.413   6.451 -0.6732  0.5905  1.8368
 7785SOL     OW34987   1.447   1.750   3.784  0.4116 -0.3219 -0.1136
 7785SOL    HW134988   1.501   1.707   3.718 -1.1370  1.2802 -2.4236
 7785SOL    HW234989   1.444   1.839   3.750  0.7619 -0.5928 -0.8626
 7786SOL     OW34990   4.150   0.312   6.006  0.3923 -0.0186 -0.4367
 7786SOL    HW134991   4.214   0.303   6.077 -0.8200 -0.5630  0.5857
 7786SOL    HW234992   4.101   0.231   6.021  3.3054 -1.5514  0.8170
 7787SOL     OW34993   3.415   4.422   3.593  0.0541  0.6692 -0.4061
 7787SOL    HW134994   3.500   4.404   3.553 -0.2301 -1.9194  0.2114
 7787SOL    HW234995   3.430   4.517   3.600 -1.2071  0.7159  1.6319
 7788SOL     OW34996   4.626   2.028   0.744 -0.0520  0.3553  0.5456
 7788SOL    HW134997   4.541   1.985   0.751  0.1840  0.1061  1.8185
 7788SOL    HW234998   4.678   1.949   0.731  0.4473  0.4220  2.2111
 7789SOL     OW34999   1.564   3.616   6.666 -0.4052  0.1034  0.0012
 7789SOL    HW135000   1.486   3.569   6.697  0.0423 -1.1496 -0.7663
 7789SOL    HW235001   1.623   3.586   6.735  0.5189  0.5168 -0.6098
 7790SOL     OW35002   3.626   0.582  14.117  0.3262 -0.3530  0.0945
 7790SOL    HW135003   3.537   0.568  14.147 -0.0136 -0.0726 -0.7794
 7790SOL    HW235004   3.657   0.491  14.107  0.2351 -0.3545 -0.1960
 7791SOL     OW35005   0.397   1.594   4.401 -0.2026 -0.2008  0.6344
 7791SOL    HW135006   0.376   1.500   4.399  0.7667 -0.3874 -0.5017
 7791SOL    HW235007   0.488   1.567   4.387  0.5336  1.6754  1.8094
 7792SOL     OW35008   4.201   2.187   3.535  0.3532 -0.0149 -0.0824
 7792SOL    HW135009   4.167   2.273   3.561 -0.1956 -0.6497  1.3413
 7792SOL    HW235010   4.284   2.180   3.582 -0.4035  0.8502  1.3792
 7793SOL     OW35011   2.086   0.507   6.401  0.0727  0.6832  0.0458
 7793SOL    HW135012   2.005   0.483   6.444 -0.0956 -0.2864 -0.8001
 7793SOL    HW235013   2.107   0.595   6.432  2.0130  0.5469 -0.8252
 7794SOL     OW35014   0.753   1.541   2.605  0.0087  0.3826 -0.2057
 7794SOL    HW135015   0.670   1.588   2.616 -0.3407  0.1572 -1.8358
 7794SOL    HW235016   0.802   1.598   2.664 -1.5003 -1.1848  2.5529
 7795SOL     OW35017   1.033   4.683   4.394  0.2743 -0.0979 -0.0285
 7795SOL    HW135018   0.968   0.010   4.419  0.0377 -0.2913 -0.1289
 7795SOL    HW235019   1.112   4.735   4.381  1.4702 -1.6184  1.2294
 7796SOL     OW35020   1.286   3.858   3.636 -0.0582  0.1239  0.6722
 7796SOL    HW135021   1.350   3.922   3.604  1.1314 -0.4888  1.8393
 7796SOL    HW235022   1.210   3.916   3.645 -0.6231 -0.8780  2.2063
 7797SOL     OW35023   0.196   3.747   4.574 -0.3171  0.4471 -0.1500
 7797SOL    HW135024   0.180   3.829   4.528 -0.4670 -0.5525 -1.8862
 7797SOL    HW235025   0.238   3.699   4.503 -1.7297  1.1475 -1.4693
 7798SOL     OW35026   0.212   2.452   7.921 -0.1160 -0.1945 -0.2439
 7798SOL    HW135027   0.171   2.537   7.902  0.9541  0.5339  0.7249
 7798SOL    HW235028   0.296   2.484   7.954 -1.5975  0.3142  2.9679
 7799SOL     OW35029   3.854   0.564   3.454 -0.1635 -0.1912  0.1963
 7799SOL    HW135030   3.895   0.625   3.515 -0.0695 -1.0833  1.0270
 7799SOL    HW235031   3.929   0.505   3.443  2.0836  3.2330 -2.7074
 7800SOL     OW35032   3.052   0.799   4.044  0.9266 -0.0694  0.3553
 7800SOL    HW135033   3.044   0.730   4.110  0.2235  0.4019  0.7628
 7800SOL    HW235034   3.070   0.750   3.964 -1.9788  1.6647 -1.3664
 7801SOL     OW35035   0.144   1.133   5.307  0.4662  0.2327  0.0844
 7801SOL    HW135036   0.088   1.162   5.235 -2.3938  0.2478  2.3365
 7801SOL    HW235037   0.170   1.047   5.272  1.5689  1.2166 -1.5253
 7802SOL     OW35038   3.067   0.951   5.064 -0.0343  0.2524  0.0174
 7802SOL    HW135039   3.094   1.038   5.094 -1.6901  0.6994  0.1956
 7802SOL    HW235040   2.978   0.950   5.100 -0.9226 -2.9637 -2.2364
 7803SOL     OW35041   3.079   0.517  17.063  0.0953 -0.0891 -0.1935
 7803SOL    HW135042   3.103   0.609  17.052 -0.7881  0.5178  2.9389
 7803SOL    HW235043   3.122   0.498  17.146  0.9144  0.3381 -0.5158
 7804SOL     OW35044   0.445   0.498   7.949 -0.0375  0.2150 -0.4448
 7804SOL    HW135045   0.406   0.448   8.020  0.8076  2.2801  1.4879
 7804SOL    HW235046   0.536   0.467   7.945 -0.6994 -1.8114  0.6395
 7805SOL     OW35047   1.171   1.812  16.868  0.7253 -0.3506 -0.5865
 7805SOL    HW135048   1.209   1.808  16.955  1.3529  0.1465 -0.8411
 7805SOL    HW235049   1.094   1.866  16.888  0.6540 -0.9402  0.7347
 7806SOL     OW35050   2.822   3.982  13.130 -0.1693  0.4214  0.3755
 7806SOL    HW135051   2.738   3.963  13.090  0.7642 -0.4484 -1.1815
 7806SOL    HW235052   2.888   3.998  13.063 -1.6121  1.3192 -0.8229
 7807SOL     OW35053   0.368   4.555   4.341 -0.7330  0.1458 -0.1694
 7807SOL    HW135054   0.324   4.495   4.281 -1.3597  2.1417 -1.7414
 7807SOL    HW235055   0.390   4.627   4.281  3.0118 -0.1364  0.9054
 7808SOL     OW35056   3.916   3.051  16.229 -0.0784 -0.3846 -0.4302
 7808SOL    HW135057   3.912   3.064  16.324  1.4857 -0.6383 -0.3211
 7808SOL    HW235058   3.832   3.009  16.213  0.4488 -1.1421 -1.2518
 7809SOL     OW35059   2.515   0.832   5.240  0.1533 -0.5818 -0.0013
 7809SOL    HW135060   2.438   0.877   5.276 -0.6831 -2.9338  1.1388
 7809SOL    HW235061   2.583   0.878   5.289 -0.1089 -0.2791  0.0851
 7810SOL     OW35062   1.425   3.584  10.279 -0.1870 -0.1155 -0.0761
 7810SOL    HW135063   1.387   3.646  10.216  1.5389  0.6095 -0.4014
 7810SOL    HW235064   1.454   3.644  10.347 -3.4230 -0.6263  1.7669
 7811SOL     OW35065   1.287   0.240  10.880  0.7211 -0.9198 -0.5910
 7811SOL    HW135066   1.276   0.261  10.787  0.4039  0.7516 -0.1763
 7811SOL    HW235067   1.301   0.145  10.882  2.0232 -0.7302 -0.5585
 7812SOL     OW35068   0.438   1.844   3.875 -0.2624  0.6257 -0.0186
 7812SOL    HW135069   0.359   1.815   3.919 -0.1399  1.3076  0.6447
 7812SOL    HW235070   0.491   1.764   3.871  0.9321  1.3475  1.3330
 7813SOL     OW35071   4.118   1.238   6.065  0.5323 -0.1472 -0.4195
 7813SOL    HW135072   4.126   1.263   5.973  0.7502 -0.6660 -0.5418
 7813SOL    HW235073   4.184   1.292   6.109  1.3923 -1.2159 -0.4173
 7814SOL     OW35074   2.058   3.138  10.630 -0.1343  0.1332  0.3107
 7814SOL    HW135075   2.076   3.095  10.546  0.5826 -0.4460  0.7543
 7814SOL    HW235076   2.037   3.227  10.602 -0.3159 -0.9967 -3.1246
 7815SOL     OW35077   2.466   0.573   5.538 -0.3099  0.1185  0.2922
 7815SOL    HW135078   2.534   0.518   5.501 -1.0839  0.3365 -1.4773
 7815SOL    HW235079   2.469   0.545   5.629  1.0200 -1.0818 -0.1329
 7816SOL     OW35080   4.100   1.446   1.548  0.4711  0.5670 -0.2468
 7816SOL    HW135081   4.152   1.370   1.519  1.7338  1.7690 -1.1253
 7816SOL    HW235082   4.128   1.463   1.637  2.4630 -0.7671 -0.6227
 7817SOL     OW35083   3.145   2.896   8.677 -0.1406 -0.0334 -0.0232
 7817SOL    HW135084   3.182   2.844   8.606 -1.4435 -1.2254  0.1703
 7817SOL    HW235085   3.216   2.918   8.738 -1.5351 -0.7360  1.8738
 7818SOL     OW35086   2.795   2.587   7.021 -0.7449  0.3358 -0.1785
 7818SOL    HW135087   2.792   2.634   7.104 -1.6597 -0.4085  0.2163
 7818SOL    HW235088   2.708   2.598   6.982 -1.3652  2.5973  1.8699
 7819SOL     OW35089   2.065   3.239   6.337  0.4887  0.5538 -0.0056
 7819SOL    HW135090   2.006   3.176   6.379  0.4031  0.4271 -0.3124
 7819SOL    HW235091   2.046   3.320   6.383 -1.6892  0.7838 -1.3167
 7820SOL     OW35092   3.047   1.260   2.063  0.0426 -0.0534 -0.4136
 7820SOL    HW135093   3.139   1.235   2.063  0.1020  0.1743 -0.3061
 7820SOL    HW235094   3.025   1.222   1.977 -1.6117 -0.3317  0.1285
 7821SOL     OW35095   4.046   2.032   8.226 -0.0104 -0.1307  0.0376
 7821SOL    HW135096   4.065   2.123   8.252  0.7436 -0.2140 -0.2068
 7821SOL    HW235097   4.132   1.991   8.217 -0.6449 -0.0422 -6.0242
 7822SOL     OW35098   0.847   2.922   7.633 -0.4825 -0.3766  1.0440
 7822SOL    HW135099   0.901   2.843   7.642 -0.5196 -0.5520 -0.2232
 7822SOL    HW235100   0.900   2.983   7.582 -1.3373 -1.2050 -0.8473
 7823SOL     OW35101   2.502   1.965   5.228 -0.1707  0.5595 -0.1351
 7823SOL    HW135102   2.458   1.940   5.147 -0.8397  4.2013 -0.9027
 7823SOL    HW235103   2.470   1.901   5.291 -1.8776  0.9799 -0.5681
 7824SOL     OW35104   2.118   4.627  17.644  0.5351 -0.1766  0.2062
 7824SOL    HW135105   2.151   4.624  17.734 -0.1302 -1.7664  0.3997
 7824SOL    HW235106   2.096   4.720  17.650  0.2187 -0.1293 -1.8160
 7825SOL     OW35107   0.229   1.318   0.124  0.6080 -0.2453  0.1401
 7825SOL    HW135108   0.142   1.289   0.150 -0.4805  3.0412  0.1926
 7825SOL    HW235109   0.274   1.330   0.208  2.3961 -4.5115 -0.1959
 7826SOL     OW35110   2.496   0.846   4.229 -0.5755 -0.4739  0.2827
 7826SOL    HW135111   2.575   0.791   4.230 -2.5751 -3.3118 -0.0710
 7826SOL    HW235112   2.439   0.793   4.284  1.7846 -0.1437  3.1204
 7827SOL     OW35113   1.350   2.963  15.689 -0.5671 -0.3522  0.2774
 7827SOL    HW135114   1.359   3.050  15.649  1.7716  0.0205  1.6146
 7827SOL    HW235115   1.329   2.989  15.779 -0.3661 -0.7956  0.4546
 7828SOL     OW35116   4.528   3.509   6.715  0.7829 -0.4589  0.3677
 7828SOL    HW135117   4.574   3.425   6.709  0.0037 -0.9203  0.8691
 7828SOL    HW235118   4.564   3.537   6.799 -3.0172  1.0798  1.4821
 7829SOL     OW35119   2.397   4.678   9.605  0.1791 -0.1951  0.0661
 7829SOL    HW135120   2.368   4.588   9.591 -1.4455  0.6269 -1.9866
 7829SOL    HW235121   2.328   4.712   9.661 -1.5487 -0.9350 -1.6260
 7830SOL     OW35122   2.298   3.781   8.853  0.0021  0.7041  0.2250
 7830SOL    HW135123   2.214   3.815   8.886  0.1300 -1.0816  2.4326
 7830SOL    HW235124   2.351   3.860   8.849 -0.5670  1.0467 -0.6214
 7831SOL     OW35125   3.668   0.535   9.824 -0.6475 -0.3609  0.1962
 7831SOL    HW135126   3.689   0.623   9.793 -0.7765 -0.1047  0.8336
 7831SOL    HW235127   3.584   0.518   9.781 -1.3589  2.3368  0.5188
 7832SOL     OW35128   0.281   2.698   9.474 -0.4451 -0.5080  0.4222
 7832SOL    HW135129   0.252   2.677   9.385  0.6922 -2.5881  0.5221
 7832SOL    HW235130   0.306   2.613   9.511  1.8784  0.9168  2.1215
 7833SOL     OW35131   1.593   3.193  15.915 -0.0194  0.2443 -0.3066
 7833SOL    HW135132   1.663   3.165  15.974 -0.2909  0.0066 -0.0971
 7833SOL    HW235133   1.627   3.276  15.881  0.3329 -0.1517 -0.9141
 7834SOL     OW35134   1.790   0.494   9.613 -0.0729  0.6655 -0.3419
 7834SOL    HW135135   1.820   0.567   9.560  0.4262 -0.8773 -2.1777
 7834SOL    HW235136   1.738   0.453   9.545  0.9194  2.8038 -2.3732
 7835SOL     OW35137   2.892   2.102   5.809  0.6091 -0.8638  0.3179
 7835SOL    HW135138   2.942   2.119   5.730  2.4156  1.0429  1.8397
 7835SOL    HW235139   2.965   2.094   5.871 -1.2607  2.1786  2.9762
 7836SOL     OW35140   3.453   1.914   4.144  0.5689  0.5959 -0.0736
 7836SOL    HW135141   3.383   1.852   4.167 -0.0901  1.2394 -0.3306
 7836SOL    HW235142   3.413   1.980   4.087 -0.0931  0.1308 -0.1480
 7837SOL     OW35143   0.382   3.285   6.254  0.0595 -0.3385  0.0423
 7837SOL    HW135144   0.473   3.313   6.244  0.0953 -0.2217  0.7094
 7837SOL    HW235145   0.397   3.239   6.336  1.1227  1.4411  0.8347
 7838SOL     OW35146   4.325   1.106   4.218 -0.0326 -0.0528 -0.5705
 7838SOL    HW135147   4.405   1.055   4.227  0.3925  0.8471  0.8778
 7838SOL    HW235148   4.262   1.035   4.207 -1.0423  0.6860  0.3645
 7839SOL     OW35149   3.371   2.953   8.881 -0.0969  0.1559  0.0088
 7839SOL    HW135150   3.386   2.872   8.931  1.9002  0.5463  0.0341
 7839SOL    HW235151   3.396   3.022   8.942 -0.3882 -1.4460  1.9668
 7840SOL     OW35152   0.453   2.424  13.107  0.2738 -0.0574  0.5634
 7840SOL    HW135153   0.537   2.397  13.071 -0.6119  0.5721 -1.9811
 7840SOL    HW235154   0.487   2.510  13.132 -0.2719  0.4548 -0.4327
 7841SOL     OW35155   3.370   1.558   8.226 -0.5076 -0.5696 -0.2288
 7841SOL    HW135156   3.437   1.517   8.171 -0.4811 -0.1189 -0.5325
 7841SOL    HW235157   3.405   1.647   8.216 -0.6205 -0.4044  0.8672
 7842SOL     OW35158   1.816   2.843   6.546  0.4468  0.1335  0.4381
 7842SOL    HW135159   1.733   2.887   6.564 -0.5679 -1.7869  0.4639
 7842SOL    HW235160   1.788   2.752   6.560 -0.0062  0.3116  0.6598
 7843SOL     OW35161   2.162   3.537  11.133  0.2711 -0.7791  0.3739
 7843SOL    HW135162   2.136   3.575  11.217 -0.2211  0.2169 -0.2384
 7843SOL    HW235163   2.190   3.450  11.163 -1.7629 -0.9829  1.7102
 7844SOL     OW35164   2.224   3.755   7.699  0.5770  0.2334  0.1883
 7844SOL    HW135165   2.184   3.705   7.627 -0.0179  2.3109 -0.9157
 7844SOL    HW235166   2.164   3.738   7.772  1.5488 -1.1543  0.6683
 7845SOL     OW35167   0.512   3.102  14.147  0.4180  0.0240 -0.4115
 7845SOL    HW135168   0.469   3.173  14.195  0.7709 -0.0691  0.0404
 7845SOL    HW235169   0.431   3.054  14.129 -1.6185  2.2319  3.0484
 7846SOL     OW35170   3.136   2.590   4.616 -0.0808  0.1368  0.6316
 7846SOL    HW135171   3.223   2.612   4.650 -0.3420  0.4443  1.0990
 7846SOL    HW235172   3.110   2.522   4.679 -2.5989 -0.1502 -0.7207
 7847SOL     OW35173   0.374   3.663  13.366  0.0151 -0.4319  0.2091
 7847SOL    HW135174   0.465   3.637  13.350 -0.9526 -1.1827 -3.8871
 7847SOL    HW235175   0.343   3.640  13.279 -1.4304 -1.2707  0.9419
 7848SOL     OW35176   4.114   1.758   1.405  0.1709 -0.4571  0.0399
 7848SOL    HW135177   4.126   1.737   1.498  4.7389 -0.7588 -0.6084
 7848SOL    HW235178   4.050   1.829   1.403 -1.4864 -1.9471 -0.3009
 7849SOL     OW35179   4.094   2.314   8.228 -0.0796 -0.1056 -0.4449
 7849SOL    HW135180   4.052   2.345   8.147  2.4818  0.2438 -1.6219
 7849SOL    HW235181   4.184   2.313   8.195  0.1078 -0.8593  0.0768
 7850SOL     OW35182   1.272   0.626   4.841 -0.6670  0.2866  0.4233
 7850SOL    HW135183   1.360   0.636   4.878 -1.3452  1.3189  1.7706
 7850SOL    HW235184   1.287   0.562   4.772  0.9222  0.0067  1.0279
 7851SOL     OW35185   1.695   3.465   2.685  0.6958  0.5631 -0.5755
 7851SOL    HW135186   1.690   3.381   2.639 -0.3047  0.3258 -0.0383
 7851SOL    HW235187   1.685   3.533   2.618 -0.8990  0.1980 -0.6982
 7852SOL     OW35188   3.591   1.851   7.291 -0.1853  0.0676 -0.3851
 7852SOL    HW135189   3.508   1.815   7.260 -0.9350  0.6158  0.9704
 7852SOL    HW235190   3.600   1.921   7.226  1.4893  0.7201  0.5366
 7853SOL     OW35191   2.173   2.934   3.514 -0.2558 -0.8393  0.4355
 7853SOL    HW135192   2.251   2.974   3.477  0.3067 -2.1155  0.2324
 7853SOL    HW235193   2.206   2.855   3.557 -1.5518 -1.7391 -0.2366
 7854SOL     OW35194   0.157   3.655   2.217  0.1385 -0.4498  0.1619
 7854SOL    HW135195   0.250   3.672   2.227  0.0713  0.5078 -0.9146
 7854SOL    HW235196   0.142   3.572   2.171  1.5465 -0.3889 -0.3987
 7855SOL     OW35197   3.490   4.296   7.300 -0.0105  0.5499 -0.2971
 7855SOL    HW135198   3.513   4.232   7.367  2.6872  1.2205 -0.6091
 7855SOL    HW235199   3.402   4.314   7.332  0.5701  2.3505  0.3018
 7856SOL     OW35200   4.476   1.927   2.431  0.4659 -0.0083  0.1770
 7856SOL    HW135201   4.527   2.004   2.458 -1.6756  1.1338  1.0261
 7856SOL    HW235202   4.445   1.949   2.343 -0.7292 -0.7856  0.4111
 7857SOL     OW35203   0.371   3.136   6.487  0.1553  0.5969 -0.2033
 7857SOL    HW135204   0.436   3.095   6.544 -0.0691  2.1626  1.1774
 7857SOL    HW235205   0.296   3.148   6.545  0.0538  3.1989 -0.8937
 7858SOL     OW35206   3.689   0.451   2.563  0.3167 -0.5736 -0.9240
 7858SOL    HW135207   3.692   0.520   2.629  0.5917 -3.0773  1.6359
 7858SOL    HW235208   3.714   0.369   2.605  0.2809 -1.1277 -1.9640
 7859SOL     OW35209   2.062   4.618  17.380 -0.2100 -0.6007 -0.2639
 7859SOL    HW135210   2.130   4.683  17.359 -0.7040  0.7927  2.3502
 7859SOL    HW235211   2.034   4.631  17.471  1.4790  0.1727  0.1645
 7860SOL     OW35212   3.914   1.397  10.183  0.5267  0.2022  0.2193
 7860SOL    HW135213   4.006   1.389  10.157  1.1514  1.7415  1.9344
 7860SOL    HW235214   3.896   1.490  10.169  2.9455  0.6081 -0.1311
 7861SOL     OW35215   2.804   3.625  11.664  0.6561 -0.3876 -0.8235
 7861SOL    HW135216   2.751   3.634  11.742 -0.0753 -1.5500 -1.1803
 7861SOL    HW235217   2.861   3.551  11.683  0.2235 -0.6809 -0.6785
 7862SOL     OW35218   4.034   0.667   9.270 -0.1232 -0.0122  0.1726
 7862SOL    HW135219   4.072   0.685   9.356 -0.3129  0.6806  0.1153
 7862SOL    HW235220   4.031   0.572   9.282  0.1365  0.1522  1.5313
 7863SOL     OW35221   0.652   1.230   6.789  0.0225  0.0780 -0.0812
 7863SOL    HW135222   0.707   1.248   6.865  0.0249  1.5964 -0.4452
 7863SOL    HW235223   0.566   1.248   6.827  0.1802 -1.1999  0.8887
 7864SOL     OW35224   1.349   3.102   4.911 -0.0209  0.1967 -0.1460
 7864SOL    HW135225   1.407   3.037   4.870  0.0674 -0.1097  0.4719
 7864SOL    HW235226   1.278   3.045   4.939 -0.5844  0.4154 -1.1274
 7865SOL     OW35227   2.388   4.705   9.032  0.2066 -0.2942  0.3180
 7865SOL    HW135228   2.307   4.661   9.005  0.8447 -0.7419 -0.8890
 7865SOL    HW235229   2.376   4.712   9.126  0.9094  0.5991  0.3481
 7866SOL     OW35230   0.343   0.046   3.374  0.1934  0.2492 -0.0047
 7866SOL    HW135231   0.344   4.702   3.327  0.1510 -0.2955  0.9726
 7866SOL    HW235232   0.429   0.057   3.413  0.5245  2.0782 -1.2389
 7867SOL     OW35233   0.535   4.696   1.035  0.1434 -0.0429 -0.5634
 7867SOL    HW135234   0.520   0.004   0.954  0.4729  0.9279 -0.0603
 7867SOL    HW235235   0.522   0.029   1.097  1.4866 -1.2828  1.1404
 7868SOL     OW35236   2.311   1.616  15.030  0.5384  0.0542 -0.6004
 7868SOL    HW135237   2.244   1.627  14.962  0.1396  0.8696 -0.0897
 7868SOL    HW235238   2.367   1.694  15.026 -0.9528  1.2361  1.2271
 7869SOL     OW35239   3.919   4.395   9.024 -0.4050  0.0445  0.4316
 7869SOL    HW135240   3.903   4.313   8.978 -0.3733 -0.1798  0.8253
 7869SOL    HW235241   3.900   4.458   8.954 -2.7717 -0.3627  0.6817
 7870SOL     OW35242   4.614   3.041   7.233  0.7623  0.1885  0.4346
 7870SOL    HW135243   4.529   3.036   7.277  1.6269 -1.8152  1.9122
 7870SOL    HW235244   4.634   2.947   7.235  4.4173  0.9815  0.7829
 7871SOL     OW35245   2.604   2.727   6.669 -0.0551 -0.7759 -0.4429
 7871SOL    HW135246   2.545   2.745   6.596  1.2068 -0.0527 -1.2912
 7871SOL    HW235247   2.670   2.673   6.626 -0.8672 -0.7582 -1.7034
 7872SOL     OW35248   1.487   4.563   3.874 -0.2574 -0.0491  0.2747
 7872SOL    HW135249   1.582   4.562   3.874 -0.2577  0.5972  1.7136
 7872SOL    HW235250   1.476   4.485   3.819 -0.5113  0.9532 -1.1033
 7873SOL     OW35251   3.996   4.578  12.698 -0.2635 -0.9402  0.0113
 7873SOL    HW135252   3.933   4.610  12.633  0.0081 -0.1338  0.1472
 7873SOL    HW235253   3.933   4.547  12.763  0.9133  0.4489  1.8097
 7874SOL     OW35254   1.132   3.304   5.032 -0.2407 -0.1462  0.1693
 7874SOL    HW135255   1.204   3.279   5.090  1.0787 -1.3089 -2.0182
 7874SOL    HW235256   1.151   3.398   5.026 -1.1051  0.0434  0.2684
 7875SOL     OW35257   3.604   2.853  12.706 -0.2518  0.2828 -0.0824
 7875SOL    HW135258   3.566   2.793  12.770 -1.3096  1.2769  0.2143
 7875SOL    HW235259   3.678   2.884  12.760 -1.1677  0.4682  1.0579
 7876SOL     OW35260   4.718   1.870   7.067 -0.1979  0.2480  0.5903
 7876SOL    HW135261   4.735   1.927   6.992  1.5822  0.4340  1.1332
 7876SOL    HW235262   4.697   1.789   7.021  3.2018  0.0290 -0.5534
 7877SOL     OW35263   2.958   4.672   4.028  0.2043  0.1099 -0.1665
 7877SOL    HW135264   2.954   4.577   4.017 -0.6865  0.3250 -1.7262
 7877SOL    HW235265   3.052   4.683   4.034  0.0250  0.9931  0.9952
 7878SOL     OW35266   3.423   3.122  17.304  0.1776  0.0381 -0.3193
 7878SOL    HW135267   3.411   3.051  17.241  1.2133 -0.0774 -0.3875
 7878SOL    HW235268   3.501   3.086  17.346  0.0277 -0.9439 -0.8969
 7879SOL     OW35269   3.405   1.070   3.312  0.0750  0.1514  0.6563
 7879SOL    HW135270   3.482   1.126   3.322  0.1576 -0.0567  1.1936
 7879SOL    HW235271   3.334   1.125   3.345 -0.2292  0.8794 -1.2122
 7880SOL     OW35272   1.630   1.553  15.558  0.0866  0.1887  0.0415
 7880SOL    HW135273   1.548   1.517  15.523  1.8256 -1.6898 -2.1505
 7880SOL    HW235274   1.668   1.478  15.603 -0.7915 -0.6643 -0.6121
 7881SOL     OW35275   3.945   4.585   4.866 -0.6821 -0.1906 -0.3619
 7881SOL    HW135276   3.924   4.594   4.959 -0.2222  1.6578 -0.4299
 7881SOL    HW235277   3.881   4.520   4.838 -1.7342  1.2278 -1.2650
 7882SOL     OW35278   4.713   3.593   8.285  0.3632  0.3356  0.7540
 7882SOL    HW135279   0.011   3.659   8.227  1.4442 -0.4547  0.5589
 7882SOL    HW235280   4.629   3.581   8.241  0.7771  0.3212 -0.0342
 7883SOL     OW35281   2.714   3.510   3.319 -0.1739 -0.2080  0.2683
 7883SOL    HW135282   2.751   3.503   3.231 -0.9325  1.7647 -0.2241
 7883SOL    HW235283   2.677   3.599   3.316  0.5762  0.0337 -1.6289
 7884SOL     OW35284   3.432   2.850   6.043  0.3459  0.3503  0.3052
 7884SOL    HW135285   3.450   2.876   6.133 -0.3842 -0.3012  0.6471
 7884SOL    HW235286   3.346   2.885   6.020 -0.1847 -1.3224 -0.3171
 7885SOL     OW35287   1.214   4.381   9.340 -0.2196 -0.4841 -0.6899
 7885SOL    HW135288   1.138   4.416   9.387  1.3123 -0.4232  1.7774
 7885SOL    HW235289   1.171   4.304   9.304  0.0691 -0.3126 -1.3941
 7886SOL     OW35290   1.724   2.395   6.291 -0.0031 -0.4129 -0.0432
 7886SOL    HW135291   1.680   2.327   6.343  1.3309 -1.0474  0.2489
 7886SOL    HW235292   1.715   2.345   6.210 -1.2106 -1.2200  0.5802
 7887SOL     OW35293   2.590   2.683  15.348  0.5380  0.1954  0.2175
 7887SOL    HW135294   2.639   2.671  15.266  1.5290  3.2996  0.3397
 7887SOL    HW235295   2.556   2.773  15.342 -0.2815 -0.0465  1.2570
 7888SOL     OW35296   2.683   0.284   6.049 -0.0475  0.7101 -0.3018
 7888SOL    HW135297   2.632   0.358   6.081 -2.4462 -0.6717 -0.9637
 7888SOL    HW235298   2.615   0.224   6.018  1.0823 -0.4501 -0.5830
 7889SOL     OW35299   2.412   4.482  13.051 -0.5016 -0.1282  0.2815
 7889SOL    HW135300   2.435   4.398  13.012 -0.8068 -0.0613 -0.0407
 7889SOL    HW235301   2.400   4.454  13.142  0.0754 -0.6401  0.2047
 7890SOL     OW35302   4.101   1.604   3.423 -0.4571 -0.3556 -0.4297
 7890SOL    HW135303   4.007   1.601   3.406 -0.3128 -0.5293 -1.1818
 7890SOL    HW235304   4.128   1.609   3.331  0.4279 -0.5831 -0.1766
 7891SOL     OW35305   3.724   2.395   8.934  0.1737 -0.3926 -0.5372
 7891SOL    HW135306   3.691   2.466   8.879 -0.5283 -0.0452  0.3349
 7891SOL    HW235307   3.810   2.379   8.895  0.4452 -3.1591  1.1694
 7892SOL     OW35308   3.924   4.365   3.595  0.3513 -0.2166  0.2526
 7892SOL    HW135309   3.874   4.345   3.674 -0.8280  0.6379 -0.2658
 7892SOL    HW235310   4.012   4.330   3.607  1.1143  1.3245 -0.8720
 7893SOL     OW35311   2.296   0.643   7.514  0.7178  0.6804 -0.4263
 7893SOL    HW135312   2.276   0.553   7.490  0.4331  0.3489  1.0140
 7893SOL    HW235313   2.209   0.682   7.524  0.6830  0.6020 -0.4197
 7894SOL     OW35314   3.270   3.840   0.705  0.3809  0.2525  0.2126
 7894SOL    HW135315   3.257   3.753   0.666  0.3068  0.3648 -0.0175
 7894SOL    HW235316   3.192   3.877   0.663  0.0608  1.3196  1.7591
 7895SOL     OW35317   0.125   2.939   5.607 -0.2991  0.3056  0.1306
 7895SOL    HW135318   0.073   2.928   5.687  0.5232 -0.3973  0.5673
 7895SOL    HW235319   0.211   2.961   5.644  0.0179 -2.9221  1.3170
 7896SOL     OW35320   1.790   0.403   8.669  0.5336 -0.2538 -0.2845
 7896SOL    HW135321   1.703   0.379   8.638  0.3977  0.7018 -0.6475
 7896SOL    HW235322   1.777   0.498   8.675  0.5385 -0.2438 -0.4285
 7897SOL     OW35323   1.581   1.102   3.137  0.0151 -0.1456 -0.5646
 7897SOL    HW135324   1.529   1.128   3.061  2.3460 -1.3063 -2.5435
 7897SOL    HW235325   1.594   1.187   3.177  1.2848  0.3403 -2.0186
 7898SOL     OW35326   2.712   0.201   4.562 -0.7368 -0.5170 -0.6086
 7898SOL    HW135327   2.756   0.181   4.645 -0.0529 -0.1579 -0.8775
 7898SOL    HW235328   2.656   0.124   4.558 -0.2939 -0.8594 -0.2913
 7899SOL     OW35329   3.147   2.286   9.011  0.5932  0.2597 -0.2041
 7899SOL    HW135330   3.153   2.223   8.939 -1.4101 -3.0336  2.5064
 7899SOL    HW235331   3.218   2.255   9.068 -1.2640 -0.8471  1.4877
 7900SOL     OW35332   0.115   3.391   0.398  0.2982 -0.3892  0.4801
 7900SOL    HW135333   0.185   3.456   0.396  0.9637 -1.0628  2.2236
 7900SOL    HW235334   0.148   3.338   0.471 -0.8670  1.9441  2.6895
 7901SOL     OW35335   0.285   0.944   3.518  0.1361 -0.5445 -0.1849
 7901SOL    HW135336   0.274   0.864   3.467  1.5298 -0.3366 -0.8344
 7901SOL    HW235337   0.204   0.984   3.550  0.0203 -0.3600 -0.6994
 7902SOL     OW35338   2.192   2.636   2.185 -0.0597 -0.6524  0.1720
 7902SOL    HW135339   2.146   2.569   2.237 -0.0925 -0.6759  0.1122
 7902SOL    HW235340   2.118   2.678   2.142  0.9608 -1.6270 -2.4953
 7903SOL     OW35341   4.708   0.120   8.210 -0.0219  0.0329  0.5424
 7903SOL    HW135342   4.649   0.155   8.143 -1.8108 -0.1125  2.0247
 7903SOL    HW235343   4.702   0.194   8.271  2.3608  1.2109 -0.6661
 7904SOL     OW35344   1.517   2.806   7.386  0.1905  0.3874  0.0073
 7904SOL    HW135345   1.480   2.776   7.469  1.7907  1.2178  1.0127
 7904SOL    HW235346   1.439   2.834   7.337  1.4265  0.5730 -1.8803
 7905SOL     OW35347   0.778   0.120   6.105  0.3387  0.2618 -0.2059
 7905SOL    HW135348   0.687   0.098   6.125 -0.2208  0.0843 -2.9949
 7905SOL    HW235349   0.768   0.213   6.086 -0.5159  0.3858  0.8284
 7906SOL     OW35350   1.568   3.927   0.745  0.0803 -0.0268 -0.2909
 7906SOL    HW135351   1.649   3.906   0.791 -1.3727 -0.9696  1.8620
 7906SOL    HW235352   1.547   4.015   0.774 -0.7298 -0.9391  1.9143
 7907SOL     OW35353   3.497   0.016   0.588  0.2372  0.0310  0.0666
 7907SOL    HW135354   3.560   4.693   0.624 -0.6599 -1.5214 -1.0689
 7907SOL    HW235355   3.549   0.063   0.523 -0.7638 -0.3019 -0.9712
 7908SOL     OW35356   0.614   1.144   4.157 -0.3890  0.1644  0.0730
 7908SOL    HW135357   0.611   1.076   4.089  3.7503 -0.8430  0.9226
 7908SOL    HW235358   0.702   1.177   4.139 -0.3988 -0.4919 -1.1911
 7909SOL     OW35359   0.054   1.875  15.254 -0.1528 -0.0407 -0.1256
 7909SOL    HW135360   0.111   1.831  15.190  0.7817  1.2617 -0.1727
 7909SOL    HW235361   0.097   1.838  15.330 -0.6306 -0.4336 -0.0407
 7910SOL     OW35362   0.756   2.645   4.368  0.6879  0.6098  0.9385
 7910SOL    HW135363   0.751   2.645   4.273 -3.2429  2.2250  1.1327
 7910SOL    HW235364   0.722   2.558   4.387  1.0450 -0.1576 -1.9744
 7911SOL     OW35365   4.066   2.137   5.197  0.0378  0.5689 -0.5797
 7911SOL    HW135366   4.105   2.050   5.202  0.9988  0.9322 -1.5118
 7911SOL    HW235367   4.031   2.132   5.286 -2.1733  0.3537 -1.4819
 7912SOL     OW35368   4.419   1.567   0.868  0.1715 -0.1742 -0.1503
 7912SOL    HW135369   4.448   1.540   0.781  0.1106  2.0002 -0.8578
 7912SOL    HW235370   4.471   1.512   0.927  1.4746  1.0051 -0.1973
 7913SOL     OW35371   2.322   3.099  10.759  0.5921 -0.0210 -0.7406
 7913SOL    HW135372   2.233   3.105  10.725  0.5218  0.4256 -0.4742
 7913SOL    HW235373   2.315   3.004  10.768 -3.5950  0.3319  0.0043
 7914SOL     OW35374   2.069   0.303   9.035 -0.1259  0.4887  0.1302
 7914SOL    HW135375   1.979   0.333   9.044  0.8375  3.4240 -0.1542
 7914SOL    HW235376   2.074   0.301   8.939 -1.3054  0.1238  0.0783
 7915SOL     OW35377   3.632   3.653   0.991  0.1458  0.2960  0.2036
 7915SOL    HW135378   3.695   3.686   0.927  1.9955 -1.0651  1.3152
 7915SOL    HW235379   3.632   3.712   1.067 -0.0442  0.5857 -0.0179
 7916SOL     OW35380   3.668   0.704   9.610  0.6143  0.9830  0.1200
 7916SOL    HW135381   3.648   0.630   9.553  0.5988 -1.0579  2.7658
 7916SOL    HW235382   3.589   0.758   9.602 -0.5868 -1.1679 -2.3298
 7917SOL     OW35383   2.191   3.653  12.794  0.3846  0.2166 -0.3128
 7917SOL    HW135384   2.253   3.726  12.798  1.2873 -0.5432 -0.5604
 7917SOL    HW235385   2.116   3.712  12.807 -0.7978 -1.4389  0.2920
 7918SOL     OW35386   3.635   2.451   7.760  0.1210 -0.1709  0.2163
 7918SOL    HW135387   3.545   2.474   7.738  0.8437  4.3634  2.0588
 7918SOL    HW235388   3.626   2.414   7.848  0.6417  1.1149  0.8032
 7919SOL     OW35389   3.822   0.971   3.061 -0.2053  0.3385 -0.3323
 7919SOL    HW135390   3.800   0.925   3.141  0.9849  0.0133 -0.2020
 7919SOL    HW235391   3.757   1.042   3.060 -0.6431 -0.0589  0.6259
 7920SOL     OW35392   2.235   2.827   8.117  0.1410 -0.0572  0.2888
 7920SOL    HW135393   2.294   2.820   8.193  0.3063  0.9539  0.2596
 7920SOL    HW235394   2.188   2.908   8.138  0.1758  0.4239 -1.5251
 7921SOL     OW35395   4.090   4.667   6.441 -0.4097  0.2212  0.1681
 7921SOL    HW135396   4.072   4.621   6.523  1.6629 -3.6925 -1.5482
 7921SOL    HW235397   4.033   0.004   6.440 -0.9927 -0.2181 -0.9534
 7922SOL     OW35398   4.074   0.983  10.952  0.1026 -0.0599 -0.0140
 7922SOL    HW135399   4.002   1.011  10.895  0.1105  1.4541  0.7290
 7922SOL    HW235400   4.152   1.028  10.918 -0.3560  1.0031  0.3352
 7923SOL     OW35401   2.021   1.594   9.127 -0.3303 -0.0478  0.2873
 7923SOL    HW135402   2.041   1.658   9.195 -3.3686 -1.4604  2.4817
 7923SOL    HW235403   1.931   1.621   9.108  0.1173  1.1506 -0.1559
 7924SOL     OW35404   2.848   1.524   4.193 -0.1543  0.1658 -0.1614
 7924SOL    HW135405   2.803   1.571   4.123  0.2362 -1.0917 -1.2618
 7924SOL    HW235406   2.824   1.435   4.168  2.5562 -0.9921  1.3157
 7925SOL     OW35407   0.156   0.548   5.424 -0.2424 -0.2674  0.1737
 7925SOL    HW135408   0.210   0.503   5.359 -1.0061 -0.0818 -0.5914
 7925SOL    HW235409   0.078   0.494   5.436  0.1442 -0.4875  1.7692
 7926SOL     OW35410   4.303   0.375   4.041  0.1418  1.0273  0.1443
 7926SOL    HW135411   4.273   0.290   4.009 -0.3299  0.6518  1.5865
 7926SOL    HW235412   4.398   0.378   4.026 -0.0619 -0.1381 -1.4093
 7927SOL     OW35413   3.570   0.706  11.386 -0.0891  0.2219 -0.5886
 7927SOL    HW135414   3.634   0.650  11.430 -0.9113  0.0155  0.3566
 7927SOL    HW235415   3.485   0.669  11.412  0.6300 -1.0040  0.0281
 7928SOL     OW35416   0.847   0.384   6.342  0.1304  0.0382 -0.1815
 7928SOL    HW135417   0.876   0.382   6.251  0.9985  0.5939  0.0839
 7928SOL    HW235418   0.838   0.476   6.367 -0.1846  0.5094 -2.0402
 7929SOL     OW35419   3.150   4.645   3.531  0.1969 -0.5614  0.0855
 7929SOL    HW135420   3.128   4.552   3.539 -1.2085 -0.2299  0.1399
 7929SOL    HW235421   3.101   4.658   3.450  1.2785  0.5118 -0.3944
 7930SOL     OW35422   1.223   3.160   9.760 -0.2200 -0.0126  0.2408
 7930SOL    HW135423   1.234   3.245   9.719  0.5958 -0.4614 -0.4636
 7930SOL    HW235424   1.128   3.146   9.756  0.1732 -2.7351  0.4967
 7931SOL     OW35425   1.907   3.873   0.065 -0.2246  0.3657 -0.3185
 7931SOL    HW135426   1.905   3.964   0.038  0.7294  0.4682 -0.0201
 7931SOL    HW235427   1.849   3.838  17.753  0.5748 -2.2913  0.3613
 7932SOL     OW35428   1.604   1.312   7.390 -0.8252 -0.2692  0.3514
 7932SOL    HW135429   1.546   1.375   7.347  2.1033  1.7560 -0.6366
 7932SOL    HW235430   1.551   1.233   7.405 -2.1924  0.3052 -1.5420
 7933SOL     OW35431   2.067   3.552   9.317  0.0530 -0.1106  0.4483
 7933SOL    HW135432   2.007   3.478   9.312 -2.2151  1.6353  1.5963
 7933SOL    HW235433   2.017   3.628   9.345  1.3624  0.8256  0.2524
 7934SOL     OW35434   1.749   1.896   6.607  0.6143 -0.5551  0.4021
 7934SOL    HW135435   1.691   1.963   6.643  2.1426  1.0588 -0.1661
 7934SOL    HW235436   1.825   1.953   6.604 -0.1109  0.5145  2.4987
 7935SOL     OW35437   0.165   3.956  15.604  0.5206 -0.0768 -0.2969
 7935SOL    HW135438   0.098   3.898  15.639 -0.8136  1.2714 -0.6403
 7935SOL    HW235439   0.107   4.008  15.549  2.4968  3.0052  0.5379
 7936SOL     OW35440   1.644   0.654  14.826  0.3302 -0.3632 -0.4497
 7936SOL    HW135441   1.556   0.664  14.790  0.3360 -1.0669 -0.6674
 7936SOL    HW235442   1.617   0.597  14.898 -1.2521  2.2232  1.0313
 7937SOL     OW35443   3.730   1.126   1.026  0.4609 -0.0190 -0.1766
 7937SOL    HW135444   3.743   1.036   1.054 -0.9405  0.2950  1.4990
 7937SOL    HW235445   3.766   1.119   0.938  1.7968  0.8738  0.2967
 7938SOL     OW35446   2.506   2.753   7.358 -0.0411 -0.2577 -0.2550
 7938SOL    HW135447   2.451   2.725   7.285 -2.4617  4.0084 -0.0513
 7938SOL    HW235448   2.558   2.674   7.371  0.4954  0.3639  1.4518
 7939SOL     OW35449   2.260   3.082   8.769 -0.1589  0.3693 -0.5440
 7939SOL    HW135450   2.181   3.136   8.771  0.4506  1.2581 -0.7073
 7939SOL    HW235451   2.231   3.009   8.824  1.2671 -0.3379 -0.7516
 7940SOL     OW35452   4.175   4.622   3.699  0.0876 -0.1674  0.7493
 7940SOL    HW135453   4.096   4.617   3.645 -0.7886 -1.2724  2.1051
 7940SOL    HW235454   4.239   4.616   3.629 -1.0689  2.4534 -0.4902
 7941SOL     OW35455   2.010   3.995   8.369  0.0352  0.1785 -0.4626
 7941SOL    HW135456   1.961   3.989   8.450  0.2147  0.5985 -0.3209
 7941SOL    HW235457   2.095   4.030   8.396 -0.8859  1.5911  0.6018
 7942SOL     OW35458   2.574   2.097  10.087  0.0519  0.4189  0.6089
 7942SOL    HW135459   2.570   2.061   9.998  0.5013 -0.3844  0.9167
 7942SOL    HW235460   2.664   2.078  10.114  0.0812 -1.5938 -0.8910
 7943SOL     OW35461   0.345   4.228   9.857 -0.3620 -0.4270 -0.1973
 7943SOL    HW135462   0.257   4.223   9.895 -0.2231  0.5588  0.2640
 7943SOL    HW235463   0.327   4.168   9.785  1.1781 -0.2093 -0.7662
 7944SOL     OW35464   0.896   3.896   7.551 -0.3452 -0.2445  0.6804
 7944SOL    HW135465   0.923   3.866   7.464  0.3205 -0.4081  0.9454
 7944SOL    HW235466   0.826   3.959   7.532  0.5724  0.3826 -0.6065
 7945SOL     OW35467   2.227   1.518   1.672 -0.1790  0.7328 -0.3593
 7945SOL    HW135468   2.285   1.461   1.722 -0.8077  1.8000  1.5629
 7945SOL    HW235469   2.272   1.601   1.687  0.9255  0.3116 -1.2840
 7946SOL     OW35470   4.465   1.478   0.620 -0.4130 -0.3173  0.6736
 7946SOL    HW135471   4.386   1.496   0.569  3.3964 -2.8235 -6.1603
 7946SOL    HW235472   4.535   1.490   0.555 -0.6583 -1.3210  0.2226
 7947SOL     OW35473   3.060   3.709   3.778 -0.1642 -0.1037 -0.4300
 7947SOL    HW135474   3.150   3.687   3.753  0.3285  3.3089 -1.6857
 7947SOL    HW235475   3.021   3.637   3.826  0.1813  0.9228  1.3996
 7948SOL     OW35476   4.626   1.159  11.535 -0.3618 -0.4780 -0.0309
 7948SOL    HW135477   4.670   1.110  11.604 -1.3149  0.6014  1.3377
 7948SOL    HW235478   4.536   1.143  11.561 -0.3806  0.4857  0.4922
 7949SOL     OW35479   0.738   3.102  12.735  0.3259  0.9615  0.1203
 7949SOL    HW135480   0.757   3.031  12.674  0.9305  0.4978  0.8403
 7949SOL    HW235481   0.745   3.055  12.819 -0.9093  1.6023  0.5861
 7950SOL     OW35482   3.848   2.801   9.609 -0.1395 -0.4866  0.2118
 7950SOL    HW135483   3.897   2.775   9.687 -2.8577  1.0366  2.4381
 7950SOL    HW235484   3.898   2.760   9.538  1.0115  0.4382  0.4792
 7951SOL     OW35485   2.540   2.130   0.468  0.1044 -0.2649  0.2162
 7951SOL    HW135486   2.591   2.064   0.421 -0.5642 -1.8427  1.7125
 7951SOL    HW235487   2.546   2.104   0.560 -1.7310 -0.4331  0.2934
 7952SOL     OW35488   3.909   1.247   1.448  0.8129  0.2231  0.4836
 7952SOL    HW135489   3.853   1.323   1.465 -0.0593  0.2505 -2.5057
 7952SOL    HW235490   3.993   1.289   1.469  0.5011  0.9578  0.2913
 7953SOL     OW35491   2.399   0.523   9.885  0.0619  0.7557 -0.6405
 7953SOL    HW135492   2.430   0.473   9.809  1.4361 -0.7062  0.9022
 7953SOL    HW235493   2.304   0.523   9.877 -0.1155 -0.7296  1.7061
 7954SOL     OW35494   3.385   2.817  10.005 -0.3056 -0.0728 -0.0898
 7954SOL    HW135495   3.419   2.781  10.087  0.1866 -1.4832 -0.9253
 7954SOL    HW235496   3.443   2.890   9.985  0.0301 -0.0111  1.0754
 7955SOL     OW35497   1.661   4.573   6.811 -0.2693  0.2276 -0.5479
 7955SOL    HW135498   1.646   4.605   6.722 -0.6497  3.5419  0.7136
 7955SOL    HW235499   1.682   4.653   6.858 -0.5853  0.8800 -1.5084
 7956SOL     OW35500   3.112   1.413  12.370 -0.7555  0.1867 -0.2415
 7956SOL    HW135501   3.105   1.360  12.290  1.0261  2.0513 -1.6363
 7956SOL    HW235502   3.062   1.492  12.348  0.8017  1.4127  0.6628
 7957SOL     OW35503   1.515   3.068  12.121  0.6329 -0.2974  0.3151
 7957SOL    HW135504   1.598   3.034  12.088  0.6566  0.3590 -0.3087
 7957SOL    HW235505   1.498   3.017  12.200 -3.6026 -0.0305 -0.4209
 7958SOL     OW35506   3.468   1.399   4.776  0.6570  0.9929 -0.5516
 7958SOL    HW135507   3.544   1.453   4.797  0.1361  1.4464  0.2003
 7958SOL    HW235508   3.479   1.385   4.682  1.2978  0.9881 -0.4741
 7959SOL     OW35509   4.619   4.591   4.648 -0.1230 -0.0933  0.3212
 7959SOL    HW135510   4.542   4.624   4.601 -0.5785 -1.1527  0.3169
 7959SOL    HW235511   4.570   4.564   4.726  1.6682  2.6115  2.4026
 7960SOL     OW35512   3.482   0.610   7.427  0.3031 -0.1281  0.2061
 7960SOL    HW135513   3.478   0.526   7.382 -0.6672  0.7671 -1.3860
 7960SOL    HW235514   3.480   0.577   7.516  0.8293 -1.2736 -0.1984
 7961SOL     OW35515   0.919   0.354   1.992 -0.3637 -0.3960  0.0153
 7961SOL    HW135516   0.858   0.336   1.921  2.0917 -1.7201 -1.7649
 7961SOL    HW235517   1.004   0.371   1.951 -0.0984  0.7695  1.0606
 7962SOL     OW35518   1.199   2.026   5.383  0.3241  0.0247  0.3779
 7962SOL    HW135519   1.199   2.112   5.343 -2.4929 -0.7311 -1.2394
 7962SOL    HW235520   1.110   2.024   5.419  0.3342  0.4814  0.4235
 7963SOL     OW35521   1.783   1.848   9.392  0.2526  0.1561  0.2938
 7963SOL    HW135522   1.843   1.864   9.319 -0.1626 -0.7080 -0.2534
 7963SOL    HW235523   1.831   1.784   9.444 -0.2050 -1.2570 -1.0092
 7964SOL     OW35524   1.144   0.740  14.031 -0.0539 -0.1127 -0.0842
 7964SOL    HW135525   1.057   0.701  14.023  0.7309 -2.2854  1.7951
 7964SOL    HW235526   1.147   0.777  13.943  2.6261 -1.4186 -0.5572
 7965SOL     OW35527   1.711   3.996   5.466  0.0034  0.2766 -0.1859
 7965SOL    HW135528   1.782   4.052   5.497  0.8434  0.1227 -1.8303
 7965SOL    HW235529   1.745   3.973   5.380  1.0484 -2.7225  1.0153
 7966SOL     OW35530   0.383   2.806   3.657 -0.3771 -0.6326 -0.0349
 7966SOL    HW135531   0.434   2.758   3.723  0.2984  1.0512  0.6597
 7966SOL    HW235532   0.405   2.897   3.675 -1.9773  0.2013 -2.3072
 7967SOL     OW35533   2.700   3.347   7.491  0.2311  0.1415  0.5808
 7967SOL    HW135534   2.724   3.278   7.429 -0.1441 -0.7385  1.4122
 7967SOL    HW235535   2.651   3.410   7.439  2.3852  0.2983 -1.2907
 7968SOL     OW35536   1.610   3.270  11.444 -0.6297  0.5722  0.3764
 7968SOL    HW135537   1.660   3.213  11.503 -0.8315  0.3308  0.3107
 7968SOL    HW235538   1.523   3.232  11.448  0.0578 -1.2693 -2.2028
 7969SOL     OW35539   4.059   0.009   2.744 -1.2388  0.5558  0.4639
 7969SOL    HW135540   4.133   4.721   2.798 -0.6918 -1.5525 -1.3644
 7969SOL    HW235541   4.101   0.074   2.687 -1.0570  1.0670  1.1792
 7970SOL     OW35542   0.665   3.964   4.110  0.4577 -0.3091 -0.2275
 7970SOL    HW135543   0.573   3.976   4.084  0.0225 -0.7266  1.1355
 7970SOL    HW235544   0.681   4.053   4.141 -1.3243 -1.4378  3.9664
 7971SOL     OW35545   0.277   1.784  12.070 -0.2073 -0.3699  0.6165
 7971SOL    HW135546   0.188   1.750  12.058 -0.3020  0.2559 -0.4276
 7971SOL    HW235547   0.292   1.752  12.159  2.0692 -3.4738 -0.8547
 7972SOL     OW35548   1.468   1.845  15.568 -0.1729  0.1248 -0.2133
 7972SOL    HW135549   1.462   1.861  15.474  0.4178 -1.0117 -0.4459
 7972SOL    HW235550   1.558   1.863  15.592 -0.9614  0.1158  2.7417
 7973SOL     OW35551   4.141   2.219   4.359  0.5709  0.2196  0.2380
 7973SOL    HW135552   4.133   2.298   4.412  2.8016  0.4680  0.1981
 7973SOL    HW235553   4.050   2.196   4.339 -0.0577  2.3438  0.6318
 7974SOL     OW35554   2.452   3.851   2.439 -0.2635  1.0592 -0.2884
 7974SOL    HW135555   2.466   3.802   2.520  0.7647  1.4141 -0.2617
 7974SOL    HW235556   2.524   3.910   2.460  0.5814 -0.9840  2.6011
 7975SOL     OW35557   3.540   3.451  10.406  0.1106 -0.0603 -0.0774
 7975SOL    HW135558   3.454   3.459  10.445 -0.3869 -0.6501 -1.0431
 7975SOL    HW235559   3.574   3.534  10.439  0.2818  0.6766 -2.0603
 7976SOL     OW35560   0.985   0.946   6.285  0.5531 -0.1751 -0.3640
 7976SOL    HW135561   1.002   0.853   6.269  2.7436  0.2170 -0.3831
 7976SOL    HW235562   0.908   0.964   6.231  0.2931  2.2839  0.8248
 7977SOL     OW35563   4.725   2.162  13.736  0.3371 -0.1924 -0.3534
 7977SOL    HW135564   4.642   2.203  13.715  0.6337 -0.2228 -1.5445
 7977SOL    HW235565   0.005   2.224  13.807  0.2481 -2.2596  1.5053
 7978SOL     OW35566   2.509   3.211   5.379  0.2480 -0.4215  0.0502
 7978SOL    HW135567   2.547   3.171   5.457  1.3880  1.6816  0.5639
 7978SOL    HW235568   2.520   3.138   5.318 -2.1737 -0.2469 -0.5900
 7979SOL     OW35569   3.085   3.680   7.983 -0.3082 -0.0415 -0.0568
 7979SOL    HW135570   3.123   3.642   8.062 -1.1097 -0.8454 -0.0405
 7979SOL    HW235571   3.076   3.602   7.928 -1.5158 -0.1306  0.2506
 7980SOL     OW35572   0.523   4.250   5.999  0.2277  0.5129 -0.0329
 7980SOL    HW135573   0.567   4.334   6.010  3.9766 -1.6583  1.3794
 7980SOL    HW235574   0.434   4.275   6.023  0.1877  0.5341 -0.2034
 7981SOL     OW35575   1.627   0.098   3.649  0.5946  0.2474 -0.2159
 7981SOL    HW135576   1.620   0.173   3.708 -0.9095  0.2052 -0.3389
 7981SOL    HW235577   1.577   0.129   3.574 -1.2077  1.2698  1.3917
 7982SOL     OW35578   0.616   0.727   5.813 -0.9489 -1.0029 -0.4340
 7982SOL    HW135579   0.658   0.736   5.727 -2.9054 -0.0507 -1.2809
 7982SOL    HW235580   0.567   0.645   5.808 -1.0677 -0.8931 -1.1230
 7983SOL     OW35581   1.659   4.521   8.574  0.4844 -0.2514  0.8831
 7983SOL    HW135582   1.716   4.570   8.514 -0.2970  1.2788  1.3810
 7983SOL    HW235583   1.714   4.461   8.624  0.5513  2.0447  3.6078
 7984SOL     OW35584   2.571   4.402   5.892 -0.7290 -0.2370  0.1046
 7984SOL    HW135585   2.592   4.309   5.884 -0.8991 -0.2688  0.0249
 7984SOL    HW235586   2.561   4.421   5.799  0.5733 -0.2587 -0.0421
 7985SOL     OW35587   0.688   3.289   7.594 -0.3403  0.2129 -0.5433
 7985SOL    HW135588   0.730   3.373   7.608  0.3290 -0.4221  1.2309
 7985SOL    HW235589   0.701   3.279   7.499 -0.4880 -3.7191 -0.1823
 7986SOL     OW35590   1.563   1.284   5.232 -0.5678  0.2065 -0.0443
 7986SOL    HW135591   1.539   1.201   5.190 -1.2574  0.7797 -0.7929
 7986SOL    HW235592   1.505   1.286   5.308 -1.2841  1.8738 -0.6154
 7987SOL     OW35593   1.517   3.440   6.103  0.2419 -0.1952 -0.1960
 7987SOL    HW135594   1.537   3.452   6.010  1.6842 -0.0688  0.1230
 7987SOL    HW235595   1.455   3.368   6.092  0.5890 -0.2413 -1.8018
 7988SOL     OW35596   4.318   2.601   2.718 -0.2358  0.0921  0.2570
 7988SOL    HW135597   4.332   2.562   2.632 -1.1260  0.5921 -0.1098
 7988SOL    HW235598   4.384   2.670   2.719  1.4650 -1.5176 -2.4850
 7989SOL     OW35599   2.476   4.707   1.742  0.3008  0.7602  0.1526
 7989SOL    HW135600   2.388   4.729   1.775  0.1599  0.3971  0.0184
 7989SOL    HW235601   2.470   0.001   1.653  0.9548  1.0591  0.2247
 7990SOL     OW35602   4.565   3.672   9.655 -0.0708 -0.4087  0.0301
 7990SOL    HW135603   4.488   3.714   9.615 -0.6036 -0.9532  0.4918
 7990SOL    HW235604   4.593   3.626   9.576 -4.7711 -0.0256 -1.8807
 7991SOL     OW35605   0.601   4.067   8.699  0.3568  0.2574 -0.0201
 7991SOL    HW135606   0.651   4.033   8.773  1.1674 -1.4504 -1.3642
 7991SOL    HW235607   0.568   4.142   8.749  1.4048 -0.6336  1.9975
 7992SOL     OW35608   2.299   1.292   1.229 -0.4317 -0.2348  0.7301
 7992SOL    HW135609   2.348   1.212   1.212  0.8276  1.0807 -1.8033
 7992SOL    HW235610   2.244   1.256   1.299  0.8713 -0.0626  1.8338
 7993SOL     OW35611   2.887   1.889   0.337  0.0425 -0.6260  0.1412
 7993SOL    HW135612   2.847   1.838   0.407  3.5796 -1.1641  1.7725
 7993SOL    HW235613   2.811   1.926   0.292  0.7990 -1.6409 -1.9709
 7994SOL     OW35614   4.267   2.737  17.116  0.4181  0.6714  0.1400
 7994SOL    HW135615   4.247   2.816  17.066  0.3998  0.6260  0.0756
 7994SOL    HW235616   4.176   2.724  17.143  0.4477 -0.9704 -0.6104
 7995SOL     OW35617   1.960   1.928   2.216 -0.4345  0.3800 -0.3185
 7995SOL    HW135618   1.865   1.935   2.211 -0.4660 -1.3051 -1.9172
 7995SOL    HW235619   1.986   2.020   2.211  1.1952  0.0207  1.6540
 7996SOL     OW35620   4.068   2.048   0.466  0.1762 -0.2418  0.1640
 7996SOL    HW135621   3.975   2.063   0.446 -0.2015  0.1450  2.2304
 7996SOL    HW235622   4.093   2.140   0.475 -0.4600  0.0679 -1.2043
 7997SOL     OW35623   1.814   2.496   9.039 -0.7638 -0.3631 -0.0027
 7997SOL    HW135624   1.754   2.571   9.041  2.5879  2.2576  1.7962
 7997SOL    HW235625   1.775   2.439   9.106 -2.1308  3.3084  2.3424
 7998SOL     OW35626   0.365   0.579   9.591  0.6896 -0.2700 -0.2813
 7998SOL    HW135627   0.363   0.675   9.585 -0.2199 -0.1866  1.5164
 7998SOL    HW235628   0.423   0.560   9.665  1.6811  2.9922 -0.2263
 7999SOL     OW35629   1.525   2.280   7.282 -0.3138 -0.0381 -0.4600
 7999SOL    HW135630   1.549   2.296   7.191  1.0061 -0.7270 -0.2345
 7999SOL    HW235631   1.596   2.222   7.312 -0.4119  0.0418 -0.0744
 8000SOL     OW35632   0.724   3.333   8.220  0.1783 -0.3928  0.1383
 8000SOL    HW135633   0.818   3.349   8.235  0.0766 -0.9104  1.2935
 8000SOL    HW235634   0.683   3.418   8.234  2.0437  0.2915  1.5198
 8001SOL     OW35635   2.309   1.421   7.081 -0.6309 -0.1321  0.8824
 8001SOL    HW135636   2.295   1.488   7.148  2.0637  2.0442 -0.6965
 8001SOL    HW235637   2.332   1.474   7.005  0.4131 -0.4319  0.9827
 8002SOL     OW35638   1.529   0.177   3.363 -0.4019  0.0813  0.6323
 8002SOL    HW135639   1.504   0.097   3.318  0.3969  1.1693 -1.7637
 8002SOL    HW235640   1.581   0.215   3.292 -1.9281  1.5367  0.2746
 8003SOL     OW35641   2.807   1.182   3.556 -0.1595  0.5492  0.2710
 8003SOL    HW135642   2.798   1.152   3.646 -0.0136  0.1395  0.1519
 8003SOL    HW235643   2.733   1.136   3.515  0.0157  1.0925 -0.6592
 8004SOL     OW35644   3.178   3.977   7.218  0.3753 -0.0723  0.3657
 8004SOL    HW135645   3.257   3.982   7.165  2.4080 -2.1150  3.2205
 8004SOL    HW235646   3.145   4.067   7.210  0.6668  0.0429  0.4681
 8005SOL     OW35647   0.385   1.407   0.938  0.9698  0.2052 -0.3871
 8005SOL    HW135648   0.425   1.412   1.025  2.5871  0.2224 -1.1326
 8005SOL    HW235649   0.308   1.457   0.964  2.4137  1.2454  1.8980
 8006SOL     OW35650   4.028   2.106  15.314 -1.0733  0.3472  0.5947
 8006SOL    HW135651   4.086   2.036  15.286 -1.9939  0.0231 -0.4968
 8006SOL    HW235652   3.942   2.075  15.285 -0.7698  0.4190 -0.3587
 8007SOL     OW35653   3.012   2.185  17.277  0.1160  1.1582  0.6024
 8007SOL    HW135654   3.102   2.194  17.308 -0.1795  2.3019  1.1115
 8007SOL    HW235655   2.977   2.114  17.332  1.3672 -0.5435 -0.8192
 8008SOL     OW35656   1.612   0.766   8.038 -0.6904 -0.5844 -0.2058
 8008SOL    HW135657   1.622   0.786   8.131 -1.5135  2.6387 -0.8085
 8008SOL    HW235658   1.669   0.691   8.021  1.1492  0.9091 -0.7801
 8009SOL     OW35659   0.903   1.722  12.004 -0.0350 -0.4965 -0.2938
 8009SOL    HW135660   0.859   1.746  11.922 -0.8556  1.7226  0.8153
 8009SOL    HW235661   0.840   1.738  12.074  0.8211  0.0432  0.3471
 8010SOL     OW35662   0.694   1.074   7.267 -0.3779 -0.5725  0.4008
 8010SOL    HW135663   0.685   1.045   7.358 -0.6850 -2.5232 -0.2436
 8010SOL    HW235664   0.701   1.169   7.276  0.1270 -0.6407  0.7782
 8011SOL     OW35665   2.895   3.360   0.851  0.1314 -0.1281 -0.0866
 8011SOL    HW135666   2.883   3.404   0.935 -1.4007  0.4163 -0.5859
 8011SOL    HW235667   2.806   3.331   0.830 -1.1022  2.8282  1.0908
 8012SOL     OW35668   1.463   1.065   2.028  0.2159 -0.3222 -0.0361
 8012SOL    HW135669   1.379   1.029   2.055  0.1152  0.1406  0.2495
 8012SOL    HW235670   1.521   0.989   2.022  0.1609 -0.2975 -0.8279
 8013SOL     OW35671   1.949   1.045   7.059 -0.0290 -0.5831  0.2452
 8013SOL    HW135672   1.994   1.116   7.013 -3.2571  1.4498  0.2318
 8013SOL    HW235673   1.924   1.081   7.144 -1.7921 -3.1423  0.7978
 8014SOL     OW35674   2.806   1.795   1.077 -0.1296 -0.1707 -0.2110
 8014SOL    HW135675   2.773   1.846   1.150  1.2162 -1.4727  1.3206
 8014SOL    HW235676   2.773   1.708   1.100 -0.0884  0.0995  0.8212
 8015SOL     OW35677   3.298   2.981  10.741 -0.3763  0.0977 -1.2426
 8015SOL    HW135678   3.326   2.932  10.664  0.6997  0.6192 -1.1833
 8015SOL    HW235679   3.243   2.917  10.787  2.0967 -0.6437  0.6529
 8016SOL     OW35680   0.394   1.248   6.047  0.0656  0.1189  0.1038
 8016SOL    HW135681   0.357   1.248   6.135 -2.1952 -2.0440 -0.8513
 8016SOL    HW235682   0.377   1.333   6.008  2.7736  0.1148 -1.1213
 8017SOL     OW35683   1.440   2.987  16.147  0.0205 -0.7107 -0.2542
 8017SOL    HW135684   1.393   3.043  16.086 -0.0671  0.4082  0.8368
 8017SOL    HW235685   1.532   2.998  16.124  0.2068  0.0466  0.8741
 8018SOL     OW35686   1.716   4.128   3.611 -0.4900 -0.2133 -0.1522
 8018SOL    HW135687   1.620   4.126   3.610 -0.4161 -2.8182 -1.4562
 8018SOL    HW235688   1.749   4.051   3.657  1.0975 -0.4144 -1.6496
 8019SOL     OW35689   3.296   1.863   8.758  0.8077 -0.2852 -0.1298
 8019SOL    HW135690   3.280   1.864   8.852 -0.6828  0.1680 -0.3975
 8019SOL    HW235691   3.258   1.781   8.728  1.5325  0.3723 -2.9199
 8020SOL     OW35692   1.246   2.250   7.163  0.6229 -0.2709 -0.6582
 8020SOL    HW135693   1.278   2.174   7.212 -0.4017 -0.7110 -0.6591
 8020SOL    HW235694   1.187   2.210   7.098  1.2410 -0.9415 -0.8092
 8021SOL     OW35695   2.355   4.527  17.585 -0.3665 -0.0943 -0.0788
 8021SOL    HW135696   2.392   4.587  17.649 -1.6112 -0.8122  1.3254
 8021SOL    HW235697   2.263   4.543  17.605 -0.6420 -2.4332  0.5407
 8022SOL     OW35698   1.805   1.699   5.894 -0.1945 -0.1681 -0.3030
 8022SOL    HW135699   1.842   1.641   5.828  0.1016  0.1827 -0.4427
 8022SOL    HW235700   1.805   1.785   5.854  3.2941 -0.6032 -1.1677
 8023SOL     OW35701   4.152   3.299   5.942  0.6520  0.0767  0.0042
 8023SOL    HW135702   4.209   3.224   5.925 -0.2901 -1.2235  2.4779
 8023SOL    HW235703   4.064   3.265   5.961  0.4981  0.1781 -0.5211
 8024SOL     OW35704   3.318   3.782   7.621  0.0629 -0.2919  0.1733
 8024SOL    HW135705   3.404   3.760   7.658  0.3199  0.3882 -0.0301
 8024SOL    HW235706   3.266   3.810   7.696  2.1098 -0.1601  1.5385
 8025SOL     OW35707   0.686   0.957   3.968  0.3461  0.1496 -0.3862
 8025SOL    HW135708   0.652   0.989   3.884 -0.0040  2.3662  0.5955
 8025SOL    HW235709   0.734   0.878   3.945 -2.9876 -2.2000  0.7303
 8026SOL     OW35710   2.881   0.216   5.844 -0.0443 -0.2383 -0.1052
 8026SOL    HW135711   2.861   0.123   5.857 -0.5141 -0.2610 -1.0157
 8026SOL    HW235712   2.906   0.244   5.932  3.8528  0.2649 -1.3514
 8027SOL     OW35713   0.080   1.581   3.684 -0.1443 -0.0865  0.4878
 8027SOL    HW135714   0.109   1.585   3.775  1.2253 -0.4688  0.0596
 8027SOL    HW235715   0.138   1.518   3.642 -0.8720 -0.3820 -0.0715
 8028SOL     OW35716   1.090   0.932   9.992  0.1815 -0.4683 -0.2960
 8028SOL    HW135717   1.097   1.021  10.028  2.1444 -0.6562 -0.2068
 8028SOL    HW235718   1.140   0.942   9.911  1.3410 -0.6697  0.4046
 8029SOL     OW35719   2.402   1.638   6.488  0.7097 -0.0740  0.5643
 8029SOL    HW135720   2.415   1.678   6.574  2.3911  1.8999 -0.6036
 8029SOL    HW235721   2.373   1.550   6.513  0.7951 -0.3332 -0.2420
 8030SOL     OW35722   2.671   1.551  15.268  0.0184 -0.3936  0.3494
 8030SOL    HW135723   2.669   1.455  15.264  0.8675 -0.3746 -0.3706
 8030SOL    HW235724   2.599   1.564  15.329  1.7889  0.8140  2.2023
 8031SOL     OW35725   2.719   1.189   8.346 -0.1104  0.0824  0.6928
 8031SOL    HW135726   2.734   1.162   8.255 -2.6880 -0.9085  0.5613
 8031SOL    HW235727   2.801   1.161   8.386 -0.0110 -0.0775  0.3773
 8032SOL     OW35728   0.071   3.911   6.723 -0.2708 -0.2158 -0.0117
 8032SOL    HW135729   0.087   3.952   6.808  0.0193 -0.6037  0.1244
 8032SOL    HW235730   4.719   3.929   6.702  0.0019  1.9468  0.6738
 8033SOL     OW35731   2.380   1.052   6.051  0.2643 -0.6296 -0.3159
 8033SOL    HW135732   2.371   1.147   6.056  0.5698 -0.5133 -1.9037
 8033SOL    HW235733   2.293   1.015   6.060  0.2850  0.6790  5.1691
 8034SOL     OW35734   3.099   1.858   8.506  0.3371  0.0305  0.3566
 8034SOL    HW135735   3.114   1.828   8.416  1.4196 -0.4967  0.7100
 8034SOL    HW235736   3.100   1.774   8.552 -0.5111  0.3449  0.9508
 8035SOL     OW35737   2.156   3.779   6.382 -0.2750  0.2818  0.1588
 8035SOL    HW135738   2.237   3.823   6.409 -0.2644  1.2009 -1.3660
 8035SOL    HW235739   2.170   3.777   6.287  0.0687 -1.6736  0.2478
 8036SOL     OW35740   1.458   3.355  10.105  0.0571  0.2936  0.1541
 8036SOL    HW135741   1.465   3.426  10.169 -1.0555  0.6490 -0.1118
 8036SOL    HW235742   1.527   3.301  10.144 -0.4091 -0.9128 -0.6867
 8037SOL     OW35743   4.213   0.703   5.686  0.4840  0.1389 -0.3038
 8037SOL    HW135744   4.298   0.660   5.671 -0.1596 -0.5140 -2.0520
 8037SOL    HW235745   4.160   0.629   5.713  0.6517 -0.6452 -2.1464
 8038SOL     OW35746   2.324   1.634  11.695  0.4072 -0.4100 -0.4662
 8038SOL    HW135747   2.379   1.710  11.676 -0.2817  0.6677  1.8495
 8038SOL    HW235748   2.381   1.560  11.670  1.2249  0.5048 -1.3131
 8039SOL     OW35749   2.131   3.607   3.270  0.6797  0.3500  0.3140
 8039SOL    HW135750   2.038   3.627   3.261  1.0529  1.2643 -1.6203
 8039SOL    HW235751   2.176   3.681   3.229 -0.9128  2.1566  1.8214
 8040SOL     OW35752   2.154   1.330   0.976  0.1538 -0.5037 -0.1751
 8040SOL    HW135753   2.158   1.300   1.066 -0.3329 -1.6321 -0.5274
 8040SOL    HW235754   2.219   1.400   0.975 -0.4789  0.0768 -0.1423
 8041SOL     OW35755   3.852   1.547  16.551  0.3089 -0.1366  0.5321
 8041SOL    HW135756   3.934   1.499  16.559 -0.6127 -1.8413 -0.3412
 8041SOL    HW235757   3.832   1.575  16.640  0.1527 -2.1923  1.1476
 8042SOL     OW35758   1.606   2.181   8.780 -0.0147  0.0202  0.4850
 8042SOL    HW135759   1.575   2.187   8.870  0.6252  0.8017  0.6553
 8042SOL    HW235760   1.673   2.249   8.784  0.3834 -0.3680  0.4073
 8043SOL     OW35761   4.687   1.337   2.243 -0.1301  0.3781 -0.2185
 8043SOL    HW135762   0.042   1.340   2.227 -0.1318  0.1598 -0.2794
 8043SOL    HW235763   4.692   1.242   2.257  0.5998  0.6211  1.1489
 8044SOL     OW35764   0.917   2.566   0.627 -0.3298 -0.2257 -0.5323
 8044SOL    HW135765   0.934   2.502   0.558 -0.3667 -1.8269  0.9381
 8044SOL    HW235766   0.998   2.617   0.626 -0.8788  0.6554  0.1662
 8045SOL     OW35767   4.224   0.222   2.632  0.0717 -0.2894 -0.4078
 8045SOL    HW135768   4.154   0.246   2.571  0.3903  2.9102  0.4765
 8045SOL    HW235769   4.255   0.312   2.643 -1.3995  0.3156 -1.2652
 8046SOL     OW35770   0.101   4.250   0.378 -0.1259  0.3830  1.0056
 8046SOL    HW135771   0.186   4.254   0.422  0.2309 -1.0566  0.4441
 8046SOL    HW235772   0.053   4.173   0.409 -2.1254  1.0274 -0.4753
 8047SOL     OW35773   0.030   4.527   7.793  0.3726 -0.6745 -0.8688
 8047SOL    HW135774   4.721   4.463   7.844 -0.5060 -0.5569 -1.5647
 8047SOL    HW235775   0.019   4.490   7.705  0.5813 -3.0291  0.0891
 8048SOL     OW35776   4.729   1.813   3.609 -0.5003  0.6173  0.1710
 8048SOL    HW135777   4.690   1.823   3.696  3.4521 -1.4833  2.2243
 8048SOL    HW235778   0.031   1.728   3.624 -1.0817  0.2511 -0.3044
 8049SOL     OW35779   1.460   4.709   1.480  0.1979 -0.0080  0.5588
 8049SOL    HW135780   1.480   0.062   1.471 -0.1783 -0.1336 -1.5052
 8049SOL    HW235781   1.494   4.679   1.564 -2.1164  0.0008  1.5037
 8050SOL     OW35782   0.328   3.219   2.501 -0.0112  0.0420  0.5585
 8050SOL    HW135783   0.334   3.173   2.585  0.4590  0.5216  0.7865
 8050SOL    HW235784   0.345   3.310   2.525 -1.2718 -0.3504  2.9157
 8051SOL     OW35785   2.925   2.926   6.978  0.1186  0.5610  0.2099
 8051SOL    HW135786   2.837   2.889   6.985  0.3178 -0.2245 -1.4453
 8051SOL    HW235787   2.905   2.998   6.919 -1.2562 -0.6342 -0.7832
 8052SOL     OW35788   3.016   0.870   3.732 -0.6991  0.8362  0.3113
 8052SOL    HW135789   3.097   0.819   3.729 -1.1712  0.0415  0.9353
 8052SOL    HW235790   2.963   0.816   3.673 -1.3975 -0.1567  1.8346
 8053SOL     OW35791   2.933   2.767   3.799  0.0474  0.2357  0.1106
 8053SOL    HW135792   2.952   2.756   3.892 -0.3434  0.3953  0.2082
 8053SOL    HW235793   2.925   2.862   3.800 -0.6734  0.1827 -0.3475
 8054SOL     OW35794   0.066   3.763   5.771 -0.2567 -0.4036 -0.1776
 8054SOL    HW135795   0.059   3.793   5.680  1.9160  1.6784  0.3559
 8054SOL    HW235796   0.151   3.794   5.801  0.2919 -1.2125 -0.8771
 8055SOL     OW35797   1.389   2.364  11.252  0.8417  0.6371  0.0947
 8055SOL    HW135798   1.312   2.330  11.207  0.1006  0.9685  1.1025
 8055SOL    HW235799   1.388   2.457  11.231  1.7582  0.4564 -0.7704
 8056SOL     OW35800   2.848   3.167  13.647 -0.0458 -0.3837 -0.1542
 8056SOL    HW135801   2.757   3.144  13.666 -0.1224  1.6476  1.9716
 8056SOL    HW235802   2.871   3.227  13.717 -0.6402  1.3000 -1.3886
 8057SOL     OW35803   4.231   0.958   9.430  0.2251  0.0748  0.3315
 8057SOL    HW135804   4.178   0.895   9.478 -0.0484  1.6110  2.0485
 8057SOL    HW235805   4.205   1.040   9.471  1.8812 -0.4314  2.3471
 8058SOL     OW35806   2.880   2.789   1.293 -0.2852 -0.2395 -0.3117
 8058SOL    HW135807   2.882   2.845   1.215  2.9184  1.7021  1.1782
 8058SOL    HW235808   2.792   2.753   1.280  0.7802 -2.8869 -0.1870
 8059SOL     OW35809   4.074   2.676   7.155  0.3034 -0.3011  0.2616
 8059SOL    HW135810   4.043   2.646   7.240  0.5271 -0.4798  0.2809
 8059SOL    HW235811   3.993   2.688   7.106  1.8246  1.7798 -1.7410
 8060SOL     OW35812   1.257   4.241   6.750 -0.1158  0.5628  0.5177
 8060SOL    HW135813   1.199   4.264   6.677 -1.3270  0.3911  1.4137
 8060SOL    HW235814   1.340   4.269   6.713  0.6369  0.2700  1.9967
 8061SOL     OW35815   0.611   2.800   5.498  0.5456 -0.5245 -0.5153
 8061SOL    HW135816   0.682   2.838   5.447  2.1139 -2.4636  0.2170
 8061SOL    HW235817   0.610   2.709   5.468 -0.3464  0.0738 -2.2313
 8062SOL     OW35818   4.291   0.543  13.568  0.3465  0.0534  0.1137
 8062SOL    HW135819   4.348   0.503  13.503 -0.9081 -0.8533 -0.4243
 8062SOL    HW235820   4.215   0.487  13.553  1.2297 -1.1576  0.1474
 8063SOL     OW35821   4.586   1.261  10.872 -0.2393 -0.2213  0.2053
 8063SOL    HW135822   4.572   1.335  10.931  0.9559 -0.6791  1.0613
 8063SOL    HW235823   4.505   1.213  10.856 -0.5710  0.0941  0.9311
 8064SOL     OW35824   1.579   2.994   9.813  0.1781 -0.6213 -0.1077
 8064SOL    HW135825   1.583   2.946   9.896  1.5683 -0.4143 -0.0657
 8064SOL    HW235826   1.554   3.084   9.833 -0.3638 -0.5892 -0.9117
 8065SOL     OW35827   3.424   1.696  11.030 -0.1631 -0.1904 -0.7470
 8065SOL    HW135828   3.392   1.607  11.014 -1.7812  0.0790  0.9257
 8065SOL    HW235829   3.514   1.691  10.998  0.7350  0.9081  1.5751
 8066SOL     OW35830   2.009   2.970   1.202  0.1733  0.0222 -0.6127
 8066SOL    HW135831   1.956   2.893   1.183  3.3626 -2.6002  1.0670
 8066SOL    HW235832   1.953   3.043   1.174 -0.8995 -0.7310 -0.4236
 8067SOL     OW35833   0.004   3.781   6.087  0.4263  0.0186  0.3943
 8067SOL    HW135834   0.084   3.806   6.041 -0.8922 -1.2596 -2.5328
 8067SOL    HW235835   4.724   3.864   6.132 -0.5981 -0.5687  1.0270
 8068SOL     OW35836   4.717   2.604   7.743 -0.1394 -0.0656 -0.1428
 8068SOL    HW135837   4.649   2.537   7.755  1.9949 -2.1906  0.2492
 8068SOL    HW235838   4.672   2.673   7.696 -1.3809 -1.2915 -0.7462
 8069SOL     OW35839   2.704   1.757   3.395 -0.3581  0.3025 -0.1603
 8069SOL    HW135840   2.737   1.707   3.319  1.3307 -0.4829  1.0881
 8069SOL    HW235841   2.648   1.818   3.348  0.7196 -0.1084 -2.0057
 8070SOL     OW35842   1.928   4.437  11.688 -0.1558  0.3282 -0.5458
 8070SOL    HW135843   1.950   4.445  11.595  1.5628 -0.1817 -0.1824
 8070SOL    HW235844   1.879   4.355  11.687 -0.2550  0.3879 -0.5571
 8071SOL     OW35845   4.657   0.849   9.914 -0.2053 -0.0007  0.5637
 8071SOL    HW135846   4.648   0.775   9.854  0.8957 -0.1109  0.5263
 8071SOL    HW235847   4.735   0.897   9.885  0.5218 -1.0731  0.7340
 8072SOL     OW35848   0.615   1.448   4.300 -0.2291  0.4170 -0.2617
 8072SOL    HW135849   0.657   1.377   4.252 -3.1514  0.0887 -2.3260
 8072SOL    HW235850   0.645   1.518   4.241 -0.0324  2.7722  2.5956
 8073SOL     OW35851   2.346   0.951   7.681 -0.2294  0.5127 -0.4693
 8073SOL    HW135852   2.364   1.044   7.693  0.7642  0.0496  1.5261
 8073SOL    HW235853   2.332   0.961   7.587 -1.1273  1.4698 -0.2350
 8074SOL     OW35854   3.456   1.004   3.890 -0.5690  0.0554  0.0496
 8074SOL    HW135855   3.369   1.041   3.878  0.0455  2.4157  2.9090
 8074SOL    HW235856   3.504   1.071   3.938 -0.1927  1.1288 -1.8238
 8075SOL     OW35857   0.281   0.578   4.213 -0.0966 -0.1713  0.3220
 8075SOL    HW135858   0.308   0.640   4.281  2.9882 -2.6123  1.3284
 8075SOL    HW235859   0.324   0.624   4.142  0.3528 -1.5035 -0.2800
 8076SOL     OW35860   1.128   3.922  13.106 -0.1571  0.1099 -0.2636
 8076SOL    HW135861   1.170   3.991  13.054  1.1190 -0.3432  0.1600
 8076SOL    HW235862   1.069   3.882  13.042 -0.7623 -0.0688  0.4193
 8077SOL     OW35863   1.444   2.685   2.388  0.4021  0.2203  0.4899
 8077SOL    HW135864   1.413   2.646   2.306  0.2676  0.8431  0.2396
 8077SOL    HW235865   1.373   2.749   2.399  2.8465  2.8633  0.6761
 8078SOL     OW35866   4.163   4.260   3.918  0.5090  0.0751 -0.5545
 8078SOL    HW135867   4.247   4.303   3.903  0.6189 -0.7586 -2.3142
 8078SOL    HW235868   4.105   4.336   3.914 -0.0912 -0.3912 -0.8056
 8079SOL     OW35869   0.223   4.342   3.019  0.2625 -0.2164  0.1861
 8079SOL    HW135870   0.282   4.272   2.992  0.5994  0.5475 -1.0450
 8079SOL    HW235871   0.187   4.375   2.937  0.5570 -0.5273 -0.0635
 8080SOL     OW35872   3.155   3.763   0.404  0.6974  0.2110 -0.5117
 8080SOL    HW135873   3.125   3.726   0.322 -0.3451  0.3007 -0.1628
 8080SOL    HW235874   3.174   3.691   0.464 -0.9573  0.2173  0.0157
 8081SOL     OW35875   1.250   3.628   7.688  0.1781  0.4631 -0.4021
 8081SOL    HW135876   1.319   3.587   7.636 -0.7272 -1.8064  0.2122
 8081SOL    HW235877   1.292   3.713   7.700  2.0892 -0.6444  0.7278
 8082SOL     OW35878   0.876   1.245   6.987  0.0686 -0.4105 -0.7509
 8082SOL    HW135879   0.939   1.305   7.026  0.5252 -1.5800  0.3162
 8082SOL    HW235880   0.797   1.293   7.011 -0.3661 -0.6490 -1.7163
 8083SOL     OW35881   3.453   0.593  15.780 -0.5262  0.0675  0.2454
 8083SOL    HW135882   3.514   0.523  15.760  1.1389  2.3811 -2.7789
 8083SOL    HW235883   3.465   0.578  15.874 -1.0479  1.3569  0.5173
 8084SOL     OW35884   3.117   3.107   4.200 -0.0320 -0.0861  0.5341
 8084SOL    HW135885   3.152   3.055   4.128 -2.4628  0.0327 -0.7379
 8084SOL    HW235886   3.024   3.109   4.176  1.1115  3.4267 -3.5672
 8085SOL     OW35887   3.978   3.362   3.214 -0.1961  0.1034 -0.3474
 8085SOL    HW135888   4.023   3.368   3.130 -1.7892  0.1634 -1.1987
 8085SOL    HW235889   3.950   3.270   3.210 -0.9213  0.3254 -0.3831
 8086SOL     OW35890   2.293   4.175  12.936  0.3849 -0.2935 -0.2100
 8086SOL    HW135891   2.334   4.171  12.850 -0.7736  0.4477 -0.8046
 8086SOL    HW235892   2.202   4.155  12.912  0.2545  1.6015 -1.3366
 8087SOL     OW35893   3.271   3.105   4.490  0.4567  0.3074 -0.8980
 8087SOL    HW135894   3.187   3.061   4.475 -0.2059  1.3907 -0.3295
 8087SOL    HW235895   3.297   3.053   4.566 -0.4666  0.1388 -0.6970
 8088SOL     OW35896   3.793   2.423   7.087  0.2185 -0.0626 -0.8606
 8088SOL    HW135897   3.855   2.454   7.152 -2.9675  0.8492  1.7089
 8088SOL    HW235898   3.723   2.487   7.092 -0.4719 -0.5679 -3.9362
 8089SOL     OW35899   0.314   2.329   9.244  0.5392 -0.6554 -0.2349
 8089SOL    HW135900   0.256   2.371   9.181  1.7150  1.3330  0.0275
 8089SOL    HW235901   0.398   2.341   9.201  0.6622 -0.4055  0.0691
 8090SOL     OW35902   1.470   1.975   5.375  0.2640  0.0315  0.2931
 8090SOL    HW135903   1.459   1.881   5.369 -1.2326  0.1888  0.6227
 8090SOL    HW235904   1.382   2.008   5.390 -0.6776 -3.0607  1.5348
 8091SOL     OW35905   0.903   4.328   2.876  0.3009  0.0219 -0.1628
 8091SOL    HW135906   0.843   4.368   2.813 -0.2652  1.2240  1.1262
 8091SOL    HW235907   0.872   4.238   2.872 -0.8367  0.4253 -0.6275
 8092SOL     OW35908   1.781   3.015  17.168  0.9976 -0.3595 -0.2734
 8092SOL    HW135909   1.692   3.034  17.140  0.9456 -0.9203 -0.4891
 8092SOL    HW235910   1.769   2.964  17.248  0.6949  0.8195  0.4391
 8093SOL     OW35911   4.130   0.968   1.975  0.6304  0.2934 -0.3709
 8093SOL    HW135912   4.168   0.885   2.005  2.3463  0.9547 -0.7212
 8093SOL    HW235913   4.135   1.013   2.059  0.9985  0.9321 -0.7370
 8094SOL     OW35914   2.586   4.129   5.924 -0.3923 -0.0158  0.0478
 8094SOL    HW135915   2.553   4.072   5.854 -1.1339  1.2444 -0.6281
 8094SOL    HW235916   2.596   4.064   5.994  1.5299  0.7541  0.4997
 8095SOL     OW35917   0.371   1.958   6.948  0.4715  0.4565 -0.2012
 8095SOL    HW135918   0.449   1.956   6.892  1.0523  0.0110  0.6277
 8095SOL    HW235919   0.316   1.920   6.879 -1.3815 -0.2938  1.7192
 8096SOL     OW35920   1.478   3.319   7.241 -0.3750 -0.0016  0.0760
 8096SOL    HW135921   1.466   3.262   7.317 -1.2530  0.5921  0.3732
 8096SOL    HW235922   1.396   3.312   7.192 -1.0188  0.0855  1.1297
 8097SOL     OW35923   2.028   4.110   5.694 -0.7684  0.0752  0.1005
 8097SOL    HW135924   1.966   4.151   5.634 -1.2997 -1.0671 -0.1406
 8097SOL    HW235925   1.989   4.125   5.781  0.3366 -0.4344  0.6865
 8098SOL     OW35926   4.309   0.156   5.756  0.0613 -0.4362 -0.6633
 8098SOL    HW135927   4.280   0.131   5.844  0.2633 -1.0750 -0.7754
 8098SOL    HW235928   4.332   0.068   5.725  0.4474 -0.1302 -1.2519
 8099SOL     OW35929   0.010   3.093   3.924 -0.2114  0.4614  0.5500
 8099SOL    HW135930   4.701   3.029   3.976  0.5404 -2.7266 -2.6587
 8099SOL    HW235931   0.002   3.060   3.834  1.2066 -0.3186  0.7052
 8100SOL     OW35932   3.299   2.053   3.658 -0.0799  0.3063 -0.2580
 8100SOL    HW135933   3.261   2.029   3.574 -2.6959  1.3442  0.6543
 8100SOL    HW235934   3.237   2.019   3.722  0.0203  0.6890  0.0397
 8101SOL     OW35935   0.183   0.527   5.735 -0.0680 -0.2781 -0.0308
 8101SOL    HW135936   0.275   0.502   5.724  0.3758  0.1868  2.5065
 8101SOL    HW235937   0.171   0.588   5.663  0.8062  0.1932  0.2227
 8102SOL     OW35938   3.504   0.612  14.627 -0.7211 -0.3676  0.5088
 8102SOL    HW135939   3.492   0.672  14.553  1.5647 -0.1957  0.2534
 8102SOL    HW235940   3.473   0.530  14.590  0.2227 -0.9748  1.0382
 8103SOL     OW35941   1.251   1.959   6.922 -0.4271 -0.6908  0.2099
 8103SOL    HW135942   1.175   2.003   6.959 -0.4867 -0.1537 -0.5522
 8103SOL    HW235943   1.283   1.910   6.998  2.0680  1.8187  0.7597
 8104SOL     OW35944   0.004   2.106   2.042 -0.1912  0.0610  0.4199
 8104SOL    HW135945   4.650   2.127   2.036 -0.1411  0.3918  0.7980
 8104SOL    HW235946   0.021   2.150   2.126 -0.4511 -1.5087  1.2961
 8105SOL     OW35947   2.131   1.212  11.388 -0.9011  0.0269 -0.1936
 8105SOL    HW135948   2.197   1.266  11.344  1.1343 -1.4865  0.9987
 8105SOL    HW235949   2.179   1.130  11.399 -0.1179  0.7515  1.7968
 8106SOL     OW35950   4.367   2.433  11.070 -0.0358  0.1122  0.1636
 8106SOL    HW135951   4.356   2.482  10.989 -0.0109 -1.3427 -0.7017
 8106SOL    HW235952   4.423   2.496  11.117  1.0695  1.2610 -2.7047
 8107SOL     OW35953   0.959   4.293   4.057 -0.1927 -0.2056  0.1838
 8107SOL    HW135954   1.013   4.318   4.133 -0.3788  0.0228  0.2425
 8107SOL    HW235955   0.885   4.247   4.095  0.6869 -3.1292 -1.6998
 8108SOL     OW35956   3.838   3.849   5.667  0.3254  0.1611 -0.5886
 8108SOL    HW135957   3.874   3.774   5.714  0.2569 -0.5547 -1.6738
 8108SOL    HW235958   3.794   3.898   5.736 -0.7384 -1.1210 -0.3581
 8109SOL     OW35959   4.282   2.411   2.352 -0.2682 -0.3359 -0.0696
 8109SOL    HW135960   4.199   2.456   2.368  0.5218  1.4213 -0.9849
 8109SOL    HW235961   4.263   2.324   2.316 -1.8393  0.7871 -1.9308
 8110SOL     OW35962   3.080   4.414  15.070  0.0885 -0.1437  0.4833
 8110SOL    HW135963   3.046   4.416  14.981  0.1669  0.0809  0.4601
 8110SOL    HW235964   3.017   4.356  15.114 -0.6692  0.8883  0.7603
 8111SOL     OW35965   1.587   2.914   6.651  0.5715  0.4523  0.1815
 8111SOL    HW135966   1.540   2.979   6.702  2.4030  2.3798 -0.5848
 8111SOL    HW235967   1.537   2.835   6.668 -0.1364  1.0977  1.0499
 8112SOL     OW35968   3.228   1.734   2.763 -0.0111 -0.1557 -0.2505
 8112SOL    HW135969   3.190   1.711   2.678 -0.2676 -2.3802  0.4717
 8112SOL    HW235970   3.157   1.776   2.811 -0.9617 -1.9737 -0.0762
 8113SOL     OW35971   2.025   1.187  10.431  0.2923  0.1084 -0.1009
 8113SOL    HW135972   2.071   1.254  10.482  1.1389  0.3549 -1.1982
 8113SOL    HW235973   1.986   1.128  10.496 -0.0541  1.9121  1.3041
 8114SOL     OW35974   1.261   3.120   5.446  0.1584  0.2751 -0.1247
 8114SOL    HW135975   1.326   3.050   5.444 -2.0239 -1.7279 -1.9432
 8114SOL    HW235976   1.244   3.117   5.540  0.0401 -1.7363 -0.2019
 8115SOL     OW35977   2.006   4.573   3.514  0.2365 -0.0448 -0.3778
 8115SOL    HW135978   1.925   4.595   3.467 -0.0913  1.3423  0.8612
 8115SOL    HW235979   1.999   4.625   3.594 -1.3871 -0.8987  0.0331
 8116SOL     OW35980   4.495   0.801   0.939 -0.1298 -0.0492 -0.7079
 8116SOL    HW135981   4.540   0.864   0.882  0.7297  1.5387  1.7352
 8116SOL    HW235982   4.413   0.849   0.945 -0.4011 -0.4724 -1.0943
 8117SOL     OW35983   1.931   4.369   7.900  0.2494  0.5435 -0.3228
 8117SOL    HW135984   1.941   4.407   7.987  0.5345  0.1192 -0.1740
 8117SOL    HW235985   1.993   4.297   7.912  0.4348  0.7975  0.2406
 8118SOL     OW35986   4.102   0.491   1.530 -0.2262  0.1987  0.6186
 8118SOL    HW135987   4.062   0.576   1.512  0.2059  0.3717  0.4721
 8118SOL    HW235988   4.195   0.509   1.518 -0.6388  1.9272  0.0409
 8119SOL     OW35989   1.027   3.748   5.618  0.3794 -0.1345 -0.1289
 8119SOL    HW135990   1.102   3.780   5.568  1.6814 -2.6591  0.2010
 8119SOL    HW235991   1.082   3.684   5.663  2.3614  1.3794 -0.4183
 8120SOL     OW35992   1.891   3.446   4.785 -0.0502 -0.1838 -0.2414
 8120SOL    HW135993   1.927   3.357   4.784  1.9307  0.6056  0.7285
 8120SOL    HW235994   1.950   3.486   4.721  1.5272 -2.6278 -0.3011
 8121SOL     OW35995   4.399   4.449   4.225  0.0198  0.5722  0.3062
 8121SOL    HW135996   4.423   4.404   4.306  1.0669  0.8078  0.1249
 8121SOL    HW235997   4.467   4.414   4.168  0.5401  1.9672  0.0682
 8122SOL     OW35998   1.480   2.904   5.780 -0.2896  0.4924 -0.1930
 8122SOL    HW135999   1.389   2.898   5.809  0.0782  0.5522  0.9620
 8122SOL    HW236000   1.466   2.901   5.685  1.3447 -1.7098 -0.3566
 8123SOL     OW36001   0.658   4.015   3.471  0.3545 -0.7431  0.1397
 8123SOL    HW136002   0.703   4.079   3.417  0.9148 -2.0012 -0.8916
 8123SOL    HW236003   0.734   3.994   3.525  1.7223 -0.3818 -1.6433
 8124SOL     OW36004   1.236   1.171   3.762 -0.3941  0.5160 -0.3353
 8124SOL    HW136005   1.307   1.189   3.701  0.3734 -0.7661  0.1735
 8124SOL    HW236006   1.205   1.259   3.782 -3.7578 -0.5645 -0.6092
 8125SOL     OW36007   2.989   2.542  11.882  0.7265  0.4129 -0.0459
 8125SOL    HW136008   2.935   2.557  11.959 -1.3142  0.6942 -1.5451
 8125SOL    HW236009   3.077   2.546  11.918 -0.3038  1.1086  2.3584
 8126SOL     OW36010   2.690   0.425   5.263  0.3824  1.0671  0.0622
 8126SOL    HW136011   2.761   0.370   5.230  0.6002  2.3305 -1.5615
 8126SOL    HW236012   2.742   0.452   5.338 -1.4130 -0.9103  2.0109
 8127SOL     OW36013   1.423   4.589   2.949 -0.7173  0.3859  1.0525
 8127SOL    HW136014   1.337   4.600   2.989 -0.0156  1.9322  2.1730
 8127SOL    HW236015   1.410   4.635   2.866  1.6448 -0.6671  0.0868
 8128SOL     OW36016   3.387   2.453   7.477 -0.4696  0.2982 -0.6225
 8128SOL    HW136017   3.415   2.527   7.424 -1.3025  1.3766  0.4617
 8128SOL    HW236018   3.353   2.397   7.407  1.1165 -1.1974 -0.2110
 8129SOL     OW36019   2.608   1.850  16.107 -0.0879  0.2031 -0.0865
 8129SOL    HW136020   2.578   1.778  16.163  1.1080 -0.5426 -0.4109
 8129SOL    HW236021   2.689   1.808  16.080 -0.4480 -0.4541 -0.1427
 8130SOL     OW36022   3.523   3.608  13.743  0.0867  0.4030 -0.5373
 8130SOL    HW136023   3.523   3.513  13.742  0.0092  0.3439  4.2812
 8130SOL    HW236024   3.430   3.623  13.723 -0.3095 -0.4744  0.6714
 8131SOL     OW36025   0.029   4.649  11.468  0.3531 -0.0161 -0.0321
 8131SOL    HW136026   0.038   4.646  11.564  0.2474 -1.1878 -0.0632
 8131SOL    HW236027   0.119   4.678  11.452  0.3275 -0.6046 -1.2368
 8132SOL     OW36028   3.239   1.609   0.065 -0.0010  0.1508  0.6506
 8132SOL    HW136029   3.249   1.700   0.036  0.2027  0.8070  2.7675
 8132SOL    HW236030   3.271   1.560  17.745 -0.7906  0.5629  0.0505
 8133SOL     OW36031   2.565   2.337   4.138  0.4072  0.0036  0.0040
 8133SOL    HW136032   2.637   2.282   4.169  0.1133  0.9809  2.3840
 8133SOL    HW236033   2.534   2.364   4.225  1.5553 -2.7381  1.2706
 8134SOL     OW36034   3.942   3.989  16.597  0.0878  0.1176  0.6517
 8134SOL    HW136035   3.920   3.898  16.619  0.0067 -0.0910 -0.3222
 8134SOL    HW236036   3.882   4.035  16.657  0.6867  1.4070  0.2559
 8135SOL     OW36037   0.242   1.392   4.305  0.3980 -0.0438  0.0458
 8135SOL    HW136038   0.291   1.344   4.238 -0.1593 -1.2228  0.4788
 8135SOL    HW236039   0.152   1.387   4.274  1.2460 -1.1958 -2.2078
 8136SOL     OW36040   0.824   1.771   6.682  0.8326 -0.4256  0.2219
 8136SOL    HW136041   0.835   1.811   6.596 -2.7705  1.3706  0.5667
 8136SOL    HW236042   0.797   1.682   6.657 -2.0000  0.9500 -1.6304
 8137SOL     OW36043   3.482   3.277  10.168  0.1990  0.2108  0.0674
 8137SOL    HW136044   3.495   3.359  10.216  2.1074  0.5357 -1.0186
 8137SOL    HW236045   3.548   3.275  10.098 -0.2531  0.2715 -0.3565
 8138SOL     OW36046   2.830   4.103   4.541 -0.0559 -0.1676  0.0580
 8138SOL    HW136047   2.857   4.062   4.458  0.0746  3.5869 -1.7338
 8138SOL    HW236048   2.916   4.102   4.581  0.0183  2.5268 -0.0503
 8139SOL     OW36049   1.216   2.970  10.055 -0.1087  0.6546 -0.4215
 8139SOL    HW136050   1.279   2.980   9.983 -0.9003  1.3304 -1.0106
 8139SOL    HW236051   1.217   2.876  10.071  1.3910  0.8609  0.7372
 8140SOL     OW36052   3.031   4.607   0.299 -0.1883 -0.5163  0.2555
 8140SOL    HW136053   3.029   4.512   0.292  1.2421 -0.4070 -1.6342
 8140SOL    HW236054   3.102   4.624   0.361  1.5238  1.3186 -2.2122
 8141SOL     OW36055   3.980   2.170   3.069 -0.4234 -0.3750 -0.5310
 8141SOL    HW136056   3.982   2.075   3.054  1.1831  0.0926 -3.2552
 8141SOL    HW236057   3.887   2.181   3.091  0.3434  1.0653  1.9288
 8142SOL     OW36058   2.966   1.535  14.027 -0.1300 -0.6420  0.0884
 8142SOL    HW136059   2.948   1.592  13.951  1.0497  0.0554  0.3430
 8142SOL    HW236060   3.046   1.499  13.989  0.7887  3.2231 -1.6472
 8143SOL     OW36061   4.428   2.548  17.467  0.3164  0.1759  0.3202
 8143SOL    HW136062   4.433   2.459  17.500 -1.9733 -0.0187  0.1188
 8143SOL    HW236063   4.333   2.549  17.452  0.3896 -1.0061 -0.2096
 8144SOL     OW36064   1.714   2.952  10.972  0.1847 -0.2914  0.4290
 8144SOL    HW136065   1.765   3.000  10.906  0.4156 -1.3748 -0.1868
 8144SOL    HW236066   1.722   3.006  11.050 -0.9796  2.6629 -1.4876
 8145SOL     OW36067   1.229   1.226   4.683  0.6500 -0.1215 -0.1861
 8145SOL    HW136068   1.217   1.244   4.777 -2.3350  0.6757 -0.7173
 8145SOL    HW236069   1.176   1.294   4.641 -0.2911 -0.5768  0.2674
 8146SOL     OW36070   3.925   3.675  10.478  0.1739  0.1102 -0.1661
 8146SOL    HW136071   3.847   3.643  10.526  0.3993  1.9561  1.4448
 8146SOL    HW236072   3.943   3.610  10.410  1.5521  0.4558 -0.1274
 8147SOL     OW36073   4.343   2.433   6.367 -0.2123 -0.3687  0.3110
 8147SOL    HW136074   4.326   2.339   6.369  0.5793 -0.5222  0.0519
 8147SOL    HW236075   4.257   2.469   6.343  0.9746  1.0671 -1.7659
 8148SOL     OW36076   0.309   1.307   1.902 -0.0607  0.7252  0.4968
 8148SOL    HW136077   0.374   1.367   1.867 -1.9454  1.5733 -1.5149
 8148SOL    HW236078   0.286   1.249   1.830  0.3546  0.2188  0.7679
 8149SOL     OW36079   3.063   4.668   6.321 -0.2199  0.1019 -0.5658
 8149SOL    HW136080   3.026   4.587   6.354 -0.4666 -0.7618 -2.9635
 8149SOL    HW236081   3.064   4.721   6.401 -0.7237 -0.4934 -0.1670
 8150SOL     OW36082   0.053   3.985   7.650 -0.1527 -0.4628  0.2145
 8150SOL    HW136083   0.073   4.056   7.712 -2.3432 -2.4747  3.1721
 8150SOL    HW236084   0.102   4.022   7.576 -0.5042 -0.8819 -0.2263
 8151SOL     OW36085   2.582   1.646  16.284  0.3169 -0.0026  0.0684
 8151SOL    HW136086   2.546   1.640  16.372  0.2964  0.0944  0.0663
 8151SOL    HW236087   2.598   1.552  16.275  0.6764  0.1019 -0.3686
 8152SOL     OW36088   1.936   3.463   5.086  0.5576 -0.1287 -0.3662
 8152SOL    HW136089   1.996   3.389   5.095  0.2124 -0.3215  0.4499
 8152SOL    HW236090   1.932   3.456   4.991 -3.0977  2.0990 -0.3816
 8153SOL     OW36091   0.794   2.458  10.759  0.3855  0.8547  0.3699
 8153SOL    HW136092   0.812   2.551  10.775 -0.1672  1.0109  0.0715
 8153SOL    HW236093   0.830   2.448  10.671 -1.5014  0.0160 -0.2976
 8154SOL     OW36094   4.300   1.837   8.457 -0.3492 -0.0872  0.3739
 8154SOL    HW136095   4.262   1.916   8.495  1.5658 -0.1620  2.4340
 8154SOL    HW236096   4.382   1.859   8.501  0.1770  2.0617 -1.6536
 8155SOL     OW36097   2.216   4.652  16.495 -0.1799  1.2001 -0.1414
 8155SOL    HW136098   2.187   0.001  16.516 -1.3456  0.8206 -0.1638
 8155SOL    HW236099   2.290   4.684  16.442 -1.9939  2.2064 -2.0339
 8156SOL     OW36100   2.250   3.089   5.727  0.6063 -0.3805 -0.3942
 8156SOL    HW136101   2.258   3.184   5.732  0.7397 -0.4290  0.3327
 8156SOL    HW236102   2.157   3.069   5.739  0.3086  2.4224  2.0218
 8157SOL     OW36103   1.184   0.876   6.582 -0.0460 -0.2362 -0.1305
 8157SOL    HW136104   1.145   0.791   6.561 -0.2739 -0.3997  0.9583
 8157SOL    HW236105   1.273   0.857   6.612 -0.4470  0.0025  1.2187
 8158SOL     OW36106   0.956   0.530  16.569 -0.0474 -0.3118  0.3754
 8158SOL    HW136107   0.894   0.568  16.506  0.6314  0.4236  0.1655
 8158SOL    HW236108   1.038   0.546  16.523 -0.4073 -1.6592 -0.7364
 8159SOL     OW36109   0.075   0.355   8.056 -0.5982  0.1236 -0.6362
 8159SOL    HW136110   0.092   0.342   8.149 -1.0375 -0.1717 -0.5967
 8159SOL    HW236111   4.721   0.376   8.056 -0.2219  1.8141  1.1102
 8160SOL     OW36112   3.744   0.859   2.396  0.6022 -0.5227  0.0975
 8160SOL    HW136113   3.796   0.873   2.318 -0.4685  0.7076 -0.3863
 8160SOL    HW236114   3.739   0.763   2.402  1.1504 -0.6078 -0.8288
 8161SOL     OW36115   1.538   3.500   4.937  0.7032  0.4958 -0.0782
 8161SOL    HW136116   1.530   3.415   4.895 -1.1019  0.7590 -0.2604
 8161SOL    HW236117   1.563   3.472   5.026  0.5122 -0.8824 -0.4633
 8162SOL     OW36118   2.437   0.030  12.407  0.2392 -0.5549  0.1872
 8162SOL    HW136119   2.474   4.737  12.325 -0.0153  0.8911 -0.5037
 8162SOL    HW236120   2.380   4.695  12.428 -1.5306  0.8750  0.4470
 8163SOL     OW36121   3.051   3.349   6.996  0.2009  0.5410  0.1600
 8163SOL    HW136122   3.103   3.429   6.986 -0.1714  0.6360 -0.9600
 8163SOL    HW236123   3.085   3.324   7.082 -0.6607  0.4334  0.4678
 8164SOL     OW36124   1.524   2.341   6.936  0.5549 -0.8708  0.1466
 8164SOL    HW136125   1.441   2.336   6.889 -0.1459  0.5730  1.2290
 8164SOL    HW236126   1.541   2.435   6.932 -0.3964 -0.7373 -1.0371
 8165SOL     OW36127   0.922   0.321   3.682 -0.2012 -0.3268 -0.3228
 8165SOL    HW136128   0.957   0.407   3.658  1.8165 -0.3612  2.6064
 8165SOL    HW236129   0.930   0.332   3.777 -0.5397 -0.5711 -0.2643
 8166SOL     OW36130   1.091   1.834   9.020  0.6680 -0.5875 -0.0448
 8166SOL    HW136131   1.148   1.794   8.953  0.7598 -0.1482 -0.2274
 8166SOL    HW236132   1.139   1.917   9.014  0.4009 -0.4390 -0.1060
 8167SOL     OW36133   0.513   3.947   4.976  0.1263 -0.3736 -0.1494
 8167SOL    HW136134   0.453   3.915   5.043  1.7580 -2.1432  0.4605
 8167SOL    HW236135   0.556   3.865   4.951 -3.2160 -1.4671 -2.2043
 8168SOL     OW36136   2.395   2.150  16.118 -0.0580 -0.7461  0.6745
 8168SOL    HW136137   2.365   2.240  16.133 -1.5106 -1.0092 -0.8024
 8168SOL    HW236138   2.452   2.139  16.194  3.4999 -2.0364 -2.1709
 8169SOL     OW36139   2.836   2.565   3.570  0.4238 -0.5853  0.0227
 8169SOL    HW136140   2.798   2.634   3.624  0.4319  0.7949 -1.7184
 8169SOL    HW236141   2.808   2.589   3.482  0.4593  0.1324  0.2077
 8170SOL     OW36142   1.036   3.435   8.858 -0.6916  0.5052  0.2740
 8170SOL    HW136143   1.035   3.459   8.950  1.1309 -1.6060  0.8634
 8170SOL    HW236144   1.034   3.340   8.869  1.8939  0.4651  0.3922
 8171SOL     OW36145   1.105   0.589  16.086 -0.4544 -0.3555  0.3837
 8171SOL    HW136146   1.102   0.593  15.991  1.5419 -0.4076  0.3152
 8171SOL    HW236147   1.198   0.565  16.094 -0.6610 -0.9395  1.0868
 8172SOL     OW36148   4.591   3.678   2.179  0.0903 -0.1243  0.3314
 8172SOL    HW136149   4.599   3.707   2.089  1.1054 -0.3966  0.3423
 8172SOL    HW236150   4.681   3.655   2.200 -0.0643  0.6825  1.9154
 8173SOL     OW36151   0.403   3.333   9.560  0.5658  0.1708 -0.9525
 8173SOL    HW136152   0.363   3.329   9.473  0.7870 -1.1250 -0.9930
 8173SOL    HW236153   0.346   3.401   9.597 -0.2645 -0.8301 -0.4198
 8174SOL     OW36154   2.503   3.732  11.551 -0.3727  0.6752  0.7365
 8174SOL    HW136155   2.572   3.793  11.526  0.6363 -0.0242  1.8683
 8174SOL    HW236156   2.444   3.745  11.476  0.7477  1.7146  0.0287
 8175SOL     OW36157   1.428   4.723  10.818  0.4726 -0.3662  0.3293
 8175SOL    HW136158   1.486   0.004  10.891 -0.4459  2.2862  0.3326
 8175SOL    HW236159   1.365   4.665  10.860 -0.7913 -0.0167 -1.0715
 8176SOL     OW36160   2.840   2.727   5.896 -0.0716 -0.1949 -0.5741
 8176SOL    HW136161   2.912   2.726   5.833  0.3158 -0.2049 -0.1322
 8176SOL    HW236162   2.825   2.632   5.896 -0.2889 -0.1694  0.9744
 8177SOL     OW36163   2.246   0.670   8.776  0.2590  0.5725 -0.2131
 8177SOL    HW136164   2.258   0.739   8.840  2.4014 -2.1916  2.3616
 8177SOL    HW236165   2.152   0.667   8.758  0.3065  0.5412 -0.4580
 8178SOL     OW36166   4.269   2.055   7.103  0.0919 -0.3642  0.0947
 8178SOL    HW136167   4.289   2.072   7.011  0.6833 -1.8151 -0.0459
 8178SOL    HW236168   4.349   2.091   7.141  0.7797 -3.0323  1.1444
 8179SOL     OW36169   1.691   0.311   8.098  0.2639  0.1579 -0.3158
 8179SOL    HW136170   1.697   0.269   8.012  1.2606  0.7900 -0.5601
 8179SOL    HW236171   1.696   0.406   8.090  0.1711  0.5095  3.5908
 8180SOL     OW36172   2.851   1.134   7.514 -0.5587  0.1086 -0.4392
 8180SOL    HW136173   2.824   1.224   7.494 -0.3808  0.1965 -0.2888
 8180SOL    HW236174   2.912   1.133   7.587 -1.3824 -1.4512  0.2066
 8181SOL     OW36175   3.613   1.087   0.317 -0.2384 -0.3164 -0.8140
 8181SOL    HW136176   3.684   1.023   0.316 -1.5143 -1.7534 -0.7007
 8181SOL    HW236177   3.545   1.031   0.355  1.2581 -1.3945  0.2717
 8182SOL     OW36178   3.517   3.389  12.892 -0.1505  0.3002 -0.1725
 8182SOL    HW136179   3.491   3.387  12.799  0.2187 -1.4820 -0.2311
 8182SOL    HW236180   3.462   3.321  12.933  0.4232  0.0695  0.2100
 8183SOL     OW36181   4.456   2.976   3.997 -0.0461 -0.3512  0.2510
 8183SOL    HW136182   4.400   2.922   4.053 -0.9157 -0.6084 -0.8699
 8183SOL    HW236183   4.401   2.982   3.919 -1.7083  1.5479  1.5718
 8184SOL     OW36184   3.934   3.267   0.518 -1.0527  0.0995 -0.7704
 8184SOL    HW136185   3.850   3.225   0.534  0.1774 -2.0328  0.0816
 8184SOL    HW236186   3.908   3.358   0.535 -0.6745 -0.4443  2.7358
 8185SOL     OW36187   4.117   4.528   9.160 -0.5617  0.2256 -0.0325
 8185SOL    HW136188   4.157   4.550   9.076 -1.6735  0.6008 -0.4628
 8185SOL    HW236189   4.053   4.460   9.137  0.2293 -0.6731  0.4277
 8186SOL     OW36190   0.600   3.557   0.344  0.5497 -0.1274  0.4249
 8186SOL    HW136191   0.595   3.550   0.248  0.2752 -0.2868  0.4527
 8186SOL    HW236192   0.597   3.652   0.361 -0.5903  0.0881 -0.9294
 8187SOL     OW36193   3.531   1.249   8.319 -0.2226  0.3496  0.2977
 8187SOL    HW136194   3.446   1.228   8.281 -0.5385 -1.0272  1.7893
 8187SOL    HW236195   3.583   1.169   8.310  0.2044  0.6023  0.4881
 8188SOL     OW36196   2.490   2.957   5.243 -0.7404 -0.0516 -0.6932
 8188SOL    HW136197   2.414   2.989   5.195 -1.5916 -1.1754 -0.0829
 8188SOL    HW236198   2.548   2.967   5.167 -1.6825 -1.0249 -1.5425
 8189SOL     OW36199   0.937   1.399   8.094  0.0166 -1.1975  0.2280
 8189SOL    HW136200   0.846   1.427   8.087  0.6311  0.5846 -0.7259
 8189SOL    HW236201   0.913   1.307   8.104  0.0998 -1.0863  1.4603
 8190SOL     OW36202   4.014   1.677   8.748  0.6485 -0.3431 -0.0879
 8190SOL    HW136203   4.058   1.656   8.666 -0.0388 -1.6008 -0.1446
 8190SOL    HW236204   3.932   1.629   8.731 -0.7604  2.5647 -1.5477
 8191SOL     OW36205   0.255   2.279   3.017 -0.4750 -0.0032  0.5111
 8191SOL    HW136206   0.334   2.325   3.046 -0.3653 -0.5427  1.0799
 8191SOL    HW236207   0.238   2.222   3.093 -0.3015  1.4420  1.6325
 8192SOL     OW36208   2.947   0.680   2.561  0.5644  0.2672 -0.7043
 8192SOL    HW136209   2.930   0.639   2.476  0.0084  1.6736 -1.2781
 8192SOL    HW236210   3.043   0.682   2.562  0.6155 -2.1828 -2.6496
 8193SOL     OW36211   4.382   1.357   5.301  0.0737 -0.3226  0.0187
 8193SOL    HW136212   4.356   1.293   5.368  0.6103 -0.1377  0.4051
 8193SOL    HW236213   4.303   1.368   5.249  0.4969  2.1485 -0.0788
 8194SOL     OW36214   0.472   2.785  14.457  0.2456  0.4305  0.1069
 8194SOL    HW136215   0.426   2.702  14.474 -0.5479  1.5378  3.3801
 8194SOL    HW236216   0.493   2.817  14.544 -0.5069 -1.3081  0.9339
 8195SOL     OW36217   1.170   4.589   6.136  0.7071  0.0169  0.1330
 8195SOL    HW136218   1.187   4.502   6.173  4.4927  0.5798 -0.2195
 8195SOL    HW236219   1.144   4.640   6.212 -2.6741 -0.9234 -0.4254
 8196SOL     OW36220   0.880   1.340   7.609 -0.6085 -0.2828 -0.6594
 8196SOL    HW136221   0.797   1.296   7.631  0.0129 -0.4849  1.2727
 8196SOL    HW236222   0.880   1.417   7.666 -1.1620 -0.6701 -0.1294
 8197SOL     OW36223   1.575   4.574  14.247 -0.2430 -0.4046  0.2766
 8197SOL    HW136224   1.526   4.508  14.198  0.6205  1.0760 -2.6238
 8197SOL    HW236225   1.598   4.525  14.326  1.8672  0.0303 -0.0816
 8198SOL     OW36226   3.914   1.951   8.702  0.4194  0.2147  0.0886
 8198SOL    HW136227   3.967   1.880   8.738  0.2676  0.3359  0.5544
 8198SOL    HW236228   3.909   1.930   8.608  0.2392  1.3186 -0.1514
 8199SOL     OW36229   2.067   2.424   6.048  0.0866 -0.3811  0.7541
 8199SOL    HW136230   2.037   2.496   5.991  1.5153 -0.2280  0.1860
 8199SOL    HW236231   2.025   2.354   5.998 -1.8413  0.3567  1.3210
 8200SOL     OW36232   4.672   0.719   8.117  0.3722  0.3158  0.2811
 8200SOL    HW136233   4.611   0.669   8.171 -0.2001 -1.2808 -1.8153
 8200SOL    HW236234   4.674   0.798   8.170 -0.5935 -0.0485  0.8611
 8201SOL     OW36235   1.866   1.310   6.337 -0.9277 -1.1332 -0.2462
 8201SOL    HW136236   1.794   1.357   6.295 -0.2955 -1.1349 -1.3375
 8201SOL    HW236237   1.860   1.341   6.428  0.1866  0.8234 -0.8289
 8202SOL     OW36238   2.614   3.467  11.573 -0.3672 -0.4763  0.1513
 8202SOL    HW136239   2.628   3.553  11.614 -1.0215 -1.2739  2.0313
 8202SOL    HW236240   2.700   3.428  11.558  0.3888  0.6783  1.4113
 8203SOL     OW36241   1.054   1.144  14.372 -0.0177  0.2858 -0.1919
 8203SOL    HW136242   1.080   1.098  14.293 -2.2160 -0.7032 -0.3561
 8203SOL    HW236243   1.137   1.190  14.382  0.8872 -0.9412 -2.2708
 8204SOL     OW36244   1.536   1.858   5.762 -0.0389 -0.1463 -0.0078
 8204SOL    HW136245   1.506   1.936   5.810  0.0687 -0.2678  0.2565
 8204SOL    HW236246   1.472   1.860   5.691  1.1278 -0.9464 -1.0733
 8205SOL     OW36247   4.283   3.165   4.679 -0.1114  0.2932  0.6375
 8205SOL    HW136248   4.219   3.218   4.727 -1.9510 -1.4316  0.0788
 8205SOL    HW236249   4.279   3.080   4.724 -2.3052 -0.0341 -0.1894
 8206SOL     OW36250   4.437   4.687   2.189 -0.5579 -0.8014 -0.2448
 8206SOL    HW136251   4.385   4.652   2.116 -0.0738 -0.1383 -0.8957
 8206SOL    HW236252   4.371   0.005   2.226  1.6110  2.3046 -1.2740
 8207SOL     OW36253   0.637   0.910   7.547 -0.1448  0.0342 -0.0875
 8207SOL    HW136254   0.634   0.836   7.486 -1.0592 -1.0293  1.2641
 8207SOL    HW236255   0.550   0.933   7.579 -0.7228 -0.5572 -1.2117
 8208SOL     OW36256   4.398   2.683   8.669  0.2781 -0.1605 -0.2431
 8208SOL    HW136257   4.329   2.636   8.623  0.6681 -3.2957  2.3957
 8208SOL    HW236258   4.381   2.661   8.761 -1.0681 -5.0179 -1.6584
 8209SOL     OW36259   4.243   0.525   1.010 -0.3164 -0.3766 -0.0384
 8209SOL    HW136260   4.287   0.556   1.090 -0.6474  3.0701 -1.1705
 8209SOL    HW236261   4.237   0.611   0.968 -0.3907 -1.6224 -2.5270
 8210SOL     OW36262   0.848   2.767   1.394  0.3131  0.7548  0.3409
 8210SOL    HW136263   0.838   2.850   1.443 -1.6216  2.2672 -2.6251
 8210SOL    HW236264   0.887   2.713   1.462  1.2815 -2.2110 -2.6042
 8211SOL     OW36265   4.631   0.129   7.243 -0.1618 -0.0239  0.2033
 8211SOL    HW136266   4.684   0.209   7.236 -0.3480  0.2489  1.8869
 8211SOL    HW236267   4.542   0.162   7.249 -0.8951 -1.8827 -0.7121
 8212SOL     OW36268   2.958   3.685   6.120  0.3623  0.6077 -0.0520
 8212SOL    HW136269   2.912   3.604   6.098  0.1157  1.1891 -1.6012
 8212SOL    HW236270   2.943   3.696   6.214 -1.2205  0.6969 -0.3066
 8213SOL     OW36271   4.132   1.120   4.934 -0.1501 -0.2330 -0.2631
 8213SOL    HW136272   4.103   1.059   4.865 -0.0454  0.8446 -1.2663
 8213SOL    HW236273   4.224   1.097   4.936 -0.4244 -1.4065 -1.0124
 8214SOL     OW36274   2.244   1.538   5.745  0.1580  0.2208  0.1428
 8214SOL    HW136275   2.327   1.558   5.701  0.1004  1.0392  0.4065
 8214SOL    HW236276   2.182   1.548   5.673 -0.4181  0.7449  0.7192
 8215SOL     OW36277   2.039   2.623   6.839  0.0509 -0.0582 -0.0908
 8215SOL    HW136278   2.054   2.529   6.836 -1.0043 -0.2830  1.8996
 8215SOL    HW236279   2.114   2.663   6.794  0.2099 -0.5095 -0.2309
 8216SOL     OW36280   2.599   3.233   3.999  0.0451  0.2945 -0.7926
 8216SOL    HW136281   2.629   3.214   3.911  1.0153 -1.4895 -0.0665
 8216SOL    HW236282   2.536   3.302   3.978  0.6261  2.0344  3.2056
 8217SOL     OW36283   0.832   1.184   7.932 -0.5507 -0.2939 -0.6563
 8217SOL    HW136284   0.863   1.161   8.020 -0.1478 -0.9151 -0.9640
 8217SOL    HW236285   0.863   1.111   7.879  0.8087  1.1583 -1.8486
 8218SOL     OW36286   1.734   3.099  15.696 -0.3430 -0.3189  0.1814
 8218SOL    HW136287   1.678   3.147  15.758 -0.5117  0.8323 -0.8595
 8218SOL    HW236288   1.687   3.016  15.687  1.7758 -1.2217 -2.4164
 8219SOL     OW36289   3.104   2.025   0.492 -0.1695 -0.1272 -0.6390
 8219SOL    HW136290   3.087   2.091   0.425  1.0973  1.7897  0.9286
 8219SOL    HW236291   3.062   1.949   0.452 -2.1023  0.6966 -0.1681
 8220SOL     OW36292   3.660   0.821   9.894  0.3217 -0.3366 -0.0677
 8220SOL    HW136293   3.656   0.817   9.989  2.1328 -1.8247 -0.0673
 8220SOL    HW236294   3.708   0.900   9.870 -2.6020  1.6801  0.7339
 8221SOL     OW36295   1.984   1.874   9.201 -0.3290  0.2501  0.2987
 8221SOL    HW136296   2.075   1.897   9.182 -0.2581  1.1631  1.7845
 8221SOL    HW236297   1.940   1.918   9.128  0.4057  0.2790 -0.1285
 8222SOL     OW36298   1.923   2.550   6.261  0.0127  0.0324 -0.3684
 8222SOL    HW136299   1.951   2.542   6.170 -0.7435 -0.6284 -0.5437
 8222SOL    HW236300   1.849   2.490   6.263  1.7632 -2.0007  3.9072
 8223SOL     OW36301   2.871   3.489   1.270 -0.1143 -0.6661  0.4555
 8223SOL    HW136302   2.963   3.488   1.295 -0.7815 -0.7481  2.9528
 8223SOL    HW236303   2.826   3.526   1.346 -2.8292 -1.1929 -0.9000
 8224SOL     OW36304   1.773   3.741   8.928  0.0390 -0.7710  0.1971
 8224SOL    HW136305   1.736   3.662   8.966  0.4965 -1.0128  0.1344
 8224SOL    HW236306   1.866   3.725   8.943 -0.1055 -2.2593 -0.5366
 8225SOL     OW36307   2.366   4.519   1.570  0.4327 -1.1233  0.0364
 8225SOL    HW136308   2.391   4.572   1.646 -0.5949  0.8240 -1.0102
 8225SOL    HW236309   2.313   4.582   1.522 -0.1718 -2.4686 -1.0785
 8226SOL     OW36310   3.577   1.707   3.142 -0.1804 -0.1441  0.0866
 8226SOL    HW136311   3.530   1.624   3.138 -0.2715 -0.1094  0.5080
 8226SOL    HW236312   3.520   1.758   3.084 -1.1689  0.8476  1.9447
 8227SOL     OW36313   4.250   4.429   7.207 -0.3556 -0.2318  0.2632
 8227SOL    HW136314   4.231   4.522   7.194  0.5734 -0.1498 -0.5516
 8227SOL    HW236315   4.299   4.408   7.128 -0.0827  1.5080 -0.0364
 8228SOL     OW36316   3.385   4.211  15.078  0.2925  0.2638 -0.0617
 8228SOL    HW136317   3.394   4.301  15.047  0.1566  0.4690  0.4983
 8228SOL    HW236318   3.469   4.171  15.056  1.0485  2.1931 -0.7263
 8229SOL     OW36319   2.081   0.271   4.705  0.2085 -0.1791  0.3523
 8229SOL    HW136320   2.136   0.209   4.656  0.2576 -0.8710  1.2851
 8229SOL    HW236321   2.001   0.219   4.710  0.5260 -0.8111 -1.1130
 8230SOL     OW36322   0.974   3.857   7.273 -0.0680 -0.0637 -0.1599
 8230SOL    HW136323   0.986   3.832   7.182 -1.1958  0.0836 -0.3498
 8230SOL    HW236324   1.019   3.941   7.283 -2.3700  1.2353 -0.6109
 8231SOL     OW36325   2.985   2.186   1.463 -0.0256  0.0815  0.3248
 8231SOL    HW136326   2.913   2.245   1.483 -2.2739 -2.8155  0.8222
 8231SOL    HW236327   3.019   2.226   1.383  1.2473  0.5298  1.0793
 8232SOL     OW36328   3.955   1.253   4.540 -0.5676 -0.1617  0.2535
 8232SOL    HW136329   4.017   1.327   4.542 -0.0222 -0.6208  0.5704
 8232SOL    HW236330   3.941   1.248   4.446  3.4321 -0.0803 -0.3440
 8233SOL     OW36331   2.503   3.100   8.892 -0.7383 -0.0195 -0.6053
 8233SOL    HW136332   2.418   3.114   8.851  0.1305  2.5597 -1.5499
 8233SOL    HW236333   2.491   3.013   8.929  2.0594 -0.7052 -1.3066
 8234SOL     OW36334   3.748   0.318  11.393 -0.4919 -0.2820 -0.0618
 8234SOL    HW136335   3.814   0.380  11.362  0.2747 -0.8361  0.4632
 8234SOL    HW236336   3.708   0.377  11.456 -1.0596  1.2124 -1.8323
 8235SOL     OW36337   1.081   2.969   6.313 -0.3533  0.5783 -1.0373
 8235SOL    HW136338   1.079   3.051   6.362 -1.6431  0.0895 -0.2558
 8235SOL    HW236339   1.006   2.925   6.355 -0.0916  0.2862 -0.8812
 8236SOL     OW36340   1.879   0.158  12.053  0.7329  0.0960 -0.2689
 8236SOL    HW136341   1.834   0.235  12.089 -1.4788 -2.2704  2.0082
 8236SOL    HW236342   1.872   0.167  11.958 -1.0642  3.2989  0.1487
 8237SOL     OW36343   1.129   2.086   6.693 -0.2280 -0.2568 -0.2766
 8237SOL    HW136344   1.134   2.009   6.750 -0.0695  0.5654  0.8083
 8237SOL    HW236345   1.186   2.072   6.617 -1.1560  1.8750 -1.3461
 8238SOL     OW36346   2.587   4.295  15.593 -0.4817  0.5080 -0.2691
 8238SOL    HW136347   2.579   4.381  15.635 -0.5727  0.8315 -0.9630
 8238SOL    HW236348   2.501   4.257  15.608  1.3528 -3.1166  0.9041
 8239SOL     OW36349   1.432   0.392   5.050  0.7004 -0.3652 -0.0488
 8239SOL    HW136350   1.354   0.438   5.080  1.4705  0.2452  1.0000
 8239SOL    HW236351   1.469   0.474   5.018  0.2779 -0.5113 -0.9022
 8240SOL     OW36352   3.468   0.546   7.059 -0.7045  0.6007  0.3085
 8240SOL    HW136353   3.505   0.626   7.022  1.0374 -1.0541 -1.5032
 8240SOL    HW236354   3.375   0.555   7.037  0.3037  1.3764 -3.5067
 8241SOL     OW36355   0.133   2.018   4.183  0.5952 -0.2177 -0.2208
 8241SOL    HW136356   0.063   1.998   4.244  1.5649 -1.0039  0.6328
 8241SOL    HW236357   0.090   2.099   4.156 -0.8645 -0.5575  1.1164
 8242SOL     OW36358   2.249   0.338   7.832  0.2936 -0.1947 -0.3069
 8242SOL    HW136359   2.156   0.334   7.854  0.4730 -0.7128  0.3604
 8242SOL    HW236360   2.254   0.433   7.821  1.0033 -0.0472  1.2075
 8243SOL     OW36361   2.357   0.690   9.607 -0.2435 -0.4004  0.6390
 8243SOL    HW136362   2.328   0.708   9.517 -1.1833  0.0679  1.0454
 8243SOL    HW236363   2.285   0.635   9.636 -0.9907 -0.0219 -0.5193
 8244SOL     OW36364   4.418   1.075  13.713  0.2848  0.0169 -0.6538
 8244SOL    HW136365   4.329   1.102  13.687 -0.0091  1.4301  1.7526
 8244SOL    HW236366   4.468   1.120  13.646  1.2949  0.6126  0.4909
 8245SOL     OW36367   2.120   2.412   4.499 -0.0048 -0.4768  0.0343
 8245SOL    HW136368   2.113   2.455   4.413  0.9205 -0.6733 -0.1382
 8245SOL    HW236369   2.049   2.462   4.539  0.6580 -0.8904  1.7225
 8246SOL     OW36370   0.264   2.093   5.442  0.2990 -0.0251  0.0740
 8246SOL    HW136371   0.211   2.173   5.437 -0.4293 -0.7690 -3.7791
 8246SOL    HW236372   0.337   2.116   5.501  0.6534  1.6758 -1.0126
 8247SOL     OW36373   2.829   2.440   4.554 -0.2500  0.3832  0.1888
 8247SOL    HW136374   2.907   2.441   4.499 -0.0271  0.5399  0.5113
 8247SOL    HW236375   2.879   2.428   4.634  1.9143 -0.3051 -1.2584
 8248SOL     OW36376   3.339   2.715  15.258  0.0939  0.5136  0.0405
 8248SOL    HW136377   3.344   2.650  15.328 -1.1061 -0.5519 -0.8737
 8248SOL    HW236378   3.327   2.664  15.178  1.7551  0.4873 -0.1908
 8249SOL     OW36379   1.657   0.934  16.233 -0.4950  0.2962 -0.2413
 8249SOL    HW136380   1.740   0.974  16.208 -0.2123 -1.2632 -1.8005
 8249SOL    HW236381   1.595   0.992  16.188  0.5354 -1.6563 -4.1691
 8250SOL     OW36382   0.379   4.699  15.800 -0.7661  0.5338 -0.0862
 8250SOL    HW136383   0.420   0.043  15.776 -0.6970  1.1912  2.2592
 8250SOL    HW236384   0.289   4.727  15.814 -1.2864 -0.7249 -1.0198
 8251SOL     OW36385   3.768   1.754  15.650  0.3963 -0.3034  1.0132
 8251SOL    HW136386   3.728   1.667  15.655  1.0023 -0.6661 -0.3859
 8251SOL    HW236387   3.829   1.742  15.577 -1.4382 -0.3582 -0.5211
 8252SOL     OW36388   2.519   2.385   7.714  0.0772 -0.2523  0.1829
 8252SOL    HW136389   2.546   2.472   7.744 -0.0171  0.0385 -0.5867
 8252SOL    HW236390   2.589   2.331   7.752  1.8074  0.0863 -2.5834
 8253SOL     OW36391   0.366   0.273   4.212 -0.4674 -0.0404 -0.0120
 8253SOL    HW136392   0.346   0.355   4.255  0.9428  2.0399 -3.2830
 8253SOL    HW236393   0.289   0.249   4.161 -0.4044  0.5400 -0.3879
 8254SOL     OW36394   0.967   0.720   6.843  0.0211 -0.4606  0.0917
 8254SOL    HW136395   1.018   0.801   6.852  0.8372 -1.1727  1.8342
 8254SOL    HW236396   0.963   0.688   6.933 -1.8392  2.7419  1.1422
 8255SOL     OW36397   0.420   3.485   8.062 -0.0081  0.1369  0.9196
 8255SOL    HW136398   0.488   3.430   8.023 -0.7236  0.5008 -0.8262
 8255SOL    HW236399   0.438   3.497   8.155  0.2506 -0.9843  1.0214
 8256SOL     OW36400   3.688   1.680   0.563 -0.1841  0.3470  0.1743
 8256SOL    HW136401   3.657   1.765   0.595  0.2053  0.6358 -0.2218
 8256SOL    HW236402   3.695   1.621   0.638 -1.0175  0.5326  0.3990
 8257SOL     OW36403   2.955   3.346  15.889  0.0671 -0.1937 -0.1309
 8257SOL    HW136404   2.932   3.411  15.822  1.4431 -0.5032 -0.8984
 8257SOL    HW236405   3.050   3.339  15.886  0.2256  1.1565  1.7881
 8258SOL     OW36406   3.162   3.925   3.858 -0.2695  0.4337 -0.1683
 8258SOL    HW136407   3.113   3.846   3.834 -0.7084  0.3943  0.8645
 8258SOL    HW236408   3.213   3.893   3.932  0.5863  0.5672 -0.7088
 8259SOL     OW36409   1.727   4.104  12.493  0.0446  0.6246  0.1404
 8259SOL    HW136410   1.811   4.115  12.448 -0.7835  1.0162 -1.2735
 8259SOL    HW236411   1.685   4.189  12.493 -0.0282  0.5864 -0.6725
 8260SOL     OW36412   4.361   4.517  17.344  0.4419  0.1906 -0.2308
 8260SOL    HW136413   4.386   4.429  17.372 -3.6683 -1.1162 -0.5740
 8260SOL    HW236414   4.446   4.543  17.310  0.4646  1.7066  0.9903
 8261SOL     OW36415   2.794   1.580  12.808 -0.4741  0.4555 -0.0990
 8261SOL    HW136416   2.869   1.588  12.749 -0.7267 -0.9883 -0.6020
 8261SOL    HW236417   2.785   1.487  12.827 -2.3285  0.3703 -1.3369
 8262SOL     OW36418   1.593   4.187   2.602  0.1433  0.5522 -0.4803
 8262SOL    HW136419   1.610   4.235   2.522 -0.5636  0.3181 -0.7691
 8262SOL    HW236420   1.550   4.257   2.651 -0.2312 -0.2722  0.3870
 8263SOL     OW36421   4.064   3.206  12.416 -0.2142 -0.0473 -0.2904
 8263SOL    HW136422   4.073   3.281  12.475 -2.3045  0.3942 -0.5296
 8263SOL    HW236423   4.152   3.172  12.426 -1.0474 -1.2379  3.1358
 8264SOL     OW36424   0.700   3.899   8.904 -0.7916 -0.4223 -0.3007
 8264SOL    HW136425   0.745   3.851   8.973 -1.4085  1.1410  1.2037
 8264SOL    HW236426   0.675   3.833   8.839 -0.0211 -0.6519 -0.3624
 8265SOL     OW36427   4.214   2.215   7.456  0.3177  0.4870  0.2584
 8265SOL    HW136428   4.303   2.231   7.424  0.1336  1.4720  0.2334
 8265SOL    HW236429   4.227   2.121   7.463  0.0004  0.4226 -0.0344
 8266SOL     OW36430   0.255   1.011   9.163  0.3585 -0.3534  0.0968
 8266SOL    HW136431   0.224   1.026   9.074  0.0498 -3.0068 -0.2564
 8266SOL    HW236432   0.283   0.920   9.158  2.0950  0.1313  1.1735
 8267SOL     OW36433   0.831   1.448   8.448  0.3239 -0.1972  0.3612
 8267SOL    HW136434   0.740   1.421   8.434  0.7138 -0.8667 -0.8829
 8267SOL    HW236435   0.870   1.380   8.501 -0.3615  0.4608  1.6996
 8268SOL     OW36436   2.631   3.661   4.603  0.3756 -0.6247 -0.2016
 8268SOL    HW136437   2.651   3.621   4.687  0.2931 -0.3368 -0.0476
 8268SOL    HW236438   2.535   3.651   4.604  0.2748  0.3660 -0.3685
 8269SOL     OW36439   4.500   3.036   8.799  0.0610 -0.1687 -0.3147
 8269SOL    HW136440   4.411   3.012   8.822 -0.5695  3.2638  0.7274
 8269SOL    HW236441   4.501   2.995   8.712 -2.0183  0.1779 -0.5034
 8270SOL     OW36442   2.712   0.276   8.832  0.2286  0.0889 -0.5393
 8270SOL    HW136443   2.655   0.314   8.765  0.7572 -0.3821 -1.2575
 8270SOL    HW236444   2.662   0.262   8.912 -0.6023  0.4539 -0.9984
 8271SOL     OW36445   2.497   2.303  11.308  0.1461  0.2581 -0.3386
 8271SOL    HW136446   2.436   2.231  11.292 -0.9435  1.7010 -2.5420
 8271SOL    HW236447   2.578   2.257  11.329 -0.7772 -0.2296  2.2121
 8272SOL     OW36448   0.911   0.929   7.567  0.0367  0.3689  0.6042
 8272SOL    HW136449   0.818   0.907   7.570 -0.0896  0.8937  0.5688
 8272SOL    HW236450   0.932   0.941   7.660  0.2429  0.7976  0.5009
 8273SOL     OW36451   3.476   2.366   1.900  0.0726 -0.1946  0.1246
 8273SOL    HW136452   3.474   2.347   1.994  0.4067 -0.0772  0.1573
 8273SOL    HW236453   3.469   2.280   1.859  0.7295 -0.2172  0.0593
 8274SOL     OW36454   3.405   3.807   8.332  0.3529  0.0858 -0.6265
 8274SOL    HW136455   3.479   3.852   8.371  0.1255 -0.1753  0.0974
 8274SOL    HW236456   3.419   3.813   8.237 -1.4349  2.7359 -0.7064
 8275SOL     OW36457   0.885   4.345   7.091 -0.0156  0.7062 -0.1387
 8275SOL    HW136458   0.941   4.377   7.021  1.3307 -3.7770 -1.0697
 8275SOL    HW236459   0.801   4.387   7.075 -1.9942 -3.2688 -0.2393
 8276SOL     OW36460   0.372   3.996   6.393 -0.3560 -0.0408 -0.2748
 8276SOL    HW136461   0.464   4.002   6.368 -0.2796  2.4017  0.5894
 8276SOL    HW236462   0.333   4.006   6.306 -1.4006 -0.4648  0.1433
 8277SOL     OW36463   4.145   2.724   3.948 -0.1285  0.1268  0.1215
 8277SOL    HW136464   4.059   2.687   3.962 -1.0599  1.5790 -1.6914
 8277SOL    HW236465   4.134   2.816   3.973 -0.4059  0.0625  0.2299
 8278SOL     OW36466   1.318   3.280   2.783 -0.4690  0.4937 -0.3013
 8278SOL    HW136467   1.259   3.355   2.786 -1.5225 -0.4385  1.5501
 8278SOL    HW236468   1.373   3.304   2.857  2.5531 -0.5414 -2.1794
 8279SOL     OW36469   3.088   0.229  16.342 -0.0467 -0.5022  0.3059
 8279SOL    HW136470   3.183   0.222  16.347  0.0260 -0.5213 -1.1185
 8279SOL    HW236471   3.079   0.232  16.247  2.3184 -0.2791  0.0943
 8280SOL     OW36472   0.102   1.069   6.685 -0.5432 -0.1375  0.2641
 8280SOL    HW136473   0.074   1.004   6.749 -0.1728  0.9339  1.5135
 8280SOL    HW236474   0.089   1.151   6.732 -0.4686 -1.3089  2.3176
 8281SOL     OW36475   1.486   3.516   7.531 -0.8857 -0.3272 -0.4951
 8281SOL    HW136476   1.501   3.462   7.454 -1.4306 -1.8560  0.4657
 8281SOL    HW236477   1.569   3.560   7.547 -0.7427 -0.2057 -1.6214
 8282SOL     OW36478   4.603   0.862   1.181 -0.5596 -0.0359 -0.2766
 8282SOL    HW136479   4.519   0.902   1.204 -0.9407  1.3955 -4.0259
 8282SOL    HW236480   4.580   0.836   1.092 -0.6142 -1.1289  0.0626
 8283SOL     OW36481   2.227   0.348  16.246  0.0219 -0.3230  0.5033
 8283SOL    HW136482   2.247   0.407  16.173 -2.2633 -1.9266 -1.4055
 8283SOL    HW236483   2.133   0.364  16.242  0.3106  0.6427 -2.3799
 8284SOL     OW36484   0.825   3.365   2.444  0.2192  0.1944  0.1789
 8284SOL    HW136485   0.817   3.272   2.422  0.2102  0.3699 -0.5660
 8284SOL    HW236486   0.835   3.353   2.538 -1.6222  1.1858  0.4856
 8285SOL     OW36487   1.525   4.533  16.937 -0.0252  0.3314  0.2447
 8285SOL    HW136488   1.466   4.492  17.000 -0.8933  1.7388  0.3660
 8285SOL    HW236489   1.596   4.469  16.934 -0.7968 -0.5006 -0.4393
 8286SOL     OW36490   3.729   1.174  16.551 -0.1875 -0.4461  0.1935
 8286SOL    HW136491   3.772   1.095  16.517  0.5493  0.2261 -0.4195
 8286SOL    HW236492   3.717   1.225  16.470 -1.5680 -2.1624 -0.6887
 8287SOL     OW36493   2.855   1.762  16.057 -0.4141 -0.1328  0.3066
 8287SOL    HW136494   2.885   1.756  15.966 -0.9497  0.8042  0.0655
 8287SOL    HW236495   2.895   1.691  16.107 -0.1433 -0.1433  0.0726
 8288SOL     OW36496   3.679   1.411   4.465  0.2916 -0.0958  0.7125
 8288SOL    HW136497   3.689   1.441   4.375  0.1881  1.9506  1.3872
 8288SOL    HW236498   3.748   1.465   4.504  0.2490 -1.5764  2.8954
 8289SOL     OW36499   2.167   0.003   1.774 -0.4344 -0.1121  0.0420
 8289SOL    HW136500   2.165   0.056   1.854 -0.8313  0.3104 -0.2528
 8289SOL    HW236501   2.144   4.654   1.803 -1.1623  0.4058  1.0403
 8290SOL     OW36502   3.132   2.275   4.053 -0.0177  0.0487 -0.0983
 8290SOL    HW136503   3.104   2.323   3.975 -1.2013 -0.2709  0.1267
 8290SOL    HW236504   3.184   2.336   4.106 -1.5886  0.1814  1.3047
 8291SOL     OW36505   3.629   4.087   9.611  0.2051 -0.1331  0.2727
 8291SOL    HW136506   3.660   4.165   9.657  0.9979 -0.1622 -0.2176
 8291SOL    HW236507   3.584   4.119   9.533  0.0026  1.1330  0.9045
 8292SOL     OW36508   0.630   2.778   1.249 -0.1252  0.0022 -0.7560
 8292SOL    HW136509   0.654   2.740   1.164 -0.1633 -2.4491  0.3323
 8292SOL    HW236510   0.707   2.767   1.304 -0.0464  1.3232 -0.6066
 8293SOL     OW36511   1.342   4.286  17.414 -0.3372 -0.4627 -0.0073
 8293SOL    HW136512   1.350   4.378  17.440  2.2805 -1.2117  1.7831
 8293SOL    HW236513   1.374   4.254  17.498  2.3321  0.5188 -0.6573
 8294SOL     OW36514   2.608   4.264   4.540 -0.4364 -0.0998  0.3093
 8294SOL    HW136515   2.627   4.292   4.629  0.1876  0.2495  0.0639
 8294SOL    HW236516   2.683   4.207   4.525  1.0928  1.8885  0.4623
 8295SOL     OW36517   0.459   4.647   8.848  0.1086  0.3337 -0.4188
 8295SOL    HW136518   0.374   4.623   8.886  0.3157 -0.4069 -0.4174
 8295SOL    HW236519   0.489   4.713   8.911 -0.3160  0.3984 -0.2842
 8296SOL     OW36520   3.357   1.478   9.308  0.0185 -0.2991  0.5359
 8296SOL    HW136521   3.362   1.460   9.402 -1.5094 -0.3205  0.5997
 8296SOL    HW236522   3.305   1.404   9.279 -3.2163  1.3106  2.2678
 8297SOL     OW36523   4.677   0.705   4.907  0.0484 -0.1131  0.6538
 8297SOL    HW136524   4.655   0.796   4.927  1.2508  0.0825  1.1148
 8297SOL    HW236525   0.032   0.705   4.922 -0.0215 -2.8484  1.1358
 8298SOL     OW36526   3.606   1.895  12.138  0.4591  0.8261 -0.4449
 8298SOL    HW136527   3.655   1.813  12.139  0.4999  0.8393 -1.3649
 8298SOL    HW236528   3.677   1.955  12.114 -0.3485  1.6104 -0.8921
 8299SOL     OW36529   1.808   4.341  10.122 -0.3795  0.3674  0.9295
 8299SOL    HW136530   1.840   4.407  10.183  0.8065  1.5832 -1.0169
 8299SOL    HW236531   1.767   4.278  10.181  3.1439 -1.5542  1.2830
 8300SOL     OW36532   4.542   3.411   1.249 -0.2067 -0.3432 -0.6822
 8300SOL    HW136533   4.597   3.489   1.248 -2.1407  1.0530  0.8740
 8300SOL    HW236534   4.564   3.367   1.332  0.2003 -1.3929 -1.3480
 8301SOL     OW36535   4.100   1.701   5.986  0.3048 -0.3500 -0.1704
 8301SOL    HW136536   4.167   1.673   6.049 -1.1551 -1.2412  0.9699
 8301SOL    HW236537   4.026   1.726   6.041  2.2899 -1.0064  2.8332
 8302SOL     OW36538   4.250   0.157   7.564  0.9466 -0.1067 -0.7038
 8302SOL    HW136539   4.333   0.202   7.548  0.5200  0.0399 -2.4278
 8302SOL    HW236540   4.250   0.162   7.660  2.3801 -0.7157 -0.6756
 8303SOL     OW36541   0.363   0.592   1.018  0.2835 -0.3789  0.0588
 8303SOL    HW136542   0.420   0.668   1.027  0.4441 -0.4595 -0.2661
 8303SOL    HW236543   0.276   0.615   1.051 -0.7565 -1.7626 -1.6493
 8304SOL     OW36544   4.250   2.943   4.426  0.3057  0.0247  0.4524
 8304SOL    HW136545   4.210   3.030   4.426  0.1855 -0.0440 -1.1927
 8304SOL    HW236546   4.323   2.949   4.488 -0.1965 -0.3870  1.0830
 8305SOL     OW36547   4.581   4.006   8.209 -0.1033 -0.0262  0.2450
 8305SOL    HW136548   4.563   4.082   8.265  3.6185  0.6815  0.4498
 8305SOL    HW236549   4.595   3.940   8.278  1.8280  1.5500  1.3590
 8306SOL     OW36550   2.723   1.636  17.548  0.6393 -0.0336  0.2706
 8306SOL    HW136551   2.811   1.598  17.536  0.4755 -1.0266  2.1476
 8306SOL    HW236552   2.737   1.709  17.608  0.0018 -0.8669  1.4459
 8307SOL     OW36553   4.706   3.121  14.531  0.5854 -0.2069  0.5654
 8307SOL    HW136554   4.655   3.106  14.610  1.3348  0.6746  1.2207
 8307SOL    HW236555   4.657   3.198  14.501 -0.4680 -0.4652  1.6387
 8308SOL     OW36556   0.406   4.229   8.265  0.1945 -0.1418 -0.2994
 8308SOL    HW136557   0.390   4.163   8.198  1.4992 -0.3683 -0.3873
 8308SOL    HW236558   0.353   4.304   8.240  0.6895  0.6110  0.8487
 8309SOL     OW36559   3.572   3.330  13.733  0.1521 -0.2418  0.0007
 8309SOL    HW136560   3.504   3.271  13.702  0.8085 -1.0132  0.0459
 8309SOL    HW236561   3.644   3.316  13.673 -0.6783 -1.0209 -0.8146
 8310SOL     OW36562   1.840   2.745  10.575 -0.5833 -0.2491 -0.3443
 8310SOL    HW136563   1.845   2.747  10.671  0.9957  0.0623 -0.4409
 8310SOL    HW236564   1.899   2.674  10.550  0.9901  1.2223 -0.7392
 8311SOL     OW36565   3.521   0.271  16.373  0.3727  0.1783  0.1464
 8311SOL    HW136566   3.595   0.286  16.313 -1.2150 -0.0371 -1.8529
 8311SOL    HW236567   3.513   0.176  16.375  0.4435  0.1445 -0.8265
 8312SOL     OW36568   2.724   1.338   2.086 -0.0247  0.2232  0.0211
 8312SOL    HW136569   2.672   1.272   2.041 -0.9106  0.6181  0.4762
 8312SOL    HW236570   2.812   1.303   2.070 -0.3659 -0.7711  0.3255
 8313SOL     OW36571   2.846   2.615   2.481 -0.0721 -0.2180  1.0053
 8313SOL    HW136572   2.796   2.649   2.555 -1.8964 -1.1334  0.1900
 8313SOL    HW236573   2.830   2.684   2.416 -0.0275 -0.3797  0.8247
 8314SOL     OW36574   2.014   0.415   1.099  0.1075  0.5383  0.9686
 8314SOL    HW136575   1.939   0.415   1.158 -0.2857 -1.0394  0.4553
 8314SOL    HW236576   2.039   0.507   1.106 -0.8665  0.9367 -0.7479
 8315SOL     OW36577   1.033   4.420   7.339 -0.5355  0.7501 -0.0281
 8315SOL    HW136578   0.992   4.420   7.252 -1.7245 -0.1487  0.5239
 8315SOL    HW236579   0.972   4.360   7.383  0.2268 -0.9763 -1.3006
 8316SOL     OW36580   1.111   0.869   8.179  0.2332  0.4711 -0.1332
 8316SOL    HW136581   1.202   0.838   8.182 -0.2428 -0.8455  0.9580
 8316SOL    HW236582   1.057   0.793   8.158 -0.9370  0.1686  3.9109
 8317SOL     OW36583   2.754   2.255   1.819 -0.2470  0.0181 -0.1545
 8317SOL    HW136584   2.828   2.197   1.798  0.9937  1.0878  1.2610
 8317SOL    HW236585   2.798   2.329   1.862  0.8953  0.1534 -1.5435
 8318SOL     OW36586   4.601   0.334   3.293  0.2860 -0.3939  0.4965
 8318SOL    HW136587   4.683   0.288   3.308  0.5913  0.7886  2.4020
 8318SOL    HW236588   4.607   0.333   3.197 -1.7594 -0.9448  0.3739
 8319SOL     OW36589   2.469   3.245   4.248 -0.5157 -0.8378 -0.5425
 8319SOL    HW136590   2.538   3.293   4.294  0.1204 -0.8006 -1.5323
 8319SOL    HW236591   2.513   3.222   4.166 -0.2728 -0.9582 -0.3765
 8320SOL     OW36592   2.443   2.677  13.195 -0.4547 -0.5958 -0.2939
 8320SOL    HW136593   2.525   2.660  13.242  1.0561  5.1293 -0.8845
 8320SOL    HW236594   2.418   2.588  13.169 -1.1303 -0.5478  0.1634
 8321SOL     OW36595   2.376   2.865   5.606 -0.1349  0.0967 -0.1119
 8321SOL    HW136596   2.389   2.778   5.645 -1.3626  0.9223  2.1592
 8321SOL    HW236597   2.306   2.895   5.665  0.4275  1.3947 -0.1117
 8322SOL     OW36598   4.497   3.144   1.995 -0.4215 -0.2679  0.6098
 8322SOL    HW136599   4.422   3.136   1.936 -1.7188  0.0026  2.2500
 8322SOL    HW236600   4.571   3.119   1.939 -0.9568 -1.3619  0.3927
 8323SOL     OW36601   3.968   2.447   4.142  0.5465  0.1885  0.4242
 8323SOL    HW136602   3.948   2.367   4.191  0.6405  0.0192  0.1848
 8323SOL    HW236603   4.061   2.436   4.119  0.4830 -1.1047  0.7624
 8324SOL     OW36604   4.548   3.036   5.667  0.7493 -0.3912  0.2067
 8324SOL    HW136605   4.610   3.027   5.740  1.7867  0.7528 -0.5495
 8324SOL    HW236606   4.601   3.098   5.618 -0.5470  0.2507 -0.3744
 8325SOL     OW36607   3.789   0.709   7.992 -0.3652  0.0380  0.6127
 8325SOL    HW136608   3.724   0.737   7.928 -0.7727 -0.8587  0.6298
 8325SOL    HW236609   3.843   0.788   7.993  1.3259 -1.1017 -0.2568
 8326SOL     OW36610   3.205   1.807   1.580  0.1342  0.2213 -0.2373
 8326SOL    HW136611   3.248   1.737   1.628  0.7852  1.2404  0.6415
 8326SOL    HW236612   3.158   1.755   1.514 -1.8545  2.1149 -0.3282
 8327SOL     OW36613   2.842   2.304   8.329 -0.3011  0.1899  0.2368
 8327SOL    HW136614   2.767   2.283   8.385 -0.5547  1.1898  0.2633
 8327SOL    HW236615   2.795   2.312   8.246  0.0805  2.5834  0.2709
 8328SOL     OW36616   1.900   1.745  12.262  0.7505 -0.8632 -0.4778
 8328SOL    HW136617   1.976   1.765  12.317  0.8094 -2.8323  0.1676
 8328SOL    HW236618   1.938   1.705  12.183  0.3557 -0.8583 -0.6716
 8329SOL     OW36619   2.845   0.222   7.694 -0.8198  0.0981  0.2852
 8329SOL    HW136620   2.914   0.157   7.675 -0.3619  0.0093  2.2146
 8329SOL    HW236621   2.770   0.181   7.736 -0.3057 -1.9356 -0.7758
 8330SOL     OW36622   4.141   4.133   9.097  0.0732  0.2098 -0.0979
 8330SOL    HW136623   4.208   4.145   9.029  0.4235  3.2912  0.8079
 8330SOL    HW236624   4.061   4.159   9.052  0.5090 -0.1733 -1.0954
 8331SOL     OW36625   0.930   2.139  13.511  0.0921 -0.2377  0.2672
 8331SOL    HW136626   0.882   2.056  13.510  0.9208 -0.7183  0.4809
 8331SOL    HW236627   0.963   2.152  13.422  1.5425  1.3806  1.0363
 8332SOL     OW36628   3.974   0.027   3.591 -0.0113  0.2060  0.2289
 8332SOL    HW136629   4.036   0.078   3.539 -0.9415 -1.4001 -2.4933
 8332SOL    HW236630   3.899   0.086   3.596 -0.3997 -0.2948  0.3854
 8333SOL     OW36631   4.234   3.053  17.458  0.0607 -0.4324  0.2021
 8333SOL    HW136632   4.184   3.061  17.377  2.3184 -1.7636 -1.3037
 8333SOL    HW236633   4.270   3.141  17.464  2.0176 -1.1919 -0.6958
 8334SOL     OW36634   0.746   0.492   4.991 -0.2351  0.2779  0.2278
 8334SOL    HW136635   0.740   0.410   4.942  0.3230  0.3416  0.0494
 8334SOL    HW236636   0.721   0.550   4.919 -2.0519 -0.2644  0.4074
 8335SOL     OW36637   2.573   1.110   5.865 -0.5385  0.0536  0.2215
 8335SOL    HW136638   2.508   1.100   5.934  1.8693 -1.1551  2.3145
 8335SOL    HW236639   2.518   1.111   5.786 -1.1035  3.5835  0.6728
 8336SOL     OW36640   1.417   3.279  11.085  0.2185  0.1420 -0.1233
 8336SOL    HW136641   1.423   3.244  10.996  0.6545 -0.4741  0.1425
 8336SOL    HW236642   1.411   3.197  11.135 -0.0220  0.0008 -0.3866
 8337SOL     OW36643   2.911   2.061   3.180 -0.2787  0.7781  0.1559
 8337SOL    HW136644   2.926   1.966   3.179  0.0079  0.7909  4.1103
 8337SOL    HW236645   2.816   2.073   3.178 -0.1911  1.4591  0.2173
 8338SOL     OW36646   2.864   0.974   2.479  0.0141  0.3406  0.3832
 8338SOL    HW136647   2.909   0.987   2.395  2.8957 -1.2425  1.6964
 8338SOL    HW236648   2.921   0.905   2.512  0.5449  1.2436  1.3630
 8339SOL     OW36649   2.069   3.624   5.419 -0.0193  0.2068  0.0880
 8339SOL    HW136650   2.110   3.709   5.404  1.3979 -0.8968 -2.3399
 8339SOL    HW236651   1.987   3.625   5.369 -0.0443 -1.4363  0.0909
 8340SOL     OW36652   3.793   1.072   6.370  0.1151 -0.5959 -0.1414
 8340SOL    HW136653   3.870   1.035   6.414  1.9678 -0.0765 -2.9404
 8340SOL    HW236654   3.821   1.084   6.279 -0.1424 -0.0468 -0.1489
 8341SOL     OW36655   1.295   3.338   4.579  0.7234  0.1613  0.1551
 8341SOL    HW136656   1.218   3.330   4.635 -1.6863  1.4156 -2.9522
 8341SOL    HW236657   1.267   3.281   4.507 -1.5927  1.6511 -0.1218
 8342SOL     OW36658   1.734   1.429   6.918 -0.3762 -0.0054 -0.2675
 8342SOL    HW136659   1.642   1.451   6.902 -0.4711  0.0128  0.3327
 8342SOL    HW236660   1.778   1.500   6.870  1.5065 -0.0598  1.4232
 8343SOL     OW36661   4.377   2.214   1.259  0.4651 -0.1181  0.6060
 8343SOL    HW136662   4.392   2.290   1.202  1.0569  1.3474  2.6970
 8343SOL    HW236663   4.457   2.170   1.232  0.3101 -0.1205  0.1401
 8344SOL     OW36664   0.108   2.686   9.247  0.2862  0.0068 -0.0792
 8344SOL    HW136665   0.106   2.751   9.178 -0.3122 -0.1417 -0.1974
 8344SOL    HW236666   0.144   2.615   9.193 -0.1311 -0.7632  0.6404
 8345SOL     OW36667   0.881   1.600  16.666  0.0503  0.3092 -0.3190
 8345SOL    HW136668   0.835   1.516  16.661  0.5023  0.0649 -0.3140
 8345SOL    HW236669   0.801   1.653  16.658 -0.3064 -0.1402  0.1835
 8346SOL     OW36670   3.711   0.163   0.464 -0.2327 -0.1877 -0.2772
 8346SOL    HW136671   3.691   0.252   0.490  1.5492  0.2705 -0.4537
 8346SOL    HW236672   3.763   0.184   0.386  0.1129  0.9048  0.2548
 8347SOL     OW36673   1.464   1.664   9.571  0.7539 -0.0442 -0.5600
 8347SOL    HW136674   1.462   1.705   9.484 -1.1523 -1.8365 -1.3549
 8347SOL    HW236675   1.457   1.574   9.539  2.2060 -0.2517 -0.2929
 8348SOL     OW36676   3.465   4.042   7.478 -0.0032  0.0332  0.0891
 8348SOL    HW136677   3.455   3.971   7.413  1.1523  1.7274 -1.9426
 8348SOL    HW236678   3.382   4.027   7.523 -0.7303 -1.2742 -1.6615
 8349SOL     OW36679   2.768   4.729  15.141  0.1810  0.4978  0.1346
 8349SOL    HW136680   2.800   0.024  15.224  1.9261 -1.5998  0.3528
 8349SOL    HW236681   2.744   4.639  15.165 -1.3968  0.9550  0.2190
 8350SOL     OW36682   0.232   3.986   6.139 -0.4470  0.3710  0.6670
 8350SOL    HW136683   0.221   4.081   6.132 -0.9892  0.2672  0.1250
 8350SOL    HW236684   0.153   3.971   6.190 -0.3360  0.8499  0.9864
 8351SOL     OW36685   3.607   0.561   8.655 -0.1251  0.3741  0.2042
 8351SOL    HW136686   3.635   0.504   8.727  0.2772 -3.0455 -2.6482
 8351SOL    HW236687   3.516   0.532   8.646  0.2877 -0.9195  0.1775
 8352SOL     OW36688   4.312   4.646   6.300 -0.3970  0.1547 -0.1342
 8352SOL    HW136689   4.360   4.697   6.366  1.6089  1.6858 -2.7859
 8352SOL    HW236690   4.223   4.645   6.336  0.2775 -1.5978  1.5060
 8353SOL     OW36691   2.864   0.619   2.812  0.5540 -0.5733 -0.0896
 8353SOL    HW136692   2.881   0.704   2.853  0.3349 -1.1587  1.2171
 8353SOL    HW236693   2.891   0.644   2.724  1.0345 -1.6210 -0.2393
 8354SOL     OW36694   2.329   2.617  12.773 -0.3188  0.0076 -0.7459
 8354SOL    HW136695   2.238   2.628  12.743 -0.3214 -0.1312 -0.7926
 8354SOL    HW236696   2.362   2.563  12.701  0.3112 -2.0800  1.1184
 8355SOL     OW36697   1.608   2.691   8.884 -0.0809  0.3581  0.1298
 8355SOL    HW136698   1.641   2.722   8.968  1.9246  4.3116 -2.1391
 8355SOL    HW236699   1.575   2.604   8.907  0.7669  0.3254  1.2137
 8356SOL     OW36700   2.650   0.007   9.624 -0.3868 -0.1421 -1.1691
 8356SOL    HW136701   2.564   4.714   9.597 -1.0682 -1.1200  2.0738
 8356SOL    HW236702   2.626   0.042   9.710 -1.2238  0.0385 -1.4796
 8357SOL     OW36703   4.260   4.586   3.253  0.6097 -0.2176  0.5481
 8357SOL    HW136704   4.351   4.597   3.228  0.6491  0.4843  1.0168
 8357SOL    HW236705   4.220   4.673   3.253 -0.1083 -0.5444  0.0517
 8358SOL     OW36706   0.976   1.167   9.788 -0.5023  0.5394 -0.3902
 8358SOL    HW136707   1.018   1.244   9.751  0.5057  0.7710  1.2095
 8358SOL    HW236708   1.023   1.177   9.871 -1.7864 -2.2132  0.6698
 8359SOL     OW36709   3.205   4.646  16.602 -0.4557 -0.5929 -0.1405
 8359SOL    HW136710   3.126   4.614  16.557  0.7002  1.4761 -3.6216
 8359SOL    HW236711   3.182   4.720  16.657  0.4858  0.7903 -1.6154
 8360SOL     OW36712   4.000   2.817   1.666  0.2560 -0.7469  0.7610
 8360SOL    HW136713   3.924   2.775   1.707  1.8608 -1.2498  3.1777
 8360SOL    HW236714   3.990   2.905   1.703 -3.0517  0.3060 -2.5734
 8361SOL     OW36715   4.181   2.092   1.016 -0.7667 -0.1339 -0.0669
 8361SOL    HW136716   4.197   2.179   0.979 -1.8995 -0.2345 -0.7978
 8361SOL    HW236717   4.257   2.088   1.074 -0.8260 -2.0228 -0.1429
 8362SOL     OW36718   3.265   1.211   7.541  0.1481  0.3817  0.4342
 8362SOL    HW136719   3.236   1.123   7.568 -0.7500  0.4828 -0.2249
 8362SOL    HW236720   3.360   1.215   7.538  0.1089  0.7386 -0.3050
 8363SOL     OW36721   2.389   0.081  14.716  0.0238  0.5784  0.5836
 8363SOL    HW136722   2.437   0.010  14.672  2.2952  1.4953  1.5902
 8363SOL    HW236723   2.458   0.104  14.778  0.2102 -3.0622  1.7448
 8364SOL     OW36724   2.705   1.776   7.059  0.1929  0.3683  0.2414
 8364SOL    HW136725   2.689   1.868   7.081  2.1365  0.4578  1.2999
 8364SOL    HW236726   2.798   1.761   7.080  0.2273  1.7026  1.0372
 8365SOL     OW36727   1.424   3.875   7.734 -0.5736  0.0059  0.2538
 8365SOL    HW136728   1.394   3.956   7.693  1.5031  0.1902 -0.9085
 8365SOL    HW236729   1.402   3.896   7.825 -2.3375  0.3625 -0.2544
 8366SOL     OW36730   1.321   0.974   9.090 -0.1680 -0.0227 -0.3466
 8366SOL    HW136731   1.276   0.909   9.037 -1.1079  0.8966 -0.6604
 8366SOL    HW236732   1.304   0.949   9.181 -0.1082 -1.9361 -0.8711
 8367SOL     OW36733   2.899   4.155   8.559 -0.0668  0.0200  0.5093
 8367SOL    HW136734   2.991   4.153   8.585 -0.2262 -2.3410  0.9226
 8367SOL    HW236735   2.891   4.213   8.483 -0.0109 -0.5684  0.0550
 8368SOL     OW36736   1.369   3.804  10.123  0.3692  0.0916  0.4312
 8368SOL    HW136737   1.439   3.781  10.063 -1.2938 -0.8153 -1.1593
 8368SOL    HW236738   1.291   3.777  10.075 -0.7274 -0.3518  2.4650
 8369SOL     OW36739   0.069   0.037   9.526  0.0043  0.3306  0.3528
 8369SOL    HW136740   0.006   4.733   9.583  0.2456 -0.3948  0.0642
 8369SOL    HW236741   0.075   4.717   9.451  0.8124  0.8129  0.0356
 8370SOL     OW36742   2.033   1.064   7.488  0.0962  0.0951  0.3438
 8370SOL    HW136743   1.968   1.103   7.430 -0.5778 -0.2953  0.8495
 8370SOL    HW236744   1.998   1.099   7.570 -0.8552 -3.1827  1.3294
 8371SOL     OW36745   3.032   2.165   7.365 -0.1699 -0.4075 -0.8395
 8371SOL    HW136746   2.976   2.240   7.347 -1.8952 -0.8938  2.5775
 8371SOL    HW236747   3.072   2.146   7.279 -2.2556 -0.0550 -1.8711
 8372SOL     OW36748   1.789   1.472  10.828 -0.1289 -0.1540  0.2674
 8372SOL    HW136749   1.843   1.517  10.763 -0.8034  1.0187  0.5124
 8372SOL    HW236750   1.720   1.538  10.833  3.2427  3.4984 -1.0891
 8373SOL     OW36751   2.354   3.795   8.260 -0.1149 -0.3466  0.8233
 8373SOL    HW136752   2.434   3.744   8.271 -0.6593 -1.2647  0.4478
 8373SOL    HW236753   2.333   3.810   8.353  0.6189 -2.7560  1.3845
 8374SOL     OW36754   2.517   0.399   7.271 -0.0230  0.3531 -0.0361
 8374SOL    HW136755   2.516   0.333   7.341 -0.4583  0.7973  0.3807
 8374SOL    HW236756   2.569   0.473   7.304  0.7278  0.5366 -1.6294
 8375SOL     OW36757   1.852   4.077   2.482 -0.4202  0.1222 -0.0611
 8375SOL    HW136758   1.930   4.122   2.450  0.3291 -0.0768  1.5260
 8375SOL    HW236759   1.839   4.114   2.569 -1.9728 -0.5494 -0.0026
 8376SOL     OW36760   2.890   4.634   2.200 -0.5517  0.1715  0.4947
 8376SOL    HW136761   2.873   4.720   2.237 -0.3143  0.7664 -0.7885
 8376SOL    HW236762   2.803   4.594   2.197 -0.3261 -0.2128 -0.8961
 8377SOL     OW36763   4.547   2.610  11.199 -0.4169 -0.0521 -0.5019
 8377SOL    HW136764   4.597   2.586  11.277  0.5138 -0.0284 -1.0909
 8377SOL    HW236765   4.617   2.660  11.157 -0.6680  0.3690 -0.4260
 8378SOL     OW36766   3.863   0.960   1.505  0.1685  0.2410  0.2864
 8378SOL    HW136767   3.857   1.055   1.514  0.9660  0.3832 -0.7139
 8378SOL    HW236768   3.955   0.959   1.479  0.0950 -1.0602  0.0993
 8379SOL     OW36769   1.086   1.948   3.703 -0.1063 -0.3193  0.3175
 8379SOL    HW136770   1.050   1.861   3.689  0.5776 -0.2666 -1.7590
 8379SOL    HW236771   1.003   1.990   3.725 -0.0209 -0.2443  0.5001
 8380SOL     OW36772   1.923   1.659   8.103  0.4080  0.2960 -0.3652
 8380SOL    HW136773   1.897   1.581   8.054  0.5595 -0.3329  0.5383
 8380SOL    HW236774   1.879   1.724   8.049  0.1226  0.0618 -0.4139
 8381SOL     OW36775   3.215   0.596   6.944  0.2280  0.1178  0.1796
 8381SOL    HW136776   3.150   0.647   6.993  0.9975  0.9090  0.3724
 8381SOL    HW236777   3.175   0.599   6.857 -1.2553 -1.7751  0.7819
 8382SOL     OW36778   1.975   1.040   3.132  0.5636 -0.2184  0.3080
 8382SOL    HW136779   1.940   1.108   3.075  1.5357  1.5949  1.9009
 8382SOL    HW236780   2.018   1.094   3.199 -0.9055  1.8558 -0.4170
 8383SOL     OW36781   3.410   2.118   9.178 -0.5388  0.1838  0.4263
 8383SOL    HW136782   3.431   2.125   9.271 -1.1734  0.9910  0.5039
 8383SOL    HW236783   3.489   2.140   9.129 -1.2050  1.8502  0.0827
 8384SOL     OW36784   2.860   3.648  15.796 -0.4709  0.1194  0.3741
 8384SOL    HW136785   2.879   3.684  15.883 -1.0874  2.3335 -0.4069
 8384SOL    HW236786   2.767   3.666  15.782 -0.0613  2.8235  1.1514
 8385SOL     OW36787   1.839   1.908   5.252  0.3836  0.3351  0.0038
 8385SOL    HW136788   1.744   1.919   5.254  0.4714  0.7606  1.7651
 8385SOL    HW236789   1.861   1.839   5.189  0.0368  0.9161 -0.7560
 8386SOL     OW36790   0.221   2.189   1.737  0.4008  0.4367  0.2520
 8386SOL    HW136791   0.153   2.122   1.725  0.3199  0.5434  0.1123
 8386SOL    HW236792   0.263   2.191   1.651 -0.5704  1.9673 -0.1973
 8387SOL     OW36793   1.746   2.503   2.415  0.1784 -0.3969 -0.9085
 8387SOL    HW136794   1.771   2.459   2.334 -1.7298 -1.0428 -1.1412
 8387SOL    HW236795   1.687   2.443   2.460  1.0792 -0.0822  0.6760
 8388SOL     OW36796   1.553   2.260   0.863  0.5823  0.2075  0.2795
 8388SOL    HW136797   1.480   2.319   0.883  0.8098  0.1157  1.3638
 8388SOL    HW236798   1.609   2.287   0.935 -0.9843 -0.1639  1.6291
 8389SOL     OW36799   3.980   1.506   8.521  0.1023  0.1138 -0.4181
 8389SOL    HW136800   3.924   1.490   8.445 -0.1031 -1.2263  0.0279
 8389SOL    HW236801   4.040   1.564   8.473 -1.0934  1.3675 -0.3940
 8390SOL     OW36802   3.302   1.271  15.759 -0.2117 -0.2211  0.1607
 8390SOL    HW136803   3.360   1.223  15.818 -0.0801  1.7580  1.6370
 8390SOL    HW236804   3.345   1.244  15.678 -3.2397  0.2591 -1.6129
 8391SOL     OW36805   0.744   0.116   7.633 -0.0726 -0.5790  0.1100
 8391SOL    HW136806   0.790   0.032   7.625  0.9672 -0.1484  1.5442
 8391SOL    HW236807   0.655   0.083   7.632 -0.3166  0.0878  0.1748
 8392SOL     OW36808   0.630   2.046   4.818 -0.4707 -0.1718  0.1184
 8392SOL    HW136809   0.614   1.954   4.839  1.0505 -0.5677 -0.5106
 8392SOL    HW236810   0.547   2.087   4.843 -0.6235 -0.4390  0.0533
 8393SOL     OW36811   0.606   3.645   8.806  0.3231 -0.1885 -0.2711
 8393SOL    HW136812   0.548   3.657   8.730 -0.2389 -0.0408  0.1846
 8393SOL    HW236813   0.668   3.579   8.775 -0.8216 -0.9615 -0.9459
 8394SOL     OW36814   2.909   0.156   3.598 -0.3161 -0.3530 -0.6679
 8394SOL    HW136815   2.968   0.092   3.639 -0.1499  0.2703  0.0730
 8394SOL    HW236816   2.850   0.168   3.673  0.7512  1.8383 -0.1715
 8395SOL     OW36817   3.778   2.145   7.259 -0.2406 -0.2346  0.9486
 8395SOL    HW136818   3.844   2.215   7.259  0.2488 -0.6871 -0.0620
 8395SOL    HW236819   3.803   2.101   7.340  0.0961 -1.7219  0.0504
 8396SOL     OW36820   0.166   1.863   6.794 -0.3696  0.1068 -0.0209
 8396SOL    HW136821   0.089   1.831   6.746 -0.1041  1.6306 -1.4590
 8396SOL    HW236822   0.206   1.925   6.734 -3.0961  1.4624 -0.4572
 8397SOL     OW36823   1.006   3.184   6.461 -0.1466  0.0962 -0.0806
 8397SOL    HW136824   0.990   3.263   6.411  0.3217  0.1842 -0.0938
 8397SOL    HW236825   1.087   3.212   6.504  0.0651 -0.8846  0.1695
 8398SOL     OW36826   3.762   2.369   4.460  0.4679 -0.1649 -0.0058
 8398SOL    HW136827   3.856   2.371   4.478  0.0416  1.2398  2.0489
 8398SOL    HW236828   3.726   2.293   4.506 -0.5761 -1.0051 -2.1988
 8399SOL     OW36829   2.558   3.740   9.049  0.2578  0.3646 -0.0291
 8399SOL    HW136830   2.606   3.682   8.990 -1.6609 -1.9294  0.6548
 8399SOL    HW236831   2.497   3.675   9.085 -0.3033  0.8777 -0.0610
 8400SOL     OW36832   0.076   4.711   4.183  0.7454 -0.0585 -0.1258
 8400SOL    HW136833   0.081   4.627   4.229 -0.3801 -0.4874 -0.7895
 8400SOL    HW236834   0.109   0.039   4.243  2.2021 -2.1928  1.4475
 8401SOL     OW36835   3.187   1.071   8.788 -0.2050  0.0120  0.6839
 8401SOL    HW136836   3.170   0.977   8.795  0.2079  0.1518  3.7270
 8401SOL    HW236837   3.241   1.073   8.709 -0.4559  0.1070  0.5157
 8402SOL     OW36838   0.420   0.617  12.938 -0.2322  0.5710 -0.3163
 8402SOL    HW136839   0.386   0.527  12.931 -0.3799  0.5805  0.2801
 8402SOL    HW236840   0.436   0.638  12.846  0.4586  2.0138  0.1366
 8403SOL     OW36841   3.254   1.293  10.518 -0.3060  0.1960 -0.0198
 8403SOL    HW136842   3.233   1.210  10.476 -2.4537  1.0484 -0.6329
 8403SOL    HW236843   3.350   1.286  10.516 -0.4327 -2.1087  0.9425
 8404SOL     OW36844   1.071   3.664   9.062 -0.0863 -0.4765  0.3324
 8404SOL    HW136845   1.162   3.662   9.093  0.0284 -1.4941 -0.0659
 8404SOL    HW236846   1.064   3.743   9.009 -0.8657 -0.7757 -0.0091
 8405SOL     OW36847   1.822   2.260   7.507 -0.0073  0.2315 -0.1911
 8405SOL    HW136848   1.793   2.216   7.427  1.8599  1.5123 -1.5701
 8405SOL    HW236849   1.789   2.349   7.489  0.4714  0.5480  0.5086
 8406SOL     OW36850   4.272   3.055   3.799 -0.2086  0.4440  0.2823
 8406SOL    HW136851   4.262   3.132   3.855 -0.2495  1.0460 -0.5670
 8406SOL    HW236852   4.323   3.100   3.732  0.0054 -0.0047  0.1450
 8407SOL     OW36853   3.636   4.019  10.435  0.4072 -0.1044 -0.0120
 8407SOL    HW136854   3.607   4.111  10.435  1.6361  0.2872  2.1019
 8407SOL    HW236855   3.693   4.032  10.511  0.3159  0.5399 -0.0522
 8408SOL     OW36856   1.172   0.025  15.204 -0.3116  0.2783 -0.2212
 8408SOL    HW136857   1.134   4.718  15.129  0.7469 -0.3149 -0.3926
 8408SOL    HW236858   1.096   0.023  15.261 -0.9403 -1.1815 -1.1205
 8409SOL     OW36859   0.281   0.907   5.248 -0.6830  0.8620  0.4665
 8409SOL    HW136860   0.343   0.905   5.175 -0.6465 -1.5115  0.5765
 8409SOL    HW236861   0.322   0.856   5.318 -0.1545 -0.1103 -0.5454
 8410SOL     OW36862   1.787   2.279   5.216 -0.2121 -0.6702  0.1822
 8410SOL    HW136863   1.820   2.245   5.299 -0.9038  0.0939  0.7723
 8410SOL    HW236864   1.869   2.276   5.166  0.5798 -1.4932  1.5537
 8411SOL     OW36865   1.881   2.666   2.952  0.1963  0.3991 -0.6116
 8411SOL    HW136866   1.936   2.715   2.891  3.0090 -0.6733  1.1199
 8411SOL    HW236867   1.808   2.729   2.954 -0.7369 -0.7718  1.4770
 8412SOL     OW36868   0.058   2.072  12.506  0.0031 -0.3810  0.1934
 8412SOL    HW136869   0.045   1.978  12.495 -1.3635  0.1344 -2.5343
 8412SOL    HW236870   4.727   2.095  12.567  0.0989 -1.5143  0.7331
 8413SOL     OW36871   0.476   2.366   8.447  0.2643 -0.1748 -0.5069
 8413SOL    HW136872   0.547   2.338   8.505 -0.8498  0.8489  1.3560
 8413SOL    HW236873   0.490   2.460   8.438  0.5352 -0.1067  0.6080
 8414SOL     OW36874   1.699   3.135  16.326 -0.7690  0.8928 -0.0124
 8414SOL    HW136875   1.780   3.085  16.320 -0.6255  1.3580 -1.9259
 8414SOL    HW236876   1.711   3.177  16.241  1.5379 -1.0827 -0.6790
 8415SOL     OW36877   2.694   1.985   2.407 -0.3322 -0.3436 -0.5715
 8415SOL    HW136878   2.618   2.034   2.440 -0.1779  0.4182 -1.3631
 8415SOL    HW236879   2.650   1.900   2.405  2.0427 -1.6424  1.9937
 8416SOL     OW36880   0.267   3.486   3.239 -0.1392  0.6625  0.1128
 8416SOL    HW136881   0.348   3.529   3.267 -0.4947  0.6931  1.0862
 8416SOL    HW236882   0.282   3.403   3.285  0.2276  0.3289 -0.6160
 8417SOL     OW36883   1.992   3.313   5.657 -0.3496 -0.2694  0.0570
 8417SOL    HW136884   1.960   3.231   5.693 -2.4572 -0.6038 -2.5011
 8417SOL    HW236885   1.931   3.368   5.707  1.2407  0.4307  1.2250
 8418SOL     OW36886   0.600   1.532  14.125 -0.4319 -0.4318 -0.1306
 8418SOL    HW136887   0.695   1.527  14.111 -0.4310  0.7713 -0.5177
 8418SOL    HW236888   0.596   1.516  14.219  2.7873  0.6326  0.1828
 8419SOL     OW36889   1.899   1.316   6.621  0.3679  1.1302  0.4393
 8419SOL    HW136890   1.927   1.275   6.703 -2.1886 -2.7294 -0.6179
 8419SOL    HW236891   1.979   1.307   6.569  0.9880  1.1311  1.3951
 8420SOL     OW36892   1.420   0.163   5.184  0.0854 -0.2655 -0.8387
 8420SOL    HW136893   1.429   0.235   5.122  0.8177  0.2833 -0.0861
 8420SOL    HW236894   1.474   0.091   5.148  2.6993  1.3674 -0.1929
 8421SOL     OW36895   1.538   3.770   9.486  0.0028  0.0811 -0.1173
 8421SOL    HW136896   1.585   3.783   9.569  0.4488  0.2911 -0.4040
 8421SOL    HW236897   1.449   3.772   9.523 -0.0432 -1.0403 -0.1650
 8422SOL     OW36898   2.484   4.545   9.270 -0.6626  0.1466  0.0512
 8422SOL    HW136899   2.424   4.507   9.206  0.4869 -0.2432 -0.7910
 8422SOL    HW236900   2.476   4.476   9.336  0.5313 -0.4059 -0.3868
 8423SOL     OW36901   1.291   0.118  17.696  0.3355 -0.1750 -0.2957
 8423SOL    HW136902   1.300   0.198  17.644  1.2175 -0.2916 -0.3177
 8423SOL    HW236903   1.223   0.143   0.003  0.0099  1.1994 -1.1808
 8424SOL     OW36904   2.040   3.297   7.897 -0.5686  0.3059  0.3423
 8424SOL    HW136905   1.959   3.276   7.941 -0.3399 -3.4375 -1.0179
 8424SOL    HW236906   2.064   3.212   7.859  0.8302  1.0741 -0.5177
 8425SOL     OW36907   3.915   3.714   5.437 -0.5374 -0.2941 -0.1211
 8425SOL    HW136908   3.935   3.769   5.361  1.7718 -0.4467  0.3692
 8425SOL    HW236909   3.890   3.778   5.504  3.0613 -1.2620  2.1129
 8426SOL     OW36910   2.186   1.657  13.110  0.6124 -0.2624 -0.0108
 8426SOL    HW136911   2.184   1.745  13.072  0.3308 -0.0573  0.4796
 8426SOL    HW236912   2.185   1.671  13.204 -0.3412  0.4818 -0.1259
 8427SOL     OW36913   1.289   4.561  10.643 -0.0960  0.5777  0.4984
 8427SOL    HW136914   1.367   4.612  10.663 -0.7227  1.5343  0.5110
 8427SOL    HW236915   1.324   4.475  10.665  0.6704  0.8489  0.3337
 8428SOL     OW36916   4.047   2.936  14.427  0.1114  0.1963 -0.0117
 8428SOL    HW136917   4.111   2.912  14.360  1.9034  0.9736  1.4083
 8428SOL    HW236918   4.110   2.941  14.499  1.0872 -0.6908 -0.7966
 8429SOL     OW36919   1.356   2.934   9.672 -0.2499 -0.0081  0.6323
 8429SOL    HW136920   1.305   3.005   9.710 -1.0681 -0.6841  0.7905
 8429SOL    HW236921   1.444   2.938   9.711 -0.7710  1.0608  1.6885
 8430SOL     OW36922   0.224   4.410   1.561  0.1887  0.2239 -0.3696
 8430SOL    HW136923   0.278   4.362   1.500  0.5101 -0.3717  0.3887
 8430SOL    HW236924   0.198   4.335   1.614 -0.0286  0.6374  0.1140
 8431SOL     OW36925   1.723   0.487   4.002  0.2317 -0.0535  0.5086
 8431SOL    HW136926   1.666   0.559   4.028  0.8594  1.1246 -1.3923
 8431SOL    HW236927   1.796   0.537   3.964  0.1156  0.7330  1.3180
 8432SOL     OW36928   4.656   1.995   9.013  0.2132  0.2134 -0.0878
 8432SOL    HW136929   4.635   2.028   8.925  1.3008  0.7202 -0.1639
 8432SOL    HW236930   4.692   2.072   9.058  1.5401 -0.3124 -0.2368
 8433SOL     OW36931   2.567   1.851   3.711 -0.7697  0.7687 -0.5535
 8433SOL    HW136932   2.563   1.922   3.776 -3.3520 -0.0636  0.2090
 8433SOL    HW236933   2.658   1.827   3.726 -1.2235 -2.1591 -2.5068
 8434SOL     OW36934   0.258   3.739  15.449  0.4145  0.1786  0.0656
 8434SOL    HW136935   0.265   3.833  15.466  2.4141 -0.0186  0.2794
 8434SOL    HW236936   0.281   3.735  15.356  0.1356  0.1747 -0.0045
 8435SOL     OW36937   1.824   0.326   3.348  0.7118 -0.8463  0.1019
 8435SOL    HW136938   1.832   0.236   3.315  3.3085  0.2806 -2.3620
 8435SOL    HW236939   1.762   0.360   3.283  0.1095  0.4454  1.3524
 8436SOL     OW36940   4.211   4.001   3.230 -0.2247 -0.3169 -0.5866
 8436SOL    HW136941   4.225   4.085   3.273 -0.8596 -0.2523 -0.5015
 8436SOL    HW236942   4.291   3.951   3.247 -0.8968 -0.6686  1.4986
 8437SOL     OW36943   3.252   3.433  13.241  0.4647  0.2119 -0.2550
 8437SOL    HW136944   3.340   3.394  13.251  0.3464  0.2297  0.7859
 8437SOL    HW236945   3.222   3.402  13.326  0.2550 -0.3522 -0.5327
 8438SOL     OW36946   0.396   2.319   7.253  0.1365 -0.1249 -0.0685
 8438SOL    HW136947   0.475   2.265   7.260 -0.3224 -0.7650  0.2817
 8438SOL    HW236948   0.349   2.287   7.329  0.6086  0.0669  0.3016
 8439SOL     OW36949   1.236   1.506   5.190  0.1998  1.0513 -0.3465
 8439SOL    HW136950   1.171   1.577   5.189  0.4776  1.3428  3.2045
 8439SOL    HW236951   1.265   1.512   5.281 -0.6873  0.4036 -0.0199
 8440SOL     OW36952   3.413   0.241  10.650 -0.1792  0.5619 -0.0322
 8440SOL    HW136953   3.362   0.320  10.669  0.1496  0.9475 -0.7644
 8440SOL    HW236954   3.480   0.249  10.717 -0.8833  2.3947  0.4650
 8441SOL     OW36955   0.938   4.477   2.291  0.1880  0.2014 -0.9915
 8441SOL    HW136956   0.949   4.389   2.253  1.0045  0.3529 -1.0992
 8441SOL    HW236957   0.846   4.500   2.276  0.4578  2.1377  0.3028
 8442SOL     OW36958   0.649   2.378  11.094 -0.2766 -0.2264  0.0362
 8442SOL    HW136959   0.719   2.414  11.148 -1.8101 -1.1583  2.6648
 8442SOL    HW236960   0.639   2.291  11.133  0.3709  0.4654  1.7271
 8443SOL     OW36961   2.671   2.392  11.102 -0.0276 -0.7145  0.4389
 8443SOL    HW136962   2.714   2.449  11.165 -0.5235  0.0215  0.1072
 8443SOL    HW236963   2.612   2.344  11.161 -0.6318 -0.9220 -0.3268
 8444SOL     OW36964   3.604   1.167   1.934 -0.3063  0.1225 -0.1329
 8444SOL    HW136965   3.562   1.081   1.928 -1.0998  0.4699  0.3859
 8444SOL    HW236966   3.666   1.166   1.861  1.2819 -0.7539  1.2445
 8445SOL     OW36967   0.764   1.502   9.408  0.0038  0.1515  0.0268
 8445SOL    HW136968   0.716   1.482   9.328  1.6138 -2.9641 -0.1814
 8445SOL    HW236969   0.854   1.504   9.374  0.2423  0.0880  0.6431
 8446SOL     OW36970   2.714   2.626  16.568 -0.2630 -0.5615 -0.4523
 8446SOL    HW136971   2.725   2.629  16.473  1.4912  1.0923 -0.2051
 8446SOL    HW236972   2.727   2.718  16.594  0.1877  0.0591 -2.8124
 8447SOL     OW36973   4.058   4.690  17.337  0.2441  0.2958 -0.0808
 8447SOL    HW136974   4.111   0.027  17.357 -1.0463  0.5677  2.2717
 8447SOL    HW236975   4.119   4.635  17.287  0.6233  0.6531 -0.0003
 8448SOL     OW36976   0.016   2.321   8.597  0.0525 -0.4566 -0.6972
 8448SOL    HW136977   0.096   2.275   8.570 -1.2209 -2.2804 -1.3069
 8448SOL    HW236978   4.734   2.353   8.510  1.6704  3.0020  0.1601
 8449SOL     OW36979   0.170   4.393  15.848 -0.0118  0.4295  0.1385
 8449SOL    HW136980   0.264   4.402  15.863  0.3041  0.7105 -2.0314
 8449SOL    HW236981   0.157   4.299  15.859  2.4515  0.4555  3.3093
 8450SOL     OW36982   1.206   2.207   6.340  0.0834  0.2743 -0.1663
 8450SOL    HW136983   1.245   2.243   6.260 -2.2734  2.5523 -0.3056
 8450SOL    HW236984   1.205   2.278   6.404  3.4892 -1.7691  2.1421
 8451SOL     OW36985   0.205   3.864  14.775  0.5230 -0.1477  0.1238
 8451SOL    HW136986   0.194   3.923  14.700 -0.7597 -1.0816 -0.4192
 8451SOL    HW236987   0.146   3.791  14.761  0.5843  0.0522 -1.2101
 8452SOL     OW36988   0.792   2.804   6.858 -0.0030  0.1825  0.5779
 8452SOL    HW136989   0.719   2.858   6.887 -1.4092 -0.7781 -1.1602
 8452SOL    HW236990   0.858   2.869   6.833 -1.4000  0.6344 -1.9318
 8453SOL     OW36991   1.229   2.618  10.156  0.0030 -0.2112 -0.3519
 8453SOL    HW136992   1.321   2.618  10.181  0.4927 -2.9406 -2.0429
 8453SOL    HW236993   1.224   2.617  10.060  0.0839  0.0631 -0.3573
 8454SOL     OW36994   1.376   0.128  12.383  0.1296 -0.8481  0.4922
 8454SOL    HW136995   1.352   0.079  12.461 -0.8648 -0.4877  0.4069
 8454SOL    HW236996   1.402   0.056  12.326  0.6754  2.5563 -3.5261
 8455SOL     OW36997   2.873   1.595   2.625 -0.6835  0.5206 -0.0798
 8455SOL    HW136998   2.948   1.638   2.584  0.8252 -0.1191  1.9991
 8455SOL    HW236999   2.836   1.552   2.548 -0.3961 -1.0553  0.6571
 8456SOL     OW37000   1.237   0.660  12.676 -0.2614  0.8829 -0.3077
 8456SOL    HW137001   1.313   0.717  12.665  1.3219 -1.0634  0.5542
 8456SOL    HW237002   1.200   0.677  12.763 -0.9945 -2.6546  0.0766
 8457SOL     OW37003   2.501   1.130   7.090 -0.2340  0.1077  0.1203
 8457SOL    HW137004   2.566   1.133   7.161 -1.4191  0.0001  1.2190
 8457SOL    HW237005   2.547   1.179   7.021  1.5315  2.6095  3.0495
 8458SOL     OW37006   0.761   3.775   3.763  0.2427 -1.0282  0.2860
 8458SOL    HW137007   0.795   3.852   3.718 -1.1935 -0.6592 -0.1892
 8458SOL    HW237008   0.807   3.781   3.846  1.1666 -0.3706 -0.2779
 8459SOL     OW37009   3.028   0.350   4.681  0.2897 -0.1251 -0.8541
 8459SOL    HW137010   3.110   0.396   4.664  0.3077 -0.2728 -1.1776
 8459SOL    HW237011   2.965   0.422   4.676  1.6643  1.0991 -0.1878
 8460SOL     OW37012   4.043   3.808   4.177  0.6276 -1.2540  0.6549
 8460SOL    HW137013   4.129   3.848   4.165  1.1144 -2.8450 -1.1928
 8460SOL    HW237014   4.041   3.741   4.108  1.6589 -1.2633  0.6324
 8461SOL     OW37015   1.235   4.149  15.301  0.6163  0.4629  0.3299
 8461SOL    HW137016   1.303   4.213  15.323 -0.4189  1.2401  1.2699
 8461SOL    HW237017   1.288   4.086  15.252 -1.1527 -1.1237  0.4574
 8462SOL     OW37018   0.314   0.479   4.512 -0.4469  0.2244 -0.0330
 8462SOL    HW137019   0.294   0.548   4.449  0.3348  2.3109  1.9938
 8462SOL    HW237020   0.408   0.491   4.527 -0.0609  1.1414 -3.1644
 8463SOL     OW37021   1.959   0.585   4.383  0.3159  0.2510  0.0246
 8463SOL    HW137022   1.898   0.512   4.387 -0.8593  1.1615 -1.1791
 8463SOL    HW237023   2.043   0.538   4.382  0.3388  0.2287  3.7418
 8464SOL     OW37024   3.152   2.259  16.902 -0.4497 -0.4308 -0.1669
 8464SOL    HW137025   3.160   2.176  16.948 -1.2896 -0.4204 -0.0025
 8464SOL    HW237026   3.074   2.251  16.847 -1.7898 -0.0978  1.6826
 8465SOL     OW37027   3.660   1.873   1.304  0.3888  0.2598  0.4290
 8465SOL    HW137028   3.587   1.936   1.310  0.3350  0.1825  0.5995
 8465SOL    HW237029   3.646   1.818   1.382  2.7624  0.9632  1.3482
 8466SOL     OW37030   0.679   2.743   7.836  0.3560  0.1313  0.3392
 8466SOL    HW137031   0.715   2.773   7.919 -1.2776 -1.1022  1.5209
 8466SOL    HW237032   0.710   2.805   7.772 -1.0484  1.1191  0.6096
 8467SOL     OW37033   0.591   3.973   7.770 -0.3524  0.2532  0.1928
 8467SOL    HW137034   0.566   3.977   7.862 -0.2761  2.4891  0.0991
 8467SOL    HW237035   0.597   4.065   7.747 -1.6116 -0.0037 -1.1742
 8468SOL     OW37036   0.138   2.061   5.164  0.4024  0.1568 -0.0961
 8468SOL    HW137037   0.123   2.154   5.148 -2.8463 -0.5485 -1.1380
 8468SOL    HW237038   0.189   2.054   5.245  2.0364  3.1332 -0.8516
 8469SOL     OW37039   1.484   2.543  10.200 -0.7232  0.6730  0.4716
 8469SOL    HW137040   1.446   2.491  10.129  2.1126  0.0505 -0.5657
 8469SOL    HW237041   1.576   2.518  10.205 -0.6609  1.0298  1.1343
 8470SOL     OW37042   0.360   1.176  17.679 -0.4267  0.4039 -0.1464
 8470SOL    HW137043   0.277   1.135  17.654 -1.1934  1.5008  0.5507
 8470SOL    HW237044   0.328   1.230  17.752  0.4324  2.6041 -1.4105
 8471SOL     OW37045   2.813   3.277   9.479 -0.7392  0.3251  0.6459
 8471SOL    HW137046   2.871   3.231   9.419 -1.0729 -0.1621  0.6957
 8471SOL    HW237047   2.813   3.371   9.461  0.9023  0.1425 -0.3131
 8472SOL     OW37048   2.553   0.383   2.341  0.4558 -0.6621  0.2081
 8472SOL    HW137049   2.609   0.361   2.267 -1.2489 -2.5800 -0.5171
 8472SOL    HW237050   2.579   0.466   2.380  1.7290  0.3890 -2.8981
 8473SOL     OW37051   3.543   3.259   2.809  0.4828 -0.5378 -0.3995
 8473SOL    HW137052   3.474   3.271   2.744 -0.7943 -0.3499  0.9932
 8473SOL    HW237053   3.574   3.173   2.779 -1.5487 -1.1873 -0.6482
 8474SOL     OW37054   1.356   3.533   5.387  0.1587  0.4409 -0.5515
 8474SOL    HW137055   1.293   3.520   5.458  1.3503  3.4555  1.0515
 8474SOL    HW237056   1.331   3.469   5.321  0.5220 -0.8211  0.5306
 8475SOL     OW37057   0.981   3.391   5.760  0.6405  0.8004 -0.0501
 8475SOL    HW137058   0.890   3.379   5.732  0.9687 -0.4327 -0.5997
 8475SOL    HW237059   0.978   3.479   5.798 -2.1624  1.0884 -0.8967
 8476SOL     OW37060   1.224   2.471  11.034 -0.4653 -0.2087 -0.4665
 8476SOL    HW137061   1.175   2.513  10.964  0.0510  0.9969 -0.1056
 8476SOL    HW237062   1.311   2.481  10.996 -1.0172  3.8043 -0.6816
 8477SOL     OW37063   3.875   1.117   7.069  0.3783 -0.6940  0.1091
 8477SOL    HW137064   3.913   1.063   7.000  4.5301  2.4098 -0.0057
 8477SOL    HW237065   3.804   1.057   7.094 -0.8221  1.0942  0.9870
 8478SOL     OW37066   4.641   3.650   3.505  0.2264  0.1178  0.0344
 8478SOL    HW137067   4.703   3.692   3.565 -0.1422  0.0506  0.4604
 8478SOL    HW237068   4.679   3.654   3.418  0.6208  0.4285  0.2231
 8479SOL     OW37069   4.292   1.417   1.764 -0.3223 -0.3337 -0.5418
 8479SOL    HW137070   4.367   1.476   1.769 -1.3284  0.7370  2.0021
 8479SOL    HW237071   4.327   1.346   1.817  2.1968 -0.4160 -2.3407
 8480SOL     OW37072   1.947   3.908   6.837  0.1693 -0.1033 -0.4936
 8480SOL    HW137073   1.981   3.869   6.918 -1.5506 -0.3784  0.0862
 8480SOL    HW237074   2.018   3.886   6.776 -0.7267 -1.3239 -1.0852
 8481SOL     OW37075   1.795   1.406  12.851  0.2120 -0.0434  0.0247
 8481SOL    HW137076   1.887   1.429  12.843  0.1803  0.2003  0.3791
 8481SOL    HW237077   1.779   1.425  12.943  3.0750 -2.0720  0.9316
 8482SOL     OW37078   4.341   0.373  12.606  0.3226 -0.3319 -0.4251
 8482SOL    HW137079   4.385   0.456  12.624 -0.2150 -0.5743  2.0380
 8482SOL    HW237080   4.315   0.399  12.518 -2.9067 -0.8049  0.4195
 8483SOL     OW37081   3.853   3.349   3.573  0.2805 -0.1136 -0.0463
 8483SOL    HW137082   3.824   3.435   3.603  1.6968  0.6010 -0.7505
 8483SOL    HW237083   3.928   3.371   3.518  0.0277  0.6105 -0.0975
 8484SOL     OW37084   4.311   2.892   1.258 -0.2944 -0.2282  0.7982
 8484SOL    HW137085   4.276   2.981   1.253  0.8446  0.3392  2.7899
 8484SOL    HW237086   4.270   2.865   1.341 -1.2533 -0.9127  0.0959
 8485SOL     OW37087   4.731   3.534  17.369 -0.3173  0.3671  0.5260
 8485SOL    HW137088   0.078   3.557  17.404  0.0439  1.0619 -0.8025
 8485SOL    HW237089   4.707   3.621  17.337 -2.5831 -1.7432 -3.5013
 8486SOL     OW37090   1.189   3.268  14.870  0.6019 -0.0119  0.3367
 8486SOL    HW137091   1.182   3.363  14.878 -0.8131 -0.1346  0.5285
 8486SOL    HW237092   1.149   3.252  14.784  2.5608 -0.5700 -0.4868
 8487SOL     OW37093   4.703   1.762  12.194  0.1429 -0.1506 -0.0196
 8487SOL    HW137094   4.615   1.798  12.208 -0.5044 -1.4924 -0.6774
 8487SOL    HW237095   4.695   1.733  12.104  0.1653  0.2780 -0.1623
 8488SOL     OW37096   4.179   0.133   8.397 -0.1760  0.3742 -0.1246
 8488SOL    HW137097   4.180   0.113   8.303  0.1778 -1.0519  0.1772
 8488SOL    HW237098   4.090   0.169   8.392  0.0120  0.9944  1.2189
 8489SOL     OW37099   1.258   1.746  14.112  0.6015  0.0703  0.2488
 8489SOL    HW137100   1.321   1.754  14.040  0.8417  3.0630  0.7823
 8489SOL    HW237101   1.257   1.828  14.161 -0.6772  0.0207  0.2955
 8490SOL     OW37102   2.943   1.108   8.518 -0.2914  0.1874 -0.2859
 8490SOL    HW137103   2.961   1.031   8.464 -0.1904  0.6488 -0.9054
 8490SOL    HW237104   3.025   1.114   8.565 -0.0813  0.0829 -0.6368
 8491SOL     OW37105   3.542   2.615   6.518 -0.2757  0.0129 -0.2571
 8491SOL    HW137106   3.609   2.620   6.450 -0.3644 -0.6101 -0.3930
 8491SOL    HW237107   3.468   2.652   6.470 -0.2401 -0.1627 -0.4485
 8492SOL     OW37108   3.149   2.601   0.501 -0.2751 -0.9244 -0.1781
 8492SOL    HW137109   3.214   2.557   0.446  0.4770  0.0788 -0.0889
 8492SOL    HW237110   3.131   2.670   0.437 -2.3658  0.0615  1.4848
 8493SOL     OW37111   2.751   3.902   4.805 -0.0202 -0.2988 -0.1465
 8493SOL    HW137112   2.690   3.897   4.731  0.0093 -1.2621 -0.1144
 8493SOL    HW237113   2.697   3.948   4.869  1.0862 -0.6438  1.0303
 8494SOL     OW37114   4.625   3.383   3.374  0.3145 -0.1962 -0.4229
 8494SOL    HW137115   4.667   3.447   3.316  0.3802  1.2595  1.2115
 8494SOL    HW237116   4.599   3.439   3.448  0.4985  1.6090 -1.7040
 8495SOL     OW37117   0.930   1.937   0.328  0.3844 -0.0463 -0.1816
 8495SOL    HW137118   1.014   1.966   0.293  1.4765 -1.5611  1.2163
 8495SOL    HW237119   0.873   1.976   0.262  0.2445  0.8395  0.4557
 8496SOL     OW37120   1.715   4.056   4.172 -0.7359 -0.5310 -0.0192
 8496SOL    HW137121   1.648   3.988   4.180 -0.6952 -0.9743 -3.6500
 8496SOL    HW237122   1.712   4.068   4.078  1.5351  1.0124  0.1101
 8497SOL     OW37123   2.472   1.614   5.305  0.4529  0.4154 -0.2307
 8497SOL    HW137124   2.424   1.545   5.350  0.5440 -0.4158 -1.4217
 8497SOL    HW237125   2.519   1.560   5.242 -1.0466 -0.6208 -0.4412
 8498SOL     OW37126   4.217   2.939   3.506 -0.2647 -0.3949 -0.3348
 8498SOL    HW137127   4.152   2.902   3.445  0.4169 -0.0271 -1.2850
 8498SOL    HW237128   4.289   2.943   3.444 -0.0842 -0.8597 -0.1545
 8499SOL     OW37129   1.752   4.499   4.577  0.5931  0.2946 -0.3506
 8499SOL    HW137130   1.751   4.506   4.672  1.2793 -2.2698 -0.1637
 8499SOL    HW237131   1.660   4.517   4.556  0.9206  0.9236 -1.2473
 8500SOL     OW37132   2.381   0.071   5.051 -0.0903  0.6374 -0.2836
 8500SOL    HW137133   2.464   0.024   5.037  0.1478  0.8186  0.5233
 8500SOL    HW237134   2.387   0.103   5.141 -1.2975 -0.4718  0.1960
 8501SOL     OW37135   0.498   1.739   0.765  0.5760 -0.4957 -0.0194
 8501SOL    HW137136   0.460   1.764   0.848  1.2431 -0.9744  0.4334
 8501SOL    HW237137   0.487   1.815   0.709  0.7158 -0.1443  0.4349
 8502SOL     OW37138   1.359   4.342   5.438 -0.0338 -0.2598 -0.0298
 8502SOL    HW137139   1.367   4.295   5.521  0.0795 -0.4188 -0.1297
 8502SOL    HW237140   1.352   4.268   5.378 -0.6181  0.5519 -0.9549
 8503SOL     OW37141   2.471   3.526   6.714 -0.7552 -0.4061  0.2257
 8503SOL    HW137142   2.382   3.559   6.723 -0.6096  0.0290  0.0659
 8503SOL    HW237143   2.463   3.495   6.623  0.6760  0.7322 -0.2824
 8504SOL     OW37144   3.205   2.628   7.233  0.5276  0.0496  0.0475
 8504SOL    HW137145   3.165   2.706   7.196  0.1427  0.5926  1.6005
 8504SOL    HW237146   3.295   2.659   7.246  0.1458  0.7279  1.0927
 8505SOL     OW37147   3.405   3.097  12.186 -0.2377 -0.7533 -0.3870
 8505SOL    HW137148   3.406   3.192  12.186  0.1552 -0.7579 -0.1054
 8505SOL    HW237149   3.393   3.076  12.278 -0.6705 -1.7339 -0.6558
 8506SOL     OW37150   1.922   3.985   6.440  0.3696 -0.4507  0.0083
 8506SOL    HW137151   1.878   4.054   6.490 -1.3631 -1.8101  0.3777
 8506SOL    HW237152   1.883   3.909   6.484 -0.2190 -1.0278 -1.5162
 8507SOL     OW37153   2.158   2.357  12.921  0.0107 -0.1103 -0.1388
 8507SOL    HW137154   2.099   2.414  12.970  1.0085 -1.4918  2.6450
 8507SOL    HW237155   2.161   2.282  12.981  1.1602 -1.0825 -1.3997
 8508SOL     OW37156   1.919   3.946   5.254  0.4211 -0.2420 -0.3373
 8508SOL    HW137157   1.947   3.858   5.229  0.2824 -0.5076  0.4418
 8508SOL    HW237158   1.997   4.002   5.252  0.9053 -0.8735  0.8785
 8509SOL     OW37159   2.142   4.084   5.293 -0.2118  0.1415 -0.1886
 8509SOL    HW137160   2.145   4.015   5.360 -0.1465  0.1218 -0.2128
 8509SOL    HW237161   2.186   4.154   5.341  2.2446 -1.4082 -0.2060
 8510SOL     OW37162   1.341   3.149   2.554  0.0332 -0.5224 -0.7551
 8510SOL    HW137163   1.351   3.201   2.634 -0.0942 -0.7155 -0.6163
 8510SOL    HW237164   1.334   3.218   2.487  2.5528  0.1982 -0.2712
 8511SOL     OW37165   1.092   3.936  17.194 -0.5405  0.0791  0.7907
 8511SOL    HW137166   1.030   3.885  17.143 -0.1267 -0.1453  0.5064
 8511SOL    HW237167   1.157   3.956  17.126 -0.6365 -1.5777  0.2070
 8512SOL     OW37168   1.113   4.283   8.268 -0.0246 -0.0332  0.1285
 8512SOL    HW137169   1.096   4.331   8.187 -1.6580  0.9598  1.0452
 8512SOL    HW237170   1.041   4.322   8.318  0.3943  0.3796  0.4066
 8513SOL     OW37171   0.950   3.938   1.511 -0.1858 -0.5249  0.8589
 8513SOL    HW137172   0.950   3.890   1.429  1.3601 -0.2704  0.7152
 8513SOL    HW237173   0.875   3.996   1.497  0.7198  0.4968  0.3241
 8514SOL     OW37174   0.652   3.403   6.332 -0.7600  0.0871  0.0811
 8514SOL    HW137175   0.643   3.370   6.422  1.0620 -4.8877 -1.5978
 8514SOL    HW237176   0.681   3.493   6.351 -0.1938 -0.1734  0.4317
 8515SOL     OW37177   1.429   4.561   9.351  0.6221  0.3858  0.3935
 8515SOL    HW137178   1.405   4.584   9.261 -2.1923  2.3408  1.6374
 8515SOL    HW237179   1.354   4.502   9.363 -0.1942  1.3142 -0.1136
 8516SOL     OW37180   3.731   1.662   5.206  1.0071 -0.1199 -0.0659
 8516SOL    HW137181   3.739   1.758   5.202  1.2832 -0.1851 -1.1518
 8516SOL    HW237182   3.799   1.631   5.146 -1.3047 -1.0731 -2.1770
 8517SOL     OW37183   3.631   4.314   9.189 -0.1677 -0.4370  0.0938
 8517SOL    HW137184   3.713   4.266   9.200  0.0629  0.5936  2.6419
 8517SOL    HW237185   3.592   4.266   9.115  1.1149 -0.8295 -0.3302
 8518SOL     OW37186   4.061   0.069  16.339  0.2266  0.1381 -0.4033
 8518SOL    HW137187   4.002   0.005  16.298  1.3788 -0.7631 -0.6339
 8518SOL    HW237188   4.057   0.142  16.277  0.2970  0.6614  0.2078
 8519SOL     OW37189   0.285   0.739   9.156  0.1374  0.1337  0.6494
 8519SOL    HW137190   0.204   0.716   9.203 -0.2710  1.3684  0.5345
 8519SOL    HW237191   0.342   0.686   9.213  1.5742 -1.7592 -2.5573
 8520SOL     OW37192   1.593   2.252  11.106  0.0093 -0.3256 -0.9865
 8520SOL    HW137193   1.521   2.294  11.153  2.5765  1.8082  1.0868
 8520SOL    HW237194   1.663   2.278  11.166  1.5461 -1.0307 -2.4682
 8521SOL     OW37195   2.711   3.659   2.735  0.0691  0.5646 -0.3637
 8521SOL    HW137196   2.637   3.721   2.734  0.1200  0.6646  1.1155
 8521SOL    HW237197   2.714   3.637   2.828 -1.4439 -4.4199 -1.4852
 8522SOL     OW37198   1.681   3.216   7.556 -0.4687  0.1799 -0.4267
 8522SOL    HW137199   1.652   3.174   7.475  2.6435 -1.4800 -0.7023
 8522SOL    HW237200   1.602   3.220   7.610 -0.9623 -0.1152 -1.1238
 8523SOL     OW37201   2.185   4.128  12.182  0.1386  0.1694  0.6881
 8523SOL    HW137202   2.095   4.109  12.156  0.4900 -0.0084 -0.4066
 8523SOL    HW237203   2.209   4.041  12.215  0.9031 -0.1110 -0.6179
 8524SOL     OW37204   0.136   3.341  12.080  0.1166 -0.5912 -0.1261
 8524SOL    HW137205   0.143   3.260  12.130 -0.0249 -1.2456 -1.1525
 8524SOL    HW237206   0.043   3.353  12.064 -0.2006 -3.1434 -0.3125
 8525SOL     OW37207   4.618   0.298  11.145  0.5749 -0.0637 -0.2141
 8525SOL    HW137208   4.531   0.277  11.110  0.3360  0.0531  0.3073
 8525SOL    HW237209   4.670   0.219  11.128  0.5655  0.6019 -3.4505
 8526SOL     OW37210   3.023   2.996   4.452 -0.6646  0.0088 -0.0488
 8526SOL    HW137211   2.939   3.029   4.421  0.0763  0.9430 -1.0847
 8526SOL    HW237212   3.068   2.995   4.367 -0.1109  2.5687  0.1924
 8527SOL     OW37213   1.835   0.021   6.576 -0.3785  0.3210 -0.2988
 8527SOL    HW137214   1.872   0.094   6.527  1.8594 -1.0604 -0.6325
 8527SOL    HW237215   1.914   4.709   6.590 -0.8656  0.2015  2.0307
 8528SOL     OW37216   0.921   3.736   7.794  0.7019  0.1441 -0.4729
 8528SOL    HW137217   0.929   3.793   7.717  1.2215 -1.1282 -1.3545
 8528SOL    HW237218   0.837   3.760   7.834  1.1588  0.5457  0.2346
 8529SOL     OW37219   0.745   0.415   5.810 -0.1131 -0.3271  0.6671
 8529SOL    HW137220   0.804   0.347   5.777 -2.6462 -2.3625  0.2793
 8529SOL    HW237221   0.668   0.398   5.755  0.4529 -1.5156  0.2183
 8530SOL     OW37222   4.570   0.889   7.895  0.1594 -0.5253  0.0765
 8530SOL    HW137223   4.587   0.819   7.958  2.8019  1.3786  1.4857
 8530SOL    HW237224   4.660   0.915   7.876  0.5226  0.2033  2.6960
 8531SOL     OW37225   3.426   3.516   2.841  0.2240  0.5337 -0.2660
 8531SOL    HW137226   3.491   3.579   2.874 -1.8487  2.8515 -0.5648
 8531SOL    HW237227   3.471   3.432   2.847 -0.1673  0.2569 -1.2865
 8532SOL     OW37228   1.199   3.028   1.123 -0.1346 -0.3672 -0.0192
 8532SOL    HW137229   1.181   3.004   1.032  0.3795  1.5734 -0.6215
 8532SOL    HW237230   1.289   3.060   1.118  0.0076 -0.9706 -1.3018
 8533SOL     OW37231   3.740   0.742   6.382  0.3498  0.1738 -0.1422
 8533SOL    HW137232   3.748   0.837   6.367 -3.0285  0.6479  1.1261
 8533SOL    HW237233   3.653   0.716   6.351  1.0414 -0.3512 -1.6333
 8534SOL     OW37234   4.519   1.946   5.973  0.3357  0.5559  0.0838
 8534SOL    HW137235   4.557   1.954   5.886 -0.6411  0.2303 -0.3708
 8534SOL    HW237236   4.564   1.865   5.998 -1.7749 -0.8940 -0.8393
 8535SOL     OW37237   3.342   0.756   4.783  0.0483 -0.3336 -0.0371
 8535SOL    HW137238   3.312   0.666   4.794 -1.1237  0.1517  0.7809
 8535SOL    HW237239   3.323   0.763   4.689 -0.7499 -1.0957  0.0666
 8536SOL     OW37240   2.690   4.535   7.219  0.1538 -0.6205  0.1829
 8536SOL    HW137241   2.763   4.593   7.203 -0.9937  0.8901  0.4529
 8536SOL    HW237242   2.675   4.537   7.313 -0.5914  1.0048  0.0173
 8537SOL     OW37243   2.207   4.712   3.062  0.2363 -0.4215 -0.3542
 8537SOL    HW137244   2.130   4.691   3.115  1.0547 -0.9400  0.6146
 8537SOL    HW237245   2.260   4.634   3.077 -0.1656 -0.9428 -1.6511
 8538SOL     OW37246   0.133   3.629  15.669  0.2863  0.0483 -0.4430
 8538SOL    HW137247   0.070   3.689  15.630  0.8171  1.1846  0.4346
 8538SOL    HW237248   0.204   3.627  15.605  1.2794  0.9076  0.6198
 8539SOL     OW37249   4.437   1.266   0.784  0.1902 -0.5371 -0.2817
 8539SOL    HW137250   4.345   1.251   0.763 -0.2772 -0.0189  1.4313
 8539SOL    HW237251   4.449   1.329   0.713 -0.9899 -0.9409 -0.8396
 8540SOL     OW37252   0.606   3.702   4.532  0.0502  0.4773  0.5372
 8540SOL    HW137253   0.542   3.772   4.517 -0.9949 -0.8530 -1.3360
 8540SOL    HW237254   0.667   3.711   4.459 -0.6795 -1.1624 -0.2902
 8541SOL     OW37255   3.630   0.545   9.381 -0.2945  0.4839  0.3767
 8541SOL    HW137256   3.627   0.485   9.306 -1.1605  1.3586 -0.2939
 8541SOL    HW237257   3.654   0.628   9.339  0.0631 -0.7434 -1.8737
 8542SOL     OW37258   1.926   1.645  13.544 -0.0958 -0.2638  0.0948
 8542SOL    HW137259   1.832   1.659  13.559  0.2805  0.6817  1.6378
 8542SOL    HW237260   1.951   1.606  13.628 -0.9541 -0.5712  0.2075
 8543SOL     OW37261   1.185   4.383   4.203 -0.0580 -0.3482 -0.3273
 8543SOL    HW137262   1.222   4.455   4.151  0.5062 -1.0101 -0.8281
 8543SOL    HW237263   1.267   4.340   4.225 -0.2058 -1.0859 -1.2591
 8544SOL     OW37264   2.671   0.992   3.834 -0.6116  0.1374  0.2189
 8544SOL    HW137265   2.714   0.961   3.914  0.4309 -1.6771 -1.0585
 8544SOL    HW237266   2.713   1.078   3.831  1.1281 -0.7493 -0.8251
 8545SOL     OW37267   3.630   1.945   5.511  0.4574 -0.3362 -0.1778
 8545SOL    HW137268   3.625   1.849   5.507 -1.8803 -0.3135  2.0942
 8545SOL    HW237269   3.715   1.959   5.554 -0.4844  1.4956  1.0817
 8546SOL     OW37270   1.936   1.222   5.567  0.1105 -0.5679 -0.0417
 8546SOL    HW137271   1.902   1.311   5.557  0.6105 -0.4182 -0.3774
 8546SOL    HW237272   2.025   1.236   5.535  0.0139  0.5316  0.1607
 8547SOL     OW37273   3.900   0.510  15.825 -0.1974  0.6799  0.8477
 8547SOL    HW137274   3.961   0.542  15.758 -2.0704  2.4881 -0.0204
 8547SOL    HW237275   3.925   0.418  15.830 -1.1793  0.3282 -0.6635
 8548SOL     OW37276   1.062   0.576  13.088 -0.2020 -0.2617  0.0666
 8548SOL    HW137277   0.976   0.537  13.104  0.2399 -0.2222  2.5068
 8548SOL    HW237278   1.120   0.523  13.143 -0.2434  1.4685  1.8010
 8549SOL     OW37279   3.188   0.787   5.618  0.3538 -0.2040 -0.1946
 8549SOL    HW137280   3.194   0.693   5.602 -2.1412 -0.6409  1.4356
 8549SOL    HW237281   3.253   0.790   5.688  2.6359 -1.1305 -2.2926
 8550SOL     OW37282   3.148   2.422   5.030 -0.0322  0.0739 -0.1798
 8550SOL    HW137283   3.106   2.350   5.078 -1.5708  0.6147 -0.7338
 8550SOL    HW237284   3.220   2.441   5.090 -0.1229  0.4528 -0.1933
 8551SOL     OW37285   2.517   4.113   2.792  0.3478 -0.3085  0.1906
 8551SOL    HW137286   2.488   4.022   2.784  4.2471 -1.4385 -0.9667
 8551SOL    HW237287   2.609   4.105   2.817  0.9272  1.1395 -1.4548
 8552SOL     OW37288   2.856   3.371  11.842 -0.0111  0.0899 -0.5073
 8552SOL    HW137289   2.810   3.426  11.905  1.6501  0.2172  0.6088
 8552SOL    HW237290   2.931   3.337  11.892 -2.7958 -1.7220  2.3897
 8553SOL     OW37291   2.734   0.684   4.690 -0.6586 -0.4029 -0.3245
 8553SOL    HW137292   2.691   0.599   4.688  0.2930 -0.9110  0.5796
 8553SOL    HW237293   2.696   0.728   4.766 -0.6391  0.7365 -0.9754
 8554SOL     OW37294   3.004   0.952   1.498  0.7566 -0.1933 -0.7007
 8554SOL    HW137295   3.081   0.987   1.453  1.2719  0.8901  1.0337
 8554SOL    HW237296   3.034   0.871   1.538 -1.1611 -2.0226 -2.9486
 8555SOL     OW37297   3.211   1.333   4.925 -0.0403  0.2650 -0.5000
 8555SOL    HW137298   3.302   1.346   4.901  0.0462  1.0323  0.2384
 8555SOL    HW237299   3.194   1.262   4.863  1.5717 -0.0727 -0.5401
 8556SOL     OW37300   3.365   2.652   0.146 -1.0180  0.4243  0.7725
 8556SOL    HW137301   3.279   2.679   0.176 -2.1575  0.1037 -2.1606
 8556SOL    HW237302   3.414   2.668   0.226  1.8109  0.5703 -0.9866
 8557SOL     OW37303   3.736   1.176  10.127 -0.4697 -0.5098 -0.6938
 8557SOL    HW137304   3.799   1.248  10.125  1.5134 -2.2124  1.5829
 8557SOL    HW237305   3.667   1.217  10.180  1.8336  2.3417  0.1098
 8558SOL     OW37306   1.070   2.766   2.977  0.6449 -0.1531 -0.4312
 8558SOL    HW137307   1.142   2.787   3.036 -0.5131  1.2159  0.4912
 8558SOL    HW237308   1.031   2.703   3.038 -0.6123  3.2957  2.2875
 8559SOL     OW37309   4.680   2.810   7.543  0.1250 -0.5254  0.4349
 8559SOL    HW137310   4.694   2.865   7.620  1.6845 -2.1078  1.2613
 8559SOL    HW237311   4.585   2.822   7.538 -0.0885 -2.5194 -0.3311
 8560SOL     OW37312   2.058   1.574   6.971 -0.3518 -0.2376  0.4871
 8560SOL    HW137313   2.009   1.589   6.890  0.6272 -1.1344 -0.2688
 8560SOL    HW237314   2.041   1.657   7.016 -2.2992 -1.2958  1.6891
 8561SOL     OW37315   2.397   1.214  11.942  0.5270  0.1016 -0.0916
 8561SOL    HW137316   2.332   1.267  11.896  0.1529 -3.2131 -3.4327
 8561SOL    HW237317   2.472   1.221  11.883 -0.3565  0.3400 -1.2048
 8562SOL     OW37318   4.103   2.293  13.385 -0.1743  0.4649 -0.0845
 8562SOL    HW137319   4.062   2.275  13.469 -1.7678  0.5993 -0.8257
 8562SOL    HW237320   4.192   2.293  13.419 -0.4911  0.9340  0.7390
 8563SOL     OW37321   0.203   2.298  12.476 -0.2971  0.5261 -0.1155
 8563SOL    HW137322   0.285   2.269  12.517 -1.6056 -0.8479  1.5280
 8563SOL    HW237323   0.147   2.223  12.498  1.1734 -0.9233 -1.2901
 8564SOL     OW37324   4.637   4.706   2.566 -0.5654 -0.2124 -0.1887
 8564SOL    HW137325   4.613   0.058   2.549  0.6373  0.1301 -0.0080
 8564SOL    HW237326   4.555   4.667   2.595  0.4343 -1.2517  1.1972
 8565SOL     OW37327   0.024   1.010  16.505  0.0316 -0.0424  0.6295
 8565SOL    HW137328   0.110   1.029  16.468 -0.6059  1.2385 -0.1861
 8565SOL    HW237329   0.045   0.962  16.586  2.5545  0.6908  0.3996
 8566SOL     OW37330   1.638   4.171  15.505 -0.1960  0.5123 -0.4067
 8566SOL    HW137331   1.719   4.139  15.465 -0.1039  3.3981 -2.4874
 8566SOL    HW237332   1.680   4.233  15.565  1.7392  0.3263 -1.5861
 8567SOL     OW37333   4.140   4.179   4.204  0.4872  0.5470 -0.3666
 8567SOL    HW137334   4.198   4.191   4.129  0.8575 -0.4011 -0.2268
 8567SOL    HW237335   4.102   4.266   4.216 -1.7299 -0.5250  0.4877
 8568SOL     OW37336   0.938   0.439   7.893  0.7302  0.7024 -0.5086
 8568SOL    HW137337   0.911   0.412   7.805  2.1342 -0.3783 -0.6050
 8568SOL    HW237338   1.006   0.372   7.898 -1.7850 -1.7295  0.9942
 8569SOL     OW37339   3.626   1.120   5.595 -0.3520 -0.2852  0.5566
 8569SOL    HW137340   3.544   1.089   5.635  0.6622 -1.9670  1.3121
 8569SOL    HW237341   3.621   1.083   5.507  0.5833  3.0268 -0.8683
 8570SOL     OW37342   4.351   0.769   8.177 -0.4217 -0.0532  0.1095
 8570SOL    HW137343   4.334   0.756   8.270  0.4159 -1.4362  0.0693
 8570SOL    HW237344   4.327   0.860   8.162  1.2881  0.2751 -0.6861
 8571SOL     OW37345   2.929   0.327  11.152 -0.5615 -0.3608 -0.1374
 8571SOL    HW137346   2.980   0.396  11.195 -0.8327 -0.1683 -0.1261
 8571SOL    HW237347   3.008   0.290  11.113 -1.2441 -1.5863 -0.3723
 8572SOL     OW37348   3.924   0.754   4.235  0.5203 -0.2747 -0.8545
 8572SOL    HW137349   4.002   0.785   4.189 -1.0311  1.0135 -2.6267
 8572SOL    HW237350   3.941   0.784   4.324  0.0748 -2.8446  0.1093
 8573SOL     OW37351   3.836   1.972   7.464  0.0830  0.3751  0.6390
 8573SOL    HW137352   3.830   1.876   7.459  0.0565  0.2520  3.4144
 8573SOL    HW237353   3.773   1.979   7.535 -0.6220  2.9873 -0.2330
 8574SOL     OW37354   1.813   0.292   4.401 -0.0800  0.5173 -0.0845
 8574SOL    HW137355   1.846   0.204   4.416 -0.4625  0.3950  0.0487
 8574SOL    HW237356   1.740   0.310   4.460 -0.0162  0.4205  0.0241
 8575SOL     OW37357   0.393   0.040   7.983 -0.3994  0.3355  0.1020
 8575SOL    HW137358   0.365   4.702   7.934  0.1709  1.3050 -1.7367
 8575SOL    HW237359   0.482   0.013   8.004  0.0945  0.2091 -2.2305
 8576SOL     OW37360   3.330   2.466   5.204  1.0776  0.1256 -0.5750
 8576SOL    HW137361   3.289   2.550   5.223  0.0578 -0.7199  0.9569
 8576SOL    HW237362   3.417   2.485   5.169  1.5629  1.7206  1.5534
 8577SOL     OW37363   3.100   0.194  17.564  0.9676 -0.2934  0.4270
 8577SOL    HW137364   3.195   0.199  17.565  0.9369  0.4553 -0.7887
 8577SOL    HW237365   3.085   0.125  17.629 -2.5408 -1.0471 -1.1610
 8578SOL     OW37366   2.635   4.559  16.269  0.2489 -0.0907 -0.0917
 8578SOL    HW137367   2.605   4.475  16.305 -3.1056  1.2835  0.3205
 8578SOL    HW237368   2.557   4.614  16.278 -0.3858 -0.8836 -0.8517
 8579SOL     OW37369   3.758   2.797   5.127 -0.5366  0.4492  0.1500
 8579SOL    HW137370   3.759   2.887   5.159 -2.9735  0.3103  0.5757
 8579SOL    HW237371   3.797   2.746   5.198 -0.4696 -2.3929 -1.9480
 8580SOL     OW37372   2.681   1.683   0.789  0.2399  0.3515 -0.0163
 8580SOL    HW137373   2.604   1.626   0.784  1.0252 -0.5826 -1.4904
 8580SOL    HW237374   2.688   1.705   0.882 -0.4692  1.4099 -0.2130
 8581SOL     OW37375   1.301   1.690  12.177  0.1425 -0.1415 -0.2535
 8581SOL    HW137376   1.290   1.780  12.146 -3.3029 -1.0359 -1.6613
 8581SOL    HW237377   1.385   1.670  12.135  0.0269  3.0273 -1.9988
 8582SOL     OW37378   0.487   2.663   7.326  0.3544 -0.2458 -0.7615
 8582SOL    HW137379   0.411   2.622   7.283  1.3690 -1.6127 -1.2468
 8582SOL    HW237380   0.443   2.705   7.400 -0.8848 -0.5354 -1.3294
 8583SOL     OW37381   0.516   1.849   9.392  0.5753  0.5478  0.4445
 8583SOL    HW137382   0.472   1.890   9.317  1.0971 -0.5147 -0.4522
 8583SOL    HW237383   0.595   1.828   9.343 -0.9294  0.5091 -1.9721
 8584SOL     OW37384   2.886   0.262   5.130  0.5175  0.0906 -0.1516
 8584SOL    HW137385   2.903   0.251   5.037 -1.3954  1.8674 -0.7066
 8584SOL    HW237386   2.871   0.174   5.165  2.3396 -0.0734  0.2265
 8585SOL     OW37387   1.916   1.578   4.092  0.0789 -0.2044 -0.1060
 8585SOL    HW137388   1.982   1.511   4.076  0.4393  0.4211 -1.2749
 8585SOL    HW237389   1.834   1.536   4.063 -0.2541 -0.5428  1.3147
 8586SOL     OW37390   4.116   0.931   5.783 -0.6669 -0.3409 -0.3748
 8586SOL    HW137391   4.151   0.852   5.741  2.4542  0.2915  0.9952
 8586SOL    HW237392   4.045   0.964   5.728  0.8207  3.1253 -0.2041
 8587SOL     OW37393   3.386   3.457   3.171  0.1701  0.5482 -0.1802
 8587SOL    HW137394   3.355   3.382   3.222 -0.1096 -0.9826 -2.6298
 8587SOL    HW237395   3.333   3.460   3.091 -2.6290  1.6032  1.7084
 8588SOL     OW37396   4.223   2.910   5.096 -0.2162 -0.1918 -0.0681
 8588SOL    HW137397   4.190   2.827   5.130 -1.9431  0.3644 -0.3809
 8588SOL    HW237398   4.315   2.909   5.120 -1.1588 -0.9665  3.5340
 8589SOL     OW37399   1.232   1.072  17.122 -0.3790  0.0173 -0.0190
 8589SOL    HW137400   1.259   1.161  17.099  0.7745 -0.1217  0.7836
 8589SOL    HW237401   1.309   1.039  17.168  1.2645  1.1238 -1.9414
 8590SOL     OW37402   4.527   3.916   7.952 -0.8076  0.3664 -0.3374
 8590SOL    HW137403   4.443   3.961   7.949  0.1634  2.0586 -2.2400
 8590SOL    HW237404   4.568   3.960   8.027  0.8204  0.0418 -1.0384
 8591SOL     OW37405   4.669   4.686  11.224  0.5356 -0.2665  0.0702
 8591SOL    HW137406   4.687   4.661  11.315  0.7819  0.5980  0.2621
 8591SOL    HW237407   4.663   4.601  11.182  1.5350  0.0990 -0.8053
 8592SOL     OW37408   0.229   3.617   8.439  0.3318 -0.0152  0.1991
 8592SOL    HW137409   0.139   3.608   8.408  0.3049  2.6470 -0.5126
 8592SOL    HW237410   0.235   3.537   8.492  0.9593 -0.8581 -1.1686
 8593SOL     OW37411   0.424   3.211   5.088  0.1064  0.7687 -0.3569
 8593SOL    HW137412   0.394   3.144   5.149  0.5761  0.3875 -0.5444
 8593SOL    HW237413   0.515   3.184   5.074  0.8681  2.5648  1.0639
 8594SOL     OW37414   1.148   3.789   7.963 -0.1579 -0.6979  0.1275
 8594SOL    HW137415   1.148   3.885   7.956 -0.1142 -0.4217  3.8652
 8594SOL    HW237416   1.080   3.764   7.901  0.8941  1.1730 -1.7980
 8595SOL     OW37417   2.029   2.429  17.077  0.2695 -0.0802 -0.4549
 8595SOL    HW137418   1.953   2.445  17.133 -0.1314 -2.4279 -0.3236
 8595SOL    HW237419   2.025   2.337  17.052 -0.1446 -0.2358  0.1748
 8596SOL     OW37420   3.301   1.768   5.851 -0.3039  0.2141  0.7902
 8596SOL    HW137421   3.310   1.863   5.859  0.8821  0.0537  1.3508
 8596SOL    HW237422   3.394   1.747   5.837 -0.1041  0.7884  1.2608
 8597SOL     OW37423   0.901   2.529  11.769 -0.4862 -0.3531  0.4599
 8597SOL    HW137424   0.862   2.454  11.814 -0.5897 -1.4409 -1.4577
 8597SOL    HW237425   0.868   2.515  11.680 -2.1214  0.4935  0.9227
 8598SOL     OW37426   0.063   2.430  10.482 -0.3757  0.3567 -0.4405
 8598SOL    HW137427   0.015   2.417  10.565  1.7056 -0.3934  0.6450
 8598SOL    HW237428   4.732   2.460  10.425 -0.5859 -0.6984 -0.7425
 8599SOL     OW37429   0.839   3.367  14.856  0.0426  0.5229  0.0725
 8599SOL    HW137430   0.761   3.316  14.834  0.0846 -0.2731  1.8215
 8599SOL    HW237431   0.905   3.303  14.832 -1.2015 -0.3316 -1.0701
 8600SOL     OW37432   0.614   2.679   6.008 -0.1038  0.5444  0.4618
 8600SOL    HW137433   0.585   2.627   5.934 -1.3222  0.4069  1.0378
 8600SOL    HW237434   0.608   2.621   6.084 -2.2083  1.3970  0.9454
 8601SOL     OW37435   4.324   0.743   7.216 -0.6023  0.3397  0.6146
 8601SOL    HW137436   4.306   0.672   7.155  0.5151  2.3918 -2.1093
 8601SOL    HW237437   4.233   0.774   7.210 -0.0163  1.3804 -2.8335
 8602SOL     OW37438   1.474   0.152   9.855  0.2149 -0.4796  0.7927
 8602SOL    HW137439   1.432   0.206   9.789 -2.9282 -1.0676  2.3010
 8602SOL    HW237440   1.491   0.068   9.811 -0.0751 -0.4747  0.6733
 8603SOL     OW37441   0.435   1.196   5.309  0.7731  0.1890  0.0313
 8603SOL    HW137442   0.345   1.167   5.323  0.1955  1.5948 -0.7518
 8603SOL    HW237443   0.462   1.175   5.398 -1.7978 -2.3617  0.2119
 8604SOL     OW37444   2.441   0.983   2.658 -0.1737 -0.1115 -0.1351
 8604SOL    HW137445   2.535   0.980   2.676 -0.1927 -0.1388 -0.0390
 8604SOL    HW237446   2.424   0.889   2.646  0.3439 -0.0789 -1.1565
 8605SOL     OW37447   0.900   2.314   7.114 -0.0602 -0.1432  0.0750
 8605SOL    HW137448   0.875   2.394   7.161  0.6160  0.1363 -0.0344
 8605SOL    HW237449   0.984   2.340   7.074 -0.8267 -0.1329 -1.5192
 8606SOL     OW37450   0.305   0.479  10.969 -0.0358  0.6278  0.2653
 8606SOL    HW137451   0.289   0.570  10.945  1.5782  0.7698 -0.2638
 8606SOL    HW237452   0.249   0.436  10.904  1.6128  0.3408 -0.9448
 8607SOL     OW37453   4.649   3.998   4.638 -0.3545 -0.2130  0.2339
 8607SOL    HW137454   4.648   4.049   4.558  0.0846 -0.1188  0.2887
 8607SOL    HW237455   4.625   3.909   4.610  0.0293  0.3819 -1.9234
 8608SOL     OW37456   4.063   2.770  10.868 -0.2201 -0.1766 -0.2477
 8608SOL    HW137457   4.102   2.858  10.869 -2.6908  0.9161  1.6955
 8608SOL    HW237458   4.134   2.715  10.836  1.6060  0.8006  2.1063
 8609SOL     OW37459   0.570   2.444   2.930  0.4757  0.1603 -0.2445
 8609SOL    HW137460   0.549   2.404   3.014  0.0284  2.9700  0.9877
 8609SOL    HW237461   0.609   2.529   2.952  2.9381 -1.1621  0.4758
 8610SOL     OW37462   1.966   2.792  10.839  0.0220  0.3157  0.3588
 8610SOL    HW137463   1.957   2.886  10.852 -3.0627  0.0233  0.3275
 8610SOL    HW237464   1.961   2.768  10.931  1.6377 -0.9248  0.1230
 8611SOL     OW37465   1.237   4.018   3.237 -0.0093  0.3551  0.1645
 8611SOL    HW137466   1.274   4.085   3.179 -0.8401  1.0253  0.4197
 8611SOL    HW237467   1.290   4.021   3.317  1.9082 -0.1167 -1.0708
 8612SOL     OW37468   2.829   0.653  11.167 -0.6777  0.1672 -0.1162
 8612SOL    HW137469   2.823   0.623  11.077  0.7394 -0.6468  0.0601
 8612SOL    HW237470   2.899   0.596  11.199  0.1199  0.5644 -1.1961
 8613SOL     OW37471   0.108   1.396   4.767  0.3296 -0.1227  0.4907
 8613SOL    HW137472   0.134   1.488   4.756 -0.3524  0.1716  1.3021
 8613SOL    HW237473   0.071   1.388   4.680  0.2258  1.1430  0.4079
 8614SOL     OW37474   3.638   0.005   2.703  0.3970 -0.6686  0.0963
 8614SOL    HW137475   3.705   0.074   2.698 -1.1338  0.7645 -0.5578
 8614SOL    HW237476   3.592   0.044   2.777  0.8890  1.5219 -0.7508
 8615SOL     OW37477   3.339   4.010   4.504  0.2626 -0.0908  0.9875
 8615SOL    HW137478   3.433   4.008   4.520  0.1882 -0.3660  1.3938
 8615SOL    HW237479   3.333   3.931   4.449 -1.3885 -0.0837  1.1542
 8616SOL     OW37480   3.900   3.211   8.759 -0.1121 -0.4142  0.0924
 8616SOL    HW137481   3.969   3.145   8.754 -1.7497 -2.1444  0.2864
 8616SOL    HW237482   3.833   3.166   8.810 -1.5130  0.6592 -0.7764
 8617SOL     OW37483   1.222   2.594   5.612  0.3689  0.1422  0.0571
 8617SOL    HW137484   1.169   2.671   5.594  0.6585  0.1601 -0.7357
 8617SOL    HW237485   1.163   2.524   5.584  1.0900  0.1301 -1.4230
 8618SOL     OW37486   1.963   2.200   2.337 -0.1664  0.3805 -0.2506
 8618SOL    HW137487   1.955   2.225   2.429  0.2270  1.0011 -0.3811
 8618SOL    HW237488   1.913   2.272   2.298 -1.6172 -0.4856  0.0246
 8619SOL     OW37489   3.713   2.084   8.793  0.0943  0.1882 -0.5739
 8619SOL    HW137490   3.793   2.042   8.761  0.1147  0.2497 -0.6042
 8619SOL    HW237491   3.653   2.049   8.727 -0.0303  2.3489 -1.6117
 8620SOL     OW37492   1.258   1.340   7.004 -0.6135  0.1970  0.4356
 8620SOL    HW137493   1.255   1.419   6.950  1.2978 -1.2928 -1.8785
 8620SOL    HW237494   1.313   1.283   6.949 -2.4214 -0.3355 -0.8119
 8621SOL     OW37495   2.583   0.602  11.295 -0.2767  0.0870 -0.0206
 8621SOL    HW137496   2.554   0.527  11.243 -0.6758 -0.8791  1.5999
 8621SOL    HW237497   2.662   0.641  11.258  0.4087  0.4795  1.8948
 8622SOL     OW37498   3.494   1.220  15.326 -0.0028 -0.1325  0.1224
 8622SOL    HW137499   3.522   1.311  15.316  0.0190 -0.0483  0.9877
 8622SOL    HW237500   3.580   1.179  15.334  0.5285  1.5675  3.1674
 8623SOL     OW37501   0.442   2.911   4.434  0.3370  0.6487 -0.1468
 8623SOL    HW137502   0.477   2.899   4.346  0.7167  0.7628 -0.0120
 8623SOL    HW237503   0.386   2.985   4.410 -1.2761 -0.6348 -0.3640
 8624SOL     OW37504   3.287   4.432   6.161  0.1373  0.6655  0.4924
 8624SOL    HW137505   3.293   4.510   6.105 -1.1165 -0.5737 -1.3389
 8624SOL    HW237506   3.378   4.401   6.151  0.1117  0.3521  1.2813
 8625SOL     OW37507   4.334   4.202  14.604  0.4317  0.0579 -0.3349
 8625SOL    HW137508   4.343   4.294  14.628 -0.8057  1.0328 -3.7388
 8625SOL    HW237509   4.239   4.192  14.599  0.3784  0.5628 -0.2685
 8626SOL     OW37510   3.692   2.905   6.529 -0.1922  0.0315  0.5738
 8626SOL    HW137511   3.634   2.962   6.479  0.0084 -1.4180 -1.3135
 8626SOL    HW237512   3.693   2.837   6.461  0.1642  0.1350  0.4798
 8627SOL     OW37513   1.037   3.185   7.837 -0.2311  0.0409  0.0412
 8627SOL    HW137514   1.055   3.277   7.855 -0.6877  0.1824 -0.2441
 8627SOL    HW237515   1.112   3.153   7.887  0.1961  0.6206 -0.2268
 8628SOL     OW37516   0.665   2.008   1.915 -0.7710  0.4498  0.4915
 8628SOL    HW137517   0.646   1.980   2.005 -1.6245 -0.0032  0.1787
 8628SOL    HW237518   0.634   2.098   1.918  0.7605  0.9611  0.6611
 8629SOL     OW37519   1.439   2.505   4.111  0.8270 -0.6006 -0.7817
 8629SOL    HW137520   1.375   2.518   4.181 -0.5789 -1.0760 -1.9694
 8629SOL    HW237521   1.406   2.562   4.041 -0.6669 -1.5575 -0.8518
 8630SOL     OW37522   3.514   2.288   5.598 -0.1725  0.5099  0.2563
 8630SOL    HW137523   3.512   2.202   5.557  0.5657  0.6398 -0.0494
 8630SOL    HW237524   3.428   2.323   5.573  1.1715  4.3902  1.1248
 8631SOL     OW37525   1.836   3.545   6.163 -0.0992  0.0139  0.1140
 8631SOL    HW137526   1.821   3.631   6.202 -1.7539 -1.4250  2.6647
 8631SOL    HW237527   1.850   3.496   6.244  0.4484 -1.0453 -0.6242
 8632SOL     OW37528   0.119   3.942   4.818 -0.6415  0.2876  0.5109
 8632SOL    HW137529   0.103   3.851   4.844 -0.2318  0.2375  0.5761
 8632SOL    HW237530   0.042   3.954   4.763  0.7363  0.3902 -1.3720
 8633SOL     OW37531   3.467   2.576   1.550  0.7766  0.3563 -0.5078
 8633SOL    HW137532   3.472   2.653   1.606  0.1420  1.0100 -1.3417
 8633SOL    HW237533   3.526   2.594   1.476  0.1923  1.6267 -0.6698
 8634SOL     OW37534   0.361   2.031   7.282 -0.5339 -0.0006  0.2556
 8634SOL    HW137535   0.319   1.950   7.253 -2.4979  0.9534  0.4092
 8634SOL    HW237536   0.415   2.051   7.206 -1.2277 -0.9301 -0.4821
 8635SOL     OW37537   3.276   3.326   4.315 -0.5351  0.6045 -0.2957
 8635SOL    HW137538   3.200   3.293   4.267  1.0358 -3.3514 -0.0710
 8635SOL    HW237539   3.308   3.266   4.382 -1.7644 -1.0550 -1.1814
 8636SOL     OW37540   2.960   0.808   7.580  0.4245 -0.3272 -0.0224
 8636SOL    HW137541   2.912   0.795   7.662  1.5258 -0.5026  0.5854
 8636SOL    HW237542   2.977   0.718   7.556 -0.0027 -0.4386  0.0792
 8637SOL     OW37543   0.353   4.084   3.738 -0.1470 -0.2014 -0.2339
 8637SOL    HW137544   0.337   3.998   3.700 -1.7368 -0.4713  1.0541
 8637SOL    HW237545   0.317   4.151   3.680  1.3725  1.2561  0.5055
 8638SOL     OW37546   0.213   0.369  10.702 -0.4598  0.2125  0.0179
 8638SOL    HW137547   0.123   0.397  10.718  0.0569  0.2552  2.8577
 8638SOL    HW237548   0.216   0.282  10.742  3.4546  0.1342 -0.5111
 8639SOL     OW37549   0.177   1.046   2.964  0.4818 -0.3822  0.1175
 8639SOL    HW137550   0.263   1.087   2.954 -0.0848  0.6842 -0.3448
 8639SOL    HW237551   0.154   1.060   3.055  1.0301 -1.8647  0.4897
 8640SOL     OW37552   2.377   0.699   1.809 -0.2611  0.1357 -0.6252
 8640SOL    HW137553   2.323   0.646   1.751 -0.3721  0.7012 -1.0414
 8640SOL    HW237554   2.384   0.776   1.754 -1.2287  0.1849 -0.6823
 8641SOL     OW37555   2.283   3.341   4.602  0.7447 -0.4179  0.4551
 8641SOL    HW137556   2.297   3.417   4.659  3.1150 -0.2634 -0.3368
 8641SOL    HW237557   2.374   3.336   4.572  0.0563 -1.2143 -1.4876
 8642SOL     OW37558   1.200   3.957  13.982 -0.1263 -0.2703 -0.0698
 8642SOL    HW137559   1.225   3.918  13.898  0.7953  1.0734 -0.4285
 8642SOL    HW237560   1.171   3.876  14.022  1.7336 -0.6805  0.4383
 8643SOL     OW37561   2.018   3.592   7.884  0.6142 -0.5734 -0.3471
 8643SOL    HW137562   1.985   3.506   7.908  0.3019 -0.7516 -1.4363
 8643SOL    HW237563   2.072   3.614   7.960 -1.6322 -0.5468  1.2314
 8644SOL     OW37564   0.023   1.121   9.280 -0.4954 -0.1299  0.3131
 8644SOL    HW137565   4.703   1.053   9.311 -0.7830  0.0210  0.0874
 8644SOL    HW237566   0.099   1.079   9.239  1.8586  3.8740  0.5317
 8645SOL     OW37567   4.462   1.432   9.319 -0.0275  0.0971  0.0893
 8645SOL    HW137568   4.472   1.356   9.377 -1.9981  1.2922  1.9785
 8645SOL    HW237569   4.395   1.392   9.264 -0.1351  0.6795 -0.1992
 8646SOL     OW37570   1.367   0.505  16.089  0.1930  0.4951  0.6948
 8646SOL    HW137571   1.407   0.576  16.140  1.2645  0.0963  0.4159
 8646SOL    HW237572   1.363   0.437  16.156 -0.2839 -1.3031 -1.1587
 8647SOL     OW37573   2.686   4.220   4.203  0.6112 -0.0314 -0.0352
 8647SOL    HW137574   2.602   4.190   4.236  0.1943  2.1884  0.8966
 8647SOL    HW237575   2.691   4.158   4.130 -1.8298  0.6461 -0.7671
 8648SOL     OW37576   3.760   3.254   4.240 -0.6487 -0.1786 -0.3855
 8648SOL    HW137577   3.824   3.207   4.295 -1.1269 -1.7007 -1.1151
 8648SOL    HW237578   3.724   3.316   4.303  0.7480  1.1470 -0.9140
 8649SOL     OW37579   0.404   1.974  14.756  0.2460 -0.1816 -0.5236
 8649SOL    HW137580   0.333   1.976  14.820  1.2013  0.1578  0.5374
 8649SOL    HW237581   0.467   2.039  14.788  1.8160 -1.6635 -0.6193
 8650SOL     OW37582   2.121   3.722  16.211  0.4524 -0.2852 -1.0141
 8650SOL    HW137583   2.122   3.795  16.150 -2.7930 -0.5739 -1.3985
 8650SOL    HW237584   2.047   3.670  16.179 -1.1882 -1.6281  4.8612
 8651SOL     OW37585   3.367   1.780   7.170 -0.4501  0.6459 -0.2041
 8651SOL    HW137586   3.316   1.756   7.247 -0.0557 -1.9564 -0.7583
 8651SOL    HW237587   3.315   1.749   7.096  0.4643 -0.5103 -0.3545
 8652SOL     OW37588   1.088   2.700   4.415 -0.0508  0.4326 -0.0555
 8652SOL    HW137589   1.001   2.739   4.428  0.3113  0.5144  2.0928
 8652SOL    HW237590   1.063   2.609   4.430  1.2509  0.7728  4.0441
 8653SOL     OW37591   0.344   1.824   6.489  0.4376 -1.0186  0.2703
 8653SOL    HW137592   0.339   1.728   6.494  4.1800 -1.1786  1.0704
 8653SOL    HW237593   0.277   1.834   6.422 -0.0713  1.9052  1.2154
 8654SOL     OW37594   3.472   4.182   3.107  0.0576 -0.0856  0.2760
 8654SOL    HW137595   3.540   4.233   3.151 -0.7763 -0.6978  2.2943
 8654SOL    HW237596   3.520   4.127   3.046 -2.9037  0.4325 -2.5000
 8655SOL     OW37597   2.349   0.920   1.659  0.0988  0.8585 -0.1334
 8655SOL    HW137598   2.408   0.938   1.586 -0.2336  0.0980 -0.5896
 8655SOL    HW237599   2.341   1.006   1.701 -1.8107  1.6064 -2.0714
 8656SOL     OW37600   2.400   3.794   5.638  0.4528  0.5104 -0.0912
 8656SOL    HW137601   2.435   3.813   5.725 -1.1180  1.3600  0.3471
 8656SOL    HW237602   2.482   3.762   5.599  0.1010  0.2230 -0.5977
 8657SOL     OW37603   3.249   2.943   6.305  0.7016 -0.2018 -0.0048
 8657SOL    HW137604   3.177   2.903   6.256  0.1072  0.1205  0.5973
 8657SOL    HW237605   3.190   3.008   6.343  1.4640  0.6347 -0.2503
 8658SOL     OW37606   3.160   4.601   5.678  0.4510  0.4558  0.2195
 8658SOL    HW137607   3.204   4.677   5.641 -0.0635  0.4967 -0.3090
 8658SOL    HW237608   3.173   4.547   5.600  0.6009  0.6340  0.1226
 8659SOL     OW37609   0.642   4.475   4.378 -0.4457 -0.4604  0.1527
 8659SOL    HW137610   0.657   4.495   4.471  0.3031 -0.8795  0.1250
 8659SOL    HW237611   0.548   4.488   4.371 -0.2972  0.0866 -0.8491
 8660SOL     OW37612   2.124   4.054   9.195  0.1232  0.4889 -0.1944
 8660SOL    HW137613   2.207   4.008   9.205  0.6262  1.5050  0.2890
 8660SOL    HW237614   2.124   4.115   9.269  1.5777 -0.3089  0.4679
 8661SOL     OW37615   0.550   2.588   3.569 -0.4465 -0.6878 -0.0914
 8661SOL    HW137616   0.487   2.648   3.528  0.6851 -0.3620 -1.3336
 8661SOL    HW237617   0.491   2.528   3.615  0.4791 -1.1986  0.4233
 8662SOL     OW37618   2.081   1.148   9.838 -0.5912  0.0852  0.5040
 8662SOL    HW137619   2.083   1.228   9.891  0.3944 -0.7340  1.7008
 8662SOL    HW237620   2.102   1.091   9.912 -0.7152 -2.6929 -1.5905
 8663SOL     OW37621   2.676   2.700  14.462 -0.6012  0.4836  0.4434
 8663SOL    HW137622   2.700   2.693  14.370 -1.0864 -0.1976  0.3675
 8663SOL    HW237623   2.755   2.657  14.495  1.4846  1.0348 -3.8840
 8664SOL     OW37624   2.484   0.079   8.633 -0.5748  0.2637  0.2705
 8664SOL    HW137625   2.454   0.140   8.701 -0.9195 -1.0511  1.2799
 8664SOL    HW237626   2.445   0.116   8.553  0.9669  0.2166 -0.5081
 8665SOL     OW37627   1.029   0.440   8.895 -0.3246  0.3773 -0.0300
 8665SOL    HW137628   1.023   0.354   8.854 -0.9142  1.4177 -2.1445
 8665SOL    HW237629   1.036   0.507   8.827  0.9720 -0.1586 -0.4126
 8666SOL     OW37630   0.712   1.524   6.536 -0.0724  0.5519 -0.0004
 8666SOL    HW137631   0.618   1.511   6.538  0.0036 -0.0638 -0.5974
 8666SOL    HW237632   0.729   1.543   6.444 -0.3851  1.0089  0.0374
 8667SOL     OW37633   0.820   4.001   4.719 -0.0598  0.8399 -0.3775
 8667SOL    HW137634   0.768   3.933   4.761 -1.0961  1.5448 -0.5371
 8667SOL    HW237635   0.908   3.980   4.750 -0.4417 -1.6947 -1.0276
 8668SOL     OW37636   1.048   0.779   1.188 -0.1501 -0.5021  0.0708
 8668SOL    HW137637   1.092   0.863   1.202  0.7532 -0.8670 -0.5612
 8668SOL    HW237638   1.005   0.790   1.104 -1.5771  1.3043  1.0427
 8669SOL     OW37639   2.299   4.107   5.766 -0.0499 -0.3389 -0.0090
 8669SOL    HW137640   2.217   4.141   5.730 -1.2595  0.0673  3.0760
 8669SOL    HW237641   2.270   4.020   5.793  3.9756 -2.3347 -2.1551
 8670SOL     OW37642   1.610   1.365   6.209 -0.6142 -0.4575 -0.0776
 8670SOL    HW137643   1.531   1.351   6.260 -0.7464 -1.7169 -0.6285
 8670SOL    HW237644   1.586   1.448   6.168 -0.5802  0.8877  2.6125
 8671SOL     OW37645   1.339   0.048  13.433  0.2474 -0.7594 -0.2434
 8671SOL    HW137646   1.271   0.074  13.496 -0.0130 -0.9880 -0.4292
 8671SOL    HW237647   1.292   0.044  13.350 -2.2799  0.6454  1.1318
 8672SOL     OW37648   2.910   2.810   1.566  0.2958  0.4640 -0.2688
 8672SOL    HW137649   2.888   2.789   1.475 -1.0340 -1.5916  0.5325
 8672SOL    HW237650   3.005   2.822   1.563  0.4709 -0.9978 -0.4213
 8673SOL     OW37651   4.566   1.850  12.587 -0.4650  0.1121  0.4375
 8673SOL    HW137652   4.491   1.815  12.539 -0.7520 -0.7019  1.4877
 8673SOL    HW237653   4.634   1.821  12.526 -0.4347  1.9838 -0.4240
 8674SOL     OW37654   2.521   2.566   6.893  0.6497  0.4088 -0.4835
 8674SOL    HW137655   2.533   2.616   6.813  1.6932 -0.7780 -1.0707
 8674SOL    HW237656   2.503   2.480   6.855 -0.4649  0.7753 -0.7828
 8675SOL     OW37657   0.792   1.020   1.151  0.0056  0.7891 -0.2026
 8675SOL    HW137658   0.746   1.043   1.070 -0.4602  0.6916  0.0359
 8675SOL    HW237659   0.882   1.021   1.119  0.7375 -0.3748  1.8251
 8676SOL     OW37660   4.167   0.579   3.018  0.1792  0.1421 -0.1528
 8676SOL    HW137661   4.166   0.516   3.090  0.8079  0.8386  0.4648
 8676SOL    HW237662   4.138   0.658   3.063 -1.8590 -0.8282  0.2515
 8677SOL     OW37663   0.984   4.597   6.624  0.0201 -0.6189 -0.5171
 8677SOL    HW137664   0.900   4.628   6.658  1.1677  2.2177 -0.2208
 8677SOL    HW237665   1.047   4.632   6.688 -0.5466  1.9427 -1.3774
 8678SOL     OW37666   0.162   0.237   9.852 -0.0645 -0.1069  0.4523
 8678SOL    HW137667   0.098   0.223   9.922 -1.0378 -0.5945 -0.5366
 8678SOL    HW237668   0.214   0.309   9.887 -1.0018  0.9342 -0.3010
 8679SOL     OW37669   0.148   3.174   8.497 -0.1574  0.7190  0.4847
 8679SOL    HW137670   0.241   3.159   8.511  0.6132  2.0151 -3.1832
 8679SOL    HW237671   0.111   3.143   8.579 -0.2620  1.4182  0.7060
 8680SOL     OW37672   1.587   3.991   5.839 -0.4896 -0.2567  0.2021
 8680SOL    HW137673   1.645   4.044   5.893 -1.3308 -0.2795  1.1157
 8680SOL    HW237674   1.586   3.907   5.884 -0.2344 -0.2849  0.1561
 8681SOL     OW37675   0.019   3.721   7.330  0.1228 -0.4609  0.4456
 8681SOL    HW137676   0.011   3.681   7.243  0.0077  2.0864 -0.7046
 8681SOL    HW237677   0.060   3.653   7.384 -1.4623 -0.4285  1.6839
 8682SOL     OW37678   4.314   2.012   3.147 -0.0613 -0.3548 -0.1346
 8682SOL    HW137679   4.327   1.993   3.240  0.6204  0.9916  0.0432
 8682SOL    HW237680   4.279   2.101   3.150 -0.7089 -0.6998  3.1573
 8683SOL     OW37681   4.597   0.841   0.364  0.2002  0.0930 -0.0906
 8683SOL    HW137682   4.593   0.904   0.293 -2.6286  1.0213  0.8641
 8683SOL    HW237683   4.659   0.780   0.324 -0.0943  0.3994 -1.0030
 8684SOL     OW37684   1.079   1.775  11.530  0.3335 -0.2338  0.1896
 8684SOL    HW137685   1.104   1.683  11.541 -1.6025 -0.6103  1.3647
 8684SOL    HW237686   1.051   1.774  11.439  1.0536 -0.2450 -0.0360
 8685SOL     OW37687   1.486   0.672   2.594  0.0896  0.1927  0.4376
 8685SOL    HW137688   1.538   0.747   2.623  0.1349 -0.1044  1.1176
 8685SOL    HW237689   1.424   0.670   2.667  0.4537  2.0359  0.7799
 8686SOL     OW37690   0.329   4.212   1.421  0.4690  0.0174 -0.2453
 8686SOL    HW137691   0.399   4.161   1.381 -1.1496 -3.1148  0.8952
 8686SOL    HW237692   0.283   4.243   1.344  0.2484 -0.3832 -0.2756
 8687SOL     OW37693   3.813   3.459   5.407  0.0958 -0.6074  0.1640
 8687SOL    HW137694   3.855   3.545   5.411  2.0986 -1.4265 -2.6263
 8687SOL    HW237695   3.760   3.464   5.327  0.0257 -0.9437  0.1917
 8688SOL     OW37696   1.346   4.526   6.901  0.0797  0.0874  0.1213
 8688SOL    HW137697   1.321   4.618   6.887 -1.3285 -0.4765 -1.0121
 8688SOL    HW237698   1.435   4.538   6.870 -0.2536  0.9063 -0.5395
 8689SOL     OW37699   3.250   3.067   1.260  0.1781  0.0099  0.3523
 8689SOL    HW137700   3.239   3.149   1.308  1.0147  1.2665 -1.6354
 8689SOL    HW237701   3.161   3.033   1.267 -0.7049  1.9725 -1.5169
 8690SOL     OW37702   3.426   2.497   2.176 -0.3391 -0.4188  0.7121
 8690SOL    HW137703   3.352   2.492   2.116  0.2845 -0.0431 -0.0895
 8690SOL    HW237704   3.394   2.433   2.240 -1.1938  0.8320  1.5489
 8691SOL     OW37705   1.645   2.531   2.798  0.0613  0.3364 -0.4277
 8691SOL    HW137706   1.659   2.625   2.812 -3.3379  0.9468 -1.1034
 8691SOL    HW237707   1.603   2.527   2.712 -1.2134 -2.6791  0.3341
 8692SOL     OW37708   0.544   3.922   7.250  0.2861  0.1489 -0.1724
 8692SOL    HW137709   0.580   3.907   7.338 -0.2115 -0.1715 -0.0240
 8692SOL    HW237710   0.546   4.018   7.247 -2.0072  0.1644 -1.4040
 8693SOL     OW37711   1.385   2.470   7.790  0.4044  0.3766 -0.3937
 8693SOL    HW137712   1.342   2.415   7.856  2.6882 -2.4275 -1.2359
 8693SOL    HW237713   1.468   2.425   7.776  1.2624  2.6071 -2.3512
 8694SOL     OW37714   4.223   1.966  13.645 -0.1545 -0.6821  0.4782
 8694SOL    HW137715   4.212   1.954  13.739 -1.8298 -0.1252  0.3581
 8694SOL    HW237716   4.315   1.986  13.626 -0.1490  0.1257  1.4057
 8695SOL     OW37717   2.086   3.598  16.700  0.0226  0.3005 -0.5019
 8695SOL    HW137718   2.004   3.645  16.689  0.7206  1.1696 -2.0343
 8695SOL    HW237719   2.087   3.579  16.794 -0.6278  0.6002 -0.4400
 8696SOL     OW37720   2.865   1.361   5.308 -0.0710  0.0583  0.6350
 8696SOL    HW137721   2.858   1.425   5.237  0.2948  0.1331  0.6694
 8696SOL    HW237722   2.947   1.389   5.349  0.3949 -0.2735 -0.0845
 8697SOL     OW37723   2.617   1.256   9.891  0.0046  0.2680  0.1002
 8697SOL    HW137724   2.556   1.278   9.961  1.1872  1.3494  0.8079
 8697SOL    HW237725   2.645   1.343   9.861 -1.4968  0.7780  0.1828
 8698SOL     OW37726   1.207   2.310   9.835  0.0437  0.5701 -0.1325
 8698SOL    HW137727   1.250   2.369   9.774  2.5849  0.0616  1.1857
 8698SOL    HW237728   1.114   2.318   9.813  0.3544  2.0546 -0.8664
 8699SOL     OW37729   4.246   0.040   9.457  0.0778  0.0767 -0.2207
 8699SOL    HW137730   4.327   4.733   9.434 -1.1633 -1.8926 -0.6721
 8699SOL    HW237731   4.236   0.022   9.550 -0.3349  1.9405  0.0751
 8700SOL     OW37732   1.829   1.419   7.185  0.2774  0.8504  0.4851
 8700SOL    HW137733   1.775   1.498   7.178 -0.1704  0.4800 -0.2890
 8700SOL    HW237734   1.791   1.387   7.103  1.3001 -0.2139  0.4390
 8701SOL     OW37735   0.734   3.317   4.635  0.7023  0.2163 -0.3289
 8701SOL    HW137736   0.771   3.380   4.696  1.1125  0.2063 -0.5672
 8701SOL    HW237737   0.647   3.354   4.627  1.3121  1.4483 -1.1944
 8702SOL     OW37738   4.549   4.424  14.417  0.3150 -0.3172  0.1507
 8702SOL    HW137739   4.530   4.334  14.392 -0.9392 -0.0621  0.1382
 8702SOL    HW237740   4.555   4.415  14.512  2.7117  1.1576  0.1464
 8703SOL     OW37741   1.481   3.545   9.262  0.1610 -0.8131  0.0275
 8703SOL    HW137742   1.548   3.600   9.303  1.4576 -1.1527 -1.6441
 8703SOL    HW237743   1.406   3.552   9.321 -0.1965 -0.4035 -0.4741
 8704SOL     OW37744   0.916   0.218   3.083  0.5751  0.4368  0.4075
 8704SOL    HW137745   1.003   0.179   3.072  1.1469  1.1318  2.4821
 8704SOL    HW237746   0.884   0.169   3.158 -1.2597  0.8440 -0.1006
 8705SOL     OW37747   3.728   3.420  16.899  0.4001  0.1748  0.2949
 8705SOL    HW137748   3.643   3.406  16.942  1.6030 -1.2605  2.2148
 8705SOL    HW237749   3.747   3.327  16.912 -2.2394 -0.5193 -0.7691
 8706SOL     OW37750   0.495   1.846  11.855 -0.7976 -0.3389  0.4279
 8706SOL    HW137751   0.479   1.919  11.915 -0.9186 -1.0513  1.2645
 8706SOL    HW237752   0.479   1.887  11.770  2.0394 -1.2996 -0.5478
 8707SOL     OW37753   0.251   3.992  10.043 -0.0875  0.7929 -0.3260
 8707SOL    HW137754   0.305   3.931   9.993 -1.4651 -1.0213  0.4137
 8707SOL    HW237755   0.193   3.922  10.072  1.4646 -0.4010 -0.1498
 8708SOL     OW37756   2.684   1.107   7.303  0.9922 -0.1108  0.0088
 8708SOL    HW137757   2.693   1.011   7.305  0.9726 -0.0886  1.1228
 8708SOL    HW237758   2.727   1.130   7.385  2.3912  2.7180 -1.5252
 8709SOL     OW37759   3.974   2.588  11.696  0.1625  0.8053  0.3782
 8709SOL    HW137760   4.063   2.560  11.673 -0.5342 -2.2312  1.4181
 8709SOL    HW237761   3.925   2.530  11.638  2.1220 -1.7831  1.3154
 8710SOL     OW37762   3.524   0.209   5.539  0.1423 -0.0764 -0.5836
 8710SOL    HW137763   3.580   0.268   5.489 -1.8654  2.6434  0.4148
 8710SOL    HW237764   3.556   0.125   5.505 -0.0646 -1.1514  1.8750
 8711SOL     OW37765   1.909   1.171   3.631  0.1241  0.0842 -0.3245
 8711SOL    HW137766   1.844   1.237   3.607  0.3159  0.9725  1.6176
 8711SOL    HW237767   1.888   1.117   3.555  2.2845  0.8399 -1.4616
 8712SOL     OW37768   3.346   1.619   2.420 -0.5838  0.6103  0.2339
 8712SOL    HW137769   3.288   1.694   2.435 -0.1956  0.7270  1.1426
 8712SOL    HW237770   3.323   1.596   2.331  1.6221  0.5038 -0.3020
 8713SOL     OW37771   4.283   3.439   7.340  0.1845  0.3842  0.2637
 8713SOL    HW137772   4.253   3.469   7.426  2.3089 -0.9823  1.4914
 8713SOL    HW237773   4.368   3.398   7.359 -0.9631 -1.2837  1.8317
 8714SOL     OW37774   1.273   4.343  13.859  0.0914  0.4500 -0.2389
 8714SOL    HW137775   1.190   4.313  13.822  0.0735  0.3266 -0.0998
 8714SOL    HW237776   1.244   4.384  13.940 -0.3509 -0.0188 -0.1621
 8715SOL     OW37777   2.424   2.822  17.408  0.6929  0.1084 -0.4310
 8715SOL    HW137778   2.422   2.850  17.317 -1.5126  0.6390 -0.2012
 8715SOL    HW237779   2.452   2.731  17.401  1.4536  0.3420 -0.4802
 8716SOL     OW37780   0.415   3.758   6.836 -0.5172 -0.1060  0.3342
 8716SOL    HW137781   0.411   3.794   6.748  1.1744 -0.7812 -0.0139
 8716SOL    HW237782   0.504   3.723   6.835 -0.6783 -0.4963  0.0898
 8717SOL     OW37783   3.765   1.381   3.617 -0.3757  0.3692  0.0332
 8717SOL    HW137784   3.823   1.311   3.648 -0.3450 -0.1616 -1.2132
 8717SOL    HW237785   3.688   1.378   3.673 -1.5632  1.0991 -1.5617
 8718SOL     OW37786   1.338   1.130   8.250  0.0577 -0.6251  0.1348
 8718SOL    HW137787   1.251   1.167   8.266  0.6689  0.1289  1.6072
 8718SOL    HW237788   1.398   1.204   8.256 -1.6363  0.5687  2.3235
 8719SOL     OW37789   3.551   2.681  17.393  0.1648 -0.0673 -0.0376
 8719SOL    HW137790   3.500   2.646  17.466  0.5507  0.9227  0.7087
 8719SOL    HW237791   3.499   2.633  17.328  2.9921 -1.4522 -1.2391
 8720SOL     OW37792   2.326   3.410   5.235 -0.1012 -0.1300  0.1039
 8720SOL    HW137793   2.269   3.405   5.312 -1.6174  0.3838 -0.9909
 8720SOL    HW237794   2.393   3.359   5.281  0.3256  0.5512  0.2360
 8721SOL     OW37795   2.720   0.406  17.578 -1.0068  0.7790  0.1224
 8721SOL    HW137796   2.716   0.338  17.645  0.4315 -1.7860 -2.3731
 8721SOL    HW237797   2.814   0.415  17.560 -0.7906 -0.4048  0.6964
 8722SOL     OW37798   2.463   1.199  10.333  0.3117 -0.5216 -0.6407
 8722SOL    HW137799   2.422   1.161  10.255  1.0187  2.3691 -2.4345
 8722SOL    HW237800   2.404   1.274  10.341  0.7177 -0.1608 -0.9924
 8723SOL     OW37801   4.225   2.794   1.507 -0.5673 -0.0804  0.4555
 8723SOL    HW137802   4.158   2.815   1.572 -1.6839  1.1485 -1.1096
 8723SOL    HW237803   4.295   2.837   1.555  0.4054 -1.4808  0.3050
 8724SOL     OW37804   3.466   1.779   2.863 -0.0220  0.5007  0.2412
 8724SOL    HW137805   3.383   1.751   2.826 -0.0145 -0.1516  0.7159
 8724SOL    HW237806   3.443   1.850   2.923  1.4218  1.4231 -0.2733
 8725SOL     OW37807   1.183   0.397   6.986 -0.3432 -0.1865 -0.8395
 8725SOL    HW137808   1.230   0.446   7.053  1.1263  1.0608 -2.7842
 8725SOL    HW237809   1.098   0.440   6.990  0.4731  1.6038 -2.8882
 8726SOL     OW37810   0.906   2.460  10.503 -0.1234  0.1706  0.2045
 8726SOL    HW137811   0.859   2.485  10.424  1.5769  1.4717 -0.3916
 8726SOL    HW237812   0.991   2.498  10.479  0.8661 -3.7743 -2.5113
 8727SOL     OW37813   3.837   2.128   0.636  0.0504 -0.0773  0.0996
 8727SOL    HW137814   3.850   2.058   0.700 -0.8000  1.2069  1.6775
 8727SOL    HW237815   3.899   2.197   0.658  0.1480  0.6602 -2.4665
 8728SOL     OW37816   4.311   3.490   4.768 -0.4562 -0.3505 -0.0101
 8728SOL    HW137817   4.400   3.457   4.771 -0.1476  0.4404 -0.4497
 8728SOL    HW237818   4.292   3.489   4.674  0.4612 -1.4086 -0.1867
 8729SOL     OW37819   1.567   3.208   5.470  0.2703 -0.4118  0.5537
 8729SOL    HW137820   1.598   3.124   5.435  0.2737 -0.6777  1.1921
 8729SOL    HW237821   1.610   3.279   5.422  1.4099 -1.3714  0.1619
 8730SOL     OW37822   3.332   3.571   8.527 -0.4080  0.4138 -0.5734
 8730SOL    HW137823   3.369   3.637   8.470 -0.2174  0.8825  0.0881
 8730SOL    HW237824   3.405   3.521   8.563 -1.3001 -0.5067 -0.0001
 8731SOL     OW37825   1.235   3.018   3.379  0.1936  0.1391  0.4235
 8731SOL    HW137826   1.216   2.948   3.316  0.1243 -1.8029  2.5875
 8731SOL    HW237827   1.247   2.965   3.458  0.0530 -1.7751 -0.8233
 8732SOL     OW37828   2.441   0.887  12.813 -0.0406  0.2289  0.1753
 8732SOL    HW137829   2.458   0.834  12.890  1.5744 -3.2454 -2.5541
 8732SOL    HW237830   2.364   0.852  12.767  0.2454 -0.1680  0.0071
 8733SOL     OW37831   2.959   0.462   8.926  0.1782  0.1489 -0.0485
 8733SOL    HW137832   3.022   0.454   8.997  0.2107  0.5633 -0.0323
 8733SOL    HW237833   2.908   0.381   8.936 -0.2881  0.2922 -1.3029
 8734SOL     OW37834   4.498   3.308   8.884  0.6566 -0.6768  0.3499
 8734SOL    HW137835   4.504   3.218   8.851 -0.7566 -0.0327 -1.7000
 8734SOL    HW237836   4.551   3.304   8.963  2.0050  0.1113 -0.5149
 8735SOL     OW37837   2.473   2.589   6.300 -0.2581  0.5280  0.2853
 8735SOL    HW137838   2.406   2.526   6.273  0.7777 -0.7207  0.6259
 8735SOL    HW237839   2.542   2.574   6.236 -0.4885 -0.5657  0.2795
 8736SOL     OW37840   1.750   3.152   6.873 -0.1655  0.0391  0.1173
 8736SOL    HW137841   1.787   3.140   6.960  1.3150  2.3162 -0.1871
 8736SOL    HW237842   1.799   3.084   6.826 -0.8517 -0.0706 -0.4284
 8737SOL     OW37843   1.036   4.701   6.931  0.5292 -0.1126  0.3020
 8737SOL    HW137844   0.988   4.711   7.013 -1.5545 -1.1324 -0.8056
 8737SOL    HW237845   1.118   0.006   6.955  0.5152  1.4275 -2.4947
 8738SOL     OW37846   4.302   3.832   4.047 -0.0910  0.0737  0.4406
 8738SOL    HW137847   4.374   3.894   4.038  0.8015 -0.9529  0.5162
 8738SOL    HW237848   4.351   3.751   4.063  0.2105  0.2266  0.3028
 8739SOL     OW37849   0.775   2.145   6.174 -0.3676 -0.3586 -0.0343
 8739SOL    HW137850   0.697   2.177   6.129 -0.7179 -0.9043  0.1926
 8739SOL    HW237851   0.746   2.166   6.263 -0.2113  3.1092 -0.7922
 8740SOL     OW37852   1.641   1.833   8.034 -0.6791  0.1322  0.1043
 8740SOL    HW137853   1.619   1.858   8.124  2.0470  0.2165  0.7561
 8740SOL    HW237854   1.722   1.882   8.019 -0.0906 -0.7496  0.3584
 8741SOL     OW37855   4.451   0.199   4.692  0.1253 -0.1347  0.0645
 8741SOL    HW137856   4.455   0.290   4.721 -1.6626 -0.0986  0.1938
 8741SOL    HW237857   4.448   0.204   4.596 -0.8128  0.3568  0.1161
 8742SOL     OW37858   2.898   4.676  13.905 -0.2657  0.8912  0.0811
 8742SOL    HW137859   2.853   4.733  13.967 -0.5900  2.2847 -1.4216
 8742SOL    HW237860   2.861   4.697  13.819  1.0229 -2.9144 -1.4322
 8743SOL     OW37861   1.392   1.574   4.128 -0.1501  0.6934  0.3735
 8743SOL    HW137862   1.437   1.658   4.117  2.4960 -0.8527 -0.7317
 8743SOL    HW237863   1.438   1.536   4.053 -0.1980  1.6818 -0.1457
 8744SOL     OW37864   2.445   3.921   1.111 -0.3218  0.6287  0.0866
 8744SOL    HW137865   2.462   3.880   1.026  1.1258  1.5943 -0.0799
 8744SOL    HW237866   2.502   3.876   1.174  0.3692  1.5993  0.1634
 8745SOL     OW37867   1.231   0.406   9.983 -0.0263  0.0730 -0.4883
 8745SOL    HW137868   1.239   0.491  10.025 -2.9189  0.0820  0.0486
 8745SOL    HW237869   1.267   0.432   9.899 -0.6219 -0.3961 -0.8984
 8746SOL     OW37870   4.067   1.508   2.460  0.3259 -0.5639 -0.2320
 8746SOL    HW137871   4.003   1.452   2.416 -0.1646  1.0934 -1.6156
 8746SOL    HW237872   4.021   1.589   2.483  0.7248 -0.5989  0.6775
 8747SOL     OW37873   2.968   0.967   2.174 -0.2567  0.1869 -0.2762
 8747SOL    HW137874   3.012   1.043   2.135 -1.3253  1.6495  1.3858
 8747SOL    HW237875   2.993   0.903   2.107  0.1540 -0.0807  0.1354
 8748SOL     OW37876   2.121   0.361   4.956 -0.2911 -0.4372  0.4266
 8748SOL    HW137877   2.127   0.267   4.971  2.9048 -0.2961 -0.0759
 8748SOL    HW237878   2.119   0.368   4.861 -0.7361  1.0122  0.5371
 8749SOL     OW37879   4.206   4.530   2.553 -0.4861  0.0124  0.6821
 8749SOL    HW137880   4.257   4.610   2.555  0.7638 -0.7416 -1.3876
 8749SOL    HW237881   4.119   4.560   2.579 -1.5006 -1.7244 -0.6616
 8750SOL     OW37882   0.310   3.194   7.133  0.4248  0.2954 -0.7621
 8750SOL    HW137883   0.331   3.174   7.041 -0.0990 -0.1350 -0.7842
 8750SOL    HW237884   0.324   3.289   7.131 -0.2750  0.4270  0.7219
 8751SOL     OW37885   0.414   4.063   3.174  0.1113 -0.1212  0.5745
 8751SOL    HW137886   0.487   4.009   3.145 -2.0574 -1.8595 -1.5594
 8751SOL    HW237887   0.351   4.068   3.102  0.6658 -2.4477 -0.0537
 8752SOL     OW37888   2.162   2.736   1.781  0.5162  0.4014 -0.0109
 8752SOL    HW137889   2.257   2.725   1.791  0.4845  0.9314  0.8262
 8752SOL    HW237890   2.166   2.771   1.692  0.5840  0.4206 -0.0003
 8753SOL     OW37891   3.481   1.912   6.697  0.3219  0.1209 -0.0218
 8753SOL    HW137892   3.409   1.896   6.636 -0.1609  1.5820  0.1691
 8753SOL    HW237893   3.450   1.887   6.785 -1.3361  0.4598 -0.5254
 8754SOL     OW37894   1.901   2.815   5.431  0.3076  0.1199 -0.5692
 8754SOL    HW137895   1.856   2.899   5.440  1.5179  0.4873  1.8583
 8754SOL    HW237896   1.832   2.754   5.406 -2.4323  3.0584 -0.1977
 8755SOL     OW37897   2.953   4.324   3.159  0.6371  0.3862  0.1237
 8755SOL    HW137898   2.971   4.266   3.085 -0.7911  0.5539 -0.3650
 8755SOL    HW237899   3.034   4.311   3.208  0.7186  1.9153  0.3896
 8756SOL     OW37900   4.111   1.458   8.069  0.1381 -0.4236  0.3357
 8756SOL    HW137901   4.190   1.461   8.124 -0.8957  1.6619  1.6780
 8756SOL    HW237902   4.055   1.518   8.118  1.3433  0.7334  0.2977
 8757SOL     OW37903   3.037   0.926   5.433 -0.4383  0.0592 -0.0742
 8757SOL    HW137904   3.091   0.903   5.509 -0.6444 -1.5445 -0.4236
 8757SOL    HW237905   3.102   0.938   5.364 -0.7856  0.0309 -0.4036
 8758SOL     OW37906   2.120   3.157   3.676 -0.4150  0.0452 -0.7942
 8758SOL    HW137907   2.112   3.062   3.666  0.0415 -0.2245  1.4328
 8758SOL    HW237908   2.215   3.164   3.685 -0.5465  0.8478 -0.0397
 8759SOL     OW37909   2.230   4.131   8.456  0.0136  0.2008 -0.2688
 8759SOL    HW137910   2.240   4.161   8.365 -1.5017  1.5695  0.0249
 8759SOL    HW237911   2.318   4.131   8.493  0.2429 -1.3535 -0.8263
 8760SOL     OW37912   1.397   1.413   2.268  0.0335 -0.0179 -0.2671
 8760SOL    HW137913   1.332   1.365   2.320  0.8725  1.1110  1.8216
 8760SOL    HW237914   1.427   1.479   2.330  2.0719 -0.2399 -1.0122
 8761SOL     OW37915   3.799   1.999   3.789 -0.2974 -0.1275 -0.7027
 8761SOL    HW137916   3.728   1.991   3.854  0.8510 -2.7598  0.2305
 8761SOL    HW237917   3.760   2.028   3.707 -2.9368 -0.7383  0.3326
 8762SOL     OW37918   1.119   1.492  12.241 -0.8412  0.6126 -0.4393
 8762SOL    HW137919   1.162   1.575  12.223 -0.0605  0.3879  0.3755
 8762SOL    HW237920   1.026   1.516  12.244 -0.2085  2.9217  1.1498
 8763SOL     OW37921   1.521   0.008  11.858  0.1179 -0.0224 -0.6892
 8763SOL    HW137922   1.595   0.025  11.800 -1.1245 -0.6440 -2.4417
 8763SOL    HW237923   1.459   4.713  11.794 -1.6539  0.1456  0.9445
 8764SOL     OW37924   1.065   2.947  15.599  0.2606  0.5098  0.3602
 8764SOL    HW137925   1.057   2.910  15.687  0.1646  1.2781  0.6709
 8764SOL    HW237926   1.159   2.938  15.586  0.4705 -1.2171  3.1372
 8765SOL     OW37927   1.087   0.680   3.297 -0.3599 -0.2770 -0.5866
 8765SOL    HW137928   1.030   0.729   3.238 -1.8065 -0.6279  0.5281
 8765SOL    HW237929   1.171   0.719   3.272  0.2125 -2.3375 -1.8728
 8766SOL     OW37930   0.284   0.234   3.640 -0.2016 -0.2788  0.0452
 8766SOL    HW137931   0.214   0.195   3.692 -2.3648  1.8945 -1.2754
 8766SOL    HW237932   0.268   0.185   3.559  0.7706 -0.1506 -0.2254
 8767SOL     OW37933   2.537   0.400   4.964  0.5910  0.0215  0.2697
 8767SOL    HW137934   2.631   0.404   4.977  0.7270 -2.2093 -0.0313
 8767SOL    HW237935   2.514   0.455   5.039  0.9919  1.2218 -0.4865
 8768SOL     OW37936   3.795   1.740  10.374  0.2711  1.0473 -0.0367
 8768SOL    HW137937   3.860   1.810  10.370  1.5296 -0.1930 -1.0757
 8768SOL    HW237938   3.783   1.722  10.281  1.5695 -1.9745  0.3739
 8769SOL     OW37939   2.844   0.559   9.239 -0.4795 -0.4292 -0.2964
 8769SOL    HW137940   2.868   0.469   9.217  0.8295 -0.1312 -0.0520
 8769SOL    HW237941   2.771   0.571   9.178 -0.8758 -1.2386  0.0148
 8770SOL     OW37942   4.424   1.772   4.167  0.6607  0.1525  0.4109
 8770SOL    HW137943   4.354   1.836   4.181  1.1745  0.7898  0.0620
 8770SOL    HW237944   4.373   1.699   4.131  0.2361  0.9246 -0.5262
 8771SOL     OW37945   1.576   3.015  14.348  0.2795  0.4459  0.3318
 8771SOL    HW137946   1.486   3.042  14.366  0.5275  2.4011 -1.3463
 8771SOL    HW237947   1.610   3.101  14.325 -1.9623  1.1306 -0.4512
 8772SOL     OW37948   0.982   4.502   1.078  0.0394  0.3145  0.5824
 8772SOL    HW137949   0.949   4.567   1.141 -3.7862  0.8176 -1.9622
 8772SOL    HW237950   1.026   4.441   1.137  2.1300  0.3157 -0.9320
 8773SOL     OW37951   1.477   3.244   9.858 -0.2725  0.1677  0.0423
 8773SOL    HW137952   1.384   3.240   9.833 -0.6200  4.4402  0.5811
 8773SOL    HW237953   1.467   3.299   9.935  2.1674 -0.1297  0.5638
 8774SOL     OW37954   4.634   3.322  14.760  0.0898  0.1396 -0.0840
 8774SOL    HW137955   4.714   3.296  14.806  0.0704  0.0767 -0.0854
 8774SOL    HW237956   4.596   3.386  14.821  0.2770  0.6632 -0.5181
 8775SOL     OW37957   0.257   3.273   0.596 -0.9349  0.4423 -0.3485
 8775SOL    HW137958   0.197   3.261   0.670  2.2303 -0.6588  2.0549
 8775SOL    HW237959   0.344   3.253   0.632 -1.5847  0.9702  1.5467
 8776SOL     OW37960   3.071   0.262  16.062  0.4444 -0.2024  0.6179
 8776SOL    HW137961   3.058   0.350  16.028 -0.4028 -1.2362 -1.7145
 8776SOL    HW237962   2.999   0.210  16.027  0.4197 -0.8105  1.5579
 8777SOL     OW37963   1.472   1.265   5.611 -0.4743 -0.0462 -0.0023
 8777SOL    HW137964   1.447   1.315   5.688  1.4285 -0.1322  0.6757
 8777SOL    HW237965   1.563   1.250   5.637  0.0317  0.2263 -1.5605
 8778SOL     OW37966   2.418   2.263   5.036 -0.0506  0.7552  0.6036
 8778SOL    HW137967   2.419   2.217   5.120  1.2655 -0.4483 -0.0870
 8778SOL    HW237968   2.342   2.225   4.993  1.8568  1.3231 -3.2227
 8779SOL     OW37969   2.468   4.710  17.755  0.7079  0.1026  0.1119
 8779SOL    HW137970   2.448   0.063   0.017  0.1072  0.1230 -0.6630
 8779SOL    HW237971   2.555   4.711  17.715  0.9977  2.6959  0.8016
 8780SOL     OW37972   3.483   3.291   1.224  0.2042 -0.3857 -0.0051
 8780SOL    HW137973   3.495   3.356   1.155  3.5979 -1.1629 -0.1529
 8780SOL    HW237974   3.409   3.328   1.272 -2.4972 -3.6917 -1.6311
 8781SOL     OW37975   1.821   3.062   9.372 -0.4683  0.1080 -0.3947
 8781SOL    HW137976   1.765   3.055   9.449  0.2136  0.5054  0.1442
 8781SOL    HW237977   1.898   3.102   9.412  1.1128 -1.7113 -1.6376
 8782SOL     OW37978   1.068   4.644   9.064 -0.0913  0.1121 -0.2707
 8782SOL    HW137979   0.994   4.649   9.005 -0.8634  0.1845  0.7006
 8782SOL    HW237980   1.085   4.738   9.077 -1.3314  0.1720  0.9411
 8783SOL     OW37981   4.151   2.336   1.808  0.7256  0.0002  0.1665
 8783SOL    HW137982   4.079   2.278   1.780  1.2136 -0.5080 -0.0338
 8783SOL    HW237983   4.229   2.284   1.792  1.0188  1.0534 -1.8404
 8784SOL     OW37984   3.584   4.043   7.754 -0.0742 -0.1085  0.2485
 8784SOL    HW137985   3.567   3.949   7.755  0.7279 -0.2525  0.9794
 8784SOL    HW237986   3.533   4.063   7.676  0.4616  1.6011  0.3316
 8785SOL     OW37987   3.482   3.196  11.255 -0.0426  0.2553 -0.1466
 8785SOL    HW137988   3.567   3.162  11.225  1.0142  1.1870  1.7741
 8785SOL    HW237989   3.425   3.158  11.189  1.3816 -1.0567 -0.6153
 8786SOL     OW37990   1.340   3.299   8.765  0.1449 -0.0103  0.5140
 8786SOL    HW137991   1.263   3.275   8.713  0.5929  1.1256 -0.6789
 8786SOL    HW237992   1.314   3.286   8.856  0.7470  0.4158  0.7397
 8787SOL     OW37993   0.395   1.200   5.048 -0.1660  0.5242  0.0503
 8787SOL    HW137994   0.434   1.203   5.136 -0.2333  0.4059  0.0838
 8787SOL    HW237995   0.301   1.215   5.056  0.0363  1.4339  0.7430
 8788SOL     OW37996   1.819   3.767  16.574 -0.5941 -0.0194 -0.0055
 8788SOL    HW137997   1.869   3.848  16.559 -2.3215  0.4870 -2.9175
 8788SOL    HW237998   1.742   3.784  16.521 -1.1037 -1.2153  0.3635
 8789SOL     OW37999   1.081   1.413   8.822 -0.3016  0.3602 -0.9456
 8789SOL    HW138000   0.986   1.419   8.817 -0.3068 -0.1470 -1.3800
 8789SOL    HW238001   1.080   1.382   8.913 -0.1882  0.7047 -0.8264
 8790SOL     OW38002   1.261   3.911   8.656 -0.1249 -0.1035  0.2448
 8790SOL    HW138003   1.202   3.986   8.666  0.8074  0.3255  2.4578
 8790SOL    HW238004   1.272   3.900   8.561 -1.1769  0.6967  0.0287
 8791SOL     OW38005   2.732   3.017   3.197  0.2386 -0.1982  0.4441
 8791SOL    HW138006   2.823   3.000   3.219 -0.0210  0.0895  1.7436
 8791SOL    HW238007   2.711   2.928   3.169 -2.9266  0.4214  0.8360
 8792SOL     OW38008   1.131   2.949   0.809 -0.2828 -0.1641 -0.0484
 8792SOL    HW138009   1.218   2.980   0.785 -0.6091 -0.1556 -1.2351
 8792SOL    HW238010   1.076   3.022   0.780  0.7884  0.1690 -1.2890
 8793SOL     OW38011   1.262   0.863   0.521 -0.7248 -0.3018 -0.0894
 8793SOL    HW138012   1.352   0.838   0.501 -0.0402  2.3735 -0.3591
 8793SOL    HW238013   1.235   0.908   0.440 -1.2021 -0.9832 -0.3069
 8794SOL     OW38014   1.429   3.602  15.939 -0.0245 -0.1789 -0.3617
 8794SOL    HW138015   1.365   3.552  15.889 -1.1642  0.5451  0.3428
 8794SOL    HW238016   1.504   3.544  15.928 -1.0485 -1.5662 -0.0177
 8795SOL     OW38017   3.425   1.222   0.632 -0.5807 -0.5417 -0.1285
 8795SOL    HW138018   3.419   1.288   0.700  0.3584  0.8022 -1.3311
 8795SOL    HW238019   3.511   1.181   0.637 -1.2892 -1.8570  1.0481
 8796SOL     OW38020   0.957   2.980   3.304  0.3922  0.2725 -0.1093
 8796SOL    HW138021   0.914   3.065   3.316 -0.9195 -0.4378  0.2253
 8796SOL    HW238022   1.049   3.002   3.319  0.5327 -1.0522  0.9187
 8797SOL     OW38023   2.694   4.446   6.702 -0.8154  0.5753  0.4233
 8797SOL    HW138024   2.672   4.452   6.795  0.0768 -0.4774  0.7036
 8797SOL    HW238025   2.785   4.473   6.693 -0.7931  0.0827 -0.7595
 8798SOL     OW38026   0.305   1.781   0.987  0.0488 -0.7528  0.0020
 8798SOL    HW138027   0.321   1.814   1.076  0.5509  0.1424 -0.4150
 8798SOL    HW238028   0.234   1.718   0.998 -1.1748  0.8864  1.4854
 8799SOL     OW38029   4.034   1.227   3.647 -0.3148  0.4013 -0.0929
 8799SOL    HW138030   4.036   1.260   3.737 -0.1157  0.9838 -0.3096
 8799SOL    HW238031   4.106   1.278   3.609  0.0343  1.7968  2.4123
 8800SOL     OW38032   1.746   0.090   6.242 -0.4846 -0.9644  0.5495
 8800SOL    HW138033   1.687   0.077   6.168 -0.0030 -2.3899  0.4067
 8800SOL    HW238034   1.698   0.150   6.299  0.6605  0.3036  0.1881
 8801SOL     OW38035   1.831   1.210   3.952  0.3418 -0.0256  0.3038
 8801SOL    HW138036   1.764   1.179   3.891  0.0558  3.1515 -0.9999
 8801SOL    HW238037   1.827   1.306   3.952 -1.6773 -0.0979  0.2312
 8802SOL     OW38038   3.372   0.483   9.986 -0.5888  0.0774 -0.1042
 8802SOL    HW138039   3.342   0.435   9.909  2.0779 -1.7889 -0.0117
 8802SOL    HW238040   3.321   0.457  10.063  0.7196 -1.2592  0.3270
 8803SOL     OW38041   0.912   0.298   3.958 -0.1352 -0.2003  0.4338
 8803SOL    HW138042   0.848   0.294   4.030  1.2875  3.8069  1.9662
 8803SOL    HW238043   0.992   0.268   4.002  0.1819 -0.4842 -0.3453
 8804SOL     OW38044   1.842   0.169   2.378  0.3345 -0.6482  0.0184
 8804SOL    HW138045   1.863   0.169   2.285 -0.1624 -0.4290 -0.0913
 8804SOL    HW238046   1.924   0.156   2.427  0.2926  0.2832  0.3431
 8805SOL     OW38047   1.023   3.563   5.403 -0.2856  0.1802  0.4789
 8805SOL    HW138048   1.008   3.641   5.455  2.3288  1.0566 -0.0815
 8805SOL    HW238049   1.064   3.508   5.470  0.0891 -1.6958 -1.2853
 8806SOL     OW38050   0.128   3.963   4.349  0.7755  0.1534  0.5646
 8806SOL    HW138051   0.181   4.043   4.353  0.1630  0.6366 -0.8162
 8806SOL    HW238052   0.184   3.904   4.298 -2.8761 -0.1969 -3.0694
 8807SOL     OW38053   3.143   1.176   5.580  0.1282 -0.3471 -0.6898
 8807SOL    HW138054   3.139   1.163   5.674 -1.7726 -0.0235 -0.7193
 8807SOL    HW238055   3.203   1.104   5.559  2.1628  0.9944  0.6059
 8808SOL     OW38056   4.234   1.326   9.168  0.1100 -0.6071  0.2534
 8808SOL    HW138057   4.233   1.232   9.150 -2.0271 -0.2637 -1.4830
 8808SOL    HW238058   4.150   1.359   9.136 -0.4306 -1.0279  1.2330
 8809SOL     OW38059   2.382   1.229   6.835  0.2941  0.1262  0.1860
 8809SOL    HW138060   2.375   1.145   6.881 -0.5139  1.3318  2.2766
 8809SOL    HW238061   2.355   1.287   6.906  1.8059  0.5353  0.4359
 8810SOL     OW38062   3.595   1.983  11.003 -0.4138 -0.2017 -0.1316
 8810SOL    HW138063   3.540   1.923  10.953  0.3673 -0.5045 -0.6127
 8810SOL    HW238064   3.569   2.064  10.960 -1.5607 -0.6897 -0.3768
 8811SOL     OW38065   4.396   1.807   1.411 -0.3420 -0.7430  0.3582
 8811SOL    HW138066   4.304   1.785   1.397 -0.3189 -0.9546  0.5390
 8811SOL    HW238067   4.434   1.720   1.420  0.0848 -0.8012 -2.1303
 8812SOL     OW38068   1.141   3.287   3.812  0.5434  0.0156  0.1232
 8812SOL    HW138069   1.134   3.381   3.828  0.4903 -0.0003  0.1948
 8812SOL    HW238070   1.142   3.246   3.899  2.8236  1.6617  0.8861
 8813SOL     OW38071   1.319   4.691  11.673  0.1241 -0.2586  0.4682
 8813SOL    HW138072   1.228   4.667  11.692  0.3019  0.5680  2.3860
 8813SOL    HW238073   1.306   0.031  11.623 -0.6000 -0.0896  0.9213
 8814SOL     OW38074   4.500   4.714   8.998 -0.1844  0.1716 -1.1394
 8814SOL    HW138075   4.588   4.693   9.028 -1.2242 -0.8050  1.2523
 8814SOL    HW238076   4.529   0.046   8.943  1.5271 -0.4091 -0.9911
 8815SOL     OW38077   2.341   0.753  16.725 -0.4028  0.0336  0.1319
 8815SOL    HW138078   2.276   0.823  16.726 -1.3127 -0.8142  0.1715
 8815SOL    HW238079   2.292   0.672  16.742 -1.2826  0.5542  0.0452
 8816SOL     OW38080   1.411   4.279   3.794  0.4078  0.2956 -0.2120
 8816SOL    HW138081   1.318   4.287   3.812  0.9598  0.9337  2.3758
 8816SOL    HW238082   1.428   4.210   3.858  0.3985 -0.0334 -0.5617
 8817SOL     OW38083   3.291   1.372  17.616 -0.6159  0.0043  0.0384
 8817SOL    HW138084   3.270   1.282  17.642 -1.2870 -0.0794 -0.7841
 8817SOL    HW238085   3.244   1.379  17.534 -0.6332 -0.1717  0.0339
 8818SOL     OW38086   4.295   2.858   7.151 -0.1597 -0.0921 -0.3346
 8818SOL    HW138087   4.207   2.819   7.154 -0.2972  0.3331  1.3438
 8818SOL    HW238088   4.276   2.937   7.099  2.0570  2.8967  3.4228
 8819SOL     OW38089   2.271   2.891   1.098 -0.4314  0.1832 -0.3372
 8819SOL    HW138090   2.200   2.882   1.161 -1.9532  1.2938 -1.9189
 8819SOL    HW238091   2.250   2.970   1.049  0.1862  0.6115  0.0854
 8820SOL     OW38092   1.660   2.957   4.366 -0.2042 -0.5893 -0.1499
 8820SOL    HW138093   1.660   3.052   4.361  0.1284 -0.6076 -0.5541
 8820SOL    HW238094   1.729   2.931   4.305 -0.0278 -1.5437  0.4522
 8821SOL     OW38095   3.114   2.239   7.864  0.4844  0.1322 -0.0154
 8821SOL    HW138096   3.105   2.220   7.771 -1.2207 -3.5516  0.8756
 8821SOL    HW238097   3.205   2.224   7.890  0.2309 -2.4810 -0.5679
 8822SOL     OW38098   1.468   2.631   6.290  0.5806  0.4853 -0.0647
 8822SOL    HW138099   1.503   2.583   6.215  1.9572  1.3362  0.0377
 8822SOL    HW238100   1.452   2.559   6.352 -0.1688  1.3868  0.7991
 8823SOL     OW38101   1.459   2.518   4.539 -0.6307 -0.0292 -0.0589
 8823SOL    HW138102   1.522   2.459   4.581 -0.9393 -0.5472 -0.3239
 8823SOL    HW238103   1.510   2.598   4.526  0.3280 -0.2255  2.5339
 8824SOL     OW38104   3.513   2.772  10.231 -0.5120  0.4799  0.6809
 8824SOL    HW138105   3.578   2.732  10.289 -0.1600 -0.8108 -0.5922
 8824SOL    HW238106   3.517   2.861  10.266  1.4855  0.3192  0.8843
 8825SOL     OW38107   1.988   4.271   9.870 -0.5607 -0.0480 -0.0718
 8825SOL    HW138108   2.012   4.197   9.926 -0.7427 -0.5756 -0.6917
 8825SOL    HW238109   2.014   4.239   9.783  0.4142 -0.2811  0.2945
 8826SOL     OW38110   4.347   2.068   9.397 -0.2017 -0.6146  0.5050
 8826SOL    HW138111   4.432   2.103   9.371 -2.1058  1.9620 -2.2202
 8826SOL    HW238112   4.338   1.997   9.333 -0.6741 -1.1664  1.1860
 8827SOL     OW38113   0.791   3.052   7.869  0.2539 -0.0433  0.1362
 8827SOL    HW138114   0.785   3.010   7.783 -0.3928  0.4794 -0.0665
 8827SOL    HW238115   0.878   3.093   7.863 -0.0373  0.6774  0.9440
 8828SOL     OW38116   0.119   2.217  17.430 -0.4970 -0.5584 -0.1248
 8828SOL    HW138117   0.059   2.186  17.498 -1.1388 -0.4428 -0.6504
 8828SOL    HW238118   0.145   2.296  17.477 -0.4754  0.6814 -2.2396
 8829SOL     OW38119   2.176   2.859  14.327 -0.3396  0.5801 -0.4588
 8829SOL    HW138120   2.212   2.910  14.255 -1.2716  0.2194 -1.1767
 8829SOL    HW238121   2.257   2.831  14.370 -2.3347 -1.0849  2.1871
 8830SOL     OW38122   2.663   1.383   8.878  0.3732  0.0866 -0.3794
 8830SOL    HW138123   2.743   1.362   8.831  0.0307 -0.2172 -0.8265
 8830SOL    HW238124   2.715   1.419   8.950  0.0817 -2.2154  0.9960
 8831SOL     OW38125   1.936   4.410  17.690 -0.0017 -0.1785  0.2361
 8831SOL    HW138126   1.995   4.484  17.678 -1.7622  1.3877  1.1163
 8831SOL    HW238127   1.858   4.464  17.704  0.2671  0.7919 -2.0214
 8832SOL     OW38128   1.854   3.359  14.649 -0.5040 -0.3044 -0.3574
 8832SOL    HW138129   1.799   3.287  14.679  0.0828 -0.9463 -0.8170
 8832SOL    HW238130   1.846   3.328  14.559 -1.0665 -2.3936  0.4073
 8833SOL     OW38131   0.079   3.705   1.661 -0.2726  0.1627  0.3573
 8833SOL    HW138132   0.031   3.784   1.687 -0.3735  0.0982  0.3661
 8833SOL    HW238133   0.145   3.701   1.731 -1.3316  3.2327  1.5365
 8834SOL     OW38134   0.158   2.531   2.818 -0.0466  0.2384 -0.0278
 8834SOL    HW138135   0.168   2.622   2.846  1.1828  0.6397 -1.7291
 8834SOL    HW238136   0.118   2.501   2.899  1.0846 -1.9894 -0.2999
 8835SOL     OW38137   2.487   0.386   1.333  0.1037 -0.1656 -0.4620
 8835SOL    HW138138   2.468   0.473   1.298  0.4203  0.8623  1.8667
 8835SOL    HW238139   2.549   0.405   1.404  1.7004 -0.1352 -1.8766
 8836SOL     OW38140   2.769   3.181   6.159 -0.2654 -0.5156 -0.1435
 8836SOL    HW138141   2.674   3.186   6.172 -0.4658 -2.2820 -0.8468
 8836SOL    HW238142   2.774   3.086   6.146 -0.3694 -0.3596 -1.3345
 8837SOL     OW38143   0.223   0.921   1.563  0.2458  0.3562  0.0798
 8837SOL    HW138144   0.179   0.840   1.590 -0.2994  0.3395 -0.8785
 8837SOL    HW238145   0.159   0.962   1.506 -0.3733 -1.2418 -0.3733
 8838SOL     OW38146   3.399   0.934  14.257 -0.4227 -0.0298  0.7319
 8838SOL    HW138147   3.427   0.995  14.325 -0.1416  1.0032 -0.3195
 8838SOL    HW238148   3.428   0.858  14.308 -1.2317 -1.1780 -0.5434
 8839SOL     OW38149   2.286   0.237   1.174 -0.1357 -0.2674 -0.2175
 8839SOL    HW138150   2.220   0.290   1.129 -0.7287 -0.6192  0.2507
 8839SOL    HW238151   2.337   0.303   1.221 -1.9770  0.0384  1.3315
 8840SOL     OW38152   1.858   4.276   0.989  0.0846 -0.1811  0.3251
 8840SOL    HW138153   1.891   4.241   1.071  0.8028  0.6355  0.3831
 8840SOL    HW238154   1.829   4.194   0.948  2.3084  0.3952 -2.3584
 8841SOL     OW38155   2.053   4.382   9.488 -0.4734 -0.0853  0.2233
 8841SOL    HW138156   2.062   4.463   9.437 -0.1696  0.3214  0.9042
 8841SOL    HW238157   1.987   4.329   9.444  2.3448 -1.6601 -2.1461
 8842SOL     OW38158   1.237   4.349   5.007 -0.0077 -0.1752  0.3274
 8842SOL    HW138159   1.266   4.268   4.966 -0.0836  0.2523 -0.5934
 8842SOL    HW238160   1.171   4.373   4.941 -0.0904 -1.0507  0.0946
 8843SOL     OW38161   3.772   1.197   8.544 -0.2219 -0.0734 -0.1048
 8843SOL    HW138162   3.836   1.177   8.612  1.2217 -0.4375 -1.5718
 8843SOL    HW238163   3.827   1.212   8.467  0.5496 -0.7097  0.3246
 8844SOL     OW38164   0.158   4.342   3.542  0.0220  0.2518 -0.1984
 8844SOL    HW138165   0.248   4.314   3.523  0.6257  1.0481  1.4606
 8844SOL    HW238166   0.130   4.372   3.456 -0.7138 -0.5415 -0.2285
 8845SOL     OW38167   4.177   3.186   3.588 -0.2890  0.5583 -0.3578
 8845SOL    HW138168   4.183   3.091   3.574  1.0157  0.5630  0.1618
 8845SOL    HW238169   4.271   3.206   3.587  0.1786 -1.5766 -0.0674
 8846SOL     OW38170   0.658   3.414  16.056  0.3365 -0.1491 -0.0199
 8846SOL    HW138171   0.668   3.344  16.121 -0.4691  0.6542  0.9811
 8846SOL    HW238172   0.664   3.363  15.976 -1.3383 -0.4127  0.0163
 8847SOL     OW38173   1.418   4.663  15.982 -0.0597 -0.3079 -0.5186
 8847SOL    HW138174   1.356   4.709  15.926  0.5786 -0.2573 -1.1740
 8847SOL    HW238175   1.459   4.605  15.918 -2.0608 -3.4174  0.9772
 8848SOL     OW38176   0.293   4.547   5.668  0.2460  0.0091  0.3419
 8848SOL    HW138177   0.245   4.559   5.586 -0.5976  2.5602  1.2096
 8848SOL    HW238178   0.299   4.451   5.671 -1.3334 -0.0849  0.4780
 8849SOL     OW38179   1.122   3.346  11.464 -0.2865 -0.4687 -0.2395
 8849SOL    HW138180   1.187   3.276  11.475 -0.4139 -0.6329 -0.5193
 8849SOL    HW238181   1.129   3.384  11.552  1.5528  0.0545 -0.6293
 8850SOL     OW38182   4.722   3.977   3.859  0.0234 -0.0005 -0.2071
 8850SOL    HW138183   0.059   3.981   3.801 -0.3668 -2.8440 -0.9144
 8850SOL    HW238184   4.702   3.887   3.883 -0.8375  0.0345 -0.7663
 8851SOL     OW38185   4.736   1.289   4.495 -0.3677 -0.1040  0.0360
 8851SOL    HW138186   0.079   1.241   4.491 -2.1426 -2.8910 -3.0476
 8851SOL    HW238187   4.671   1.220   4.508  1.0974 -1.9870 -2.7459
 8852SOL     OW38188   3.944   4.018   0.439  0.2141 -0.0536  0.1347
 8852SOL    HW138189   4.011   4.051   0.379 -0.4780 -2.1662 -1.7961
 8852SOL    HW238190   3.961   3.924   0.432 -0.9222 -0.3252  1.0411
 8853SOL     OW38191   1.234   4.625   5.577  0.0907  0.3970  0.1911
 8853SOL    HW138192   1.140   4.638   5.585 -0.0323  0.3770 -1.2039
 8853SOL    HW238193   1.236   4.530   5.564  0.9924  0.6191 -1.2621
 8854SOL     OW38194   0.875   3.087   6.675  0.1373  0.0417  0.0953
 8854SOL    HW138195   0.891   3.159   6.736  0.1277  0.4333 -0.3630
 8854SOL    HW238196   0.929   3.105   6.598  0.0000  0.4898  0.1039
 8855SOL     OW38197   4.267   1.102   2.909  0.3610 -0.2491  0.0624
 8855SOL    HW138198   4.239   1.137   2.824  1.4935 -1.1171 -0.6697
 8855SOL    HW238199   4.184   1.101   2.957 -0.8121  3.3261 -1.9337
 8856SOL     OW38200   2.316   1.753   6.215 -0.2953  0.5330  0.5952
 8856SOL    HW138201   2.325   1.677   6.158 -0.0247  0.4918  0.6942
 8856SOL    HW238202   2.365   1.735   6.295  1.3725  0.7820 -0.3686
 8857SOL     OW38203   0.504   1.020   9.284 -0.5536 -0.0778 -0.1298
 8857SOL    HW138204   0.460   1.103   9.265  0.4997  0.9141  1.8302
 8857SOL    HW238205   0.539   1.042   9.370  2.1679  1.6858 -1.7000
 8858SOL     OW38206   0.691   3.940   5.790 -0.5041  0.4281  0.0131
 8858SOL    HW138207   0.785   3.960   5.794 -0.7106  1.3625  0.1805
 8858SOL    HW238208   0.636   3.998   5.842 -1.2712  1.2700 -1.7585
 8859SOL     OW38209   2.667   1.328   0.286 -0.5784 -0.0342  0.0448
 8859SOL    HW138210   2.590   1.348   0.233 -0.8413 -2.9423 -0.6535
 8859SOL    HW238211   2.732   1.380   0.239 -0.6606  3.6884  4.0018
 8860SOL     OW38212   2.145   4.237   6.906  0.1233 -0.4967  0.3530
 8860SOL    HW138213   2.202   4.227   6.829  0.5473  1.9080  0.3532
 8860SOL    HW238214   2.090   4.312   6.889  0.4327  0.1300  2.0767
 8861SOL     OW38215   0.589   2.884   7.592 -0.6061  0.1831  0.1536
 8861SOL    HW138216   0.573   2.943   7.518  1.9435  0.9329  0.1915
 8861SOL    HW238217   0.685   2.882   7.596 -0.6390 -1.3054  0.4103
 8862SOL     OW38218   3.425   3.128   1.790  0.1367 -0.1908  0.1829
 8862SOL    HW138219   3.334   3.111   1.765  0.1236  0.0849  0.0363
 8862SOL    HW238220   3.420   3.143   1.884 -1.0256 -0.3618  0.1492
 8863SOL     OW38221   3.448   0.737   3.836  0.2516  0.0898 -0.1138
 8863SOL    HW138222   3.453   0.826   3.872 -0.2437 -0.1674  0.5855
 8863SOL    HW238223   3.356   0.716   3.849  0.8494 -1.2049  2.0319
 8864SOL     OW38224   2.112   3.526   8.178  0.3484 -0.0469 -0.2943
 8864SOL    HW138225   2.160   3.449   8.207 -1.9738 -1.2569  0.3284
 8864SOL    HW238226   2.031   3.515   8.228  0.4224 -0.2247 -0.2123
 8865SOL     OW38227   2.955   1.218   0.429 -0.0161  0.5802  0.0250
 8865SOL    HW138228   3.014   1.258   0.365  1.4916 -3.6673 -1.2101
 8865SOL    HW238229   3.017   1.173   0.487 -1.0282 -0.6528  0.1253
 8866SOL     OW38230   3.034   4.599  11.611  0.1827 -0.2743 -0.8698
 8866SOL    HW138231   3.127   4.602  11.588  0.4618  4.5553  0.8103
 8866SOL    HW238232   2.996   4.621  11.526 -0.9622  0.8078 -0.0746
 8867SOL     OW38233   2.560   0.222  10.196 -0.6769  0.5077 -0.0333
 8867SOL    HW138234   2.589   0.151  10.253  0.5309  0.2616 -0.9634
 8867SOL    HW238235   2.493   0.273  10.243  0.4747  1.4793  0.5461
 8868SOL     OW38236   2.761   2.235   7.779 -0.1509 -0.2019  0.2768
 8868SOL    HW138237   2.849   2.197   7.783 -0.3660 -0.5601  1.3977
 8868SOL    HW238238   2.765   2.262   7.687 -1.3736 -0.7768  0.0623
 8869SOL     OW38239   3.643   2.296  11.011 -0.3400 -0.1755  0.1399
 8869SOL    HW138240   3.727   2.252  11.026  0.0297  0.5316  0.1516
 8869SOL    HW238241   3.656   2.385  11.045 -1.1444  0.6190 -1.6657
 8870SOL     OW38242   2.544   1.898   9.860  0.8487 -1.0492 -0.0095
 8870SOL    HW138243   2.476   1.961   9.837 -0.9607 -2.3651  1.8218
 8870SOL    HW238244   2.530   1.840   9.786 -2.5280  0.9194 -0.8877
 8871SOL     OW38245   2.406   0.854  12.017 -0.1510  0.0800  0.4786
 8871SOL    HW138246   2.317   0.870  12.047 -0.2422 -0.6176  0.5840
 8871SOL    HW238247   2.464   0.899  12.078 -0.2029 -0.1557  0.7012
 8872SOL     OW38248   4.161   3.736   7.382 -0.3921 -0.0031 -0.1642
 8872SOL    HW138249   4.125   3.675   7.445 -3.3775 -1.3946 -3.2172
 8872SOL    HW238250   4.177   3.817   7.431 -2.2881 -0.7562  1.7113
 8873SOL     OW38251   2.483   3.878  12.130  0.9070  0.2903 -0.5104
 8873SOL    HW138252   2.412   3.862  12.192  0.4128  0.5553 -1.0066
 8873SOL    HW238253   2.463   3.803  12.074  0.1143  1.0619 -1.2796
 8874SOL     OW38254   3.471   0.142   9.908  0.2308  0.2120 -0.4490
 8874SOL    HW138255   3.529   0.114   9.838 -0.6108 -0.5216 -0.8509
 8874SOL    HW238256   3.531   0.183   9.971  0.6528  0.2638 -0.8931
 8875SOL     OW38257   4.237   4.323   5.076 -0.5137 -0.2569 -0.0400
 8875SOL    HW138258   4.173   4.393   5.080 -0.1310  0.1712 -1.2313
 8875SOL    HW238259   4.314   4.368   5.113 -1.1794  1.5108 -0.8079
 8876SOL     OW38260   2.914   3.263   8.591 -0.6891 -0.7151  0.1402
 8876SOL    HW138261   2.858   3.243   8.667  0.4833  0.1292  1.2160
 8876SOL    HW238262   2.868   3.333   8.546  2.0389  2.0637  1.6769
 8877SOL     OW38263   3.464   4.195   9.396 -0.1272 -0.2262 -0.3505
 8877SOL    HW138264   3.524   4.252   9.348  1.5244 -1.1395  0.6406
 8877SOL    HW238265   3.389   4.252   9.415  0.3288 -0.4385  2.1122
 8878SOL     OW38266   1.098   2.549   1.205  0.2958 -0.5163  0.3041
 8878SOL    HW138267   1.100   2.459   1.170  1.5429 -0.1124 -0.6736
 8878SOL    HW238268   1.076   2.598   1.126  1.6281  1.5671  1.2432
 8879SOL     OW38269   4.555   3.049   6.056 -0.3278  0.1947 -0.1804
 8879SOL    HW138270   4.631   3.049   6.114 -1.2262 -0.1418  0.9918
 8879SOL    HW238271   4.536   2.956   6.041  0.4849 -0.2664  1.6304
 8880SOL     OW38272   4.376   2.528   3.661 -0.0006  0.0707 -0.2164
 8880SOL    HW138273   4.326   2.536   3.580 -0.0065 -0.7995 -0.2977
 8880SOL    HW238274   4.324   2.463   3.707 -0.6474 -1.7317 -3.4517
 8881SOL     OW38275   4.070   1.281  11.913  0.5646 -0.8604 -1.1852
 8881SOL    HW138276   4.010   1.266  11.986  0.0417  0.7171 -1.2752
 8881SOL    HW238277   4.054   1.212  11.848  0.4179 -0.2682 -1.7859
 8882SOL     OW38278   0.881   0.245   4.413 -0.6960 -0.6119 -0.0177
 8882SOL    HW138279   0.802   0.299   4.419  0.3951  0.8307  0.9557
 8882SOL    HW238280   0.929   0.273   4.490  0.2532 -0.8060 -0.5437
 8883SOL     OW38281   0.274   1.039   0.352 -0.2743 -0.1521 -0.3839
 8883SOL    HW138282   0.219   1.015   0.277  1.3504 -1.0493 -1.3121
 8883SOL    HW238283   0.255   1.132   0.357 -0.7031 -0.1326 -2.1432
 8884SOL     OW38284   2.590   3.673  11.822 -0.1610 -0.4517 -0.2920
 8884SOL    HW138285   2.522   3.647  11.884  1.3939 -0.0605  1.5867
 8884SOL    HW238286   2.542   3.688  11.741  0.1555 -0.7237 -0.5290
 8885SOL     OW38287   1.047   4.401   8.928 -0.0729  0.2018  0.0121
 8885SOL    HW138288   0.953   4.417   8.918 -0.2712 -2.0870 -1.6894
 8885SOL    HW238289   1.076   4.466   8.992  1.1946 -2.1991  1.8864
 8886SOL     OW38290   0.900   4.514  11.848  0.3401  0.3808 -0.2168
 8886SOL    HW138291   0.959   4.566  11.793  0.3446  1.5542  0.9031
 8886SOL    HW238292   0.828   4.576  11.849  0.8975  0.9981  0.9056
 8887SOL     OW38293   4.694   2.236   0.582  0.2545 -0.5541 -0.5956
 8887SOL    HW138294   4.656   2.314   0.621 -0.5385 -1.1575 -0.1541
 8887SOL    HW238295   4.669   2.167   0.644  2.5884 -1.9995 -1.2429
 8888SOL     OW38296   4.053   1.383  16.565  0.8373  0.4620 -0.4749
 8888SOL    HW138297   4.055   1.300  16.613  1.8354  1.2469  0.8283
 8888SOL    HW238298   4.064   1.351  16.476  0.2938  1.3721 -0.8764
 8889SOL     OW38299   0.250   1.475   5.915 -0.6814 -0.9735  0.2989
 8889SOL    HW138300   0.160   1.450   5.898 -0.8925  0.7261 -0.9708
 8889SOL    HW238301   0.246   1.516   6.001  0.2275 -0.8698  0.2995
 8890SOL     OW38302   3.862   1.183   2.125  0.2418 -0.6412 -0.6795
 8890SOL    HW138303   3.813   1.142   2.053 -0.1330  1.1649 -1.4474
 8890SOL    HW238304   3.912   1.105   2.150 -0.3374  0.2489  3.2736
 8891SOL     OW38305   0.113   0.439   6.474  0.4064 -0.6148 -0.1633
 8891SOL    HW138306   0.052   0.428   6.401  1.3300  0.9295 -1.1564
 8891SOL    HW238307   0.144   0.348   6.472  0.7590 -0.4638 -1.3458
 8892SOL     OW38308   1.677   3.349   1.049 -0.3732 -0.3391 -0.6968
 8892SOL    HW138309   1.722   3.364   0.966  0.5784  1.8045  0.2022
 8892SOL    HW238310   1.670   3.437   1.087  0.3838 -0.8067  0.5089
 8893SOL     OW38311   0.038   0.363   7.238 -0.1963  0.1405 -0.3091
 8893SOL    HW138312   0.095   0.373   7.315  0.2344 -0.0869 -0.5973
 8893SOL    HW238313   4.701   0.414   7.265 -0.4076 -0.6316  0.5514
 8894SOL     OW38314   0.276   3.719  17.243 -0.1467 -0.9053  0.5280
 8894SOL    HW138315   0.295   3.735  17.150 -1.7454 -1.2113  0.1353
 8894SOL    HW238316   0.256   3.808  17.273 -1.9598 -0.8812 -0.7330
 8895SOL     OW38317   0.050   2.637   5.620  0.3092 -0.3295 -0.0827
 8895SOL    HW138318   4.705   2.676   5.642 -0.4944 -1.3260 -1.4041
 8895SOL    HW238319   0.057   2.657   5.527  2.1011 -0.3280  0.0682
 8896SOL     OW38320   2.698   2.016   7.473 -0.3609 -0.4983 -0.3108
 8896SOL    HW138321   2.732   1.990   7.387 -1.6955 -2.2906 -0.2847
 8896SOL    HW238322   2.742   2.097   7.499 -0.1896 -0.9511  0.8066
 8897SOL     OW38323   0.632   2.441  12.659 -0.2300  0.4988  0.2021
 8897SOL    HW138324   0.704   2.381  12.677  0.2374  0.2413 -2.5258
 8897SOL    HW238325   0.640   2.448  12.564  0.2823  0.8406  0.2730
 8898SOL     OW38326   2.815   2.325   7.154 -0.2100 -0.1081  0.2565
 8898SOL    HW138327   2.727   2.302   7.181 -1.5463  3.1301 -1.3723
 8898SOL    HW238328   2.813   2.418   7.134 -1.9006 -0.6549 -1.9744
 8899SOL     OW38329   4.460   0.953   2.459  0.2545  0.5857  0.1428
 8899SOL    HW138330   4.444   0.901   2.538 -0.2970 -0.0987 -0.4289
 8899SOL    HW238331   4.469   1.044   2.488  1.6885  0.3464  0.4502
 8900SOL     OW38332   3.515   2.676  16.875 -0.2079  0.1118  0.0851
 8900SOL    HW138333   3.444   2.719  16.923  0.9655  1.1507  0.9121
 8900SOL    HW238334   3.470   2.592  16.864  0.8236 -0.6413  1.5770
 8901SOL     OW38335   1.257   2.440   9.605  0.2569 -0.1144 -0.0783
 8901SOL    HW138336   1.252   2.528   9.569  0.3601 -0.9068 -2.0127
 8901SOL    HW238337   1.194   2.394   9.550  0.0548  1.2725 -1.0109
 8902SOL     OW38338   2.117   4.448  16.330  0.0899 -0.1016 -0.0666
 8902SOL    HW138339   2.156   4.519  16.382  1.0631 -1.9150  1.6491
 8902SOL    HW238340   2.183   4.380  16.317 -0.4625 -0.3549 -1.5781
 8903SOL     OW38341   0.317   2.056   4.512 -0.4380  0.4513  0.5313
 8903SOL    HW138342   0.317   2.150   4.497  1.1465 -0.0578 -2.5355
 8903SOL    HW238343   0.349   2.013   4.433 -0.4735  0.6355  0.4171
 8904SOL     OW38344   2.871   3.102   5.541  0.1233  0.2470 -0.0422
 8904SOL    HW138345   2.896   3.083   5.632  0.3491  0.2478 -0.1065
 8904SOL    HW238346   2.778   3.077   5.548  0.5365 -1.9712 -2.5198
 8905SOL     OW38347   4.663   1.677   6.025  0.1397 -0.1689  0.0195
 8905SOL    HW138348   0.016   1.701   6.032  0.2998 -1.0385  0.9863
 8905SOL    HW238349   4.667   1.627   5.943 -1.8694 -0.8317  0.3185
 8906SOL     OW38350   3.242   1.619  17.311  0.2810 -0.0064  0.1819
 8906SOL    HW138351   3.335   1.633  17.330  0.4827  0.3501 -1.1160
 8906SOL    HW238352   3.229   1.668  17.230  1.5534  2.3711  1.4173
 8907SOL     OW38353   0.651   4.280   5.570  0.0333  0.3866 -0.5183
 8907SOL    HW138354   0.696   4.238   5.643 -1.7784  1.5805  1.2991
 8907SOL    HW238355   0.635   4.364   5.614 -2.0113  0.1126 -0.7327
 8908SOL     OW38356   4.525   1.466   7.910 -0.0568 -0.0254  0.0014
 8908SOL    HW138357   4.483   1.402   7.852  0.8745  0.9061 -1.6909
 8908SOL    HW238358   4.616   1.475   7.881 -0.5182 -0.2655 -1.5067
 8909SOL     OW38359   3.475   0.462   3.213 -0.0526 -0.1699  0.8269
 8909SOL    HW138360   3.513   0.524   3.276  1.4782 -3.7337  3.4185
 8909SOL    HW238361   3.477   0.378   3.260 -2.3470 -0.0342  1.1770
 8910SOL     OW38362   1.895   4.347   7.145  0.0237 -0.1689  0.3774
 8910SOL    HW138363   1.959   4.276   7.145  1.9503  1.5906  0.0266
 8910SOL    HW238364   1.821   4.300   7.185  0.0498  0.2240  0.8967
 8911SOL     OW38365   1.783   4.633   1.510 -0.3184  0.1806 -0.0013
 8911SOL    HW138366   1.872   4.643   1.478  0.2025 -3.7999  0.2905
 8911SOL    HW238367   1.740   4.654   1.427  0.2306  3.1315  0.4373
 8912SOL     OW38368   3.904   2.511   5.057 -0.4102 -0.6360  0.0185
 8912SOL    HW138369   3.891   2.437   4.998 -2.9791 -0.9013  0.9152
 8912SOL    HW238370   3.869   2.581   5.002 -1.3590 -1.4918 -0.4684
 8913SOL     OW38371   3.932   2.051   0.927  0.0963  0.3158 -0.0868
 8913SOL    HW138372   4.027   2.054   0.939  0.1204 -0.2550 -0.1348
 8913SOL    HW238373   3.898   1.965   0.950  1.2833 -0.2286 -0.3588
 8914SOL     OW38374   2.214   0.586   5.446  0.1619  0.4655 -0.0920
 8914SOL    HW138375   2.225   0.530   5.368 -1.0740  2.1894 -1.4928
 8914SOL    HW238376   2.305   0.614   5.451  0.0407  0.4111  2.1879
 8915SOL     OW38377   0.633   1.153   2.368  0.1093 -0.0001  0.2507
 8915SOL    HW138378   0.705   1.162   2.305 -4.2790  0.0568 -4.6792
 8915SOL    HW238379   0.658   1.080   2.425 -0.5720 -1.9096 -1.9115
 8916SOL     OW38380   0.696   3.614  11.277  0.0547  0.2172  0.4932
 8916SOL    HW138381   0.763   3.621  11.345 -0.3731 -1.3978  1.0594
 8916SOL    HW238382   0.671   3.523  11.289 -0.4343 -0.0799 -2.7597
 8917SOL     OW38383   2.812   2.699   6.278 -0.6223 -0.0471 -0.2006
 8917SOL    HW138384   2.816   2.639   6.353  2.7092  0.4782  0.0611
 8917SOL    HW238385   2.758   2.662   6.209 -1.6800  1.5938 -0.2570
 8918SOL     OW38386   2.208   3.848  14.928  0.5838 -0.2465  0.2421
 8918SOL    HW138387   2.255   3.893  14.857  1.0049  2.4763  2.2360
 8918SOL    HW238388   2.233   3.756  14.927 -0.9538 -0.6847  3.2579
 8919SOL     OW38389   1.861   0.788  17.013  0.1158 -0.2252  0.0651
 8919SOL    HW138390   1.850   0.783  16.918 -1.2565  0.3663  0.1905
 8919SOL    HW238391   1.934   0.727  17.023 -0.0404 -0.2377  1.1386
 8920SOL     OW38392   2.569   0.182   2.763 -0.6929 -0.1004 -0.3664
 8920SOL    HW138393   2.617   0.184   2.846 -1.0463  1.9730 -0.2003
 8920SOL    HW238394   2.488   0.137   2.788 -1.2107  0.9618 -0.1206
 8921SOL     OW38395   3.147   0.103   4.535  0.3476 -0.6348 -0.3920
 8921SOL    HW138396   3.092   0.025   4.544  2.7501 -2.1344  1.2049
 8921SOL    HW238397   3.103   0.174   4.583 -0.3496 -0.2929 -1.5276
 8922SOL     OW38398   2.663   0.504   7.917  0.0985  0.1436  0.0171
 8922SOL    HW138399   2.583   0.458   7.942  0.9194  0.2797  2.9474
 8922SOL    HW238400   2.708   0.431   7.875  0.8911  1.6520 -1.7424
 8923SOL     OW38401   3.789   4.192  15.194 -0.3341  0.4702 -0.0729
 8923SOL    HW138402   3.736   4.157  15.123  1.5457  0.8961 -1.6627
 8923SOL    HW238403   3.831   4.267  15.152  1.6763  0.1835  1.4043
 8924SOL     OW38404   0.942   2.551   8.274  0.3796 -0.0860 -0.6030
 8924SOL    HW138405   1.001   2.614   8.233  1.1578  0.1387  0.8854
 8924SOL    HW238406   0.967   2.471   8.228 -3.5757 -1.3843 -0.5169
 8925SOL     OW38407   1.450   4.010   3.436 -0.4079 -0.2789 -0.1090
 8925SOL    HW138408   1.483   4.098   3.419 -2.4926  0.3375 -0.9848
 8925SOL    HW238409   1.527   3.957   3.416 -2.1478 -1.5540 -3.4468
 8926SOL     OW38410   3.377   2.714   4.680  0.1971  0.3406 -0.2968
 8926SOL    HW138411   3.426   2.643   4.639  0.4589  0.5657 -0.3699
 8926SOL    HW238412   3.436   2.777   4.719  0.8413 -0.2667 -0.2917
 8927SOL     OW38413   2.119   0.816   8.388  0.2838  0.5311 -0.0472
 8927SOL    HW138414   2.077   0.784   8.468  0.3610  1.0503  0.1952
 8927SOL    HW238415   2.179   0.876   8.432 -0.8542  2.0323 -0.5511
 8928SOL     OW38416   3.276   2.763  16.963  0.0889  0.5892  0.3542
 8928SOL    HW138417   3.225   2.732  16.888  0.1627 -2.6152  1.6191
 8928SOL    HW238418   3.215   2.825  17.003 -0.7057 -1.6950  2.7261
 8929SOL     OW38419   4.484   1.324  12.063  0.7862  0.0202 -0.1297
 8929SOL    HW138420   4.486   1.234  12.094 -1.1323 -0.7275 -2.0985
 8929SOL    HW238421   4.506   1.304  11.972  0.3421 -1.7723  0.1521
 8930SOL     OW38422   4.475   4.096  13.051 -0.0043  0.4905  0.1666
 8930SOL    HW138423   4.516   4.041  13.117 -1.0090 -0.1089  0.2845
 8930SOL    HW238424   4.387   4.063  13.036  0.1667  0.2511 -0.3186
 8931SOL     OW38425   2.010   3.640   1.796 -0.5388 -0.3886  0.1389
 8931SOL    HW138426   2.054   3.568   1.841  0.6615 -0.1260 -0.6332
 8931SOL    HW238427   2.018   3.706   1.866  0.5725 -0.3301 -0.0538
 8932SOL     OW38428   2.195   2.511   0.281  0.0033  0.4266  0.4226
 8932SOL    HW138429   2.221   2.420   0.269  1.8625  1.2199 -1.6004
 8932SOL    HW238430   2.100   2.501   0.270 -0.0071 -0.9026  1.7964
 8933SOL     OW38431   4.278   0.812   6.450  0.0787  0.0850  0.2356
 8933SOL    HW138432   4.212   0.749   6.477 -0.4039 -0.2888 -1.8347
 8933SOL    HW238433   4.302   0.784   6.362 -0.6346 -1.0751  0.4172
 8934SOL     OW38434   0.859   2.989   1.542  0.2867 -0.4776  0.5272
 8934SOL    HW138435   0.938   3.035   1.512 -0.1563  1.2889  2.0103
 8934SOL    HW238436   0.787   3.051   1.551  1.7558  1.3328 -0.1074
 8935SOL     OW38437   4.614   2.257   9.145  0.0052 -0.3088 -0.1871
 8935SOL    HW138438   4.520   2.259   9.126  0.0249 -2.7778 -0.6600
 8935SOL    HW238439   4.638   2.329   9.087 -0.0874 -0.0935  0.0436
 8936SOL     OW38440   3.387   4.290   2.551  0.1355 -0.2906  0.6058
 8936SOL    HW138441   3.434   4.360   2.594 -1.3793 -0.7894  3.0686
 8936SOL    HW238442   3.444   4.277   2.475 -2.0248  3.9566 -1.7630
 8937SOL     OW38443   3.104   3.594  16.997 -0.0190 -0.6667  0.0148
 8937SOL    HW138444   3.186   3.629  16.962 -0.1151  1.6209  2.0740
 8937SOL    HW238445   3.119   3.604  17.091  1.4806 -0.6253 -0.2242
 8938SOL     OW38446   4.253   1.746   5.773 -0.6416 -0.0623 -0.0554
 8938SOL    HW138447   4.201   1.701   5.840 -1.8560  0.5450 -0.5944
 8938SOL    HW238448   4.339   1.750   5.816 -0.1043  0.6919 -1.1896
 8939SOL     OW38449   4.097   0.550  13.812  0.3348  0.3451  0.5907
 8939SOL    HW138450   4.165   0.545  13.745 -0.3787  1.6703 -0.2231
 8939SOL    HW238451   4.019   0.583  13.767  1.1929 -0.1226 -1.2137
 8940SOL     OW38452   3.738   1.103  15.365 -0.2101 -0.0403  0.6700
 8940SOL    HW138453   3.717   1.016  15.399 -1.4670  0.4252  1.1015
 8940SOL    HW238454   3.780   1.081  15.282 -1.7615 -0.3157 -0.0327
 8941SOL     OW38455   1.933   2.597   5.161 -0.1959 -0.0596  0.6327
 8941SOL    HW138456   1.951   2.564   5.248 -0.6800  0.0118  0.7611
 8941SOL    HW238457   1.933   2.516   5.110  2.8826 -0.1755  0.8595
 8942SOL     OW38458   2.138   0.015   9.693 -0.2301 -0.5953 -0.4059
 8942SOL    HW138459   2.094   0.045   9.773 -1.6646  1.3785 -1.9592
 8942SOL    HW238460   2.141   4.661   9.713  0.6195 -0.5287 -0.1845
 8943SOL     OW38461   1.747   3.354   9.763 -0.0853 -0.4893 -0.3486
 8943SOL    HW138462   1.670   3.298   9.762 -0.3303 -0.1926  1.3401
 8943SOL    HW238463   1.792   3.323   9.842 -0.2238  1.6385  0.5654
 8944SOL     OW38464   0.259   1.185   1.664  0.5127  0.5630 -0.0126
 8944SOL    HW138465   0.349   1.198   1.633  0.3623 -1.0202 -1.1429
 8944SOL    HW238466   0.235   1.093   1.648 -1.4836  0.8428  1.3911
 8945SOL     OW38467   1.251   0.270   6.485 -0.3264  0.6995 -0.1580
 8945SOL    HW138468   1.345   0.285   6.496 -0.6172  1.5618  1.1236
 8945SOL    HW238469   1.222   0.253   6.574 -0.7026 -0.4391 -0.4929
 8946SOL     OW38470   3.956   4.404  11.147  0.8146  0.6854  0.6258
 8946SOL    HW138471   3.867   4.419  11.117  0.3819 -3.9490 -0.3153
 8946SOL    HW238472   3.954   4.480  11.206 -0.2960  1.2443 -0.1421
 8947SOL     OW38473   3.366   4.125   6.399  0.5168  0.2936  0.2928
 8947SOL    HW138474   3.429   4.183   6.443  1.6974 -0.2387 -0.7000
 8947SOL    HW238475   3.417   4.063   6.347  0.3157  0.6052 -0.2837
 8948SOL     OW38476   4.184   0.445   6.832  0.2906 -0.4100  0.2424
 8948SOL    HW138477   4.143   0.450   6.746 -1.0071  1.6295  0.9772
 8948SOL    HW238478   4.232   0.362   6.829  0.5616 -0.2398 -0.1351
 8949SOL     OW38479   4.681   4.615   8.088  0.3657  0.5152  0.3344
 8949SOL    HW138480   4.693   4.703   8.053  0.3071 -0.0236 -1.0488
 8949SOL    HW238481   0.011   4.617   8.154  0.4031 -1.5072  0.3760
 8950SOL     OW38482   1.509   1.505   1.041  0.1285  0.1403 -0.1411
 8950SOL    HW138483   1.443   1.459   0.989 -0.2964  0.7945 -0.1840
 8950SOL    HW238484   1.466   1.530   1.123 -1.9045 -2.1584 -0.5079
 8951SOL     OW38485   1.817   2.927   3.675 -0.0022  0.3728 -0.4896
 8951SOL    HW138486   1.797   3.016   3.645 -2.2138 -0.5932 -1.8687
 8951SOL    HW238487   1.860   2.946   3.759  0.4426 -0.2602 -0.5805
 8952SOL     OW38488   1.899   3.486  11.378  0.1753 -0.0860 -0.1140
 8952SOL    HW138489   1.902   3.403  11.329 -0.9249  0.9334 -1.8957
 8952SOL    HW238490   1.807   3.512  11.374  0.2348  0.1645  0.1524
 8953SOL     OW38491   0.521   1.004  15.456  0.8427  0.4134  0.2596
 8953SOL    HW138492   0.536   1.052  15.374  0.2077 -0.8872 -0.6168
 8953SOL    HW238493   0.435   1.037  15.481 -0.6198 -0.6242 -3.4011
 8954SOL     OW38494   3.085   4.214   5.422 -0.0932 -0.0481  0.6729
 8954SOL    HW138495   3.180   4.215   5.424 -0.1092  1.5707 -0.2838
 8954SOL    HW238496   3.081   4.125   5.386  0.3104  0.7066 -1.1942
 8955SOL     OW38497   4.167   1.405  15.928 -0.1284  0.4756 -0.1833
 8955SOL    HW138498   4.086   1.433  15.971 -2.1278 -4.0257 -1.0126
 8955SOL    HW238499   4.224   1.464  15.977 -1.7518  0.0308  2.2748
 8956SOL     OW38500   4.689   1.382   7.613 -0.1541 -0.2712  0.2435
 8956SOL    HW138501   4.737   1.299   7.612  1.0475  0.4478 -2.6422
 8956SOL    HW238502   0.027   1.432   7.637  0.7430 -1.8733  0.7225
 8957SOL     OW38503   3.577   1.648   3.765 -0.1923 -0.4745  1.0922
 8957SOL    HW138504   3.639   1.654   3.691  0.2110  0.6423  1.5300
 8957SOL    HW238505   3.588   1.738   3.794 -0.3526 -0.0838 -0.0628
 8958SOL     OW38506   4.478   4.161  14.384  0.1265 -0.4471  0.0434
 8958SOL    HW138507   4.425   4.098  14.336 -0.1989 -0.1124 -0.0417
 8958SOL    HW238508   4.428   4.171  14.465 -2.0521  0.7312 -1.4414
 8959SOL     OW38509   0.135   0.040   3.785  0.2406 -0.2177  0.4267
 8959SOL    HW138510   0.056   0.034   3.838  0.6083 -3.3224  0.6222
 8959SOL    HW238511   0.163   4.688   3.795  0.5271 -0.1700  0.0582
 8960SOL     OW38512   4.696   4.263   9.640  0.1788 -0.0462 -0.4650
 8960SOL    HW138513   4.717   4.350   9.674 -0.4111  0.9857 -2.7429
 8960SOL    HW238514   4.716   4.205   9.713  1.4131  1.6360  0.5189
 8961SOL     OW38515   2.576   2.082   0.757  0.5459  0.0974 -0.4938
 8961SOL    HW138516   2.599   1.990   0.765 -1.0116 -0.0938  1.5820
 8961SOL    HW238517   2.656   2.114   0.713 -1.4228  0.0355 -4.0946
 8962SOL     OW38518   2.003   3.255  11.174  0.0047  0.1908 -0.3209
 8962SOL    HW138519   2.098   3.253  11.189  0.2868 -0.3606 -2.1228
 8962SOL    HW238520   2.002   3.313  11.098  2.1084  0.3538 -0.2361
 8963SOL     OW38521   3.443   0.089   7.456 -0.1920  0.2101  0.4906
 8963SOL    HW138522   3.466   0.107   7.547  0.0363  1.4816  0.1904
 8963SOL    HW238523   3.436   4.733   7.456  0.0133  0.1738 -2.0839
 8964SOL     OW38524   1.391   3.150   3.206  0.3143  0.2204 -0.6284
 8964SOL    HW138525   1.477   3.150   3.248  1.2665  1.6185 -2.6293
 8964SOL    HW238526   1.338   3.108   3.275 -0.2826 -0.4375 -1.4859
 8965SOL     OW38527   2.309   2.130   3.779 -0.3393  0.1603 -0.3886
 8965SOL    HW138528   2.226   2.085   3.768 -0.8442  1.2594 -1.0647
 8965SOL    HW238529   2.351   2.103   3.697  0.6552 -2.8889  1.1232
 8966SOL     OW38530   2.309   2.227   7.316  0.1637  0.1086 -0.9965
 8966SOL    HW138531   2.360   2.281   7.376 -0.3440 -0.8467  0.2791
 8966SOL    HW238532   2.221   2.261   7.332  0.3862 -0.1044  0.6010
 8967SOL     OW38533   1.842   3.808   2.537  0.3292  0.4229  0.2338
 8967SOL    HW138534   1.800   3.880   2.490  1.0405  0.2669 -0.6488
 8967SOL    HW238535   1.762   3.755   2.542  0.1969  0.2554 -3.4351
 8968SOL     OW38536   4.210   3.542   8.368  0.7662 -0.3275  0.5130
 8968SOL    HW138537   4.121   3.517   8.342  0.5131  1.0201  0.0693
 8968SOL    HW238538   4.216   3.629   8.326  0.3640 -0.5476 -0.0109
 8969SOL     OW38539   1.305   4.192   7.776  0.0507 -0.2023  0.7813
 8969SOL    HW138540   1.282   4.266   7.721 -0.5193 -0.5673  0.5309
 8969SOL    HW238541   1.343   4.246   7.846  0.6496  2.4989 -1.6597
 8970SOL     OW38542   3.426   2.024   4.581 -0.7379  0.4834 -0.2126
 8970SOL    HW138543   3.442   1.943   4.630  1.3636  1.7481  1.1840
 8970SOL    HW238544   3.382   1.987   4.504  2.5058 -0.7044 -1.5026
 8971SOL     OW38545   2.992   0.156  12.713 -0.2958  0.4630  0.3760
 8971SOL    HW138546   3.048   0.117  12.780  0.8051  0.6414 -0.4347
 8971SOL    HW238547   3.054   0.200  12.655 -0.4989  1.2747  0.7678
 8972SOL     OW38548   0.795   0.844   7.127  0.1780 -0.5301  0.2146
 8972SOL    HW138549   0.739   0.852   7.204  0.6134  1.0566  0.3723
 8972SOL    HW238550   0.852   0.780   7.169 -0.3367 -1.4357 -0.4513
 8973SOL     OW38551   1.130   3.633  13.221 -0.3486 -0.6216 -0.4814
 8973SOL    HW138552   1.100   3.643  13.131 -3.0658 -2.0683  0.2705
 8973SOL    HW238553   1.159   3.722  13.242 -0.4858 -0.5447 -0.6130
 8974SOL     OW38554   4.594   1.984   1.243  0.1135  0.7549 -0.3280
 8974SOL    HW138555   4.602   1.916   1.176  1.3906 -0.4289  1.0264
 8974SOL    HW238556   4.573   1.928   1.319 -0.3592  1.6776  0.2224
 8975SOL     OW38557   3.999   1.790  15.833 -0.0140  0.1638  0.5757
 8975SOL    HW138558   3.903   1.785  15.832  0.1282 -2.0482 -0.9094
 8975SOL    HW238559   4.029   1.855  15.769 -1.9872 -2.0755 -2.6325
 8976SOL     OW38560   3.075   2.991   0.047  0.2366 -0.4253  0.4342
 8976SOL    HW138561   3.110   2.976  17.715 -2.8975  1.7036 -1.1855
 8976SOL    HW238562   3.137   3.058   0.078 -1.8170  1.6576  0.0179
 8977SOL     OW38563   2.859   1.922  16.903 -0.2817  0.1569 -0.0906
 8977SOL    HW138564   2.875   1.882  16.989 -0.8714 -0.5222 -0.3002
 8977SOL    HW238565   2.843   2.013  16.927 -1.4422  0.2333 -1.2086
 8978SOL     OW38566   1.166   2.180   4.476  0.3397  0.7122 -0.8421
 8978SOL    HW138567   1.163   2.137   4.390 -1.9814  0.7721 -0.8048
 8978SOL    HW238568   1.125   2.117   4.535 -0.3787 -0.2696 -2.3572
 8979SOL     OW38569   3.986   4.567   2.046  0.8082 -0.5918 -0.5409
 8979SOL    HW138570   4.011   4.660   2.048  1.0427 -0.6285 -2.1629
 8979SOL    HW238571   4.052   4.536   2.108 -0.4113 -2.7443 -0.3073
 8980SOL     OW38572   3.863   1.627   9.378  0.5454 -0.5429 -0.2347
 8980SOL    HW138573   3.809   1.618   9.457  0.6959  0.6709 -0.0009
 8980SOL    HW238574   3.925   1.693   9.407 -0.6176  0.3158  0.3232
 8981SOL     OW38575   0.850   3.993   3.633 -0.6611  0.1101 -0.4280
 8981SOL    HW138576   0.937   4.024   3.610  0.0865 -0.2807  1.9215
 8981SOL    HW238577   0.818   4.070   3.679 -1.5004 -2.1845  2.8352
 8982SOL     OW38578   2.945   0.902  15.175 -0.6434 -0.1097  0.5068
 8982SOL    HW138579   2.866   0.856  15.145 -1.4425  2.5727 -1.5264
 8982SOL    HW238580   3.017   0.842  15.154  0.3176  1.7599 -1.6054
 8983SOL     OW38581   0.207   1.534  16.912  0.2293  0.2321 -0.1766
 8983SOL    HW138582   0.114   1.554  16.903  0.1077 -0.3650 -0.2710
 8983SOL    HW238583   0.215   1.535  17.008  0.9214 -0.7921 -0.2241
 8984SOL     OW38584   0.787   1.043   6.123 -0.0798 -0.0162 -0.1385
 8984SOL    HW138585   0.823   1.123   6.084 -0.9904 -0.1509 -1.2426
 8984SOL    HW238586   0.749   1.003   6.045 -2.1207  0.9008  0.3925
 8985SOL     OW38587   1.271   1.031   1.255 -0.5429  0.5538  0.2947
 8985SOL    HW138588   1.289   1.018   1.162  0.1673  0.2625  0.4725
 8985SOL    HW238589   1.322   1.111   1.269  3.1611 -1.9051  0.8946
 8986SOL     OW38590   2.558   2.694   3.415  0.2708  0.2356  0.1512
 8986SOL    HW138591   2.508   2.614   3.429 -1.2758  1.0925 -0.3345
 8986SOL    HW238592   2.568   2.728   3.504  2.4675 -1.2699  0.4673
 8987SOL     OW38593   0.426   1.544   6.424  0.0481 -0.1728  0.3276
 8987SOL    HW138594   0.403   1.557   6.332 -1.3388 -1.0350  0.5510
 8987SOL    HW238595   0.393   1.459   6.451  0.7669 -0.7542 -0.6363
 8988SOL     OW38596   2.646   4.030   2.414 -0.3148  0.2524  0.0300
 8988SOL    HW138597   2.727   4.076   2.435 -1.0169  2.5411 -2.1835
 8988SOL    HW238598   2.686   3.998   2.333 -0.5395 -0.8684  0.3605
 8989SOL     OW38599   0.188   1.952  16.513  0.6048  0.1098  0.6307
 8989SOL    HW138600   0.201   2.046  16.516 -1.0442  0.3846 -1.3491
 8989SOL    HW238601   0.147   1.935  16.428  2.0273  0.8147 -0.2056
 8990SOL     OW38602   1.102   0.138  12.296 -0.1899  0.0856 -0.0455
 8990SOL    HW138603   1.152   0.058  12.282  0.9900  0.5517  1.3759
 8990SOL    HW238604   1.165   0.198  12.337  2.2916 -1.2086 -1.9390
 8991SOL     OW38605   0.169   4.707  15.022 -0.0972 -0.7000 -0.3602
 8991SOL    HW138606   0.141   0.014  15.100 -2.0975 -0.9540 -0.9117
 8991SOL    HW238607   0.234   0.023  14.979  0.2240 -0.1288  0.8672
 8992SOL     OW38608   1.374   1.422   9.993 -0.0348 -0.1494 -0.0399
 8992SOL    HW138609   1.368   1.491   9.928  0.2695  2.3068  2.5237
 8992SOL    HW238610   1.348   1.472  10.071  0.2674  2.6063 -1.7181
 8993SOL     OW38611   0.319   4.375   5.004 -0.1011  0.0256  0.1186
 8993SOL    HW138612   0.256   4.312   4.970 -0.9154  1.9305 -1.9284
 8993SOL    HW238613   0.306   4.449   4.945  0.1117 -0.6293 -0.7533
 8994SOL     OW38614   1.761   0.097   9.266 -0.7670 -0.3041 -0.2088
 8994SOL    HW138615   1.852   0.076   9.243 -1.0002 -1.9483  0.3828
 8994SOL    HW238616   1.724   0.109   9.178 -2.8251 -2.9322  0.2930
 8995SOL     OW38617   4.479   0.708   3.884  0.1937 -0.0275  0.1434
 8995SOL    HW138618   4.524   0.632   3.920 -0.7611  0.0238  1.4734
 8995SOL    HW238619   4.529   0.732   3.806 -1.6351 -0.0390 -1.0521
 8996SOL     OW38620   0.476   3.778   3.693 -0.6082  0.7117  0.3731
 8996SOL    HW138621   0.561   3.788   3.736 -0.7685 -1.6171  1.2404
 8996SOL    HW238622   0.498   3.719   3.621  0.0618 -0.7864  1.8133
 8997SOL     OW38623   1.157   0.807  14.355 -1.0013 -0.2242 -0.3231
 8997SOL    HW138624   1.061   0.796  14.353 -0.8740 -1.2573 -1.3743
 8997SOL    HW238625   1.183   0.867  14.285  2.6740 -0.0893  1.1943
 8998SOL     OW38626   4.359   1.657   2.807  0.1719  0.4205  0.7732
 8998SOL    HW138627   4.441   1.705   2.793  1.8856 -1.7884  3.2731
 8998SOL    HW238628   4.304   1.729   2.838  1.0465  2.2671 -1.9852
 8999SOL     OW38629   2.888   4.345   8.023  0.7618  0.8872 -0.1429
 8999SOL    HW138630   2.960   4.335   8.086  2.0023  1.2265 -1.5206
 8999SOL    HW238631   2.861   4.254   8.010  2.7048  0.3660 -0.5042
 9000SOL     OW38632   3.207   2.927   3.054  0.0850 -0.2303  0.5131
 9000SOL    HW138633   3.149   2.986   3.005 -0.8267 -1.9956 -0.5227
 9000SOL    HW238634   3.294   2.964   3.037 -1.0007  1.6885 -0.7985
 9001SOL     OW38635   1.448   3.612   8.553 -0.3168  0.0651 -0.6511
 9001SOL    HW138636   1.463   3.705   8.536 -0.7546  0.2462 -0.0628
 9001SOL    HW238637   1.434   3.575   8.466 -1.1691 -0.7520 -0.1812
 9002SOL     OW38638   0.923   2.437   0.062  0.1422  0.1778 -0.2531
 9002SOL    HW138639   1.016   2.457   0.057 -0.1486  1.1167 -2.0310
 9002SOL    HW238640   0.927   2.347   0.093  0.0777  1.0504  2.2667
 9003SOL     OW38641   0.056   2.786   3.186  0.3263  0.2807  0.5307
 9003SOL    HW138642   0.083   2.798   3.095 -0.9178  0.6607  0.2091
 9003SOL    HW238643   0.065   2.691   3.195  1.4972  0.1182 -2.3336
 9004SOL     OW38644   2.974   4.639   4.494 -0.0238  0.7409  0.4661
 9004SOL    HW138645   3.009   4.551   4.488 -0.4575  0.3802  3.0629
 9004SOL    HW238646   2.921   4.638   4.415  1.7978 -2.0122 -0.6793
 9005SOL     OW38647   2.739   2.938   4.193 -0.4111  0.0381  0.1629
 9005SOL    HW138648   2.718   2.976   4.278  1.4408 -2.2305  1.6201
 9005SOL    HW238649   2.748   2.844   4.207 -0.9779  0.1154  1.0460
 9006SOL     OW38650   3.507   4.587   8.621  0.1391 -0.1464 -0.3020
 9006SOL    HW138651   3.464   4.617   8.542 -0.9136 -1.3395 -0.1841
 9006SOL    HW238652   3.597   4.615   8.608  0.2026 -0.2063  0.0019
 9007SOL     OW38653   4.736   3.957   6.275  0.9527  0.2927 -0.1349
 9007SOL    HW138654   4.692   3.940   6.358  1.8990  2.0013  0.7157
 9007SOL    HW238655   4.670   3.997   6.218  0.3939 -0.0586  0.2684
 9008SOL     OW38656   3.584   2.445   2.977 -0.2147 -0.6928 -0.3954
 9008SOL    HW138657   3.673   2.469   3.001 -0.5317  0.2757 -0.1673
 9008SOL    HW238658   3.546   2.417   3.061 -0.2457 -0.3887 -0.3089
 9009SOL     OW38659   0.039   0.974   1.348  0.7355 -0.4896 -0.0707
 9009SOL    HW138660   0.065   1.050   1.295 -0.8720 -1.3970 -2.1588
 9009SOL    HW238661   4.719   0.922   1.295 -0.9550  0.2196  1.1479
 9010SOL     OW38662   4.163   2.644   6.339 -0.0880 -0.3906 -0.3273
 9010SOL    HW138663   4.133   2.646   6.430  1.4444 -0.6435  0.1993
 9010SOL    HW238664   4.120   2.722   6.306  1.5738  1.1860  1.2610
 9011SOL     OW38665   4.387   0.815   2.698 -0.1630  0.0726  0.1334
 9011SOL    HW138666   4.298   0.794   2.729 -0.7353  2.3696  0.0359
 9011SOL    HW238667   4.433   0.827   2.781  0.3447 -1.2195  0.0435
 9012SOL     OW38668   0.077   0.988   7.895  0.0805 -0.0589 -1.0096
 9012SOL    HW138669   0.072   1.081   7.917 -0.3748 -1.0441  2.9600
 9012SOL    HW238670   0.149   0.963   7.952 -1.1617 -0.7702  0.2450
 9013SOL     OW38671   3.395   2.710   4.319 -0.2667  0.6861  0.7382
 9013SOL    HW138672   3.463   2.776   4.334  2.7293 -2.1090 -0.4666
 9013SOL    HW238673   3.446   2.630   4.305  0.1840  0.9562  0.8344
 9014SOL     OW38674   0.969   0.992   8.387 -0.4386  0.2668 -0.0475
 9014SOL    HW138675   0.964   0.917   8.445 -0.6102 -0.1221 -0.5615
 9014SOL    HW238676   1.020   0.953   8.315  0.7410  0.1845  0.8292
 9015SOL     OW38677   3.214   0.274   4.298 -0.5890 -0.2230  0.6127
 9015SOL    HW138678   3.281   0.206   4.299  0.0981  0.3350 -4.2389
 9015SOL    HW238679   3.157   0.239   4.366 -1.5140 -0.8833 -0.4877
 9016SOL     OW38680   4.338   3.064   5.304  0.0168 -0.0212 -0.3510
 9016SOL    HW138681   4.292   3.101   5.379  0.8279  0.1806  0.0424
 9016SOL    HW238682   4.422   3.109   5.307  0.5444 -1.2001  2.3016
 9017SOL     OW38683   0.794   0.846  11.331  0.0781  0.2289 -0.1268
 9017SOL    HW138684   0.794   0.750  11.322 -1.8892 -0.0013  2.4763
 9017SOL    HW238685   0.756   0.871  11.247 -2.3850 -1.8943  0.3532
 9018SOL     OW38686   4.138   0.878   1.706 -0.1097 -0.3138  0.4551
 9018SOL    HW138687   4.169   0.789   1.726 -0.9393 -0.3584  1.5377
 9018SOL    HW238688   4.127   0.907   1.797 -1.0830  1.1853 -0.1448
 9019SOL     OW38689   3.396   0.460  13.231  0.4899 -0.0562  0.1736
 9019SOL    HW138690   3.395   0.538  13.287  0.0972 -0.3077  0.5224
 9019SOL    HW238691   3.452   0.496  13.163 -1.2861 -0.6048 -1.5947
 9020SOL     OW38692   3.965   4.252  14.817 -0.1211 -0.6815  0.1212
 9020SOL    HW138693   4.039   4.309  14.797 -0.8031 -0.1399 -0.8674
 9020SOL    HW238694   3.938   4.292  14.900 -0.3908 -0.4449 -0.0820
 9021SOL     OW38695   4.080   3.994  10.756  0.0276 -0.2392  0.0310
 9021SOL    HW138696   4.048   4.081  10.784 -0.8677 -0.4632 -0.2839
 9021SOL    HW238697   4.012   3.970  10.693  0.7323 -0.9824 -0.4403
 9022SOL     OW38698   4.292   4.300   2.416 -0.1136 -0.4970  0.2008
 9022SOL    HW138699   4.251   4.367   2.470  3.3292  1.2168  0.6753
 9022SOL    HW238700   4.324   4.247   2.489  0.9890 -0.8822 -0.5593
 9023SOL     OW38701   0.170   2.906  13.416 -0.3349  0.5407  0.7377
 9023SOL    HW138702   0.112   2.846  13.463  0.7669 -1.6376 -0.6939
 9023SOL    HW238703   0.241   2.919  13.478  2.0362 -0.7715 -1.6693
 9024SOL     OW38704   1.674   2.294   2.961  0.6703  0.0572  0.4742
 9024SOL    HW138705   1.752   2.238   2.962 -0.0380 -0.9822 -2.6775
 9024SOL    HW238706   1.701   2.382   2.934 -0.5041 -0.1978 -1.4794
 9025SOL     OW38707   4.583   4.632   5.625 -0.2527 -0.0234  0.1344
 9025SOL    HW138708   4.660   4.665   5.671  1.4600 -3.0695 -0.5366
 9025SOL    HW238709   4.598   4.676   5.541 -0.6219 -2.0662 -1.0136
 9026SOL     OW38710   1.505   2.064   6.961  0.3779  0.1701  0.2756
 9026SOL    HW138711   1.507   2.160   6.961 -0.6411  0.1836  0.7774
 9026SOL    HW238712   1.413   2.048   6.939  0.6377 -0.1698 -0.5754
 9027SOL     OW38713   3.842   3.863   2.872 -0.2449  0.1031 -0.6822
 9027SOL    HW138714   3.929   3.843   2.836  0.0578  1.8624 -0.9231
 9027SOL    HW238715   3.803   3.862   2.784  1.9789  0.6293 -1.6812
 9028SOL     OW38716   0.665   4.487  16.098  0.4211 -0.5478 -0.5912
 9028SOL    HW138717   0.630   4.512  16.183  1.3919 -1.8736  0.1930
 9028SOL    HW238718   0.758   4.476  16.116  0.2896 -0.7078  0.0049
 9029SOL     OW38719   2.716   3.295   3.138 -0.7154 -0.2412  0.2148
 9029SOL    HW138720   2.749   3.318   3.225 -0.6369 -0.8376  0.3428
 9029SOL    HW238721   2.724   3.200   3.141 -1.4355 -0.2743  1.3342
 9030SOL     OW38722   0.075   4.306  15.564 -0.5428 -0.3802 -0.5646
 9030SOL    HW138723   0.115   4.292  15.650 -0.4180 -1.7299 -0.8428
 9030SOL    HW238724   0.143   4.359  15.525  1.2956 -3.3942 -1.4790
 9031SOL     OW38725   2.703   2.144   5.269  0.3627 -0.7565 -0.2883
 9031SOL    HW138726   2.641   2.074   5.246 -0.2223 -0.0419 -0.8970
 9031SOL    HW238727   2.677   2.163   5.359  2.5693 -1.1277  0.4144
 9032SOL     OW38728   1.625   2.607   6.902  0.1349 -0.1528 -0.2661
 9032SOL    HW138729   1.708   2.643   6.935  1.0669 -0.9262 -1.7510
 9032SOL    HW238730   1.569   2.679   6.928  2.1792  0.8605  1.3295
 9033SOL     OW38731   1.958   1.307   7.988  0.1263  0.4347  0.1367
 9033SOL    HW138732   1.990   1.311   7.898  0.9748  0.2133  0.4211
 9033SOL    HW238733   2.037   1.301   8.042  0.0762  3.3016  0.5071
 9034SOL     OW38734   1.867   2.240   4.478  0.6753  0.5450  0.0860
 9034SOL    HW138735   1.943   2.268   4.426  1.7547 -0.4188  1.1335
 9034SOL    HW238736   1.819   2.176   4.427 -0.0065  0.5350  0.7411
 9035SOL     OW38737   2.263   2.663   6.656  0.1174  0.2934  0.1463
 9035SOL    HW138738   2.216   2.648   6.575 -0.0668  1.5900  0.0172
 9035SOL    HW238739   2.325   2.729   6.625 -0.4872  0.8728  0.1866
 9036SOL     OW38740   3.295   2.470  16.787  0.5004 -0.2630  0.3776
 9036SOL    HW138741   3.239   2.401  16.825 -1.6673  1.1179 -0.3297
 9036SOL    HW238742   3.276   2.470  16.694 -0.5088 -0.9822  0.5813
 9037SOL     OW38743   3.653   3.532   8.495 -0.0853  0.1800  0.9024
 9037SOL    HW138744   3.649   3.462   8.559 -0.7959 -0.6170 -0.0007
 9037SOL    HW238745   3.719   3.590   8.533  1.5934  0.4097 -2.3526
 9038SOL     OW38746   4.171   0.403  16.067 -0.3892  0.7860  0.1818
 9038SOL    HW138747   4.195   0.466  15.999  1.1988  0.9983  0.9306
 9038SOL    HW238748   4.178   0.470  16.135 -1.8792  1.7951 -0.6605
 9039SOL     OW38749   0.645   3.807  12.964 -0.0191  0.1938  0.6602
 9039SOL    HW138750   0.632   3.821  12.870  1.3995  0.4026  0.4873
 9039SOL    HW238751   0.567   3.755  12.983 -0.4235  1.1481  1.6259
 9040SOL     OW38752   4.053   1.748   4.858  0.0258 -0.4918 -0.3680
 9040SOL    HW138753   4.103   1.679   4.814 -1.0374 -1.5367  0.0454
 9040SOL    HW238754   4.124   1.812   4.853  0.0255 -0.4492  0.1492
 9041SOL     OW38755   1.086   1.620   7.713 -0.2905 -0.0946  0.1939
 9041SOL    HW138756   0.992   1.603   7.705  0.2293 -1.6096 -2.9499
 9041SOL    HW238757   1.109   1.584   7.798  0.6908 -0.8901 -0.4068
 9042SOL     OW38758   3.324   0.354   5.704 -0.5325  0.5541  0.5772
 9042SOL    HW138759   3.362   0.309   5.629  2.2917  0.8285  1.8544
 9042SOL    HW238760   3.381   0.429   5.719 -1.0819  1.1655 -0.4072
 9043SOL     OW38761   0.317   1.828   5.440  0.3695  0.0866 -0.0273
 9043SOL    HW138762   0.285   1.914   5.412 -0.8401 -0.7668 -1.2733
 9043SOL    HW238763   0.288   1.773   5.367  2.0367  0.4827 -0.9768
 9044SOL     OW38764   3.473   2.903  17.126 -0.0084  0.3266  0.1505
 9044SOL    HW138765   3.561   2.938  17.113 -1.0422  3.3958  1.3261
 9044SOL    HW238766   3.462   2.838  17.057  1.8392  2.2997 -2.0066
 9045SOL     OW38767   4.414   2.212   1.737  0.9611 -0.5904 -0.4247
 9045SOL    HW138768   4.473   2.274   1.694  0.4272  0.0780 -0.1928
 9045SOL    HW238769   4.378   2.171   1.658  1.7292  0.5143 -1.3501
 9046SOL     OW38770   2.057   3.611   3.557 -0.2812  0.0615 -0.2414
 9046SOL    HW138771   2.057   3.643   3.467  0.4034  0.8065  0.0221
 9046SOL    HW238772   2.098   3.683   3.606 -0.5639 -2.3247  3.5758
 9047SOL     OW38773   3.577   1.450   9.978  0.7896 -0.3571 -0.8253
 9047SOL    HW138774   3.507   1.513   9.997  2.2732  0.5661  1.5621
 9047SOL    HW238775   3.561   1.381  10.042  1.8346 -0.7793 -1.0300
 9048SOL     OW38776   0.934   0.803   3.925  0.1862 -0.2102 -0.7593
 9048SOL    HW138777   0.895   0.742   3.863 -0.0580  0.3336 -1.1378
 9048SOL    HW238778   0.968   0.871   3.868 -1.5467  0.7028 -0.7030
 9049SOL     OW38779   2.650   0.328   9.508  0.1661  0.1955 -0.0050
 9049SOL    HW138780   2.626   0.270   9.436 -1.9578  1.6076 -0.4056
 9049SOL    HW238781   2.735   0.290   9.534  0.4099 -0.1775 -1.3648
 9050SOL     OW38782   3.558   0.388   6.394  0.4255 -0.1621  0.5972
 9050SOL    HW138783   3.481   0.442   6.374 -0.2997 -1.0914  0.8187
 9050SOL    HW238784   3.526   0.302   6.423  1.2614 -0.9520 -0.7880
 9051SOL     OW38785   1.935   2.102   9.034  0.1987 -0.0618  0.2357
 9051SOL    HW138786   2.030   2.094   9.041  0.2293 -0.4075 -0.5070
 9051SOL    HW238787   1.919   2.189   9.070 -0.7197 -0.6617  1.2834
 9052SOL     OW38788   2.595   2.996   2.081  0.1196  0.2841 -0.5906
 9052SOL    HW138789   2.555   3.082   2.095 -1.0803 -0.2963 -0.4665
 9052SOL    HW238790   2.522   2.934   2.076 -0.2953  0.9514 -3.0268
 9053SOL     OW38791   3.739   2.759   5.427 -0.3576  0.4649  0.0785
 9053SOL    HW138792   3.799   2.700   5.473 -2.1083 -1.3164  0.1052
 9053SOL    HW238793   3.764   2.847   5.456  0.8106  0.6518 -1.5090
 9054SOL     OW38794   3.472   2.069   1.337 -0.1133 -0.0700  0.2839
 9054SOL    HW138795   3.388   2.082   1.380 -0.3719  2.6532 -1.0816
 9054SOL    HW238796   3.504   2.158   1.321 -0.6434 -0.0689 -0.7766
 9055SOL     OW38797   4.710   1.596   8.533 -0.1747 -0.0441 -0.1342
 9055SOL    HW138798   0.027   1.562   8.603 -0.1447 -0.2605 -0.2632
 9055SOL    HW238799   4.635   1.619   8.588 -0.5177  1.0889 -1.1098
 9056SOL     OW38800   1.903   1.623   7.804  0.2198  0.1155 -0.0127
 9056SOL    HW138801   1.898   1.528   7.798  1.7291  0.0423 -0.2858
 9056SOL    HW238802   1.995   1.624   7.833 -0.0831  2.8889  0.8871
 9057SOL     OW38803   3.990   3.580   0.663  0.2467 -0.2773  0.3252
 9057SOL    HW138804   4.066   3.561   0.608  1.1541 -1.4976  1.9797
 9057SOL    HW238805   4.030   3.571   0.750  0.9154  0.1781  0.0700
 9058SOL     OW38806   0.962   1.965   1.958  0.0163 -0.7831  0.1056
 9058SOL    HW138807   0.920   2.010   2.032  2.4152  2.4084 -0.4933
 9058SOL    HW238808   0.880   1.949   1.911  0.4798  1.1386 -1.3147
 9059SOL     OW38809   3.660   3.997   3.012  0.7480 -0.1929 -0.0657
 9059SOL    HW138810   3.720   3.970   2.942  0.7436  1.4868 -0.7309
 9059SOL    HW238811   3.715   4.019   3.087  0.7502  0.2568 -0.1969
 9060SOL     OW38812   1.044   1.204   0.525 -0.3570  0.4361 -0.4876
 9060SOL    HW138813   0.957   1.243   0.526 -0.4499  0.1432  2.8481
 9060SOL    HW238814   1.041   1.169   0.615 -0.1271  1.8085  0.0586
 9061SOL     OW38815   2.630   3.261  15.748  0.4311 -0.6815  0.1076
 9061SOL    HW138816   2.717   3.298  15.729  0.0325 -0.4303 -1.1669
 9061SOL    HW238817   2.578   3.341  15.753  0.2165 -0.7884 -0.5513
 9062SOL     OW38818   0.137   1.285   5.035  1.0315 -0.3538  0.0013
 9062SOL    HW138819   0.119   1.291   4.941  0.3235  3.1401  0.3685
 9062SOL    HW238820   0.051   1.287   5.077  0.9368 -0.0484 -0.2093
 9063SOL     OW38821   1.673   2.435   1.895  0.3457  0.1203  0.2443
 9063SOL    HW138822   1.663   2.340   1.898 -2.5187  0.3995 -0.2142
 9063SOL    HW238823   1.763   2.453   1.866  0.5510  0.6207  1.2013
 9064SOL     OW38824   4.488   1.391   6.725 -0.1021  0.1482  0.4230
 9064SOL    HW138825   4.452   1.425   6.807 -1.7606 -0.2261 -0.1434
 9064SOL    HW238826   4.428   1.415   6.654 -0.3023 -1.2328  0.1306
 9065SOL     OW38827   1.746   2.763  16.580  0.3975 -0.8268 -0.0830
 9065SOL    HW138828   1.682   2.695  16.557  2.0493 -1.6596 -2.1931
 9065SOL    HW238829   1.698   2.814  16.645  1.0245 -1.0962  0.5876
 9066SOL     OW38830   3.543   0.188   7.072 -0.0484  0.0658  0.0598
 9066SOL    HW138831   3.610   0.251   7.046  0.2770 -0.2594  0.1069
 9066SOL    HW238832   3.485   0.241   7.127 -2.4205 -1.1361 -1.3013
 9067SOL     OW38833   0.283   1.644  14.307 -0.0016 -0.2493  0.0884
 9067SOL    HW138834   0.262   1.686  14.390  2.0298  1.1064 -0.0960
 9067SOL    HW238835   0.242   1.699  14.240  2.2816  0.4018 -0.7817
 9068SOL     OW38836   3.485   1.258   0.141 -0.4633 -0.3008  0.1399
 9068SOL    HW138837   3.532   1.186   0.184  0.5424  0.4765  0.3399
 9068SOL    HW238838   3.554   1.323   0.129 -2.3689  2.0361  1.6190
 9069SOL     OW38839   1.704   2.631   5.372  0.0847  0.1110 -0.0070
 9069SOL    HW138840   1.656   2.621   5.290  0.9246  1.7663 -0.7009
 9069SOL    HW238841   1.631   2.606   5.430 -0.3018  1.2740  0.0016
 9070SOL     OW38842   2.146   2.162  17.257 -0.6258 -0.4342 -0.2019
 9070SOL    HW138843   2.133   2.125  17.170 -0.6799 -1.5430  0.2726
 9070SOL    HW238844   2.091   2.240  17.252  1.8301  1.4006  1.1581
 9071SOL     OW38845   4.300   0.673  14.300 -0.2507 -0.0184  0.0383
 9071SOL    HW138846   4.210   0.640  14.310 -0.0403 -0.7187 -0.3625
 9071SOL    HW238847   4.306   0.702  14.209 -1.5665 -3.5813 -1.1835
 9072SOL     OW38848   3.794   3.730   0.803  0.1093  0.0374  0.3352
 9072SOL    HW138849   3.862   3.690   0.749  0.6172 -2.4336  2.7901
 9072SOL    HW238850   3.791   3.819   0.770  0.0011  0.4919  1.5564
 9073SOL     OW38851   4.701   2.330   1.138 -0.1634  0.0762 -0.1765
 9073SOL    HW138852   4.683   2.286   1.055 -1.0387  1.3134 -0.6423
 9073SOL    HW238853   4.630   2.393   1.151 -0.1818  0.5406 -2.4959
 9074SOL     OW38854   1.048   0.251   4.202 -0.1364  0.5986 -0.6155
 9074SOL    HW138855   1.081   0.321   4.259  1.4893 -0.9316  0.3324
 9074SOL    HW238856   0.968   0.223   4.247  1.3242 -3.4999 -0.5627
 9075SOL     OW38857   3.695   0.055  10.568  0.8269  0.2156 -0.0787
 9075SOL    HW138858   3.786   0.076  10.545  1.5991 -1.0977  1.7300
 9075SOL    HW238859   3.642   0.125  10.530  1.2166 -1.5836 -3.9783
 9076SOL     OW38860   3.756   4.460  12.851 -0.5851  0.1562 -0.3868
 9076SOL    HW138861   3.763   4.503  12.936  0.5053  1.3054 -1.0628
 9076SOL    HW238862   3.741   4.368  12.874 -1.5488 -0.3009 -2.8153
 9077SOL     OW38863   3.403   3.546   1.300  0.2071 -0.3044  0.3503
 9077SOL    HW138864   3.424   3.639   1.288 -0.5516 -0.3020 -0.9752
 9077SOL    HW238865   3.438   3.537   1.389  0.9424 -0.2433  0.0751
 9078SOL     OW38866   1.369   0.378   8.844 -0.0457 -0.2076  0.1892
 9078SOL    HW138867   1.427   0.453   8.861 -0.0697 -0.4677  1.4510
 9078SOL    HW238868   1.333   0.379   8.933  0.8880 -1.1763  0.5834
 9079SOL     OW38869   0.967   1.070  10.912  0.6790  0.0866  0.0154
 9079SOL    HW138870   0.975   1.125  10.990 -0.1978 -0.9570  0.8432
 9079SOL    HW238871   1.061   1.065  10.893 -0.0583 -1.6072 -3.0302
 9080SOL     OW38872   3.934   2.283   8.799  0.3955 -0.0587  0.1320
 9080SOL    HW138873   3.942   2.310   8.707 -0.6934 -0.0593  0.0394
 9080SOL    HW238874   3.879   2.205   8.795  0.1478  0.0509  1.4011
 9081SOL     OW38875   2.924   1.575  17.193  0.3547  0.0704  0.2461
 9081SOL    HW138876   2.943   1.517  17.267 -0.0242 -1.8222 -1.1674
 9081SOL    HW238877   2.847   1.544  17.147  0.7847 -0.0634 -0.3850
 9082SOL     OW38878   1.973   0.442  16.234  0.2749  0.2619  0.1411
 9082SOL    HW138879   1.925   0.389  16.170  0.2209  0.9405 -0.3779
 9082SOL    HW238880   1.904   0.493  16.275 -0.7779  0.0686 -1.4196
 9083SOL     OW38881   1.227   0.093   4.088 -0.2600  0.3573  0.7672
 9083SOL    HW138882   1.156   0.149   4.119 -1.0142 -0.4139  0.4492
 9083SOL    HW238883   1.291   0.107   4.158  1.2076  2.7397 -1.0515
 9084SOL     OW38884   4.018   3.475   2.740 -0.3209 -0.9951 -0.1389
 9084SOL    HW138885   3.935   3.439   2.770 -0.6998  0.9468  1.1401
 9084SOL    HW238886   4.078   3.453   2.812  0.3809 -3.7200 -1.5530
 9085SOL     OW38887   4.093   0.105   4.982 -0.1772 -0.2552  0.7186
 9085SOL    HW138888   4.015   0.148   4.945  0.8656  0.6227 -0.4326
 9085SOL    HW238889   4.143   0.089   4.903 -0.6940 -1.9443  0.7364
 9086SOL     OW38890   3.714   1.160   4.582 -0.3162 -0.3796  0.1240
 9086SOL    HW138891   3.807   1.174   4.565 -0.7894 -1.0766 -3.0431
 9086SOL    HW238892   3.668   1.238   4.552  0.0648 -1.2027 -2.6619
 9087SOL     OW38893   2.818   2.137   0.602 -0.2088  0.3085 -0.1665
 9087SOL    HW138894   2.884   2.130   0.671 -1.5913 -0.8033  1.0501
 9087SOL    HW238895   2.856   2.197   0.539  0.6538  0.5667  0.6028
 9088SOL     OW38896   1.921   4.600   2.806  0.0129  0.1507 -0.0182
 9088SOL    HW138897   1.924   4.539   2.732  2.1480 -0.2078  0.3671
 9088SOL    HW238898   1.986   4.571   2.869  0.5603  2.7696  0.6171
 9089SOL     OW38899   0.222   4.258   9.524 -0.6516 -0.1411 -0.2302
 9089SOL    HW138900   0.129   4.281   9.518 -0.3842  0.7512 -0.9943
 9089SOL    HW238901   0.257   4.333   9.571  0.9120 -0.6394 -0.6058
 9090SOL     OW38902   0.865   3.449   5.215  0.0732 -0.5304  0.0854
 9090SOL    HW138903   0.917   3.433   5.136  0.5238 -0.6016  0.3938
 9090SOL    HW238904   0.922   3.497   5.276 -0.5020 -2.5321  2.1982
 9091SOL     OW38905   2.796   4.369  10.174  0.0846 -0.6693 -0.2077
 9091SOL    HW138906   2.869   4.382  10.235  0.6400  1.1474 -1.2506
 9091SOL    HW238907   2.844   4.325  10.104  0.9197  1.2200 -0.8277
 9092SOL     OW38908   0.797   4.517   4.594  0.7543  0.0639 -0.2562
 9092SOL    HW138909   0.846   4.475   4.524  1.4380  0.1216  0.1894
 9092SOL    HW238910   0.794   4.443   4.654 -0.8564 -0.0307 -0.4544
 9093SOL     OW38911   1.523   1.158   7.790 -0.4532 -0.4568 -0.1789
 9093SOL    HW138912   1.523   1.116   7.876  1.4475  1.2359  0.6578
 9093SOL    HW238913   1.461   1.230   7.802  1.3952  0.6822  2.5274
 9094SOL     OW38914   3.301   1.098   0.009  0.1131 -0.3081 -0.2576
 9094SOL    HW138915   3.362   1.160   0.049  0.5400 -1.5966  1.0915
 9094SOL    HW238916   3.225   1.119   0.064 -1.3778  0.5924 -2.6646
 9095SOL     OW38917   2.671   2.072   0.049  0.4101  0.4404 -0.1534
 9095SOL    HW138918   2.593   2.074  17.750 -0.5971 -0.5460  1.2694
 9095SOL    HW238919   2.706   2.161   0.037  0.3787  0.6441  1.2456
 9096SOL     OW38920   2.124   0.155   0.693 -0.5072 -0.2982  0.6536
 9096SOL    HW138921   2.157   0.199   0.771  0.3352 -1.6239  1.0478
 9096SOL    HW238922   2.194   0.093   0.672 -1.5070 -1.4031  0.5316
 9097SOL     OW38923   1.135   2.654   9.307  0.0950 -0.2283 -0.5234
 9097SOL    HW138924   1.076   2.622   9.240  0.4753  0.5840 -1.2454
 9097SOL    HW238925   1.089   2.733   9.336 -0.3692 -0.2133 -1.3160
 9098SOL     OW38926   3.756   0.247   6.238  0.3800  0.4341 -0.4076
 9098SOL    HW138927   3.687   0.215   6.181 -0.8213  3.1838 -0.4645
 9098SOL    HW238928   3.701   0.293   6.301 -1.7726 -0.7648 -1.4124
 9099SOL     OW38929   3.061   0.979   4.752  0.3869  0.0326 -0.7076
 9099SOL    HW138930   3.071   0.994   4.846  0.9339  0.8374 -0.8909
 9099SOL    HW238931   3.153   0.980   4.725  0.3963  2.1303 -0.6309
 9100SOL     OW38932   0.746   0.929   3.498  0.1520 -0.5724 -0.2354
 9100SOL    HW138933   0.721   0.914   3.407 -0.7429 -1.5484  0.1753
 9100SOL    HW238934   0.826   0.981   3.491  0.8168 -1.6263 -0.4242
 9101SOL     OW38935   3.241   3.595   4.768  0.5377  0.4786  0.0109
 9101SOL    HW138936   3.320   3.605   4.715 -0.0867 -1.8092 -1.3529
 9101SOL    HW238937   3.167   3.645   4.733 -0.7222 -1.3947  0.0047
 9102SOL     OW38938   2.820   2.394   0.935 -0.0853 -0.1515 -0.0699
 9102SOL    HW138939   2.903   2.361   0.901 -0.2973 -2.5498  1.7780
 9102SOL    HW238940   2.805   2.346   1.016 -1.1137 -0.6905 -0.5770
 9103SOL     OW38941   4.286   1.892   4.574 -0.3551 -0.2526 -0.3814
 9103SOL    HW138942   4.192   1.908   4.564 -0.3522  0.2043  0.3834
 9103SOL    HW238943   4.287   1.904   4.669  0.7094 -0.1912 -0.4057
 9104SOL     OW38944   2.184   3.741   4.099  0.0925  1.1973 -0.1937
 9104SOL    HW138945   2.216   3.662   4.055 -1.6368  0.9390 -0.9703
 9104SOL    HW238946   2.187   3.810   4.032  1.6329 -0.3040 -1.6790
 9105SOL     OW38947   1.149   1.507   7.946 -0.2041 -0.0756  0.3537
 9105SOL    HW138948   1.192   1.505   8.032  0.4935 -1.0161 -0.0104
 9105SOL    HW238949   1.060   1.478   7.970 -0.4187  1.2544  1.1283
 9106SOL     OW38950   3.627   4.689   2.309 -0.0950 -0.1509 -0.0231
 9106SOL    HW138951   3.599   0.040   2.289  0.5796  0.0144 -0.2043
 9106SOL    HW238952   3.650   4.658   2.221  1.2757 -0.3480  0.4190
 9107SOL     OW38953   2.431   1.281  17.633 -0.1953  0.1239 -0.1952
 9107SOL    HW138954   2.418   1.324  17.548 -0.8879 -1.6069 -0.9595
 9107SOL    HW238955   2.522   1.251  17.631 -0.4730 -0.6783 -1.1503
 9108SOL     OW38956   4.207   3.719   9.298  0.0538  0.6859 -0.5018
 9108SOL    HW138957   4.185   3.649   9.237 -1.7748  1.1648 -0.3730
 9108SOL    HW238958   4.159   3.693   9.376 -0.1624  1.1136 -0.4959
 9109SOL     OW38959   3.805   4.665  12.502  0.1718 -0.3800 -0.0996
 9109SOL    HW138960   3.747   4.739  12.485  1.3638  0.6734  0.3975
 9109SOL    HW238961   3.744   4.596  12.528  0.3637  0.1451  1.7145
 9110SOL     OW38962   0.229   1.203  15.381 -0.5666  0.2155  0.0942
 9110SOL    HW138963   0.158   1.159  15.334  1.0865 -0.8217 -1.4271
 9110SOL    HW238964   0.231   1.140  15.454  0.8750 -0.2927 -0.3700
 9111SOL     OW38965   4.051   2.122   1.641  0.1398  0.0415  0.3743
 9111SOL    HW138966   4.117   2.111   1.573 -0.7649 -0.5237 -0.4042
 9111SOL    HW238967   4.098   2.069   1.705  1.0199  0.3521  0.0020
 9112SOL     OW38968   3.046   2.779   3.507  0.2509 -0.2886 -0.0988
 9112SOL    HW138969   3.040   2.845   3.576  0.4187  0.7246 -1.0478
 9112SOL    HW238970   3.039   2.701   3.562  1.6897  0.7452  1.5314
 9113SOL     OW38971   0.944   2.860   7.137 -0.3977  0.0314 -0.0885
 9113SOL    HW138972   0.966   2.820   7.221  1.5947 -0.4997 -0.8571
 9113SOL    HW238973   0.852   2.841   7.119 -0.1191 -1.7596  0.4300
 9114SOL     OW38974   3.583   4.727   7.678  0.2204  0.5531  0.0046
 9114SOL    HW138975   3.491   4.719   7.705 -0.7907 -0.8271 -3.8927
 9114SOL    HW238976   3.630   0.024   7.753 -0.2119  2.9294 -0.8787
 9115SOL     OW38977   1.318   0.229   8.418 -0.1946 -1.2586 -0.1969
 9115SOL    HW138978   1.366   0.193   8.343  0.1631  1.0922 -1.0752
 9115SOL    HW238979   1.289   0.311   8.378  0.5139 -1.0643 -0.2988
 9116SOL     OW38980   2.045   0.085   9.189 -0.3020 -0.6023 -0.3311
 9116SOL    HW138981   2.061   0.175   9.160 -1.3245 -1.1400 -2.6153
 9116SOL    HW238982   2.127   0.076   9.237 -0.3185 -0.9153 -0.3616
 9117SOL     OW38983   2.706   4.375   5.281  0.5009  0.0459 -0.1664
 9117SOL    HW138984   2.797   4.393   5.256  0.9155 -0.8726  0.6794
 9117SOL    HW238985   2.667   4.462   5.287 -0.4904 -0.2504 -2.2965
 9118SOL     OW38986   0.908   3.822  12.987  0.4544  0.6258 -0.2645
 9118SOL    HW138987   0.930   3.829  12.894 -1.0194  0.4034 -0.6292
 9118SOL    HW238988   0.815   3.802  12.989  0.4697  0.5895  0.2097
 9119SOL     OW38989   3.349   1.982  11.543 -0.4994 -0.3832  0.2517
 9119SOL    HW138990   3.434   2.015  11.572 -0.4432  0.8406 -1.3620
 9119SOL    HW238991   3.359   1.892  11.573  0.2332  0.0283  1.2407
 9120SOL     OW38992   0.961   1.530   2.168 -0.5513 -0.3084 -0.6281
 9120SOL    HW138993   0.902   1.519   2.094 -0.1359 -0.8492 -0.8744
 9120SOL    HW238994   1.049   1.547   2.135  0.5755 -1.7761  1.5732
 9121SOL     OW38995   2.399   2.716   8.772  0.4918  0.2575  0.0755
 9121SOL    HW138996   2.448   2.759   8.702  0.1732  0.8854  0.2438
 9121SOL    HW238997   2.470   2.667   8.812  1.8518  0.4532 -2.0765
 9122SOL     OW38998   0.306   4.358   4.125 -0.3294 -0.4354 -0.1818
 9122SOL    HW138999   0.220   4.358   4.083 -1.0538 -2.4154  1.3022
 9122SOL    HW239000   0.371   4.348   4.056 -1.1464 -3.6062 -0.5293
 9123SOL     OW39001   0.545   0.841   5.062 -0.5648  0.0436  0.0047
 9123SOL    HW139002   0.536   0.762   5.007  0.5344  0.1158 -0.2934
 9123SOL    HW239003   0.562   0.905   4.993  0.7514  0.3343  0.6065
 9124SOL     OW39004   2.225   1.936  12.956  0.3026  0.2219 -0.2254
 9124SOL    HW139005   2.316   1.936  12.926 -0.0857  0.7586 -1.3868
 9124SOL    HW239006   2.172   1.943  12.877 -0.7013 -1.8740  0.2667
 9125SOL     OW39007   4.095   2.229  16.844  0.1643 -0.1239 -0.2024
 9125SOL    HW139008   4.030   2.298  16.833  0.6123  0.6830  2.1414
 9125SOL    HW239009   4.141   2.231  16.760  0.1738 -0.5400 -0.2055
 9126SOL     OW39010   1.506   2.970  12.370  0.7136 -0.0270  0.2965
 9126SOL    HW139011   1.528   2.939  12.458 -2.7602 -2.4597  0.3143
 9126SOL    HW239012   1.564   2.911  12.321  0.8374 -0.6063  1.1303
 9127SOL     OW39013   2.553   4.684   2.127  0.8703  0.5770 -0.1676
 9127SOL    HW139014   2.526   4.673   2.218  1.8274  1.1019  0.1794
 9127SOL    HW239015   2.598   4.600   2.123 -0.4680 -0.1720  0.6442
 9128SOL     OW39016   1.906   2.889   8.165 -0.4356  0.2979  0.0427
 9128SOL    HW139017   1.835   2.899   8.229  0.3680 -0.1783  1.0054
 9128SOL    HW239018   1.931   2.801   8.191  0.7936  0.8461  0.7537
 9129SOL     OW39019   3.729   2.850   0.759 -0.5448 -0.4358 -0.1482
 9129SOL    HW139020   3.783   2.883   0.688 -2.5477  0.0613 -1.4604
 9129SOL    HW239021   3.780   2.882   0.834 -1.9015 -0.0387  0.6079
 9130SOL     OW39022   3.009   4.558   0.626  0.2225  0.4821  0.0767
 9130SOL    HW139023   2.923   4.548   0.667  0.0370 -1.4995 -0.8022
 9130SOL    HW239024   3.012   4.653   0.620 -0.9516  0.4974 -0.3430
 9131SOL     OW39025   1.913   2.266   3.683 -0.4556 -0.3140 -0.1664
 9131SOL    HW139026   1.947   2.349   3.649  0.5161 -0.4158  0.5727
 9131SOL    HW239027   1.827   2.277   3.641  0.1954  1.2676 -1.0812
 9132SOL     OW39028   0.368   0.101  14.177  0.2994  0.1731 -0.3446
 9132SOL    HW139029   0.300   0.121  14.113  1.3543  0.4071 -1.3947
 9132SOL    HW239030   0.381   0.186  14.220 -0.1196  0.0610  0.0091
 9133SOL     OW39031   1.370   3.800   4.821  0.3695 -0.3272  0.2926
 9133SOL    HW139032   1.378   3.764   4.732  0.4549 -1.3438  0.7144
 9133SOL    HW239033   1.439   3.866   4.818 -1.9530  2.0611 -0.8435
 9134SOL     OW39034   1.120   2.719   8.757 -0.2755  0.2363 -0.3614
 9134SOL    HW139035   1.146   2.792   8.813 -0.4693 -0.7763  1.0345
 9134SOL    HW239036   1.205   2.705   8.714  0.1673  1.5868  0.0613
 9135SOL     OW39037   0.237   2.466   1.445 -0.7864 -0.3891 -0.0216
 9135SOL    HW139038   0.215   2.373   1.459 -1.3001  0.1610  2.8865
 9135SOL    HW239039   0.303   2.467   1.375 -2.1910  0.0860 -1.3446
 9136SOL     OW39040   2.724   3.955   2.116  0.0307  0.2578 -0.2085
 9136SOL    HW139041   2.654   4.015   2.090 -0.7465 -0.5341  0.0507
 9136SOL    HW239042   2.800   4.009   2.098 -0.5614  1.4517  0.8473
 9137SOL     OW39043   2.510   4.157   7.812  0.4392 -0.3228  0.2635
 9137SOL    HW139044   2.580   4.125   7.755  2.2341  0.5703  1.9767
 9137SOL    HW239045   2.555   4.165   7.896  0.4788  0.0398  0.2047
 9138SOL     OW39046   1.483   1.390  11.948  0.3138  0.2406 -0.4799
 9138SOL    HW139047   1.571   1.405  11.914 -0.0088  0.6861 -1.1023
 9138SOL    HW239048   1.433   1.398  11.867  0.9368  1.3158 -0.7551
 9139SOL     OW39049   0.774   3.614   3.134 -0.5792 -0.1416  0.3292
 9139SOL    HW139050   0.823   3.675   3.190 -0.5954  0.8133 -0.6835
 9139SOL    HW239051   0.832   3.538   3.130  0.6608  0.9430 -2.2345
 9140SOL     OW39052   3.317   1.085   4.668 -0.4189 -0.4376 -0.3111
 9140SOL    HW139053   3.327   1.160   4.609  1.4038 -1.7493 -1.6454
 9140SOL    HW239054   3.356   1.017   4.614 -2.3518 -3.8024  2.5157
 9141SOL     OW39055   2.875   0.073  15.400 -0.4100 -0.2342  0.2220
 9141SOL    HW139056   2.917   0.149  15.360 -0.4497 -0.6246 -0.5513
 9141SOL    HW239057   2.864   0.100  15.491  0.4877 -0.0823  0.2913
 9142SOL     OW39058   2.182   3.543  13.395  0.1088 -0.3595  0.3581
 9142SOL    HW139059   2.133   3.580  13.468 -2.0109 -0.6709 -0.9202
 9142SOL    HW239060   2.227   3.472  13.442 -1.4451 -1.0855  0.7555
 9143SOL     OW39061   0.922   0.891   5.097 -0.4032 -0.3339 -0.1573
 9143SOL    HW139062   0.997   0.916   5.152 -1.8512 -3.0280  3.0234
 9143SOL    HW239063   0.970   0.855   5.023 -0.7068 -0.4449 -0.2983
 9144SOL     OW39064   0.423   1.207   8.273 -0.1834 -0.2769 -0.0880
 9144SOL    HW139065   0.396   1.176   8.360  1.1964 -2.0670 -0.2790
 9144SOL    HW239066   0.487   1.140   8.248 -0.2534 -0.8338  1.1999
 9145SOL     OW39067   3.717   2.111   9.299  0.1350  0.0569  0.1782
 9145SOL    HW139068   3.735   2.025   9.263  1.7694 -0.0076  1.1450
 9145SOL    HW239069   3.701   2.158   9.217 -0.8209  0.2385  0.4645
 9146SOL     OW39070   4.349   3.445  12.576  0.1202 -0.3929  0.1303
 9146SOL    HW139071   4.370   3.353  12.560 -0.1336 -0.1811 -1.4373
 9146SOL    HW239072   4.260   3.420  12.601  0.8431 -1.5834  1.4943
 9147SOL     OW39073   2.838   1.545   2.905 -0.7502 -0.3033  0.1208
 9147SOL    HW139074   2.853   1.568   2.813 -0.8122  0.7074  0.3669
 9147SOL    HW239075   2.928   1.548   2.938 -0.2626  2.5544 -1.4611
 9148SOL     OW39076   3.242   0.627   5.335  1.2347  0.3878  0.0615
 9148SOL    HW139077   3.294   0.548   5.317  1.1809  0.1506  0.8950
 9148SOL    HW239078   3.199   0.591   5.413 -0.3138 -1.4719 -1.6497
 9149SOL     OW39079   0.170   1.551   6.617 -0.0338  0.4197 -0.5366
 9149SOL    HW139080   0.218   1.478   6.579  0.7447  0.5107  0.2830
 9149SOL    HW239081   0.186   1.525   6.708 -1.1878  0.0783 -0.4196
 9150SOL     OW39082   4.668   2.277   3.348 -0.6940 -0.7527  0.6158
 9150SOL    HW139083   4.615   2.259   3.270  1.0817  1.5050 -1.1396
 9150SOL    HW239084   4.738   2.214   3.331 -0.2200 -0.3050  0.9080
 9151SOL     OW39085   2.806   0.131   2.343 -0.5782 -0.4433  0.1241
 9151SOL    HW139086   2.836   0.200   2.402  1.2857 -0.5151 -0.7528
 9151SOL    HW239087   2.719   0.165   2.323  0.2105  1.6278  0.2385
 9152SOL     OW39088   1.773   2.554   8.484 -0.5469  0.1531 -0.1338
 9152SOL    HW139089   1.860   2.517   8.500 -0.6345 -0.1389 -0.3265
 9152SOL    HW239090   1.772   2.604   8.565  2.7341  0.0463 -0.0155
 9153SOL     OW39091   0.270   4.344   6.801  0.1166 -0.4595 -0.3771
 9153SOL    HW139092   0.307   4.257   6.815  1.3439  0.2948  1.0793
 9153SOL    HW239093   0.233   4.340   6.713 -0.6431 -0.3164 -0.0612
 9154SOL     OW39094   2.361   1.053   5.681 -0.3520 -0.3731 -0.7059
 9154SOL    HW139095   2.328   0.964   5.692  1.7802 -1.0371  0.2166
 9154SOL    HW239096   2.281   1.106   5.692  0.5453  0.7933  0.2361
 9155SOL     OW39097   2.949   0.663  16.097 -0.4065  0.5413  0.3180
 9155SOL    HW139098   2.910   0.640  16.182  0.5369  0.1843  0.6590
 9155SOL    HW239099   3.029   0.710  16.120 -0.4857 -0.2265  2.1967
 9156SOL     OW39100   1.584   2.822  11.921  0.4923  0.1827 -0.1416
 9156SOL    HW139101   1.632   2.851  11.999 -2.1083 -2.1866  2.2891
 9156SOL    HW239102   1.636   2.867  11.853  1.9004 -1.6090 -0.2705
 9157SOL     OW39103   3.867   1.724   0.358  0.2181 -0.2087 -0.3380
 9157SOL    HW139104   3.836   1.803   0.314  2.9832  0.2983 -1.3633
 9157SOL    HW239105   3.800   1.719   0.426  0.1217 -0.7184 -0.4727
 9158SOL     OW39106   0.226   4.526  11.210  0.6003 -0.3249  0.4238
 9158SOL    HW139107   0.289   4.526  11.283  0.1277  0.9267  0.8290
 9158SOL    HW239108   0.154   4.472  11.244  0.9055 -1.3112 -0.4815
 9159SOL     OW39109   3.029   2.411   5.377 -0.2726 -0.2352 -0.0545
 9159SOL    HW139110   3.008   2.400   5.284 -1.3347  0.4674  0.1117
 9159SOL    HW239111   3.047   2.504   5.372  2.6181 -0.7655  0.5320
 9160SOL     OW39112   3.029   3.029   7.936 -0.8769 -0.2786 -0.2612
 9160SOL    HW139113   3.054   3.081   7.860 -0.6401 -0.5698 -0.3830
 9160SOL    HW239114   3.007   2.945   7.895  0.5427  0.3034 -2.2155
 9161SOL     OW39115   4.621   1.612  16.818 -0.1356  0.2608  0.0523
 9161SOL    HW139116   4.600   1.578  16.732  1.7476  0.2646 -0.4069
 9161SOL    HW239117   4.671   1.685  16.781  2.3784 -0.0511  2.8278
 9162SOL     OW39118   4.543   1.223  14.999 -0.1505 -0.5882  0.0121
 9162SOL    HW139119   4.588   1.145  14.966  2.8207  1.1963 -0.0890
 9162SOL    HW239120   4.451   1.195  15.000 -0.2556 -0.2851 -2.7887
 9163SOL     OW39121   1.349   2.285   3.835  1.0234  0.2607 -0.4263
 9163SOL    HW139122   1.406   2.360   3.819  1.5384  0.2953  1.5256
 9163SOL    HW239123   1.267   2.334   3.846  0.5897 -0.4407 -0.5249
 9164SOL     OW39124   3.888   0.276   3.008  0.4716  0.6387  0.5373
 9164SOL    HW139125   3.976   0.313   3.000  0.1980  0.3865 -3.5355
 9164SOL    HW239126   3.836   0.327   2.946 -1.1163 -1.7754 -0.1441
 9165SOL     OW39127   0.892   3.185   4.148  0.7427 -0.3134  0.0096
 9165SOL    HW139128   0.869   3.094   4.166 -0.2730 -0.1871 -0.6441
 9165SOL    HW239129   0.979   3.175   4.110  0.1789 -3.8058 -0.3321
 9166SOL     OW39130   3.455   2.470  14.104  0.4834  0.0776  0.1832
 9166SOL    HW139131   3.367   2.439  14.087  0.5804  0.2420 -0.6460
 9166SOL    HW239132   3.467   2.451  14.197  0.0220 -3.6910 -0.5447
 9167SOL     OW39133   2.156   1.562   1.251 -0.2280 -0.2934 -0.5205
 9167SOL    HW139134   2.079   1.608   1.218  0.1260 -0.0117 -0.9380
 9167SOL    HW239135   2.213   1.559   1.174  1.7101  2.0966  0.8153
 9168SOL     OW39136   0.093   3.789  17.014 -0.5461  0.1595  0.3654
 9168SOL    HW139137   0.051   3.860  16.965 -1.8988  0.7408  2.3795
 9168SOL    HW239138   0.051   3.809  17.098 -1.6273 -3.5442  0.7200
 9169SOL     OW39139   0.843   2.691  11.997 -0.0175  0.2563  0.7696
 9169SOL    HW139140   0.847   2.627  11.926  0.2231 -1.1683  2.0734
 9169SOL    HW239141   0.933   2.704  12.026 -0.2895  1.5011  1.0627
 9170SOL     OW39142   2.884   1.647   7.826  0.4177 -0.5597  0.1519
 9170SOL    HW139143   2.790   1.657   7.811  0.3116 -1.0187  0.5104
 9170SOL    HW239144   2.864   1.564   7.868 -0.5044 -0.7092 -0.5840
 9171SOL     OW39145   4.514   2.245   3.944 -0.2114  0.3157  0.5264
 9171SOL    HW139146   4.550   2.219   4.029 -0.3415 -0.0303  0.4730
 9171SOL    HW239147   4.425   2.212   3.953 -0.4823  0.6948 -0.8154
 9172SOL     OW39148   4.290   0.002   9.724  0.3500 -0.0463 -0.2246
 9172SOL    HW139149   4.237   0.001   9.805  0.8638 -1.5748  0.0817
 9172SOL    HW239150   4.364   0.054   9.754  0.4397 -0.9329  1.1234
 9173SOL     OW39151   3.040   4.560  14.332 -0.2288 -0.1349  0.1739
 9173SOL    HW139152   3.130   4.542  14.304 -0.2612 -2.2970  1.4353
 9173SOL    HW239153   2.989   4.547  14.252  2.5337  1.5254 -1.8736
 9174SOL     OW39154   3.110   2.091   1.080 -0.2306 -0.0170  0.2601
 9174SOL    HW139155   3.195   2.047   1.084  1.1735  2.7825  1.3549
 9174SOL    HW239156   3.054   2.037   1.135 -0.2523  1.3939  1.6176
 9175SOL     OW39157   2.487   4.183   1.033  0.2432 -0.0580  0.0913
 9175SOL    HW139158   2.502   4.136   0.951  0.9825 -1.9369  1.3023
 9175SOL    HW239159   2.467   4.110   1.092  1.5298 -1.2572 -0.9918
 9176SOL     OW39160   0.662   1.967   8.740  0.1226 -0.4783 -0.8317
 9176SOL    HW139161   0.617   1.928   8.665  0.6120  1.2028 -1.9851
 9176SOL    HW239162   0.676   2.054   8.703  2.7639 -0.9826 -0.9756
 9177SOL     OW39163   1.719   2.680   2.060 -0.6884 -0.5045  0.2993
 9177SOL    HW139164   1.814   2.680   2.049 -0.6350  0.2553  0.7863
 9177SOL    HW239165   1.690   2.614   1.997 -1.4856 -0.4371  0.5846
 9178SOL     OW39166   3.388   1.169   6.764  0.2213  0.0156 -0.6253
 9178SOL    HW139167   3.405   1.230   6.836  0.9621 -1.8813  0.8018
 9178SOL    HW239168   3.412   1.233   6.697  0.8865  0.3735 -0.0516
 9179SOL     OW39169   1.696   3.869   7.697  0.4490  0.2144  0.5781
 9179SOL    HW139170   1.607   3.841   7.721  0.1284 -1.8482 -3.0365
 9179SOL    HW239171   1.701   3.940   7.762  0.7095  0.5075  0.2377
 9180SOL     OW39172   3.977   2.722   7.578 -0.3917 -0.1649  0.5390
 9180SOL    HW139173   4.004   2.630   7.578  0.7409  0.1723 -0.3354
 9180SOL    HW239174   3.883   2.713   7.591 -0.6168  0.3229 -0.7791
 9181SOL     OW39175   1.938   3.044   3.917  0.4839  0.2592 -0.1443
 9181SOL    HW139176   1.979   3.124   3.883  0.2392 -1.0267 -3.5055
 9181SOL    HW239177   1.992   3.031   3.995 -0.3741 -1.0165  0.2323
 9182SOL     OW39178   3.031   0.611  15.233 -0.1502 -0.0439  0.3083
 9182SOL    HW139179   3.095   0.650  15.173  1.3789 -0.3978  1.7126
 9182SOL    HW239180   3.057   0.635  15.322  1.5406 -2.1745  0.3919
 9183SOL     OW39181   2.195   1.685   2.807 -0.2070 -0.3644  0.0795
 9183SOL    HW139182   2.252   1.608   2.804  0.5198  0.1639  0.4665
 9183SOL    HW239183   2.115   1.648   2.768 -0.2149  1.4982 -1.7362
 9184SOL     OW39184   1.418   0.789  12.459 -0.1695 -0.4218  0.0875
 9184SOL    HW139185   1.492   0.732  12.437  0.3905 -0.2707  1.6335
 9184SOL    HW239186   1.398   0.823  12.371  0.6004 -0.7581 -0.2196
 9185SOL     OW39187   1.631   4.717   5.459  0.1105 -0.0596 -0.4865
 9185SOL    HW139188   1.638   0.070   5.436 -1.4819  0.6393  1.8240
 9185SOL    HW239189   1.724   4.719   5.480 -0.2158  3.1672  0.5845
 9186SOL     OW39190   0.432   2.631   4.020  0.7386  0.7211 -0.2927
 9186SOL    HW139191   0.471   2.613   4.106 -0.0923  0.3475  0.0089
 9186SOL    HW239192   0.387   2.549   4.001  1.5375  0.5367 -1.3896
 9187SOL     OW39193   3.280   1.234   9.855  0.4571 -0.1099  0.4556
 9187SOL    HW139194   3.356   1.175   9.855  1.7668  1.5903 -0.0100
 9187SOL    HW239195   3.215   1.181   9.900  0.6714 -0.4090  0.4156
 9188SOL     OW39196   0.250   0.024   7.500 -0.0339  0.3075  0.4496
 9188SOL    HW139197   0.197   4.703   7.448  1.6282  1.2950 -2.3804
 9188SOL    HW239198   0.183   0.076   7.544 -0.0910  0.7999 -0.2134
 9189SOL     OW39199   3.080   1.807   5.576  0.0576 -0.4969 -0.0015
 9189SOL    HW139200   3.092   1.822   5.670  0.4145 -1.1187  0.0472
 9189SOL    HW239201   3.131   1.880   5.541  0.3844  0.0149  1.5310
 9190SOL     OW39202   1.846   3.453   8.761 -0.1580  0.3778  0.1427
 9190SOL    HW139203   1.765   3.431   8.807 -0.8571  1.1359 -0.7166
 9190SOL    HW239204   1.832   3.410   8.676  2.2754  1.0274 -0.5746
 9191SOL     OW39205   2.018   1.125  12.586 -0.0889  0.0944  0.6782
 9191SOL    HW139206   1.963   1.203  12.598 -0.4269 -0.0057 -0.2388
 9191SOL    HW239207   1.973   1.080  12.515  0.7141 -0.9133  0.8197
 9192SOL     OW39208   1.882   4.267   2.790 -0.1830 -0.1409  0.0799
 9192SOL    HW139209   1.945   4.302   2.853  1.2287 -0.9368 -0.8559
 9192SOL    HW239210   1.882   4.337   2.725 -0.0640 -1.4665 -1.3555
 9193SOL     OW39211   1.029   4.437   5.453 -0.1310 -0.2641 -0.2120
 9193SOL    HW139212   1.023   4.357   5.505 -2.5110  0.0184 -0.0666
 9193SOL    HW239213   0.963   4.432   5.384 -1.4641  1.6811  0.9299
 9194SOL     OW39214   3.934   4.678  15.486  0.1352 -0.1314 -0.0873
 9194SOL    HW139215   3.995   4.607  15.505  0.6767  1.0853  2.7774
 9194SOL    HW239216   3.856   4.651  15.534 -0.6709  0.7891 -0.9013
 9195SOL     OW39217   3.883   0.118   2.255  0.4236 -0.1421  0.0857
 9195SOL    HW139218   3.924   0.108   2.169 -0.2618  0.4149 -0.3025
 9195SOL    HW239219   3.791   0.133   2.235  0.5381  1.4925  0.8291
 9196SOL     OW39220   1.398   0.042   7.244 -0.2994  0.2866 -0.6510
 9196SOL    HW139221   1.386   4.687   7.250 -1.9188  0.7282  2.9060
 9196SOL    HW239222   1.489   0.061   7.223 -0.3311  1.9545  0.7707
 9197SOL     OW39223   1.124   3.257   5.957 -0.2856 -0.6230 -0.0720
 9197SOL    HW139224   1.063   3.295   5.894 -0.8080 -0.9411  0.2394
 9197SOL    HW239225   1.060   3.221   6.019 -1.5727  1.7302 -0.0400
 9198SOL     OW39226   0.882   2.612   9.862  0.1933  0.0534 -0.4065
 9198SOL    HW139227   0.787   2.623   9.858  0.0909 -0.8234 -0.4516
 9198SOL    HW239228   0.897   2.706   9.866  1.2611 -0.1668  0.5791
 9199SOL     OW39229   0.447   4.238   2.886  0.1007  0.2157  0.1798
 9199SOL    HW139230   0.467   4.184   2.810 -3.1436  0.0353 -0.5572
 9199SOL    HW239231   0.524   4.291   2.906  0.0112  0.4900 -0.1993
 9200SOL     OW39232   1.704   2.015   2.215 -0.2709 -0.2514  0.0871
 9200SOL    HW139233   1.646   1.939   2.222 -0.8639  0.1131 -0.9065
 9200SOL    HW239234   1.682   2.052   2.300 -0.4295  0.9898 -0.4944
 9201SOL     OW39235   2.791   3.507   4.194  0.4686 -0.3229 -0.2439
 9201SOL    HW139236   2.803   3.583   4.251 -0.4677  0.2702 -0.8249
 9201SOL    HW239237   2.698   3.524   4.177  0.1206 -2.3156 -0.2559
 9202SOL     OW39238   3.597   3.018  14.005 -0.9554 -0.5408  0.4831
 9202SOL    HW139239   3.557   3.087  14.058 -0.3454 -0.2384  0.5559
 9202SOL    HW239240   3.563   2.934  14.036 -4.7955  0.4754 -0.9662
 9203SOL     OW39241   2.110   0.955   6.043 -0.6673 -0.1615 -0.2052
 9203SOL    HW139242   2.036   0.999   6.083  0.0594  1.2024 -0.3794
 9203SOL    HW239243   2.125   0.870   6.086 -3.1539  0.0889  1.1082
 9204SOL     OW39244   3.491   1.011   3.575  0.5269 -0.1054  0.3089
 9204SOL    HW139245   3.452   1.024   3.489  0.4121  3.8033  0.9681
 9204SOL    HW239246   3.426   1.035   3.641  0.1998 -1.2944  0.4201
 9205SOL     OW39247   2.437   0.216   5.291  0.2325 -0.0956  0.4845
 9205SOL    HW139248   2.509   0.278   5.283  0.1042 -0.1032 -0.6743
 9205SOL    HW239249   2.368   0.279   5.268  0.3486 -0.3127 -0.4439
 9206SOL     OW39250   2.921   3.310   3.699  0.3182  0.1708  0.2475
 9206SOL    HW139251   2.844   3.367   3.702  0.3159  0.1841 -0.1155
 9206SOL    HW239252   2.981   3.362   3.646  1.9613 -3.5843 -1.5441
 9207SOL     OW39253   1.592   2.566  17.700 -0.7500 -0.5009  0.6408
 9207SOL    HW139254   1.533   2.632  17.734  0.7252  1.3870 -0.4833
 9207SOL    HW239255   1.554   2.489  17.743  0.0602 -1.8008 -0.9268
 9208SOL     OW39256   2.629   0.670   8.172  0.3508  0.4079  0.4623
 9208SOL    HW139257   2.643   0.624   8.089 -0.1852 -0.3133  0.7793
 9208SOL    HW239258   2.640   0.599   8.235 -2.7713  0.1593  0.6877
 9209SOL     OW39259   0.689   1.779   5.305 -0.0520 -0.0492 -0.6196
 9209SOL    HW139260   0.654   1.716   5.243 -1.9698  1.5269 -1.1113
 9209SOL    HW239261   0.739   1.718   5.359  1.6673  2.2781  0.4264
 9210SOL     OW39262   2.030   0.571   8.527  0.3233 -0.1160  0.3579
 9210SOL    HW139263   2.013   0.601   8.617  0.3503  0.9075  0.0184
 9210SOL    HW239264   2.048   0.479   8.547  1.5623  0.1013  0.2380
 9211SOL     OW39265   0.841   4.029   2.094 -0.1429 -0.0146 -0.2632
 9211SOL    HW139266   0.824   3.935   2.085 -0.6906  0.0351  0.2557
 9211SOL    HW239267   0.902   4.034   2.020  0.2433  0.1089  0.0704
 9212SOL     OW39268   4.477   0.994   9.298  0.2494  0.3076  0.2812
 9212SOL    HW139269   4.387   0.961   9.301  0.0383  0.8826  0.3997
 9212SOL    HW239270   4.522   0.912   9.279  0.2731  0.9050 -2.2915
 9213SOL     OW39271   4.454   0.574   5.814  0.2716  0.2837 -0.8046
 9213SOL    HW139272   4.403   0.564   5.894 -1.1128  1.3326 -1.5681
 9213SOL    HW239273   4.497   0.658   5.830  1.0967 -0.4951  0.9964
 9214SOL     OW39274   0.722   1.342   7.300  0.1685 -0.4612  0.9420
 9214SOL    HW139275   0.716   1.419   7.243  4.4051 -0.5135  0.4115
 9214SOL    HW239276   0.816   1.327   7.306  0.3250 -0.9678 -2.3047
 9215SOL     OW39277   2.499   4.710   2.415 -0.8550 -0.4639 -0.1244
 9215SOL    HW139278   2.455   4.626   2.427  1.3646 -1.6338 -0.1008
 9215SOL    HW239279   2.553   4.716   2.494  0.5637  0.8971 -1.1909
 9216SOL     OW39280   2.226   3.419   3.012  0.0213 -0.5921  0.5891
 9216SOL    HW139281   2.194   3.349   3.068  0.0267 -0.4016  0.8269
 9216SOL    HW239282   2.164   3.423   2.938  2.3750  0.9150 -1.3122
 9217SOL     OW39283   3.139   0.562   5.957 -0.5987 -0.1026 -0.2220
 9217SOL    HW139284   3.077   0.596   5.892  0.7181 -1.6042 -2.2404
 9217SOL    HW239285   3.091   0.487   5.991 -3.1526  1.5736 -0.1132
 9218SOL     OW39286   1.657   0.479   4.523 -0.0494 -0.2148 -0.0538
 9218SOL    HW139287   1.607   0.452   4.600  0.2847 -3.8893 -1.1352
 9218SOL    HW239288   1.719   0.531   4.574 -0.6361  1.0492 -0.6247
 9219SOL     OW39289   3.746   2.828   8.935 -0.5593  0.8934  0.3590
 9219SOL    HW139290   3.783   2.779   9.009 -3.1343 -0.8024  0.5490
 9219SOL    HW239291   3.658   2.790   8.935 -0.2985  0.3089 -2.4102
 9220SOL     OW39292   3.099   4.263   6.071  0.0774  0.0528  0.0255
 9220SOL    HW139293   3.153   4.185   6.063 -1.1806 -0.8678  0.4075
 9220SOL    HW239294   3.157   4.324   6.117 -1.0057  0.3341  1.0265
 9221SOL     OW39295   3.782   2.122  14.769  0.2315  0.2399  0.4423
 9221SOL    HW139296   3.768   2.175  14.690 -0.9854 -0.4841  0.1814
 9221SOL    HW239297   3.695   2.101  14.802 -0.9457  1.3467 -1.9674
 9222SOL     OW39298   1.915   0.519   3.814 -0.0669  0.2066 -0.0660
 9222SOL    HW139299   1.881   0.449   3.758 -2.4413  0.3989  1.1764
 9222SOL    HW239300   1.958   0.580   3.754  0.1616  0.5858  0.4864
 9223SOL     OW39301   0.055   0.468   7.737  0.5140  0.2519 -0.0955
 9223SOL    HW139302   0.146   0.483   7.709 -0.2474 -1.8349 -3.6767
 9223SOL    HW239303   0.067   0.388   7.789 -1.2339 -2.1957 -3.5455
 9224SOL     OW39304   0.819   4.194   6.814 -0.2449 -0.0886 -0.3214
 9224SOL    HW139305   0.881   4.265   6.825 -0.2484 -0.1996  0.4194
 9224SOL    HW239306   0.840   4.147   6.895  2.6321 -0.3456 -1.2370
 9225SOL     OW39307   2.966   3.050   3.746 -0.3532 -0.1897 -0.2360
 9225SOL    HW139308   2.941   3.137   3.716 -0.3069  0.0907  0.5332
 9225SOL    HW239309   3.061   3.052   3.755 -0.3005  2.1086 -1.3579
 9226SOL     OW39310   2.911   2.690  11.678  0.3712  0.4351  0.1999
 9226SOL    HW139311   2.817   2.694  11.697 -0.3081  2.3721 -3.3656
 9226SOL    HW239312   2.940   2.628  11.744 -2.0967 -1.7022 -0.7564
 9227SOL     OW39313   2.263   1.442  13.334 -0.2052 -0.1860 -0.3758
 9227SOL    HW139314   2.311   1.491  13.401 -1.1638 -1.6261  1.3932
 9227SOL    HW239315   2.320   1.465  13.261 -0.7723  2.8771  0.1642
 9228SOL     OW39316   2.459   1.482   1.865  0.1089  0.4810  0.4641
 9228SOL    HW139317   2.429   1.572   1.851 -0.5186 -0.0873 -1.8571
 9228SOL    HW239318   2.423   1.469   1.953 -1.5210 -1.4490 -0.4854
 9229SOL     OW39319   3.364   3.251   2.611  0.3464  0.3729 -0.5939
 9229SOL    HW139320   3.337   3.240   2.520  2.1918 -1.6783 -0.8810
 9229SOL    HW239321   3.324   3.175   2.652  0.3132  1.4175  1.2901
 9230SOL     OW39322   2.383   2.553  15.128  0.3747 -0.0744 -0.1582
 9230SOL    HW139323   2.344   2.630  15.086 -2.4108 -1.5533 -0.2893
 9230SOL    HW239324   2.472   2.567  15.097  0.9292 -4.8283 -0.6540
 9231SOL     OW39325   4.680   4.177   2.790 -0.1401  0.1672 -0.1494
 9231SOL    HW139326   4.672   4.258   2.841  0.0782  1.2792 -1.8753
 9231SOL    HW239327   4.660   4.107   2.852 -1.2663 -0.4079 -1.1613
 9232SOL     OW39328   2.570   0.871  16.882 -0.1116 -0.4298 -0.0336
 9232SOL    HW139329   2.501   0.815  16.847  0.0126  0.0214 -0.9865
 9232SOL    HW239330   2.540   0.954  16.844  0.3076 -0.2727 -0.0206
 9233SOL     OW39331   2.785   1.082   6.313 -0.1617 -0.0871  0.0420
 9233SOL    HW139332   2.718   1.016   6.298  1.0244 -1.7119  1.8674
 9233SOL    HW239333   2.859   1.028   6.341  0.4590 -0.0749 -1.5353
 9234SOL     OW39334   3.456   2.360  17.499 -0.0203  0.5469 -0.4793
 9234SOL    HW139335   3.399   2.383  17.425 -1.4098 -1.8070 -0.1646
 9234SOL    HW239336   3.444   2.439  17.552  0.1122 -0.3917  0.9369
 9235SOL     OW39337   1.775   0.913   4.714 -0.3660 -0.1707  0.1435
 9235SOL    HW139338   1.853   0.967   4.730 -2.1338  2.1535  0.7838
 9235SOL    HW239339   1.755   0.935   4.623  0.4620  0.1681  0.0439
 9236SOL     OW39340   0.317   3.031   0.802 -0.0719 -0.3584  0.2540
 9236SOL    HW139341   0.305   2.946   0.844  0.3704 -0.3910  0.3101
 9236SOL    HW239342   0.232   3.076   0.808  0.6791  1.2141 -0.9798
 9237SOL     OW39343   0.632   1.351   7.862  0.3657  0.4056  0.3593
 9237SOL    HW139344   0.626   1.404   7.942  0.1781  1.7639 -0.5487
 9237SOL    HW239345   0.693   1.285   7.894  0.4950 -0.1055 -0.9228
 9238SOL     OW39346   1.625   3.515  11.327  0.3719  0.4517 -0.2608
 9238SOL    HW139347   1.555   3.553  11.381  0.1411  1.5706 -1.3593
 9238SOL    HW239348   1.619   3.425  11.358  3.2874  0.8032  1.3253
 9239SOL     OW39349   0.618   4.730   9.377 -0.2914  0.7882 -0.4027
 9239SOL    HW139350   0.547   0.035   9.423  0.0216  1.7496 -0.8461
 9239SOL    HW239351   0.678   4.716   9.450 -0.2668  0.1393 -0.5467
 9240SOL     OW39352   3.844   2.437   2.292 -0.1200 -0.1064  0.0095
 9240SOL    HW139353   3.776   2.380   2.327  0.4278 -0.4671  0.4799
 9240SOL    HW239354   3.861   2.397   2.206 -0.3990 -0.7341  0.2468
 9241SOL     OW39355   1.652   2.275  11.513 -0.1750 -0.0824  0.0097
 9241SOL    HW139356   1.557   2.288  11.501  0.0849 -0.7326 -2.7932
 9241SOL    HW239357   1.681   2.344  11.454  0.8218 -1.4988 -1.1394
 9242SOL     OW39358   0.679   2.328   8.035 -0.2383 -0.1305  0.1804
 9242SOL    HW139359   0.648   2.414   8.007  1.5138  0.3866 -0.1844
 9242SOL    HW239360   0.725   2.311   7.953  0.7526 -0.1693  0.7481
 9243SOL     OW39361   0.162   4.345   6.537 -0.3205 -0.1488 -0.3333
 9243SOL    HW139362   0.192   4.407   6.470 -0.3469  2.1088  1.7458
 9243SOL    HW239363   0.127   4.267   6.494  0.9194 -0.7326 -0.2831
 9244SOL     OW39364   4.254   3.211   2.648  0.1944  0.3766 -0.1213
 9244SOL    HW139365   4.204   3.260   2.714  0.5127  1.9731 -1.0593
 9244SOL    HW239366   4.185   3.161   2.604  2.8084 -1.5681 -2.0014
 9245SOL     OW39367   4.170   3.827   4.838 -0.1634  0.4973 -0.0704
 9245SOL    HW139368   4.174   3.923   4.834  0.7956  0.4714  0.2556
 9245SOL    HW239369   4.229   3.815   4.912  0.0982  3.0805  0.1508
 9246SOL     OW39370   1.488   0.778   2.287 -0.0906 -0.1804  0.6397
 9246SOL    HW139371   1.473   0.731   2.369  1.2266  0.9612  1.5327
 9246SOL    HW239372   1.538   0.857   2.309 -0.1569  0.3759 -1.2094
 9247SOL     OW39373   0.153   4.523   5.425  0.1237  0.1475  0.0616
 9247SOL    HW139374   0.172   4.553   5.337 -2.6860 -0.0077 -0.6021
 9247SOL    HW239375   0.173   4.429   5.428  0.2814  0.1503 -1.1725
 9248SOL     OW39376   2.154   2.826   1.502 -0.3706  0.7487  0.2261
 9248SOL    HW139377   2.129   2.763   1.435  0.9068  0.8137 -0.3173
 9248SOL    HW239378   2.171   2.912   1.464 -1.0329  0.8557  0.1669
 9249SOL     OW39379   3.935   2.113   2.111 -0.1130 -0.0741  0.5508
 9249SOL    HW139380   3.896   2.042   2.161  0.7084 -1.0473 -0.1853
 9249SOL    HW239381   3.997   2.078   2.046 -0.4877  0.7936 -0.2634
 9250SOL     OW39382   4.438   1.456   2.138  0.9524 -0.1149 -0.4255
 9250SOL    HW139383   4.518   1.414   2.171 -0.1520 -2.2721 -0.5007
 9250SOL    HW239384   4.393   1.489   2.216 -0.9627 -3.5111 -0.0887
 9251SOL     OW39385   3.671   2.557   2.083  0.6205  0.2813  0.4851
 9251SOL    HW139386   3.723   2.516   2.151 -1.8063 -2.4208  0.7211
 9251SOL    HW239387   3.584   2.538   2.117  0.6591 -2.6722 -1.0874
 9252SOL     OW39388   0.508   1.592   7.676 -0.3100  0.6823 -0.2734
 9252SOL    HW139389   0.532   1.514   7.627  2.4527  0.5937  1.2730
 9252SOL    HW239390   0.554   1.668   7.640  1.1874 -0.8140 -1.5333
 9253SOL     OW39391   1.976   1.233  15.575  0.1341 -0.2673 -0.4782
 9253SOL    HW139392   1.902   1.177  15.552 -0.8936 -0.4004  3.0701
 9253SOL    HW239393   1.964   1.318  15.532 -2.1131 -1.5955 -2.4600
 9254SOL     OW39394   0.818   3.070  11.576 -0.4269 -0.3275 -0.2084
 9254SOL    HW139395   0.860   2.986  11.559 -1.0433 -0.5556 -0.6112
 9254SOL    HW239396   0.839   3.133  11.506  1.3929  0.1184  0.7285
 9255SOL     OW39397   2.678   4.274   4.820  0.1992  0.6014 -0.2393
 9255SOL    HW139398   2.773   4.277   4.832  0.3022  0.7822 -1.0655
 9255SOL    HW239399   2.672   4.185   4.855 -1.2645  1.0930  0.7326
 9256SOL     OW39400   1.220   3.877  16.782  0.4184 -0.0332  0.1526
 9256SOL    HW139401   1.276   3.920  16.717  0.8553 -0.8805 -0.0233
 9256SOL    HW239402   1.235   3.914  16.869 -1.2472 -2.0326  1.2790
 9257SOL     OW39403   3.428   3.080   1.059  0.2811 -0.1657  0.2770
 9257SOL    HW139404   3.480   3.141   1.111 -1.0505  2.0955 -1.0370
 9257SOL    HW239405   3.355   3.078   1.121  0.3256 -2.4225  0.2576
 9258SOL     OW39406   2.115   0.075  15.538  0.3938  0.1007 -0.1282
 9258SOL    HW139407   2.209   0.064  15.524  0.2349  1.1856 -2.0015
 9258SOL    HW239408   2.111   0.170  15.543  0.7165  0.0146  1.7588
 9259SOL     OW39409   1.494   0.991  15.712 -0.1996 -0.3047 -0.3108
 9259SOL    HW139410   1.538   0.915  15.748 -0.8457 -0.2925  0.4866
 9259SOL    HW239411   1.559   1.058  15.734 -0.9854 -0.0915  1.3322
 9260SOL     OW39412   1.488   0.330   7.178  0.3632  0.0592 -0.2437
 9260SOL    HW139413   1.558   0.272   7.208  0.1269  0.5150  1.1820
 9260SOL    HW239414   1.489   0.311   7.084  0.6002  0.0003 -0.2303
 9261SOL     OW39415   4.320   4.725   7.150  0.2732 -0.1025 -0.0703
 9261SOL    HW139416   4.231   0.008   7.123 -0.4960 -2.2667  0.6481
 9261SOL    HW239417   4.377   0.062   7.143  0.0642 -0.2010 -2.8645
 9262SOL     OW39418   4.217   1.138  16.975  0.2572  0.0172 -0.2970
 9262SOL    HW139419   4.294   1.184  16.943  1.6227 -0.8971  1.6732
 9262SOL    HW239420   4.214   1.184  17.059 -2.5398  0.0810 -0.4264
 9263SOL     OW39421   1.341   4.128   4.864 -0.2689 -0.2280  0.4468
 9263SOL    HW139422   1.426   4.098   4.832 -0.4691 -0.6392  0.3016
 9263SOL    HW239423   1.276   4.095   4.802  0.3558 -2.7034  1.1183
 9264SOL     OW39424   4.408   2.581  16.956  0.0639  0.5690 -0.9415
 9264SOL    HW139425   4.330   2.581  16.901  1.9623 -0.6706 -3.6811
 9264SOL    HW239426   4.360   2.617  17.030  0.3697 -0.8100 -0.0766
 9265SOL     OW39427   2.385   1.166  12.214 -1.2540  0.0048  0.5713
 9265SOL    HW139428   2.367   1.185  12.122  0.1585  0.5061  0.3908
 9265SOL    HW239429   2.459   1.105  12.214 -1.1631  0.1073 -0.2307
 9266SOL     OW39430   1.255   4.366   7.538  0.1088  0.1917 -0.6610
 9266SOL    HW139431   1.182   4.397   7.484  0.8317  1.0649 -1.1354
 9266SOL    HW239432   1.308   4.444   7.527  0.1954  0.1753 -0.3544
 9267SOL     OW39433   4.493   3.898   3.320  0.3611  0.3986 -0.7287
 9267SOL    HW139434   4.578   3.859   3.301  1.7323  2.6181  0.7483
 9267SOL    HW239435   4.432   3.829   3.343 -0.1021  1.4202  1.1692
 9268SOL     OW39436   0.598   2.652  13.126 -0.0570  0.0825  0.2825
 9268SOL    HW139437   0.690   2.670  13.145 -0.2194 -1.4653  2.5493
 9268SOL    HW239438   0.545   2.698  13.191  0.3265 -1.4134  1.6669
 9269SOL     OW39439   1.015   2.396   5.511 -0.4055 -0.0851 -0.9150
 9269SOL    HW139440   0.930   2.427   5.544 -0.6091 -2.2166  0.5074
 9269SOL    HW239441   1.003   2.402   5.416  2.5370  1.7366 -1.1696
 9270SOL     OW39442   3.159   1.131   0.621  0.1545  0.2137  0.2702
 9270SOL    HW139443   3.253   1.146   0.624  0.2342 -0.0985 -0.5321
 9270SOL    HW239444   3.150   1.063   0.688  3.5224  1.0461  1.5650
 9271SOL     OW39445   4.478   3.304   4.042 -0.2298  0.4801 -0.6641
 9271SOL    HW139446   4.562   3.262   4.024 -1.1417 -0.7208 -2.1020
 9271SOL    HW239447   4.436   3.234   4.091  0.1546  1.2192  0.7202
 9272SOL     OW39448   3.527   1.787   2.166 -0.1478 -0.0864  0.1978
 9272SOL    HW139449   3.441   1.746   2.158  0.9718 -1.9645 -2.2562
 9272SOL    HW239450   3.520   1.821   2.255  0.2621  0.3969  0.0490
 9273SOL     OW39451   3.552   2.481   4.253  0.1997 -0.2802 -0.0524
 9273SOL    HW139452   3.480   2.432   4.214  0.1852  0.0600 -0.4538
 9273SOL    HW239453   3.624   2.419   4.236 -0.5296 -0.8097 -1.2277
 9274SOL     OW39454   4.727   0.653   8.920  0.2783  0.2514 -0.2026
 9274SOL    HW139455   0.007   0.559   8.913 -2.3256 -0.3946  1.0995
 9274SOL    HW239456   0.070   0.687   8.887  1.0380  0.8604  2.3415
 9275SOL     OW39457   0.143   3.787   0.964  0.0319  0.0771  0.3258
 9275SOL    HW139458   0.209   3.751   0.905  0.3753 -0.4382  1.0234
 9275SOL    HW239459   0.126   3.707   1.014  0.8566 -0.0034  0.4684
 9276SOL     OW39460   0.156   0.907   4.063  0.4445  0.3486 -0.5959
 9276SOL    HW139461   0.125   0.881   4.149  0.0598  0.7113 -0.6217
 9276SOL    HW239462   0.145   1.002   4.060  0.6018  0.2981 -2.7091
 9277SOL     OW39463   2.070   1.337   4.853  0.0303  0.1158  0.3264
 9277SOL    HW139464   2.163   1.351   4.834 -0.1530 -1.0910 -1.5286
 9277SOL    HW239465   2.026   1.387   4.785  0.2085 -0.5830 -0.3089
 9278SOL     OW39466   3.545   0.435   3.992  0.1764 -0.0838 -0.4998
 9278SOL    HW139467   3.525   0.509   3.935  0.4169  1.1026  0.9736
 9278SOL    HW239468   3.553   0.476   4.078  0.5735  0.8086 -0.9630
 9279SOL     OW39469   1.176   0.200   6.753 -0.4395 -0.3461  0.6273
 9279SOL    HW139470   1.210   0.125   6.803  1.6422 -0.0768 -0.3967
 9279SOL    HW239471   1.180   0.266   6.823  1.9736  1.1175 -0.9129
 9280SOL     OW39472   0.997   0.984   6.976 -0.9896 -0.4434  0.5869
 9280SOL    HW139473   0.954   1.070   6.980 -0.9399 -0.5458  3.2273
 9280SOL    HW239474   0.949   0.939   7.046 -0.8010 -0.5205  0.6648
 9281SOL     OW39475   2.420   0.493  11.071  0.0225  0.2262  0.5754
 9281SOL    HW139476   2.373   0.445  11.139  0.3231 -1.5886 -0.5005
 9281SOL    HW239477   2.402   0.452  10.987  2.3686  1.0521 -0.3286
 9282SOL     OW39478   2.170   0.613   9.338  0.0599 -0.4929 -0.7811
 9282SOL    HW139479   2.183   0.702   9.369  2.5189 -1.4822  1.0339
 9282SOL    HW239480   2.257   0.587   9.310  0.4240  1.3174 -1.3109
 9283SOL     OW39481   2.836   0.345   4.358 -0.2430 -0.2887  0.1546
 9283SOL    HW139482   2.811   0.321   4.448  2.8405 -1.8713  0.5982
 9283SOL    HW239483   2.763   0.315   4.303 -0.0775 -0.7865  0.2047
 9284SOL     OW39484   4.732   3.673   4.720  0.2772  0.0783 -0.0243
 9284SOL    HW139485   0.073   3.682   4.668 -0.8398  2.4077 -1.3410
 9284SOL    HW239486   4.664   3.712   4.665 -1.0107 -1.2227  0.6548
 9285SOL     OW39487   4.679   1.407  15.126  0.3288  0.1821  0.3500
 9285SOL    HW139488   0.025   1.392  15.084  0.1632 -0.3175  0.1946
 9285SOL    HW239489   4.626   1.339  15.086  1.8336  0.9078 -2.8489
 9286SOL     OW39490   4.550   2.926   8.222 -0.4274  0.0231  0.1726
 9286SOL    HW139491   4.501   2.994   8.269 -0.9442 -1.3728  1.6401
 9286SOL    HW239492   4.638   2.964   8.216 -0.3011 -0.2515  0.2724
 9287SOL     OW39493   1.340   4.043  10.263 -0.1656  0.1079 -0.2637
 9287SOL    HW139494   1.265   4.023  10.319  0.5014  3.3735  1.7544
 9287SOL    HW239495   1.356   3.957  10.224 -0.3567  0.0032 -0.1106
 9288SOL     OW39496   3.351   1.726   5.202  0.1620  0.3619 -0.1459
 9288SOL    HW139497   3.369   1.698   5.292  0.2721 -0.5810 -0.4598
 9288SOL    HW239498   3.265   1.687   5.184  2.3415 -3.9615 -1.1586
 9289SOL     OW39499   1.027   1.432   2.748 -0.1110 -1.0957 -0.2820
 9289SOL    HW139500   1.004   1.416   2.840 -0.4987  0.6318 -0.0660
 9289SOL    HW239501   0.938   1.412   2.718 -0.4082  0.6199 -0.5350
 9290SOL     OW39502   2.510   2.163  13.206 -0.2997 -0.0061 -0.6259
 9290SOL    HW139503   2.474   2.082  13.170 -1.1452 -0.9666  2.3557
 9290SOL    HW239504   2.563   2.199  13.135 -0.2054 -0.3444 -0.7271
 9291SOL     OW39505   1.040   1.005  17.284 -0.0833 -0.6242  0.0368
 9291SOL    HW139506   1.109   1.029  17.222  1.7635 -2.7154  1.3191
 9291SOL    HW239507   0.975   1.074  17.267  0.0111 -0.4167  0.5039
 9292SOL     OW39508   0.948   4.184  17.567 -0.0606  0.3281  0.0024
 9292SOL    HW139509   0.912   4.098  17.545 -2.6242  2.0449 -2.4417
 9292SOL    HW239510   0.999   4.213  17.492 -1.5750  3.4309  0.1777
 9293SOL     OW39511   3.910   3.667   4.809 -0.2099 -0.3733 -0.2123
 9293SOL    HW139512   3.979   3.721   4.769  1.3003 -0.0980  2.7595
 9293SOL    HW239513   3.966   3.624   4.874  0.9983  1.4559 -0.0199
 9294SOL     OW39514   2.208   3.741   7.413  0.1149  0.1320 -0.6936
 9294SOL    HW139515   2.164   3.822   7.439 -0.6496 -0.9730  1.4816
 9294SOL    HW239516   2.205   3.748   7.318  0.9111 -0.4639 -0.7597
 9295SOL     OW39517   1.146   3.606   6.591  0.0092 -0.0630 -0.3592
 9295SOL    HW139518   1.225   3.652   6.619 -0.1416  0.2636 -0.4771
 9295SOL    HW239519   1.074   3.668   6.602 -0.7338 -0.8271 -0.9363
 9296SOL     OW39520   3.888   2.740   6.970 -0.1013 -0.0974  0.5320
 9296SOL    HW139521   3.849   2.815   7.015 -1.0646  1.2969 -2.6040
 9296SOL    HW239522   3.819   2.720   6.906 -0.6347  2.7744  0.2212
 9297SOL     OW39523   4.077   3.572   7.596 -0.2264  0.5937 -0.2883
 9297SOL    HW139524   4.109   3.500   7.651 -1.8377 -1.2107 -1.7091
 9297SOL    HW239525   3.993   3.594   7.637 -1.2458  0.8023 -2.4788
 9298SOL     OW39526   2.885   4.662   6.692  0.4330 -0.1012  0.1333
 9298SOL    HW139527   2.832   4.682   6.770  0.8699 -2.1765  0.9890
 9298SOL    HW239528   2.824   4.697   6.627 -0.0778 -0.0501  0.6404
 9299SOL     OW39529   3.000   4.460   1.779 -0.3157 -0.4092  0.2134
 9299SOL    HW139530   2.910   4.487   1.761 -0.1097  0.3276  0.3211
 9299SOL    HW239531   3.025   4.536   1.831  0.5190 -0.3752 -0.2325
 9300SOL     OW39532   0.336   2.567  14.466 -0.1417  0.1577  0.1180
 9300SOL    HW139533   0.250   2.530  14.446  1.7603 -4.1821 -0.0038
 9300SOL    HW239534   0.376   2.489  14.502 -0.8751  0.8420  2.4113
 9301SOL     OW39535   3.468   1.132  13.751  1.0095  0.2242  0.2192
 9301SOL    HW139536   3.553   1.092  13.769  2.5521  2.7069 -1.5232
 9301SOL    HW239537   3.420   1.126  13.834  0.5320 -1.7769 -0.1967
 9302SOL     OW39538   0.672   1.571   8.699 -0.5153  0.0978  0.2358
 9302SOL    HW139539   0.611   1.501   8.674  0.3872 -1.4975  2.4473
 9302SOL    HW239540   0.610   1.638   8.672  0.7228  1.9824  2.1236
 9303SOL     OW39541   3.459   2.564   0.857  0.3111  0.0441 -0.5780
 9303SOL    HW139542   3.376   2.516   0.859  0.8548 -0.8975 -0.5227
 9303SOL    HW239543   3.422   2.643   0.897  1.0103 -0.8541  1.8496
 9304SOL     OW39544   2.239   2.845   6.022  0.5548  0.1533 -0.1297
 9304SOL    HW139545   2.162   2.877   6.070  0.2438 -2.0919  0.8872
 9304SOL    HW239546   2.302   2.899   6.069 -0.6025  0.7049  0.7898
 9305SOL     OW39547   2.329   2.117   1.566 -0.8495 -0.0060 -0.0179
 9305SOL    HW139548   2.406   2.139   1.512 -0.0940  0.8342  1.3974
 9305SOL    HW239549   2.316   2.025   1.542  0.3907 -0.2278  0.1680
 9306SOL     OW39550   0.665   1.932   2.172 -0.3725  0.7701  0.6701
 9306SOL    HW139551   0.672   1.877   2.250  1.6653 -0.1009 -0.1083
 9306SOL    HW239552   0.668   2.022   2.204 -0.4538  1.1376 -0.3476
 9307SOL     OW39553   0.248   0.871  15.448  0.4479  0.1853  0.5096
 9307SOL    HW139554   0.167   0.894  15.494 -1.0830 -0.9407 -1.6524
 9307SOL    HW239555   0.277   0.793  15.496  1.5576  0.3873  0.1567
 9308SOL     OW39556   1.393   1.220   2.968  0.6613 -0.2081 -0.4528
 9308SOL    HW139557   1.380   1.302   2.920  0.8240 -0.8876 -1.6469
 9308SOL    HW239558   1.377   1.152   2.903 -0.5514  1.5992 -2.0449
 9309SOL     OW39559   4.059   2.783   3.693 -0.0210  0.4662 -0.1181
 9309SOL    HW139560   4.119   2.851   3.661 -1.1289  2.6287  2.3557
 9309SOL    HW239561   4.081   2.796   3.786 -1.2394  0.5382  0.1599
 9310SOL     OW39562   0.952   0.520   4.704 -0.9114  0.0726 -0.4885
 9310SOL    HW139563   0.868   0.490   4.740 -1.0140  1.1701  0.1713
 9310SOL    HW239564   0.924   0.573   4.630 -1.5001  0.6271  0.1337
 9311SOL     OW39565   2.701   2.322   8.094  0.0771 -0.5667 -0.0089
 9311SOL    HW139566   2.772   2.369   8.049 -0.7466 -0.3415 -1.0943
 9311SOL    HW239567   2.696   2.244   8.038  2.8985 -0.6172 -0.1983
 9312SOL     OW39568   2.093   3.392   6.114  0.2730 -0.6575 -0.1059
 9312SOL    HW139569   2.065   3.477   6.147 -0.4949 -0.9068 -0.1287
 9312SOL    HW239570   2.091   3.340   6.194  1.6482  0.6036  0.7352
 9313SOL     OW39571   2.241   1.686   7.575 -0.3734 -0.3635  0.0854
 9313SOL    HW139572   2.281   1.762   7.617 -2.2548  0.9488 -0.4794
 9313SOL    HW239573   2.157   1.730   7.565  1.2626  2.2130 -2.3270
 9314SOL     OW39574   4.713   2.242   2.920 -0.6878  0.2034 -0.6867
 9314SOL    HW139575   0.054   2.266   2.966 -1.1913  1.5134 -0.4957
 9314SOL    HW239576   4.646   2.255   2.988  1.1244  1.7471  0.8002
 9315SOL     OW39577   1.916   0.529  15.485 -0.5695  0.1070  0.2413
 9315SOL    HW139578   2.002   0.568  15.501 -0.4298 -0.4360  0.8145
 9315SOL    HW239579   1.957   0.443  15.492  1.4993  1.1237  0.6870
 9316SOL     OW39580   2.484   3.840   7.759  0.2419 -0.3354 -0.7246
 9316SOL    HW139581   2.514   3.832   7.850  2.3989  2.1452 -1.2151
 9316SOL    HW239582   2.396   3.804   7.757 -0.0174  0.2643 -0.1772
 9317SOL     OW39583   3.901   0.867  14.728 -0.2977 -0.4054 -0.3296
 9317SOL    HW139584   3.900   0.843  14.635 -0.1394  0.9573 -0.6816
 9317SOL    HW239585   3.825   0.819  14.762  1.0516 -2.3434 -0.0603
 9318SOL     OW39586   2.382   0.964   3.390  0.2686 -0.2913 -0.0320
 9318SOL    HW139587   2.430   0.887   3.421 -0.0932  0.1981  1.7102
 9318SOL    HW239588   2.420   0.975   3.303  0.7586 -0.3976  0.1711
 9319SOL     OW39589   1.275   1.025  12.884  0.0648  0.3294 -0.5372
 9319SOL    HW139590   1.332   0.984  12.819  0.7890 -1.2969  1.1099
 9319SOL    HW239591   1.226   0.945  12.906 -0.4564  0.1701 -2.2988
 9320SOL     OW39592   1.630   1.279   6.574  0.2675  0.2413 -0.3035
 9320SOL    HW139593   1.619   1.186   6.556  3.6808 -0.3974  1.0721
 9320SOL    HW239594   1.718   1.293   6.608 -0.7902 -2.0856  3.3993
 9321SOL     OW39595   1.451   0.942   4.139 -0.0747 -0.1251 -0.0587
 9321SOL    HW139596   1.401   0.944   4.058 -1.2296 -2.6971  0.5744
 9321SOL    HW239597   1.476   1.033   4.156 -0.6246  0.4905 -2.6208
 9322SOL     OW39598   0.376   3.804   5.166 -0.5101  0.1047  0.4681
 9322SOL    HW139599   0.436   3.849   5.225 -1.0911  0.9437  0.4278
 9322SOL    HW239600   0.364   3.719   5.209 -1.8609  0.1457  0.1889
 9323SOL     OW39601   3.761   0.286  14.968  0.0702 -0.4235 -0.0563
 9323SOL    HW139602   3.679   0.324  14.936  0.0187 -0.7143 -0.2691
 9323SOL    HW239603   3.739   0.194  14.953 -1.1597  0.1289 -1.6478
 9324SOL     OW39604   1.294   2.529   4.338 -0.1151 -0.5642 -0.4509
 9324SOL    HW139605   1.339   2.535   4.421  1.4303 -3.5318 -1.0767
 9324SOL    HW239606   1.217   2.474   4.354 -1.1441  0.9661 -0.1699
 9325SOL     OW39607   3.817   4.617   6.979  0.8050  0.6385  0.1519
 9325SOL    HW139608   3.755   4.676   6.936 -1.0060 -0.2555  1.5249
 9325SOL    HW239609   3.763   4.564   7.038  0.8690  0.1802 -0.2027
 9326SOL     OW39610   0.152   1.142   3.238 -0.4654 -0.1889 -0.0576
 9326SOL    HW139611   0.176   1.101   3.321  1.3684  0.4079 -0.2936
 9326SOL    HW239612   0.190   1.227   3.257 -3.0534  1.4512 -2.1479
 9327SOL     OW39613   4.579   1.206  16.824  0.0378  0.8681  0.4547
 9327SOL    HW139614   4.627   1.254  16.756  1.3554 -1.4898 -0.2837
 9327SOL    HW239615   4.648   1.156  16.868 -1.1453 -1.8091 -0.6840
 9328SOL     OW39616   0.113   1.134   7.253  0.0359  0.0098 -0.0587
 9328SOL    HW139617   0.104   1.105   7.344  1.7355  0.9028  0.4032
 9328SOL    HW239618   0.172   1.066   7.220 -0.0031  0.4240 -0.9662
 9329SOL     OW39619   0.432   3.645  14.696 -0.1505 -0.4601 -0.6251
 9329SOL    HW139620   0.393   3.732  14.706  2.7372  0.8172 -0.2584
 9329SOL    HW239621   0.375   3.600  14.758 -0.3443 -0.7490 -1.0176
 9330SOL     OW39622   1.524   2.165  10.449 -0.4312 -0.1087  0.0834
 9330SOL    HW139623   1.581   2.089  10.458  0.1639  0.4134  0.6623
 9330SOL    HW239624   1.435   2.128  10.447 -0.9223  0.9434  3.0518
 9331SOL     OW39625   3.896   0.913   8.536 -0.3827  0.2713  0.2412
 9331SOL    HW139626   3.860   0.924   8.624 -0.2884  0.8851  0.1992
 9331SOL    HW239627   3.839   0.978   8.495  0.5676  0.6857 -0.4347
 9332SOL     OW39628   3.920   0.263  12.843  0.4194  0.5411 -0.3565
 9332SOL    HW139629   3.977   0.191  12.866  0.3144  0.2827 -0.9061
 9332SOL    HW239630   3.975   0.318  12.788  3.5169 -1.3943  0.8501
 9333SOL     OW39631   1.152   2.736   9.640  0.1142 -0.2773  0.1450
 9333SOL    HW139632   1.214   2.806   9.658 -0.0923 -0.1299  0.2783
 9333SOL    HW239633   1.095   2.770   9.571 -0.1141 -1.0257 -0.0326
 9334SOL     OW39634   2.266   1.005   8.504 -0.0931  0.3837  0.4353
 9334SOL    HW139635   2.214   1.085   8.520 -1.4277 -0.7832  1.9983
 9334SOL    HW239636   2.351   1.043   8.481  0.0554  0.3671  0.9398
 9335SOL     OW39637   2.826   1.674   8.198  0.7321 -0.1555 -0.3937
 9335SOL    HW139638   2.773   1.596   8.184  2.3335 -0.9589 -1.9360
 9335SOL    HW239639   2.831   1.675   8.293  1.6639 -1.9187 -0.4353
 9336SOL     OW39640   3.720   2.488  16.483 -0.1147 -0.0840  0.1201
 9336SOL    HW139641   3.714   2.426  16.410 -1.2480 -0.3987  0.4678
 9336SOL    HW239642   3.661   2.453  16.550 -1.1697  1.9668  0.2754
 9337SOL     OW39643   4.226   1.965   4.818 -0.6395 -0.1172 -0.4200
 9337SOL    HW139644   4.293   1.970   4.887  1.5392 -1.8119 -2.4293
 9337SOL    HW239645   4.190   2.053   4.834 -0.7832 -0.2615  0.0653
 9338SOL     OW39646   1.393   4.221  17.672 -0.1610 -0.1224  0.0875
 9338SOL    HW139647   1.311   4.205  17.718 -0.8248 -2.2750 -1.8177
 9338SOL    HW239648   1.455   4.186  17.736 -1.2069 -0.5190  0.8798
 9339SOL     OW39649   1.472   1.402   3.932 -0.2429  0.3407  0.7915
 9339SOL    HW139650   1.452   1.368   3.845  0.8091 -0.9494  1.0571
 9339SOL    HW239651   1.489   1.331   3.993 -2.5970 -0.4083  0.5643
 9340SOL     OW39652   4.231   1.642   6.748  0.0586 -0.1273 -0.1848
 9340SOL    HW139653   4.148   1.656   6.793 -0.2467 -2.8086  0.0896
 9340SOL    HW239654   4.261   1.727   6.715  2.1057 -0.1647  1.5784
 9341SOL     OW39655   0.620   0.792  16.248  0.4984  0.3423 -0.2504
 9341SOL    HW139656   0.534   0.781  16.206  0.7204 -2.1651 -0.0428
 9341SOL    HW239657   0.661   0.868  16.207 -0.1026  1.0782  0.5227
 9342SOL     OW39658   2.831   3.254   4.960 -0.4074  0.1698 -0.4810
 9342SOL    HW139659   2.854   3.170   4.997  2.2704  0.2980 -1.8444
 9342SOL    HW239660   2.843   3.307   5.039 -0.5903  0.0428 -0.3700
 9343SOL     OW39661   2.208   2.693  13.865  0.0579 -0.5707  0.0769
 9343SOL    HW139662   2.222   2.780  13.902 -1.4106  0.9407 -2.9795
 9343SOL    HW239663   2.119   2.682  13.898  0.1148  0.5471  0.5993
 9344SOL     OW39664   4.334   4.402   7.717  0.4933 -0.6404 -0.9105
 9344SOL    HW139665   4.337   4.374   7.626  0.6446 -1.2610 -0.7185
 9344SOL    HW239666   4.242   4.386   7.737  0.6689  1.1447  1.3040
 9345SOL     OW39667   1.099   3.984   5.061 -0.0971  0.0479 -0.1813
 9345SOL    HW139668   1.072   4.074   5.079  1.5565 -0.3873  4.5326
 9345SOL    HW239669   1.183   3.986   5.108  0.5994  0.5531 -1.4615
 9346SOL     OW39670   1.443   1.288  12.211 -0.6469 -0.5588 -0.1438
 9346SOL    HW139671   1.452   1.345  12.134  0.7263  0.1238  0.5268
 9346SOL    HW239672   1.502   1.322  12.278 -0.9660  0.1675 -0.2274
 9347SOL     OW39673   0.760   3.085   3.562 -0.4486 -0.4463  0.6002
 9347SOL    HW139674   0.731   3.164   3.516  2.2446 -1.0787 -2.2276
 9347SOL    HW239675   0.853   3.106   3.572 -0.5276  0.4404 -0.4716
 9348SOL     OW39676   4.465   4.604  15.845 -0.6215  0.1966 -0.0498
 9348SOL    HW139677   4.559   4.620  15.846 -0.7575  0.8851  1.1849
 9348SOL    HW239678   4.439   4.647  15.927  1.0886 -0.1131  0.6535
 9349SOL     OW39679   4.026   0.508   5.468 -0.2922  0.3240 -0.3757
 9349SOL    HW139680   4.049   0.504   5.561  1.5321  0.9814 -0.8062
 9349SOL    HW239681   3.956   0.570   5.449  0.2366  0.0269 -3.3199
 9350SOL     OW39682   4.558   0.346   5.724 -0.2600 -0.1298  0.6470
 9350SOL    HW139683   4.535   0.423   5.775  0.0130  1.5621 -1.8231
 9350SOL    HW239684   4.490   0.288   5.758 -1.2802  1.2801  0.9664
 9351SOL     OW39685   3.743   1.656   7.592 -0.3091 -0.3516  0.1696
 9351SOL    HW139686   3.657   1.615   7.589  0.0033 -1.0102  0.3596
 9351SOL    HW239687   3.764   1.661   7.498  0.4925  1.7681  0.4436
 9352SOL     OW39688   3.864   1.410   5.822 -0.1801 -0.0644 -0.4097
 9352SOL    HW139689   3.827   1.402   5.734  1.1341  0.1956 -0.9783
 9352SOL    HW239690   3.863   1.321   5.857  2.2319 -0.5604 -1.5880
 9353SOL     OW39691   1.894   1.513   5.700  0.5948  0.0644  0.5067
 9353SOL    HW139692   1.802   1.517   5.673  0.6014  0.1608  0.4967
 9353SOL    HW239693   1.936   1.555   5.624 -2.8754  1.2741 -0.7482
 9354SOL     OW39694   1.319   4.072  14.201 -0.5280 -0.6979 -0.0545
 9354SOL    HW139695   1.348   3.981  14.201  0.1170 -0.4858 -1.0193
 9354SOL    HW239696   1.263   4.055  14.125  0.4117 -0.3059 -0.8251
 9355SOL     OW39697   1.930   2.489   1.805  0.1021  0.1993 -0.5355
 9355SOL    HW139698   1.972   2.560   1.853  1.2797 -0.2405 -0.9352
 9355SOL    HW239699   1.965   2.416   1.857 -0.7892 -0.7350 -1.2303
 9356SOL     OW39700   3.259   0.532   9.527 -0.3144  0.1007  0.1289
 9356SOL    HW139701   3.350   0.522   9.554 -0.5957  1.4183  1.5315
 9356SOL    HW239702   3.246   0.444   9.491  0.7639  0.0438 -0.1433
 9357SOL     OW39703   1.619   4.547   6.510 -0.0039 -0.1642 -0.1641
 9357SOL    HW139704   1.573   4.630   6.498  2.8453  1.6168  1.1422
 9357SOL    HW239705   1.706   4.577   6.481 -0.0827  1.2447  1.0160
 9358SOL     OW39706   4.481   1.559  16.026 -0.2011  0.0924  0.8710
 9358SOL    HW139707   4.396   1.597  16.047  0.0871 -0.1227  2.4035
 9358SOL    HW239708   4.531   1.593  16.100 -1.1189  3.5239 -0.1052
 9359SOL     OW39709   1.842   3.176   8.996  0.1970  0.4970 -0.2758
 9359SOL    HW139710   1.747   3.164   9.002  0.3692 -0.0886  1.2844
 9359SOL    HW239711   1.867   3.132   8.914 -0.1377  1.5746 -0.9616
 9360SOL     OW39712   0.941   1.669   8.620  0.7698  0.0880  0.5441
 9360SOL    HW139713   0.877   1.599   8.625 -1.9039  2.5244  0.0014
 9360SOL    HW239714   0.961   1.659   8.527 -1.0479  0.8020  0.0906
 9361SOL     OW39715   3.783   0.501   6.489  0.5074 -0.2556  0.3699
 9361SOL    HW139716   3.798   0.579   6.435  3.0920 -0.2137  1.1470
 9361SOL    HW239717   3.696   0.467   6.469  0.7566  0.0799 -1.3530
 9362SOL     OW39718   0.011   2.174   1.350 -0.4493 -0.0731 -0.8198
 9362SOL    HW139719   4.693   2.103   1.322 -2.7090  1.4572 -0.0732
 9362SOL    HW239720   4.726   2.245   1.291 -2.0176  0.2001  0.1402
 9363SOL     OW39721   2.689   2.841   8.323  0.3834 -0.0766  0.0333
 9363SOL    HW139722   2.641   2.772   8.278 -0.2033 -0.8596  1.8400
 9363SOL    HW239723   2.687   2.909   8.257 -0.4222 -0.4401 -0.3198
 9364SOL     OW39724   0.491   1.198   8.904  0.7584  0.3103 -0.3855
 9364SOL    HW139725   0.494   1.294   8.911 -0.9161  0.6451 -4.4493
 9364SOL    HW239726   0.408   1.177   8.945 -0.6929  3.3217 -1.7769
 9365SOL     OW39727   3.950   3.266  15.872 -0.0296 -0.4312  0.3379
 9365SOL    HW139728   3.919   3.345  15.828 -0.2862 -1.3747 -1.1668
 9365SOL    HW239729   4.026   3.251  15.815 -1.1678 -3.0980 -0.4639
 9366SOL     OW39730   0.100   1.921  14.506  0.1208 -0.7489 -0.1189
 9366SOL    HW139731   0.182   1.871  14.499 -0.0450 -1.1835  1.0173
 9366SOL    HW239732   0.136   2.003  14.539 -0.8684  0.5237 -2.2203
 9367SOL     OW39733   3.062   2.339   1.268  0.3289 -0.1491  0.4937
 9367SOL    HW139734   3.082   2.429   1.241 -0.3398 -0.2314 -0.2984
 9367SOL    HW239735   3.124   2.290   1.214 -1.3412 -1.2355 -0.4432
 9368SOL     OW39736   3.373   2.586  12.324 -0.5386  0.3366 -0.0434
 9368SOL    HW139737   3.365   2.490  12.328  0.3518  0.3848  2.5527
 9368SOL    HW239738   3.279   2.607  12.321 -0.4757  0.8957  2.4444
 9369SOL     OW39739   3.997   0.797   0.906  0.6038  0.4414 -0.6876
 9369SOL    HW139740   4.091   0.796   0.890  0.5411  0.2335 -1.0572
 9369SOL    HW239741   4.004   0.772   0.998 -1.7719 -1.9326 -1.1335
 9370SOL     OW39742   3.228   1.933   9.088  0.2982 -1.0121  0.1970
 9370SOL    HW139743   3.304   1.981   9.120  0.1864  0.1350 -1.2627
 9370SOL    HW239744   3.264   1.845   9.100  2.0675 -0.3247 -0.1607
 9371SOL     OW39745   4.317   1.175  10.937  0.4925  0.5717 -0.2982
 9371SOL    HW139746   4.285   1.255  10.979 -0.0733  1.2029 -1.9282
 9371SOL    HW239747   4.369   1.133  11.005 -1.8357 -0.3423  0.8866
 9372SOL     OW39748   1.528   3.521  11.052 -0.0209 -0.0390 -0.0210
 9372SOL    HW139749   1.467   3.448  11.060  0.0602  0.1507  2.3633
 9372SOL    HW239750   1.566   3.514  11.139  2.6087  0.1224 -1.1819
 9373SOL     OW39751   0.296   4.074   4.615 -0.0647  0.4346  0.3871
 9373SOL    HW139752   0.371   4.110   4.663  0.5907  0.2736 -0.5284
 9373SOL    HW239753   0.241   4.024   4.676  1.1025 -1.7936 -0.3560
 9374SOL     OW39754   0.822   3.945   9.247 -0.1021  0.0397 -1.0745
 9374SOL    HW139755   0.821   3.872   9.185  0.8140 -0.6782 -0.2503
 9374SOL    HW239756   0.797   4.021   9.195 -1.8880 -1.0288 -1.7886
 9375SOL     OW39757   2.497   1.995   8.626 -0.4424 -0.1000 -0.3199
 9375SOL    HW139758   2.574   1.956   8.586 -0.1287 -0.7260  0.8858
 9375SOL    HW239759   2.468   1.925   8.684 -0.7954  0.5377  0.2818
 9376SOL     OW39760   2.504   2.204   5.775  0.4421 -0.4322 -0.7533
 9376SOL    HW139761   2.493   2.115   5.806 -1.9215  0.5152  1.1275
 9376SOL    HW239762   2.418   2.232   5.743  0.2772 -0.3484 -0.2389
 9377SOL     OW39763   3.400   1.957   3.072  0.2777  0.0481 -0.1638
 9377SOL    HW139764   3.449   2.039   3.071  2.0141 -0.9931 -2.3966
 9377SOL    HW239765   3.309   1.985   3.087  0.0910  0.6347 -2.3603
 9378SOL     OW39766   1.206   4.191   5.850  0.4636 -0.3657  0.0636
 9378SOL    HW139767   1.237   4.265   5.902 -0.2404  0.0865 -0.1605
 9378SOL    HW239768   1.256   4.186   5.769 -1.7528  1.6282 -1.4255
 9379SOL     OW39769   2.615   0.145   9.301  0.3888  0.4729  0.4067
 9379SOL    HW139770   2.620   0.050   9.314  1.3036  0.2294 -1.7231
 9379SOL    HW239771   2.581   0.151   9.212  1.1028  0.4324  0.1320
 9380SOL     OW39772   4.261   2.861  10.177  0.2017 -0.1221  0.3741
 9380SOL    HW139773   4.179   2.828  10.215 -0.8097  1.7742 -0.1232
 9380SOL    HW239774   4.226   2.933  10.124 -2.8819 -1.9239 -0.0770
 9381SOL     OW39775   3.303   1.247   7.178  0.2876 -0.4801 -0.3111
 9381SOL    HW139776   3.219   1.205   7.162  0.3581 -0.4802 -0.6873
 9381SOL    HW239777   3.288   1.253   7.272  1.5916  2.2496 -0.2665
 9382SOL     OW39778   0.796   2.395   5.850 -0.1664  0.3995  0.7472
 9382SOL    HW139779   0.855   2.450   5.902  1.6707  1.4958 -2.4795
 9382SOL    HW239780   0.796   2.429   5.760  0.6755 -2.5446 -0.3648
 9383SOL     OW39781   1.157   2.203   5.635 -0.1300 -0.4893  0.0282
 9383SOL    HW139782   1.103   2.273   5.597  0.0135 -2.0181 -2.9518
 9383SOL    HW239783   1.088   2.168   5.690 -2.0980  0.5363 -1.8056
 9384SOL     OW39784   2.289   3.447   0.000 -0.4530  0.6344 -0.7901
 9384SOL    HW139785   2.200   3.480   0.012 -1.3880 -1.6795 -1.2742
 9384SOL    HW239786   2.340   3.528  17.749  0.4734  0.0410 -0.9612
 9385SOL     OW39787   4.187   3.849   1.774  0.1704  0.3690 -0.2705
 9385SOL    HW139788   4.171   3.763   1.733  0.1583 -1.0168  2.6713
 9385SOL    HW239789   4.094   3.874   1.767 -0.2549 -1.2497 -0.4145
 9386SOL     OW39790   3.260   3.622  13.678 -0.2346  0.5199 -0.6287
 9386SOL    HW139791   3.172   3.641  13.708 -0.7265 -0.4780 -1.4331
 9386SOL    HW239792   3.241   3.560  13.607 -1.5956  0.9009 -0.5863
 9387SOL     OW39793   2.698   4.062   7.605 -0.1444 -0.4525  0.5485
 9387SOL    HW139794   2.680   3.975   7.569  0.4433  0.0438 -0.9643
 9387SOL    HW239795   2.792   4.075   7.598 -0.1096 -0.5668  0.8273
 9388SOL     OW39796   0.806   3.501   2.726  0.4392  0.3890  0.1954
 9388SOL    HW139797   0.868   3.476   2.795  0.4261  0.6176  0.2886
 9388SOL    HW239798   0.846   3.572   2.675  0.9123  0.7643  1.0878
 9389SOL     OW39799   2.903   3.396   5.182  0.0515  0.1850  0.1061
 9389SOL    HW139800   2.888   3.490   5.195 -1.4830 -0.0037 -0.2921
 9389SOL    HW239801   2.965   3.370   5.250  0.9577 -2.7227 -1.8246
 9390SOL     OW39802   1.628   0.095   8.449 -0.9215  0.0624  0.1059
 9390SOL    HW139803   1.577   0.174   8.463  3.3894  2.9652 -0.6036
 9390SOL    HW239804   1.701   0.135   8.402  0.0216 -1.4715  0.2410
 9391SOL     OW39805   0.759   4.434  17.044 -0.3106 -0.2684 -0.3723
 9391SOL    HW139806   0.684   4.443  16.986 -0.2114 -2.7756 -0.8709
 9391SOL    HW239807   0.723   4.414  17.130 -0.9050 -0.0721 -0.5747
 9392SOL     OW39808   1.765   2.108   7.281  0.3875  0.1964  0.3992
 9392SOL    HW139809   1.775   2.015   7.303 -0.4066  0.1063  0.3816
 9392SOL    HW239810   1.770   2.105   7.186 -0.2601 -0.6875  0.3911
 9393SOL     OW39811   1.828   4.044   0.846  0.2591 -0.1442  0.0702
 9393SOL    HW139812   1.878   3.973   0.805 -1.4741 -2.0735  1.3147
 9393SOL    HW239813   1.801   4.092   0.768  1.8886 -0.8481 -0.9232
 9394SOL     OW39814   0.364   3.946   9.017 -0.3350 -0.8632 -0.2211
 9394SOL    HW139815   0.456   3.958   8.993 -0.1602  0.8704  1.3402
 9394SOL    HW239816   0.321   3.994   8.947  0.6671  0.3140 -0.0418
 9395SOL     OW39817   3.935   2.041   4.026 -0.1320  1.0624 -0.0501
 9395SOL    HW139818   3.962   1.950   4.015 -1.5656  0.1363  4.2917
 9395SOL    HW239819   3.909   2.057   3.935  1.6793  1.1894 -0.5606
 9396SOL     OW39820   3.282   4.657  11.458  0.0127  0.2026 -0.4041
 9396SOL    HW139821   3.333   4.581  11.427 -2.8295 -0.8721 -2.4905
 9396SOL    HW239822   3.345   4.724  11.482 -0.0405 -0.7338  2.3763
 9397SOL     OW39823   3.655   0.270   4.402 -0.0694 -0.1346  0.4026
 9397SOL    HW139824   3.732   0.274   4.459 -1.1823 -2.8097  2.0773
 9397SOL    HW239825   3.691   0.214   4.334 -1.1310  1.4994 -1.5449
 9398SOL     OW39826   0.332   1.528  17.695 -0.1782  0.3397 -0.4092
 9398SOL    HW139827   0.321   1.456   0.002  0.6418 -0.3998 -1.1039
 9398SOL    HW239828   0.410   1.562  17.739  1.3247 -0.9581 -2.0562
 9399SOL     OW39829   4.575   3.283   8.428  0.5515 -0.4883  0.3806
 9399SOL    HW139830   4.615   3.346   8.488  2.6701  0.1362 -1.6920
 9399SOL    HW239831   4.654   3.231   8.416  0.2844 -0.1398 -2.7347
 9400SOL     OW39832   1.597   0.842   5.056  0.2341  0.3896 -0.4385
 9400SOL    HW139833   1.565   0.932   5.049  2.7143  1.2728 -0.2781
 9400SOL    HW239834   1.605   0.831   5.151 -1.8038 -2.8926 -0.6311
 9401SOL     OW39835   3.814   3.736   6.723 -0.4725 -0.5443 -0.1291
 9401SOL    HW139836   3.874   3.788   6.776 -1.9236 -0.9158  1.8766
 9401SOL    HW239837   3.786   3.672   6.789  1.6532 -0.7069  0.6243
 9402SOL     OW39838   1.928   2.105   6.590 -0.2661 -0.2100  0.0568
 9402SOL    HW139839   1.939   2.163   6.665  1.2590  0.7290 -0.8974
 9402SOL    HW239840   1.990   2.143   6.528 -2.4532  1.6428 -0.9748
 9403SOL     OW39841   3.045   2.682   6.975  0.4829 -0.0908  0.6590
 9403SOL    HW139842   2.966   2.631   6.992  1.1352 -1.3337 -0.0499
 9403SOL    HW239843   3.010   2.771   6.984  0.1207 -0.0127 -1.5179
 9404SOL     OW39844   0.924   0.006   5.031 -0.5933 -0.3002 -0.4252
 9404SOL    HW139845   0.955   0.079   5.084  0.6799  0.0773 -1.7054
 9404SOL    HW239846   1.005   4.734   4.983  0.9483  0.4363  2.0052
 9405SOL     OW39847   0.090   0.534   2.670 -0.2115  0.1487 -0.2445
 9405SOL    HW139848   0.137   0.515   2.588  2.4093  1.9610  0.8408
 9405SOL    HW239849   0.164   0.570   2.718 -0.0265  1.7150 -1.6773
 9406SOL     OW39850   0.857   3.829   6.952 -0.5129  0.1943  1.0413
 9406SOL    HW139851   0.938   3.801   6.993 -0.3051 -0.2474  0.3279
 9406SOL    HW239852   0.887   3.912   6.916  0.1101 -0.7724 -0.6807
 9407SOL     OW39853   1.062   1.336  16.431 -0.6363  1.1610  0.5054
 9407SOL    HW139854   1.041   1.412  16.376  1.1414  2.1138  1.1408
 9407SOL    HW239855   1.009   1.351  16.509 -1.1696 -1.1049  0.5898
 9408SOL     OW39856   4.314   4.399  15.685 -0.4084  0.0441 -0.2553
 9408SOL    HW139857   4.244   4.444  15.637 -0.8480 -0.1304  0.2237
 9408SOL    HW239858   4.352   4.471  15.736 -0.3968 -1.3495  1.6602
 9409SOL     OW39859   1.039   1.974   4.640 -0.1357  0.1957  0.0135
 9409SOL    HW139860   0.989   1.893   4.630 -0.8244  0.6812 -0.5242
 9409SOL    HW239861   1.109   1.932   4.691  0.6874 -0.4663 -1.6505
 9410SOL     OW39862   1.198   3.674   3.393 -0.1706  0.4331  0.1866
 9410SOL    HW139863   1.233   3.682   3.304  0.5237  1.9298  0.5888
 9410SOL    HW239864   1.233   3.741   3.451  1.0627 -2.4413  2.7955
 9411SOL     OW39865   2.186   0.349  11.363  0.5139 -0.0647 -0.2601
 9411SOL    HW139866   2.281   0.362  11.356  0.7727 -1.6017  0.1970
 9411SOL    HW239867   2.176   0.266  11.315 -0.0808 -0.5524  0.6961
 9412SOL     OW39868   2.052   2.511   8.538  0.7649 -0.1090 -0.4509
 9412SOL    HW139869   2.138   2.509   8.497  0.3688  2.2941 -1.4251
 9412SOL    HW239870   2.084   2.551   8.619  0.8226 -1.0628  0.0011
 9413SOL     OW39871   0.692   3.726   7.153  0.1013 -0.4993  0.2637
 9413SOL    HW139872   0.632   3.795   7.180  0.0083 -1.1753  1.7608
 9413SOL    HW239873   0.748   3.774   7.091 -0.4345 -0.4482 -0.1829
 9414SOL     OW39874   4.098   0.474   5.761  0.3993 -0.0896 -0.0556
 9414SOL    HW139875   4.132   0.399   5.811 -0.9646  0.7326  2.1278
 9414SOL    HW239876   4.016   0.493   5.807  1.7323  2.9092  1.0963
 9415SOL     OW39877   3.314   4.646   7.698 -0.1127 -0.5069  0.0393
 9415SOL    HW139878   3.347   4.556   7.693 -1.5585 -1.0137 -0.5881
 9415SOL    HW239879   3.233   4.625   7.744  1.0376 -0.5303  2.0633
 9416SOL     OW39880   3.688   3.183  15.954  0.5755  0.0739 -0.1043
 9416SOL    HW139881   3.669   3.122  15.883  0.0659  0.5593 -0.3892
 9416SOL    HW239882   3.775   3.215  15.929 -0.4575  3.0100  0.0146
 9417SOL     OW39883   0.170   2.071   2.308 -0.5180  0.0154  0.2950
 9417SOL    HW139884   0.213   2.093   2.391 -2.1457  1.2209  0.8073
 9417SOL    HW239885   0.132   2.157   2.290  2.9859  1.2386 -1.2641
 9418SOL     OW39886   3.910   2.941   6.676 -0.1243 -0.1506 -0.0736
 9418SOL    HW139887   3.823   2.941   6.635 -0.9179 -0.4687  1.6250
 9418SOL    HW239888   3.894   2.986   6.758 -2.0531 -2.1530  0.6497
 9419SOL     OW39889   3.338   3.584  13.012  0.0598 -0.2926  0.4838
 9419SOL    HW139890   3.424   3.548  12.986  0.8791  2.4778 -0.6585
 9419SOL    HW239891   3.329   3.531  13.091 -2.6613  0.6402  0.7983
 9420SOL     OW39892   3.115   1.833  12.833  0.0956  0.3731 -0.7598
 9420SOL    HW139893   3.129   1.744  12.866  2.1733  0.2051 -2.0709
 9420SOL    HW239894   3.170   1.838  12.755 -1.0367 -0.2060 -1.5745
 9421SOL     OW39895   4.530   3.870   5.820 -0.2124  0.2626 -0.1007
 9421SOL    HW139896   4.615   3.829   5.805 -0.2273  1.2165 -2.7589
 9421SOL    HW239897   4.484   3.876   5.736 -0.5934 -0.2979  0.0649
 9422SOL     OW39898   0.259   2.983  11.311  0.2185 -0.1067 -0.2260
 9422SOL    HW139899   0.258   3.076  11.332 -0.0925  0.0613 -0.9735
 9422SOL    HW239900   0.342   2.986  11.263 -1.2157 -2.7269 -2.8565
 9423SOL     OW39901   3.866   3.896   3.583 -0.3127 -0.5690 -0.3117
 9423SOL    HW139902   3.946   3.886   3.531 -0.2415  0.9871 -0.5012
 9423SOL    HW239903   3.814   3.911   3.503 -0.6973  0.0771  0.0528
 9424SOL     OW39904   4.285   2.538   7.494  0.4011 -0.9410  0.4912
 9424SOL    HW139905   4.215   2.518   7.556 -0.3176 -1.7498 -0.5716
 9424SOL    HW239906   4.299   2.453   7.452 -0.1913 -0.4798 -0.6407
 9425SOL     OW39907   1.643   3.434  15.829 -0.8938  1.1041  0.6173
 9425SOL    HW139908   1.615   3.453  15.739  1.7302  1.9973  0.0005
 9425SOL    HW239909   1.723   3.487  15.831  0.3344 -0.8624  2.3184
 9426SOL     OW39910   0.716   1.051   0.683 -0.0151 -0.0671  0.2018
 9426SOL    HW139911   0.632   1.085   0.713 -0.0162  2.3377 -2.4930
 9426SOL    HW239912   0.697   1.028   0.592  1.7498  0.7363 -0.3829
 9427SOL     OW39913   0.289   4.515   9.663  0.3900  0.0459  0.2244
 9427SOL    HW139914   0.316   4.598   9.701 -0.0251  0.4648 -0.3983
 9427SOL    HW239915   0.375   4.475   9.651  0.7509  0.9744 -0.2558
 9428SOL     OW39916   3.526   3.367   8.672  0.3734 -0.2358 -0.2442
 9428SOL    HW139917   3.504   3.274   8.664 -0.8091  0.1250 -1.1826
 9428SOL    HW239918   3.488   3.394   8.755 -2.1062 -1.3359 -1.0229
 9429SOL     OW39919   2.141   1.167  10.169  0.2424  0.2444 -0.4406
 9429SOL    HW139920   2.190   1.228  10.224 -0.4820  0.3870  0.0414
 9429SOL    HW239921   2.049   1.182  10.192  0.7548  2.7946 -0.0459
 9430SOL     OW39922   3.721   4.391   7.149  0.2631  0.5204  0.1740
 9430SOL    HW139923   3.660   4.363   7.080 -1.0085  1.1004  1.0801
 9430SOL    HW239924   3.662   4.373   7.221  1.4485 -0.2504  0.9607
 9431SOL     OW39925   4.370   2.009   2.178 -0.6955 -0.2836  0.5697
 9431SOL    HW139926   4.288   2.059   2.186  0.2805  0.8389  3.4255
 9431SOL    HW239927   4.424   2.067   2.125 -2.0480  0.8374  0.4151
 9432SOL     OW39928   2.273   3.723  16.466  0.2862  0.3140 -0.2628
 9432SOL    HW139929   2.222   3.742  16.387  0.7794 -0.0238 -0.6654
 9432SOL    HW239930   2.267   3.807  16.512  0.0689 -0.4596  1.1090
 9433SOL     OW39931   0.916   2.211   6.554 -0.0530 -0.0776  0.0995
 9433SOL    HW139932   0.924   2.305   6.570 -1.9584  0.3155 -1.1597
 9433SOL    HW239933   0.981   2.175   6.614  0.3373 -0.0501 -0.3038
 9434SOL     OW39934   2.864   4.580   3.101  0.4230  0.3048  0.4182
 9434SOL    HW139935   2.908   4.498   3.126 -0.9353 -0.0511  1.6289
 9434SOL    HW239936   2.882   4.635   3.178 -0.1547  0.0123  0.7601
 9435SOL     OW39937   0.767   2.755   3.608  0.3741  0.1775 -0.6078
 9435SOL    HW139938   0.701   2.686   3.613 -0.6011  1.1460 -0.0761
 9435SOL    HW239939   0.716   2.822   3.654  0.8980  0.2339 -0.1144
 9436SOL     OW39940   0.180   4.224   5.303  0.3343 -0.2609  0.8139
 9436SOL    HW139941   0.173   4.163   5.229  0.1883 -1.1307  1.5348
 9436SOL    HW239942   0.263   4.201   5.343  0.6217  0.5320  0.6619
 9437SOL     OW39943   0.466   3.069   2.321 -0.5500  0.2965 -0.3905
 9437SOL    HW139944   0.432   3.110   2.400  2.1525  0.2018  0.8433
 9437SOL    HW239945   0.511   3.143   2.280  1.0853  0.0594  0.9912
 9438SOL     OW39946   0.869   4.106  13.091 -0.5399 -0.1462 -0.9502
 9438SOL    HW139947   0.896   4.023  13.053 -3.1742 -0.1744 -2.7861
 9438SOL    HW239948   0.802   4.133  13.028 -0.8877  0.4861 -0.3142
 9439SOL     OW39949   4.467   2.070   3.592  0.3569  0.6195  0.7414
 9439SOL    HW139950   4.536   2.137   3.597  0.7334  0.3345 -0.6232
 9439SOL    HW239951   4.507   2.017   3.660  0.7629  0.8397  0.6741
 9440SOL     OW39952   4.549   2.594   5.375 -0.0485  0.2368  0.4815
 9440SOL    HW139953   4.477   2.657   5.362 -0.3347 -0.9775 -3.6465
 9440SOL    HW239954   4.510   2.519   5.419 -1.5997  0.9292  0.3097
 9441SOL     OW39955   2.046   0.755   5.568  0.3826 -0.2845  0.1030
 9441SOL    HW139956   1.966   0.716   5.532 -1.0253  2.8455 -0.2078
 9441SOL    HW239957   2.102   0.683   5.541 -0.4166 -0.5635 -0.7987
 9442SOL     OW39958   3.018   3.854   4.454  0.4455 -0.5221  0.4415
 9442SOL    HW139959   3.037   3.933   4.403 -1.8858  0.5760  1.2911
 9442SOL    HW239960   3.032   3.899   4.537 -3.4766 -0.2804  0.9870
 9443SOL     OW39961   3.213   3.510   3.936 -0.2116  0.0103  0.7616
 9443SOL    HW139962   3.141   3.447   3.936  0.1745 -0.4275 -1.4431
 9443SOL    HW239963   3.287   3.450   3.921 -0.3144 -0.2406  1.2490
 9444SOL     OW39964   1.624   0.353   9.376 -1.1605 -0.4980 -0.5210
 9444SOL    HW139965   1.693   0.286   9.371  0.8751  1.5699 -0.3505
 9444SOL    HW239966   1.651   0.410   9.305  1.3201 -3.2227 -1.7625
 9445SOL     OW39967   3.475   1.043   9.859  0.0219  0.3525  0.4502
 9445SOL    HW139968   3.564   1.077   9.869 -0.4306  2.2204 -2.0028
 9445SOL    HW239969   3.496   0.950   9.869 -0.3193  0.2794  0.4700
 9446SOL     OW39970   1.389   3.589   0.929  0.7028  0.7131  0.3443
 9446SOL    HW139971   1.441   3.535   0.870 -0.0286  1.1729 -0.7260
 9446SOL    HW239972   1.394   3.532   1.006 -0.0259 -1.1304 -0.9955
 9447SOL     OW39973   2.686   3.061   8.145  0.8142  0.1866 -0.2346
 9447SOL    HW139974   2.772   3.077   8.105  0.4839 -0.9511 -1.4126
 9447SOL    HW239975   2.633   3.114   8.085 -0.7683 -0.7334  0.3505
 9448SOL     OW39976   0.096   3.562  16.873  0.5891  0.0832  0.3969
 9448SOL    HW139977   0.124   3.647  16.908 -1.6083  0.8470  0.2941
 9448SOL    HW239978   0.117   3.498  16.940  2.0599 -2.5742 -2.6269
 9449SOL     OW39979   4.012   4.053   5.657 -0.0057 -0.0430  0.1825
 9449SOL    HW139980   3.964   3.970   5.654 -2.1911  1.2433 -0.6378
 9449SOL    HW239981   3.963   4.098   5.727 -0.6779 -1.1556  0.4248
 9450SOL     OW39982   4.419   1.022  15.773  0.0428  0.3432 -0.2296
 9450SOL    HW139983   4.350   1.077  15.810 -0.4923  0.9863 -2.1650
 9450SOL    HW239984   4.463   0.994  15.853  1.3522  1.0081 -0.7051
 9451SOL     OW39985   0.403   3.429  12.158  0.0782  0.3289  0.3748
 9451SOL    HW139986   0.337   3.396  12.097  1.0676 -0.1936 -0.4241
 9451SOL    HW239987   0.469   3.373  12.116 -1.3301 -2.5625  2.0172
 9452SOL     OW39988   0.798   0.445  13.474 -0.3646 -0.2221  0.1470
 9452SOL    HW139989   0.751   0.380  13.525 -1.6692  0.6787  0.0924
 9452SOL    HW239990   0.868   0.461  13.538 -0.2832 -2.0262  0.4969
 9453SOL     OW39991   2.569   3.645  10.397 -0.0746  0.1077 -0.5223
 9453SOL    HW139992   2.630   3.708  10.437 -0.4574 -0.7638  1.4509
 9453SOL    HW239993   2.558   3.587  10.473 -0.0138  1.3256  0.4174
 9454SOL     OW39994   3.454   0.520   3.676 -0.6296  0.2032 -0.5470
 9454SOL    HW139995   3.516   0.548   3.609 -0.5860 -3.1007 -1.9170
 9454SOL    HW239996   3.464   0.603   3.722 -0.1034  1.4025 -2.8291
 9455SOL     OW39997   2.230   2.934  14.042  0.6162 -0.2714  0.1935
 9455SOL    HW139998   2.161   2.991  14.010  1.4581  1.2917  1.1550
 9455SOL    HW239999   2.305   2.994  14.038 -0.0521  0.3540 -3.0196
 9456SOL     OW40000   0.759   0.604  16.406 -0.4331 -0.4207  0.0332
 9456SOL    HW140001   0.703   0.619  16.329  0.1440 -2.1219 -0.7141
 9456SOL    HW240002   0.805   0.688  16.404 -0.0736 -0.6390 -0.8254
 9457SOL     OW40003   2.848   0.072   8.701 -0.0542 -0.3623  0.2328
 9457SOL    HW140004   2.819   4.735   8.750  1.4287 -0.9048  0.2663
 9457SOL    HW240005   2.820   0.150   8.751  1.7136  1.7153 -2.0222
 9458SOL     OW40006   3.044   1.986  13.843 -0.2665  0.3290 -0.2959
 9458SOL    HW140007   3.071   1.976  13.752  2.1287  0.6846  0.3805
 9458SOL    HW240008   3.129   2.015  13.878  0.5812 -1.3903 -0.9570
 9459SOL     OW40009   3.060   3.213   7.649 -0.2583  1.1429 -0.1649
 9459SOL    HW140010   3.012   3.134   7.623  1.3027 -0.1389  0.8660
 9459SOL    HW240011   2.985   3.269   7.670 -1.2829 -1.0076  1.9366
 9460SOL     OW40012   2.429   2.802   1.634 -0.0741  0.5001 -0.2392
 9460SOL    HW140013   2.367   2.831   1.568 -1.9842 -0.4430  1.1536
 9460SOL    HW240014   2.500   2.865   1.648 -0.9461  1.2486  0.8861
 9461SOL     OW40015   0.382   1.950   7.868 -0.2568  0.8312  0.0939
 9461SOL    HW140016   0.342   1.887   7.809  1.2828 -0.0355 -0.0427
 9461SOL    HW240017   0.349   2.036   7.844 -2.4176  0.6059  2.2497
 9462SOL     OW40018   1.495   0.136   1.156 -0.3700  0.6671  0.1420
 9462SOL    HW140019   1.507   0.116   1.248  1.1445 -0.9303 -0.4005
 9462SOL    HW240020   1.413   0.186   1.153 -1.1766 -0.6119  0.6293
 9463SOL     OW40021   2.398   0.689   2.097 -0.4113  0.3076  0.1261
 9463SOL    HW140022   2.370   0.760   2.155  0.5955  0.7538  0.0799
 9463SOL    HW240023   2.348   0.691   2.016 -0.8768  0.4025  0.4176
 9464SOL     OW40024   0.024   4.368  11.344  0.0247 -0.0453 -0.4454
 9464SOL    HW140025   4.672   4.388  11.327  0.4587  1.1204 -1.4276
 9464SOL    HW240026   0.047   4.428  11.415 -2.1761 -2.4635  2.3266
 9465SOL     OW40027   2.695   3.417   3.591 -0.4376 -0.6148  0.0205
 9465SOL    HW140028   2.698   3.327   3.558  1.5554 -0.6188  0.1979
 9465SOL    HW240029   2.697   3.460   3.505  0.4689  1.9295  1.3060
 9466SOL     OW40030   2.660   0.609   2.385  0.1391  0.0955 -0.2318
 9466SOL    HW140031   2.649   0.698   2.350 -2.0185 -0.7908 -1.8226
 9466SOL    HW240032   2.749   0.615   2.419  0.1874  1.3291 -0.5702
 9467SOL     OW40033   3.193   0.142   3.150 -0.1997 -0.0913 -0.1320
 9467SOL    HW140034   3.287   0.124   3.146 -0.1400  0.2964 -0.3919
 9467SOL    HW240035   3.158   0.140   3.061  2.2256 -0.0533 -1.0656
 9468SOL     OW40036   0.168   4.552   6.964  0.1024 -0.0352  0.7894
 9468SOL    HW140037   0.244   4.495   6.954 -0.8394 -1.2415  0.5267
 9468SOL    HW240038   0.111   4.492   7.013  1.1663 -1.1732  0.6147
 9469SOL     OW40039   1.703   2.180   3.520 -0.5182 -0.1570  0.2414
 9469SOL    HW140040   1.624   2.129   3.502 -1.4471  1.9678 -1.7626
 9469SOL    HW240041   1.666   2.257   3.563 -3.2979 -2.5572  2.1298
 9470SOL     OW40042   2.339   1.325   4.877  0.4305 -0.5014 -0.7572
 9470SOL    HW140043   2.303   1.236   4.871 -0.6269 -0.0139 -1.5829
 9470SOL    HW240044   2.362   1.315   4.969 -1.1826 -1.0594 -0.4113
 9471SOL     OW40045   2.178   4.641   1.366  0.2722  0.0522 -0.0551
 9471SOL    HW140046   2.096   4.621   1.321 -0.7903 -1.1618  2.4069
 9471SOL    HW240047   2.235   4.609   1.296  0.6187 -1.0375  0.7328
 9472SOL     OW40048   0.959   0.023   5.483  0.0715 -0.1365  0.6156
 9472SOL    HW140049   0.918   4.738   5.566 -0.4166  1.0484  0.7161
 9472SOL    HW240050   0.917   4.697   5.428  0.9367 -0.0520 -0.1449
 9473SOL     OW40051   0.283   1.093  15.667  0.2687  0.0642 -0.0497
 9473SOL    HW140052   0.279   1.182  15.703  3.5514 -0.2255  0.9873
 9473SOL    HW240053   0.279   1.036  15.744  1.9769 -0.3181 -0.2550
 9474SOL     OW40054   3.750   1.556   8.736 -0.4371 -0.3500  0.3997
 9474SOL    HW140055   3.710   1.483   8.783 -2.3325  1.3294  1.3538
 9474SOL    HW240056   3.752   1.520   8.648 -0.6959  1.6508 -0.4299
 9475SOL     OW40057   4.036   2.704   4.235 -0.7217 -0.2970  0.0062
 9475SOL    HW140058   4.044   2.614   4.204  0.0373  0.1492 -1.0768
 9475SOL    HW240059   3.965   2.680   4.295 -0.9308  0.4567  0.0614
 9476SOL     OW40060   3.225   1.909  16.516 -0.0332  0.6388 -0.4224
 9476SOL    HW140061   3.196   1.879  16.603 -0.8870 -0.3631 -1.0517
 9476SOL    HW240062   3.217   1.830  16.463 -1.1206  0.0067  0.6655
 9477SOL     OW40063   0.425   1.110  13.605 -0.3635  0.2554 -0.7543
 9477SOL    HW140064   0.478   1.184  13.576  0.2213  0.2049  0.1859
 9477SOL    HW240065   0.338   1.151  13.597 -0.9809 -0.8628  0.2426
 9478SOL     OW40066   0.281   2.030  12.341  0.2222  0.4181  0.9453
 9478SOL    HW140067   0.340   2.059  12.410  1.2263 -0.6932  0.5427
 9478SOL    HW240068   0.194   2.043  12.378  1.2156  2.6739  2.5089
 9479SOL     OW40069   3.661   0.796   7.788  0.1585  0.0142  0.0298
 9479SOL    HW140070   3.618   0.733   7.730 -3.2624  2.0933  0.3460
 9479SOL    HW240071   3.737   0.818   7.734 -0.4713  2.8106  0.3066
 9480SOL     OW40072   1.636   0.142   5.808  0.4490 -0.4306 -0.9287
 9480SOL    HW140073   1.606   0.232   5.823 -0.8046 -1.0990  0.5041
 9480SOL    HW240074   1.589   0.133   5.725  1.4213 -0.8935 -1.4334
 9481SOL     OW40075   4.358   1.027   5.916 -0.0836  0.3306 -0.1364
 9481SOL    HW140076   4.280   0.977   5.894 -0.1579  1.2054 -1.8250
 9481SOL    HW240077   4.359   1.098   5.852  2.7149  0.5372  0.1244
 9482SOL     OW40078   2.724   1.911   5.501 -0.6902  0.7352  0.0762
 9482SOL    HW140079   2.769   1.981   5.549  2.2523 -0.2903 -1.1815
 9482SOL    HW240080   2.758   1.834   5.548 -0.1929 -0.2617 -1.9002
 9483SOL     OW40081   1.022   0.180   5.218 -0.1828  0.5856  0.1416
 9483SOL    HW140082   0.991   0.102   5.264 -1.9689  0.2038 -1.7369
 9483SOL    HW240083   1.083   0.214   5.284 -1.2261 -1.0661  1.9689
 9484SOL     OW40084   3.470   2.915   5.070 -0.0185 -0.0147 -0.0918
 9484SOL    HW140085   3.483   2.904   4.976  3.1510 -1.7605  0.5502
 9484SOL    HW240086   3.541   2.861   5.104 -0.3548  0.6447  1.6745
 9485SOL     OW40087   1.950   0.389  17.691  0.4513  0.6289  0.4548
 9485SOL    HW140088   1.907   0.425   0.013 -2.3516 -1.4956 -0.1138
 9485SOL    HW240089   1.912   0.449  17.626  0.1853  2.5341  2.3490
 9486SOL     OW40090   0.976   3.977   5.747  0.2786 -0.3529  0.2399
 9486SOL    HW140091   0.965   3.884   5.728 -0.7136 -0.7014  2.4974
 9486SOL    HW240092   1.041   3.963   5.816  0.2301 -0.0216  0.3541
 9487SOL     OW40093   1.395   3.232  14.287  0.0061  0.4331 -0.1854
 9487SOL    HW140094   1.366   3.323  14.285 -0.2613  0.3497 -0.1521
 9487SOL    HW240095   1.490   3.244  14.281  0.3259 -0.7653  2.2087
 9488SOL     OW40096   4.487   4.618   6.103 -0.0196 -0.7171 -0.3717
 9488SOL    HW140097   4.463   4.531   6.072 -1.0133 -1.0885  1.4809
 9488SOL    HW240098   4.435   4.623   6.183  2.8621 -2.0156  1.5909
 9489SOL     OW40099   1.550   2.311   8.196  0.4114  0.7158  0.3143
 9489SOL    HW140100   1.522   2.303   8.105  0.6792 -0.9158  0.3789
 9489SOL    HW240101   1.492   2.248   8.238  1.5067  0.6808  1.7858
 9490SOL     OW40102   1.405   2.854   2.030  0.3111 -0.1339  0.2460
 9490SOL    HW140103   1.470   2.805   1.979  1.4551  2.1438 -0.4789
 9490SOL    HW240104   1.326   2.806   2.006  0.4606 -1.1043  1.6825
 9491SOL     OW40105   4.010   4.055   3.056  0.0018  0.5376  0.0110
 9491SOL    HW140106   4.074   4.009   3.109 -0.5640  0.3131  0.5006
 9491SOL    HW240107   3.982   3.988   2.993  1.6092  1.6663 -1.9075
 9492SOL     OW40108   3.355   4.290   5.380  0.2789 -0.0738  0.8231
 9492SOL    HW140109   3.309   4.368   5.348  1.8395  0.8886  0.9072
 9492SOL    HW240110   3.432   4.297   5.324  1.4862 -0.9931  2.3806
 9493SOL     OW40111   4.720   1.337   9.086 -0.1373  0.2749 -0.5124
 9493SOL    HW140112   4.674   1.265   9.044  1.0017 -0.4137 -0.5860
 9493SOL    HW240113   0.009   1.294   9.167  0.7032  2.4303  0.3640
 9494SOL     OW40114   1.973   1.089   4.719 -0.2168  0.1881 -0.2242
 9494SOL    HW140115   1.993   1.182   4.714 -1.1719  0.1694 -4.7146
 9494SOL    HW240116   2.060   1.056   4.697  0.0395  2.1791 -2.1983
 9495SOL     OW40117   3.337   3.307   7.664  0.0519  0.1191  0.1805
 9495SOL    HW140118   3.241   3.306   7.664  0.0395  1.6680  0.2410
 9495SOL    HW240119   3.349   3.258   7.583  0.4551  1.8187 -0.7863
 9496SOL     OW40120   4.460   2.468   7.085  0.2238  0.3654  0.1381
 9496SOL    HW140121   4.382   2.499   7.039  0.9927  0.0111 -1.3945
 9496SOL    HW240122   4.448   2.521   7.164  1.9274 -0.3821  0.8758
 9497SOL     OW40123   2.243   4.217   4.807 -0.0770 -0.5264 -0.0937
 9497SOL    HW140124   2.301   4.269   4.752  0.4453  0.3629  1.2766
 9497SOL    HW240125   2.271   4.252   4.892 -0.0054  3.3549 -1.7039
 9498SOL     OW40126   4.196   1.164   1.585  0.1095  0.4244 -0.0387
 9498SOL    HW140127   4.256   1.100   1.623  0.4236  0.3709 -0.6199
 9498SOL    HW240128   4.158   1.107   1.519 -0.9102 -0.3809  1.2492
 9499SOL     OW40129   3.231   1.540   1.162 -0.5682 -0.0308  0.4876
 9499SOL    HW140130   3.205   1.597   1.089  0.0616 -1.4946 -0.8784
 9499SOL    HW240131   3.181   1.564   1.240 -1.5596 -0.9465  0.1266
 9500SOL     OW40132   4.059   3.972   0.054 -0.5022 -0.0215  0.6436
 9500SOL    HW140133   4.048   4.066   0.038 -0.4739 -0.0509  0.4525
 9500SOL    HW240134   4.101   3.968   0.140  1.2947  3.1869 -0.0952
 9501SOL     OW40135   2.844   0.724   8.933  0.2110 -0.3151 -0.1255
 9501SOL    HW140136   2.781   0.703   8.863 -0.7667  0.1833  0.6076
 9501SOL    HW240137   2.875   0.634   8.941 -0.5762 -0.5685  0.1491
 9502SOL     OW40138   3.968   1.901   3.005  0.2539 -0.1824  0.1336
 9502SOL    HW140139   4.062   1.885   3.004  0.1572 -0.7083 -0.2217
 9502SOL    HW240140   3.943   1.900   2.913  3.1137 -0.5493 -0.6105
 9503SOL     OW40141   4.291   2.538   1.401 -0.2058 -0.1062  0.2664
 9503SOL    HW140142   4.214   2.486   1.424 -1.2186  1.3653  0.1986
 9503SOL    HW240143   4.268   2.626   1.430 -2.0750  0.6393 -3.3540
 9504SOL     OW40144   0.064   2.582   9.690 -0.5284  0.1772 -0.2039
 9504SOL    HW140145   0.055   2.490   9.715  1.5966  0.2842  0.9359
 9504SOL    HW240146   0.039   2.568   9.599  0.7792 -2.1722 -0.2141
 9505SOL     OW40147   3.570   1.603   9.618  0.6870  0.5052  0.3864
 9505SOL    HW140148   3.502   1.669   9.632 -1.4152 -1.3746 -0.7733
 9505SOL    HW240149   3.519   1.523   9.605 -1.5042  1.4401  3.1503
 9506SOL     OW40150   1.977   1.460   1.579  0.5150 -0.2680 -0.5233
 9506SOL    HW140151   1.953   1.548   1.552  0.2623 -0.4163 -0.7927
 9506SOL    HW240152   2.067   1.465   1.611  0.7869  3.1277 -1.9086
 9507SOL     OW40153   3.664   0.886  10.180  0.4973 -0.0615  0.6062
 9507SOL    HW140154   3.705   0.970  10.159 -0.5975  0.4567  0.5355
 9507SOL    HW240155   3.620   0.910  10.262 -1.6389 -2.4812  0.1457
 9508SOL     OW40156   2.539   3.747   2.201  0.5255 -0.1167 -0.2692
 9508SOL    HW140157   2.632   3.771   2.202  0.5547 -0.2287 -0.2698
 9508SOL    HW240158   2.516   3.766   2.292  1.7260  2.2754 -0.4614
 9509SOL     OW40159   2.964   1.898   4.898  0.2533 -0.1957 -0.1251
 9509SOL    HW140160   3.029   1.833   4.871 -1.4324 -1.6529 -0.6796
 9509SOL    HW240161   2.890   1.839   4.911  1.3154 -1.6521 -0.6903
 9510SOL     OW40162   0.550   3.802   9.400 -0.6619 -0.1729 -0.7698
 9510SOL    HW140163   0.481   3.861   9.368 -0.3235  1.3087  1.2834
 9510SOL    HW240164   0.514   3.768   9.481 -1.2006 -0.4259 -1.1132
 9511SOL     OW40165   1.952   3.055   5.763 -0.1319  1.4495 -0.4119
 9511SOL    HW140166   1.960   3.071   5.857  0.3108 -0.7898 -0.0733
 9511SOL    HW240167   1.886   2.986   5.766 -1.6951  2.9012 -1.4396
 9512SOL     OW40168   4.100   1.593  12.712 -0.0020  0.0571  0.1236
 9512SOL    HW140169   4.098   1.688  12.725 -0.6027  0.6953 -4.6685
 9512SOL    HW240170   4.014   1.573  12.675  1.0671 -0.6319 -1.9416
 9513SOL     OW40171   1.666   4.094   9.962 -0.5318 -0.4444 -0.3613
 9513SOL    HW140172   1.750   4.072   9.922 -2.1884 -1.7136 -3.1696
 9513SOL    HW240173   1.703   4.113  10.048 -0.8202 -1.6052  0.0256
 9514SOL     OW40174   1.379   1.904  15.310 -0.2922 -0.1005 -0.3157
 9514SOL    HW140175   1.300   1.957  15.300  0.5026  1.0488 -0.4927
 9514SOL    HW240176   1.439   1.966  15.269  0.9966 -1.7580 -0.9221
 9515SOL     OW40177   2.528   3.253   7.150  0.3784  0.0960 -0.1908
 9515SOL    HW140178   2.446   3.204   7.142 -0.1220  1.1109 -1.3709
 9515SOL    HW240179   2.498   3.343   7.137  2.2321  0.6414 -0.6789
 9516SOL     OW40180   3.027   2.672   8.801 -0.1600 -0.1087  0.2255
 9516SOL    HW140181   2.974   2.631   8.733  0.8786 -1.7776  0.4094
 9516SOL    HW240182   3.076   2.741   8.757  2.6071 -1.2057  1.5840
 9517SOL     OW40183   3.823   2.458   7.575  0.8258 -0.1049 -0.5835
 9517SOL    HW140184   3.860   2.370   7.587  1.4087  0.0071 -1.6443
 9517SOL    HW240185   3.748   2.466   7.634  1.2828  2.6088 -0.3900
 9518SOL     OW40186   0.099   2.181   7.155 -0.5384 -0.3409  0.0772
 9518SOL    HW140187   0.023   2.157   7.102 -0.6425  2.5204 -1.0946
 9518SOL    HW240188   0.176   2.202   7.101  0.9181 -0.8539  1.9752
 9519SOL     OW40189   2.811   0.714   7.800 -0.2981 -0.0050 -0.7438
 9519SOL    HW140190   2.734   0.737   7.748  0.1076  1.2121 -0.8143
 9519SOL    HW240191   2.768   0.650   7.858 -0.0329  0.5407  0.0542
 9520SOL     OW40192   3.075   0.362  14.404  0.1900 -0.6407  0.5508
 9520SOL    HW140193   3.059   0.268  14.412 -1.7430 -0.2835  1.0226
 9520SOL    HW240194   3.103   0.380  14.314  0.1310  1.2039  0.9040
 9521SOL     OW40195   2.271   0.868   9.390 -0.2993 -0.0868 -0.2069
 9521SOL    HW140196   2.361   0.896   9.406 -0.5417  1.3351 -1.2646
 9521SOL    HW240197   2.219   0.902   9.463  0.2129  1.3085 -0.4745
 9522SOL     OW40198   1.018   2.864   1.746  0.0742 -0.4344  0.1594
 9522SOL    HW140199   0.965   2.937   1.778 -1.4316 -0.8337 -1.4466
 9522SOL    HW240200   0.980   2.862   1.659  2.3698 -2.2245 -0.8130
 9523SOL     OW40201   1.091   3.443  11.145 -0.2970 -0.2514  0.1655
 9523SOL    HW140202   1.137   3.368  11.108 -1.1560 -0.4413 -0.4947
 9523SOL    HW240203   1.083   3.434  11.240 -1.7955 -1.2724 -0.0705
 9524SOL     OW40204   1.331   4.111   2.118  0.0932  0.4846  0.5099
 9524SOL    HW140205   1.322   4.164   2.197  0.1317 -0.2042  0.9790
 9524SOL    HW240206   1.242   4.078   2.105  0.3380  0.4231 -1.0556
 9525SOL     OW40207   3.281   0.466  10.840  0.1763  0.1196  0.3587
 9525SOL    HW140208   3.321   0.553  10.831  2.1473 -0.8758 -0.2633
 9525SOL    HW240209   3.320   0.436  10.921 -1.2367 -1.4747  0.4364
 9526SOL     OW40210   0.371   4.588  13.397  0.4414  0.0229  0.0870
 9526SOL    HW140211   0.323   4.618  13.474  1.4865  0.6142  0.5041
 9526SOL    HW240212   0.458   4.626  13.410  1.7471 -2.2548 -1.9604
 9527SOL     OW40213   1.070   0.961   3.729  0.3909  0.2051 -0.4876
 9527SOL    HW140214   1.122   1.040   3.715 -1.0415  1.2595  0.1013
 9527SOL    HW240215   1.130   0.891   3.702 -0.6081 -1.8183  2.5397
 9528SOL     OW40216   1.285   3.722  12.351  0.6043 -0.3793 -0.5718
 9528SOL    HW140217   1.333   3.800  12.325  1.7087 -1.3905 -1.5525
 9528SOL    HW240218   1.262   3.693  12.262  1.2305  2.0177 -1.5202
 9529SOL     OW40219   3.694   2.405  13.649  0.0819 -0.1127  0.1048
 9529SOL    HW140220   3.651   2.408  13.563  1.5809 -3.1984 -0.7675
 9529SOL    HW240221   3.632   2.433  13.716  0.2286 -3.2858  1.5942
 9530SOL     OW40222   2.265   2.458   6.213  0.1800 -0.3280  0.5179
 9530SOL    HW140223   2.241   2.382   6.266 -1.0089  0.8510  1.6571
 9530SOL    HW240224   2.207   2.457   6.137  0.0315 -2.3178  0.6522
 9531SOL     OW40225   3.852   1.519  15.197  0.2496  0.0648  0.2629
 9531SOL    HW140226   3.884   1.538  15.109  1.2826  2.4139  1.1564
 9531SOL    HW240227   3.931   1.475  15.230 -0.0124 -1.5430 -1.2553
 9532SOL     OW40228   3.170   0.012   7.996  0.4333  0.0765 -0.4259
 9532SOL    HW140229   3.147   4.734   8.087  0.5237 -1.1696 -0.6392
 9532SOL    HW240230   3.087   0.022   7.948  0.5397 -0.7695 -0.7873
 9533SOL     OW40231   4.648   1.235   3.726  0.1534 -0.0030 -0.4825
 9533SOL    HW140232   4.711   1.203   3.790  0.8128 -1.4106 -1.8305
 9533SOL    HW240233   4.628   1.156   3.675 -2.7721  0.8539 -0.6436
 9534SOL     OW40234   2.511   1.777  17.452  0.0839 -0.2617 -0.2710
 9534SOL    HW140235   2.584   1.839  17.452 -1.4489  1.5412 -0.0579
 9534SOL    HW240236   2.553   1.701  17.491 -0.8472 -1.0158 -0.7468
 9535SOL     OW40237   2.731   4.026   6.710 -0.2530  0.3565  0.8140
 9535SOL    HW140238   2.685   3.952   6.669  1.1550  0.6027 -1.1916
 9535SOL    HW240239   2.730   4.004   6.803 -0.8394  2.0500  1.2037
 9536SOL     OW40240   2.835   2.851   0.253  0.8082  0.0965  0.2588
 9536SOL    HW140241   2.906   2.886   0.199  0.2399  1.3930  0.3557
 9536SOL    HW240242   2.837   2.909   0.329 -0.9346 -0.5417  0.7997
 9537SOL     OW40243   1.348   0.792   7.275 -0.1442 -0.2870  0.3141
 9537SOL    HW140244   1.338   0.704   7.239  2.1773 -0.5551  0.3658
 9537SOL    HW240245   1.409   0.829   7.211 -2.3170  1.3829 -0.7891
 9538SOL     OW40246   0.217   3.025   2.246 -0.2207 -0.1227  0.7406
 9538SOL    HW140247   0.205   2.931   2.262  3.1014 -0.6965 -0.3178
 9538SOL    HW240248   0.300   3.046   2.287  0.1742 -0.2371 -0.0125
 9539SOL     OW40249   0.279   2.927   2.678  0.4299  0.5857 -0.0750
 9539SOL    HW140250   0.215   2.930   2.607  0.4514 -1.0670 -0.1697
 9539SOL    HW240251   0.284   3.017   2.711  0.2867  0.9787 -1.1092
 9540SOL     OW40252   4.013   0.074   6.096  0.2252  0.1260  0.0067
 9540SOL    HW140253   3.963   0.015   6.040  2.1128 -1.0468 -0.4469
 9540SOL    HW240254   4.098   0.038   6.070  0.5230 -0.3899  1.6997
 9541SOL     OW40255   4.692   2.250   9.425  0.3482  0.2746 -0.1179
 9541SOL    HW140256   0.004   2.170   9.411  0.6539  1.0700 -3.5698
 9541SOL    HW240257   4.675   2.260   9.331  0.4556  1.9022  0.0348
 9542SOL     OW40258   2.488   2.943  15.300 -0.0860  0.0784  0.2382
 9542SOL    HW140259   2.459   2.994  15.376 -0.5040 -0.3795  0.3836
 9542SOL    HW240260   2.423   2.958  15.232 -1.0641 -2.1586  0.6975
 9543SOL     OW40261   3.480   2.918   1.398 -0.2824  0.5182 -0.4355
 9543SOL    HW140262   3.480   2.841   1.340 -2.7591  0.2838 -0.1229
 9543SOL    HW240263   3.422   2.976   1.349  0.2626  3.3188  2.2334
 9544SOL     OW40264   1.260   1.760  15.047 -0.4030 -0.4866 -0.1780
 9544SOL    HW140265   1.339   1.814  15.046 -0.1804 -0.7525  2.1580
 9544SOL    HW240266   1.291   1.692  14.987  0.9548 -0.4798  0.5023
 9545SOL     OW40267   0.352   0.794   4.379 -0.6369  0.1104 -0.1177
 9545SOL    HW140268   0.368   0.887   4.369 -0.9754  0.0842 -0.8441
 9545SOL    HW240269   0.332   0.804   4.472  0.9399  0.9540  0.1357
 9546SOL     OW40270   3.555   0.309   0.998  0.3276 -0.3202 -0.6096
 9546SOL    HW140271   3.492   0.308   1.071  1.3457 -1.2226  0.2636
 9546SOL    HW240272   3.515   0.248   0.936  0.5373 -0.2228 -0.8424
 9547SOL     OW40273   0.697   3.734  10.282  0.2315  0.3407 -0.8568
 9547SOL    HW140274   0.710   3.640  10.296 -3.3554 -0.0368  0.0166
 9547SOL    HW240275   0.711   3.767  10.370 -2.7995  0.3325 -0.3696
 9548SOL     OW40276   3.720   0.236   8.103  0.0392 -0.2789 -0.0814
 9548SOL    HW140277   3.680   0.227   8.190  4.5166 -0.6934  1.9501
 9548SOL    HW240278   3.643   0.270   8.056  0.0021 -0.9233 -0.4864
 9549SOL     OW40279   2.582   2.353   4.527  0.0909  0.5643 -0.0849
 9549SOL    HW140280   2.673   2.375   4.548 -0.4528  1.4820  1.3335
 9549SOL    HW240281   2.547   2.377   4.613  0.4853  0.6654  0.0470
 9550SOL     OW40282   3.544   1.905   3.893  0.0717 -0.1056  0.2433
 9550SOL    HW140283   3.460   1.950   3.898  1.1055  1.7470  0.8114
 9550SOL    HW240284   3.555   1.889   3.987 -1.0226 -2.4230 -0.0208
 9551SOL     OW40285   3.205   0.391   7.152 -0.8235  0.1468  0.1346
 9551SOL    HW140286   3.285   0.366   7.199 -0.8769  0.1585  0.2321
 9551SOL    HW240287   3.229   0.459   7.090  1.9677  1.7946  3.0517
 9552SOL     OW40288   0.719   2.930  11.943  0.0211 -0.4537  0.3855
 9552SOL    HW140289   0.755   2.841  11.939  0.2715 -0.3566  0.5060
 9552SOL    HW240290   0.627   2.910  11.924  0.0004 -2.0800  2.1771
 9553SOL     OW40291   4.548   4.642   9.649 -0.0060  0.0965  0.3771
 9553SOL    HW140292   4.612   4.598   9.705  1.2677 -1.3432 -2.2006
 9553SOL    HW240293   4.524   4.721   9.696  2.4078  1.2765 -0.3666
 9554SOL     OW40294   3.935   4.041  15.356  0.0420  0.2062 -0.1822
 9554SOL    HW140295   3.880   3.964  15.341  1.6216 -0.9028 -0.2996
 9554SOL    HW240296   3.891   4.105  15.299  0.5127  2.1297  1.6402
 9555SOL     OW40297   2.057   1.776   8.599  0.0736 -0.5668 -0.2022
 9555SOL    HW140298   2.059   1.794   8.506  3.2312 -1.5775 -0.3057
 9555SOL    HW240299   2.054   1.860   8.645  1.4415 -1.2759  1.1912
 9556SOL     OW40300   3.745   3.056   4.866 -0.0341 -0.0437 -0.5435
 9556SOL    HW140301   3.773   3.040   4.956 -0.0011  0.4250 -0.4700
 9556SOL    HW240302   3.829   3.070   4.821  0.2098  3.1845  0.9190
 9557SOL     OW40303   4.353   2.296   8.095  0.4767  0.4860  0.5892
 9557SOL    HW140304   4.423   2.232   8.104  1.0824  0.9523 -0.8848
 9557SOL    HW240305   4.398   2.368   8.050  3.4435 -1.5128  0.3355
 9558SOL     OW40306   3.999   2.538  17.041 -0.1569  0.9014 -0.0634
 9558SOL    HW140307   3.939   2.498  16.979  0.2829  0.1434 -0.0055
 9558SOL    HW240308   4.065   2.571  16.981  0.4053 -1.9454 -1.0232
 9559SOL     OW40309   3.583   3.242   8.992 -0.1986 -0.0414 -0.1969
 9559SOL    HW140310   3.563   3.324   8.948 -2.7585  0.6904  2.3088
 9559SOL    HW240311   3.492   3.223   9.014  0.0704  0.7764  1.5847
 9560SOL     OW40312   3.878   1.878   8.055  0.3295 -0.3641 -0.0356
 9560SOL    HW140313   3.940   1.945   8.085  0.8108 -1.8314  2.2151
 9560SOL    HW240314   3.892   1.869   7.961 -1.1579 -1.6250 -0.1368
 9561SOL     OW40315   3.548   0.622   5.369  0.3778 -0.3921  0.3275
 9561SOL    HW140316   3.613   0.597   5.304  1.8716  0.1930  1.5981
 9561SOL    HW240317   3.474   0.563   5.353  2.2006 -2.2760 -1.1520
 9562SOL     OW40318   4.151   2.250   7.903  0.1264  0.0080  0.3098
 9562SOL    HW140319   4.221   2.280   7.961 -0.6566  0.0724  1.2263
 9562SOL    HW240320   4.177   2.158   7.900  0.1094  0.0928 -1.9150
 9563SOL     OW40321   0.936   4.403   8.459  0.4816 -0.5110 -0.3940
 9563SOL    HW140322   0.930   4.338   8.530  0.9052  0.8320  0.8907
 9563SOL    HW240323   0.991   4.475   8.492  0.2758 -1.0749  1.1741
 9564SOL     OW40324   1.880   3.939   4.339  0.4229  0.5132 -0.6959
 9564SOL    HW140325   1.820   3.980   4.277 -1.5538  0.7196  1.3610
 9564SOL    HW240326   1.895   3.861   4.285  2.1007 -1.8428  3.1857
 9565SOL     OW40327   0.970   4.227   2.217 -0.2690  0.2908 -0.5182
 9565SOL    HW140328   0.931   4.145   2.187 -1.1598  0.5974 -0.2256
 9565SOL    HW240329   0.983   4.276   2.136 -0.4788  1.2806  0.0331
 9566SOL     OW40330   2.570   4.716   4.287 -0.1787 -0.2329 -0.0558
 9566SOL    HW140331   2.480   4.689   4.267  0.3164 -0.7305 -1.5700
 9566SOL    HW240332   2.560   0.064   4.249  0.3812  0.3626  1.1757
 9567SOL     OW40333   1.438   2.822   4.255  0.2102  0.6445  0.0909
 9567SOL    HW140334   1.511   2.882   4.274  1.7870 -0.3974 -2.6103
 9567SOL    HW240335   1.437   2.766   4.332  2.3161  0.3944 -0.0627
 9568SOL     OW40336   3.915   0.830   7.662  0.0931 -0.1595  0.2120
 9568SOL    HW140337   3.960   0.864   7.585 -1.5386 -1.3960 -1.2868
 9568SOL    HW240338   3.895   0.741   7.630 -1.7092  0.6352 -0.9050
 9569SOL     OW40339   2.852   0.714   9.463 -0.1265  0.3439  0.1263
 9569SOL    HW140340   2.770   0.708   9.511 -0.8168 -1.3700 -1.2650
 9569SOL    HW240341   2.837   0.656   9.388 -2.5133 -0.0916  0.9412
 9570SOL     OW40342   0.118   0.203   3.317  0.5074  0.2673  0.4560
 9570SOL    HW140343   0.185   0.139   3.341 -0.9701 -0.8083  1.6652
 9570SOL    HW240344   0.175   0.276   3.292  0.3938  0.2099  0.0152
 9571SOL     OW40345   0.527   1.527  14.411  0.0323  0.5577 -0.4007
 9571SOL    HW140346   0.504   1.529  14.504 -0.4156  1.9213 -0.5509
 9571SOL    HW240347   0.456   1.577  14.371 -2.6359 -2.3903  0.6256
   4.73947   4.73947  17.75564
